<event>
 8    1  0.3177960E-004  0.1856731E+03  0.7546771E-02  0.1166227E+00
          2   -1    0    0  501    0  0.00000000000E+00  0.00000000000E+00  0.76763863084E+03  0.76763863084E+03  0.00000000000E+00 0. -1.
         -2   -1    0    0    0  501 -0.00000000000E+00 -0.00000000000E+00 -0.41293365571E+02  0.41293365571E+02  0.00000000000E+00 0.  1.
         23    2    1    2    0    0 -0.19745315423E+02 -0.14246220486E+03  0.36532276246E+03  0.40296187599E+03  0.90731446796E+02 0.  0.
         23    2    1    2    0    0  0.19745315423E+02  0.14246220486E+03  0.36102250281E+03  0.40597012042E+03  0.11742714269E+03 0.  0.
          5    1    4    4  502    0 -0.35463520614E+02  0.70691179108E+02  0.25205247468E+03  0.26421098404E+03  0.47000000000E+01 0. -1.
         -5    1    4    4    0  502  0.55208836037E+02  0.71771025755E+02  0.10897002813E+03  0.14175913637E+03  0.47000000000E+01 0.  1.
          5    1    3    3  503    0  0.11086162412E+02 -0.21254072803E+02  0.10275529155E+02  0.26501228408E+02  0.47000000000E+01 0. -1.
         -5    1    3    3    0  503 -0.30831477836E+02 -0.12120813206E+03  0.35504723330E+03  0.37646064758E+03  0.47000000000E+01 0.  1.
<mgrwt>
<rscale>  0 0.18163808E+03</rscale>
<asrwt>0</asrwt>
<pdfrwt beam="1">  1        2 0.11809824E+00 0.18567308E+03</pdfrwt>
<pdfrwt beam="2">  1       -2 0.63528260E-02 0.18567308E+03</pdfrwt>
<totfact> 0.49834656E+03</totfact>
</mgrwt>
</event>
<event>
 8    1  0.3177960E-004  0.1053172E+03  0.7546771E-02  0.1270311E+00
          2   -1    0    0  501    0  0.00000000000E+00  0.00000000000E+00  0.35023353522E+03  0.35023353522E+03  0.00000000000E+00 0. -1.
         -2   -1    0    0    0  501 -0.00000000000E+00 -0.00000000000E+00 -0.32860710725E+02  0.32860710725E+02  0.00000000000E+00 0.  1.
         23    2    1    2    0    0  0.25073808949E+01  0.50651223920E+02  0.20086754069E+03  0.22604267513E+03  0.90419514662E+02 0.  0.
         23    2    1    2    0    0 -0.25073808949E+01 -0.50651223920E+02  0.11650528380E+03  0.15705157081E+03  0.92303203076E+02 0.  0.
          5    1    4    4  502    0 -0.30957012625E+02 -0.18601874996E+02  0.40857833065E+01  0.36649011027E+02  0.47000000000E+01 0. -1.
         -5    1    3    3    0  503 -0.18970615383E+02  0.16336185894E+02  0.49725109368E+01  0.25953248017E+02  0.47000000000E+01 0.  1.
          5    1    3    3  503    0  0.21477996278E+02  0.34315038026E+02  0.19589502976E+03  0.20008942711E+03  0.47000000000E+01 0. -1.
         -5    1    4    4    0  502  0.28449631730E+02 -0.32049348925E+02  0.11241950049E+03  0.12040255978E+03  0.47000000000E+01 0.  1.
<mgrwt>
<rscale>  0 0.10490303E+03</rscale>
<asrwt>0</asrwt>
<pdfrwt beam="1">  1        2 0.53882080E-01 0.10531721E+03</pdfrwt>
<pdfrwt beam="2">  1       -2 0.50554942E-02 0.10531721E+03</pdfrwt>
<totfact> 0.16323655E+04</totfact>
</mgrwt>
</event>
<event>
 8    1  0.3177960E-004  0.1245262E+03  0.7546771E-02  0.1235903E+00
          1   -1    0    0  501    0  0.00000000000E+00  0.00000000000E+00  0.37579735310E+03  0.37579735310E+03  0.00000000000E+00 0. -1.
         -1   -1    0    0    0  501 -0.00000000000E+00 -0.00000000000E+00 -0.41735149587E+02  0.41735149587E+02  0.00000000000E+00 0.  1.
         23    2    1    2    0    0 -0.17215959205E+02  0.83386038848E+02  0.19080879078E+03  0.22772125184E+03  0.90550279808E+02 0.  0.
         23    2    1    2    0    0  0.17215959205E+02 -0.83386038848E+02  0.14325341272E+03  0.18981125084E+03  0.90868861348E+02 0.  0.
          5    1    4    4  502    0 -0.31930069554E+02 -0.63206411756E+02  0.76150453410E+02  0.10409400263E+03  0.47000000000E+01 0. -1.
         -5    1    4    4    0  502  0.49146028759E+02 -0.20179627092E+02  0.67102959315E+02  0.85717248213E+02  0.47000000000E+01 0.  1.
          5    1    3    3  503    0  0.20385743842E+02 -0.85460310173E+01  0.54485279131E+02  0.58986005460E+02  0.47000000000E+01 0. -1.
         -5    1    3    3    0  503 -0.37601703047E+02  0.91932069866E+02  0.13632351165E+03  0.16873524638E+03  0.47000000000E+01 0.  1.
<mgrwt>
<rscale>  0 0.12446807E+03</rscale>
<asrwt>0</asrwt>
<pdfrwt beam="1">  1        1 0.57814975E-01 0.12452618E+03</pdfrwt>
<pdfrwt beam="2">  1       -1 0.64207925E-02 0.12452618E+03</pdfrwt>
<totfact> 0.75033428E+03</totfact>
</mgrwt>
</event>
<event>
 8    1  0.3177960E-004  0.1391796E+03  0.7546771E-02  0.1215086E+00
          2   -1    0    0  501    0  0.00000000000E+00  0.00000000000E+00  0.18418440230E+03  0.18418440230E+03  0.00000000000E+00 0. -1.
         -2   -1    0    0    0  501 -0.00000000000E+00 -0.00000000000E+00 -0.15676536170E+03  0.15676536170E+03  0.00000000000E+00 0.  1.
         23    2    1    2    0    0  0.32441820790E+01 -0.10295387584E+03 -0.85497977138E+02  0.16172580947E+03  0.90748598263E+02 0.  0.
         23    2    1    2    0    0 -0.32441820790E+01  0.10295387584E+03  0.11291701775E+03  0.17922395453E+03  0.93599934353E+02 0.  0.
          5    1    4    4  502    0 -0.42800176700E+02  0.63930267252E+02  0.91129292828E+02  0.11935481644E+03  0.47000000000E+01 0. -1.
         -5    1    3    3    0  503 -0.31175057452E+02 -0.96924876234E+02 -0.60839751934E+02  0.11870080562E+03  0.47000000000E+01 0.  1.
          5    1    3    3  503    0  0.34419239531E+02 -0.60289996106E+01 -0.24658225204E+02  0.43025003852E+02  0.47000000000E+01 0. -1.
         -5    1    4    4    0  502  0.39555994621E+02  0.39023608593E+02  0.21787724918E+02  0.59869138086E+02  0.47000000000E+01 0.  1.
<mgrwt>
<rscale>  0 0.13870185E+03</rscale>
<asrwt>0</asrwt>
<pdfrwt beam="1">  1        2 0.28336062E-01 0.13917964E+03</pdfrwt>
<pdfrwt beam="2">  1       -2 0.24117748E-01 0.13917964E+03</pdfrwt>
<totfact> 0.27421137E+03</totfact>
</mgrwt>
</event>
<event>
 8    1  0.3177960E-004  0.1001183E+03  0.7546771E-02  0.1284143E+00
          2   -1    0    0  501    0  0.00000000000E+00  0.00000000000E+00  0.60631987194E+03  0.60631987194E+03  0.00000000000E+00 0. -1.
         -2   -1    0    0    0  501 -0.00000000000E+00 -0.00000000000E+00 -0.16401409973E+02  0.16401409973E+02  0.00000000000E+00 0.  1.
         23    2    1    2    0    0 -0.47495043143E+01 -0.16831817251E+02  0.22573939533E+03  0.24694521819E+03  0.98578893890E+02 0.  0.
         23    2    1    2    0    0  0.47495043143E+01  0.16831817251E+02  0.36417906663E+03  0.37577606372E+03  0.90969168546E+02 0.  0.
          5    1    4    4  502    0 -0.42378922554E+02  0.15110398896E+02  0.17598185636E+03  0.18170305721E+03  0.47000000000E+01 0. -1.
         -5    1    4    4    0  502  0.47128426868E+02  0.17214183554E+01  0.18819721027E+03  0.19407300651E+03  0.47000000000E+01 0.  1.
          5    1    3    3  503    0 -0.15440238499E+02 -0.51584260482E+02  0.79175422389E+02  0.95865397329E+02  0.47000000000E+01 0. -1.
         -5    1    3    3    0  503  0.10690734185E+02  0.34752443231E+02  0.14656397294E+03  0.15107982086E+03  0.47000000000E+01 0.  1.
<mgrwt>
<rscale>  0 0.98192618E+02</rscale>
<asrwt>0</asrwt>
<pdfrwt beam="1">  1        2 0.93279963E-01 0.10011826E+03</pdfrwt>
<pdfrwt beam="2">  1       -2 0.25232943E-02 0.10011826E+03</pdfrwt>
<totfact> 0.24946817E+04</totfact>
</mgrwt>
</event>
<event>
 8    1  0.3177960E-004  0.1073728E+03  0.7546771E-02  0.1269279E+00
         -1   -1    0    0    0  501 -0.00000000000E+00  0.00000000000E+00  0.34127012131E+02  0.34127012131E+02  0.00000000000E+00 0.  1.
          1   -1    0    0  501    0  0.00000000000E+00 -0.00000000000E+00 -0.10785197363E+04  0.10785197363E+04  0.00000000000E+00 0. -1.
         23    2    1    2    0    0  0.77419827710E+01 -0.40458557744E+02 -0.48462644481E+02  0.11094537708E+03  0.90903331034E+02 0.  0.
         23    2    1    2    0    0 -0.77419827710E+01  0.40458557744E+02 -0.99593007969E+03  0.10017013714E+04  0.99156848235E+02 0.  0.
          5    1    4    4  502    0 -0.50439901736E+02  0.39654749654E+02 -0.61548460734E+03  0.61883768043E+03  0.47000000000E+01 0. -1.
         -5    1    4    4    0  502  0.42697918965E+02  0.80380808931E+00 -0.38044547235E+03  0.38286369092E+03  0.47000000000E+01 0.  1.
          5    1    3    3  503    0 -0.45992270292E+01  0.22481845987E+02  0.86156144365E+01  0.24958066839E+02  0.47000000000E+01 0.  1.
         -5    1    3    3    0  503  0.12341209800E+02 -0.62940403730E+02 -0.57078258917E+02  0.85987310239E+02  0.47000000000E+01 0. -1.
<mgrwt>
<rscale>  0 0.10542762E+03</rscale>
<asrwt>0</asrwt>
<pdfrwt beam="1">  1        1 0.16592611E+00 0.10737278E+03</pdfrwt>
<pdfrwt beam="2">  1       -1 0.52503097E-02 0.10737278E+03</pdfrwt>
<totfact> 0.22559962E+03</totfact>
</mgrwt>
</event>
<event>
 8    1  0.3177960E-004  0.1043885E+03  0.7546771E-02  0.1272503E+00
         -3   -1    0    0    0  501 -0.00000000000E+00  0.00000000000E+00  0.75024058179E+02  0.75024058179E+02  0.00000000000E+00 0.  1.
          3   -1    0    0  501    0  0.00000000000E+00 -0.00000000000E+00 -0.20410990913E+03  0.20410990913E+03  0.00000000000E+00 0. -1.
         23    2    1    2    0    0  0.43659136807E+02 -0.20872169360E+02 -0.14202859927E+03  0.17626422109E+03  0.92494242782E+02 0.  0.
         23    2    1    2    0    0 -0.43659136807E+02  0.20872169360E+02  0.12942748313E+02  0.10286974622E+03  0.89849330951E+02 0.  0.
          5    1    3    3  502    0 -0.90978824610E+01 -0.41743539659E+02 -0.36626600665E+02  0.56470279305E+02  0.47000000000E+01 0. -1.
         -5    1    4    4    0  503  0.16702739361E+02  0.35092249014E+02  0.10931089287E+02  0.40645124628E+02  0.47000000000E+01 0.  1.
          5    1    4    4  503    0 -0.60361876168E+02 -0.14220079654E+02  0.20116590255E+01  0.62224621589E+02  0.47000000000E+01 0. -1.
         -5    1    3    3    0  502  0.52757019268E+02  0.20871370299E+02 -0.10540199860E+03  0.11979394179E+03  0.47000000000E+01 0.  1.
<mgrwt>
<rscale>  0 0.10379946E+03</rscale>
<asrwt>0</asrwt>
<pdfrwt beam="1">  1        3 0.31401524E-01 0.10438847E+03</pdfrwt>
<pdfrwt beam="2">  1       -3 0.11542163E-01 0.10438847E+03</pdfrwt>
<totfact> 0.12576836E+03</totfact>
</mgrwt>
</event>
<event>
 8    1  0.3177960E-004  0.9542973E+02  0.7546771E-02  0.1291592E+00
         -3   -1    0    0    0  501 -0.00000000000E+00  0.00000000000E+00  0.57205157377E+02  0.57205157377E+02  0.00000000000E+00 0.  1.
          3   -1    0    0  501    0  0.00000000000E+00 -0.00000000000E+00 -0.18706864123E+03  0.18706864123E+03  0.00000000000E+00 0. -1.
         23    2    1    2    0    0 -0.20483888008E+02 -0.18929000194E+02 -0.11467381203E+03  0.14764275504E+03  0.88715293114E+02 0.  0.
         23    2    1    2    0    0  0.20483888008E+02  0.18929000194E+02 -0.15189671821E+02  0.96631043571E+02  0.91263003103E+02 0.  0.
          5    1    3    3  502    0 -0.41553267503E+02 -0.43267937463E+02 -0.68767946459E+02  0.91377836003E+02  0.47000000000E+01 0. -1.
         -5    1    4    4    0  503  0.45796799806E+01  0.36554621205E+02 -0.44927174572E+02  0.58290263468E+02  0.47000000000E+01 0.  1.
          5    1    4    4  503    0  0.15904208028E+02 -0.17625621011E+02  0.29737502751E+02  0.38340780103E+02  0.47000000000E+01 0. -1.
         -5    1    3    3    0  502  0.21069379495E+02  0.24338937269E+02 -0.45905865574E+02  0.56264919033E+02  0.47000000000E+01 0.  1.
<mgrwt>
<rscale>  0 0.94815447E+02</rscale>
<asrwt>0</asrwt>
<pdfrwt beam="1">  1        3 0.28779791E-01 0.95429725E+02</pdfrwt>
<pdfrwt beam="2">  1       -3 0.88007935E-02 0.95429725E+02</pdfrwt>
<totfact> 0.22648974E+03</totfact>
</mgrwt>
</event>
<event>
 8    1  0.3177960E-004  0.1140168E+03  0.7546771E-02  0.1253954E+00
          1   -1    0    0  501    0  0.00000000000E+00  0.00000000000E+00  0.57259367589E+02  0.57259367589E+02  0.00000000000E+00 0. -1.
         -1   -1    0    0    0  501 -0.00000000000E+00 -0.00000000000E+00 -0.24370513351E+03  0.24370513351E+03  0.00000000000E+00 0.  1.
         23    2    1    2    0    0  0.50088667465E+02  0.45378583837E+02 -0.13640199722E+03  0.17777887739E+03  0.91824473432E+02 0.  0.
         23    2    1    2    0    0 -0.50088667465E+02 -0.45378583837E+02 -0.50043768697E+02  0.12318562371E+03  0.90012380387E+02 0.  0.
          5    1    4    4  502    0 -0.21820212476E+02 -0.40951762281E+02  0.17394497302E+02  0.49777776595E+02  0.47000000000E+01 0. -1.
         -5    1    4    4    0  502 -0.28268454989E+02 -0.44268215565E+01 -0.67438265998E+02  0.73407847111E+02  0.47000000000E+01 0.  1.
          5    1    3    3  503    0  0.20199942008E+02 -0.87819536349E-01  0.88876854590E+01  0.22563827739E+02  0.47000000000E+01 0. -1.
         -5    1    3    3    0  503  0.29888725456E+02  0.45466403373E+02 -0.14528968268E+03  0.15521504966E+03  0.47000000000E+01 0.  1.
<mgrwt>
<rscale>  0 0.11365146E+03</rscale>
<asrwt>0</asrwt>
<pdfrwt beam="1">  1        1 0.88091335E-02 0.11401677E+03</pdfrwt>
<pdfrwt beam="2">  1       -1 0.37493097E-01 0.11401677E+03</pdfrwt>
<totfact> 0.49762897E+03</totfact>
</mgrwt>
</event>
<event>
 8    1  0.3177960E-004  0.9866094E+02  0.7546771E-02  0.1283557E+00
         -1   -1    0    0    0  501 -0.00000000000E+00  0.00000000000E+00  0.53729199455E+02  0.53729199455E+02  0.00000000000E+00 0.  1.
          1   -1    0    0  501    0  0.00000000000E+00 -0.00000000000E+00 -0.58801529629E+03  0.58801529629E+03  0.00000000000E+00 0. -1.
         23    2    1    2    0    0 -0.18163353975E+02  0.30267569270E+02 -0.95755478739E-01  0.98660985496E+02  0.92130058682E+02 0.  0.
         23    2    1    2    0    0  0.18163353975E+02 -0.30267569270E+02 -0.53419034136E+03  0.54308351025E+03  0.91292634587E+02 0.  0.
          5    1    3    3  502    0  0.28942693021E+02  0.13006885599E+02 -0.26650327388E+02  0.41703579009E+02  0.47000000000E+01 0. -1.
         -5    1    4    4    0  503 -0.22024482625E+02 -0.45963910414E+02 -0.35726846430E+03  0.36091634000E+03  0.47000000000E+01 0.  1.
          5    1    4    4  503    0  0.40187836599E+02  0.15696341144E+02 -0.17692187706E+03  0.18216717025E+03  0.47000000000E+01 0. -1.
         -5    1    3    3    0  502 -0.47106046996E+02  0.17260683671E+02  0.26554571909E+02  0.56957406487E+02  0.47000000000E+01 0.  1.
<mgrwt>
<rscale>  0 0.98464973E+02</rscale>
<asrwt>0</asrwt>
<pdfrwt beam="1">  1        1 0.90463887E-01 0.98660939E+02</pdfrwt>
<pdfrwt beam="2">  1       -1 0.82660311E-02 0.98660939E+02</pdfrwt>
<totfact> 0.28577350E+03</totfact>
</mgrwt>
</event>
<event>
 8    1  0.3177960E-004  0.9336122E+02  0.7546771E-02  0.1295915E+00
         -1   -1    0    0    0  501 -0.00000000000E+00  0.00000000000E+00  0.50257703147E+02  0.50257703147E+02  0.00000000000E+00 0.  1.
          1   -1    0    0  501    0  0.00000000000E+00 -0.00000000000E+00 -0.17294977885E+03  0.17294977885E+03  0.00000000000E+00 0. -1.
         23    2    1    2    0    0 -0.24569548850E+02  0.18479587279E+02 -0.75870741393E+02  0.12030248320E+03  0.88154184177E+02 0.  0.
         23    2    1    2    0    0  0.24569548850E+02 -0.18479587279E+02 -0.46821334307E+02  0.10290499879E+03  0.86325219685E+02 0.  0.
          5    1    4    4  502    0  0.53336715816E+02  0.26101504171E+01 -0.17190157349E+02  0.56295733843E+02  0.47000000000E+01 0. -1.
         -5    1    4    4    0  502 -0.28767166966E+02 -0.21089737697E+02 -0.29631176958E+02  0.46609264951E+02  0.47000000000E+01 0.  1.
          5    1    3    3  503    0  0.27331453709E+02  0.15191459466E+02 -0.56235096516E+02  0.64515617355E+02  0.47000000000E+01 0. -1.
         -5    1    3    3    0  503 -0.51901002559E+02  0.32881278130E+01 -0.19635644877E+02  0.55786865845E+02  0.47000000000E+01 0.  1.
<mgrwt>
<rscale>  0 0.92926958E+02</rscale>
<asrwt>0</asrwt>
<pdfrwt beam="1">  1        1 0.26607658E-01 0.93361224E+02</pdfrwt>
<pdfrwt beam="2">  1       -1 0.77319543E-02 0.93361224E+02</pdfrwt>
<totfact> 0.14445773E+04</totfact>
</mgrwt>
</event>
<event>
 8    1  0.3177960E-004  0.1463612E+03  0.7546771E-02  0.1207404E+00
         -2   -1    0    0    0  501 -0.00000000000E+00  0.00000000000E+00  0.36447646674E+02  0.36447646674E+02  0.00000000000E+00 0.  1.
          2   -1    0    0  501    0  0.00000000000E+00 -0.00000000000E+00 -0.73877925703E+03  0.73877925703E+03  0.00000000000E+00 0. -1.
         23    2    1    2    0    0 -0.34805279279E+02  0.95918670982E+02 -0.16665942256E+03  0.22180390997E+03  0.10492765337E+03 0.  0.
         23    2    1    2    0    0  0.34805279279E+02 -0.95918670982E+02 -0.53567218780E+03  0.55342299373E+03  0.94448495523E+02 0.  0.
          5    1    4    4  502    0  0.63896538664E+02 -0.39332598142E+02 -0.29798348312E+03  0.30732078865E+03  0.47000000000E+01 0. -1.
         -5    1    4    4    0  502 -0.29091259385E+02 -0.56586072840E+02 -0.23768870468E+03  0.24610220508E+03  0.47000000000E+01 0.  1.
          5    1    3    3  503    0  0.22389037307E+02  0.32645849770E+02 -0.11561342821E+03  0.12229298950E+03  0.47000000000E+01 0. -1.
         -5    1    3    3    0  503 -0.57194316586E+02  0.63272821211E+02 -0.51045994354E+02  0.99510920473E+02  0.47000000000E+01 0.  1.
<mgrwt>
<rscale>  0 0.14449574E+03</rscale>
<asrwt>0</asrwt>
<pdfrwt beam="1">  1        2 0.11365834E+00 0.14636124E+03</pdfrwt>
<pdfrwt beam="2">  1       -2 0.56073307E-02 0.14636124E+03</pdfrwt>
<totfact> 0.62523790E+03</totfact>
</mgrwt>
</event>
<event>
 8    1  0.3177960E-004  0.9781012E+02  0.7546771E-02  0.1285425E+00
         -2   -1    0    0    0  501 -0.00000000000E+00  0.00000000000E+00  0.81369282609E+02  0.81369282609E+02  0.00000000000E+00 0.  1.
          2   -1    0    0  501    0  0.00000000000E+00 -0.00000000000E+00 -0.11907403020E+03  0.11907403020E+03  0.00000000000E+00 0. -1.
         23    2    1    2    0    0 -0.21428534719E+02 -0.23598389414E+02 -0.42369036758E+01  0.97065769679E+02  0.91584639583E+02 0.  0.
         23    2    1    2    0    0  0.21428534719E+02  0.23598389414E+02 -0.33467843913E+02  0.10337754313E+03  0.92470285843E+02 0.  0.
          5    1    4    4  502    0  0.55496265723E+02  0.29214274623E+02 -0.23431358442E+02  0.67115034899E+02  0.47000000000E+01 0. -1.
         -5    1    4    4    0  502 -0.34067731004E+02 -0.56158852099E+01 -0.10036485470E+02  0.36262508229E+02  0.47000000000E+01 0.  1.
          5    1    3    3  503    0  0.22809273589E+02 -0.20856523580E+02 -0.31853950825E+02  0.44632070540E+02  0.47000000000E+01 0. -1.
         -5    1    3    3    0  503 -0.44237808308E+02 -0.27418658337E+01  0.27617047149E+02  0.52433699139E+02  0.47000000000E+01 0.  1.
<mgrwt>
<rscale>  0 0.97600230E+02</rscale>
<asrwt>0</asrwt>
<pdfrwt beam="1">  1        2 0.18319081E-01 0.97810121E+02</pdfrwt>
<pdfrwt beam="2">  1       -2 0.12518351E-01 0.97810121E+02</pdfrwt>
<totfact> 0.12872073E+04</totfact>
</mgrwt>
</event>
<event>
 8    1  0.9859826E-004  0.1234596E+03  0.7546771E-02  0.1238176E+00
          2   -1    0    0  501    0  0.00000000000E+00  0.00000000000E+00  0.78123808061E+03  0.78123808061E+03  0.00000000000E+00 0. -1.
         -2   -1    0    0    0  501 -0.00000000000E+00 -0.00000000000E+00 -0.10605775005E+03  0.10605775005E+03  0.00000000000E+00 0.  1.
         23    2    1    2    0    0 -0.67523460964E+02  0.45075683577E+02  0.73939975856E+03  0.74963609378E+03  0.93010940781E+02 0.  0.
         23    2    1    2    0    0  0.67523460964E+02 -0.45075683577E+02 -0.64219428004E+02  0.13765973688E+03  0.90745981693E+02 0.  0.
          5    1    4    4  502    0  0.45235785957E+02  0.19399329042E+02 -0.10125082460E+02  0.50469967241E+02  0.47000000000E+01 0. -1.
         -5    1    3    3    0  503  0.10242480168E+02 -0.19152687359E+02  0.11540573983E+03  0.11752577853E+03  0.47000000000E+01 0.  1.
          5    1    3    3  503    0 -0.77765941131E+02  0.64228370936E+02  0.62399401873E+03  0.63211031525E+03  0.47000000000E+01 0. -1.
         -5    1    4    4    0  502  0.22287675006E+02 -0.64475012619E+02 -0.54094345544E+02  0.87189769636E+02  0.47000000000E+01 0.  1.
<mgrwt>
<rscale>  0 0.12303307E+03</rscale>
<asrwt>0</asrwt>
<pdfrwt beam="1">  1        2 0.12019047E+00 0.12345959E+03</pdfrwt>
<pdfrwt beam="2">  1       -2 0.16316577E-01 0.12345959E+03</pdfrwt>
<totfact> 0.10867819E+03</totfact>
</mgrwt>
</event>
<event>
 8    1  0.3177960E-004  0.2581563E+03  0.7546771E-02  0.1108492E+00
         -2   -1    0    0    0  501 -0.00000000000E+00  0.00000000000E+00  0.12912647091E+03  0.12912647091E+03  0.00000000000E+00 0.  1.
          2   -1    0    0  501    0  0.00000000000E+00 -0.00000000000E+00 -0.52094410358E+03  0.52094410358E+03  0.00000000000E+00 0. -1.
         23    2    1    2    0    0  0.83480694632E+02 -0.22637495347E+03 -0.23655707375E+03  0.35014843648E+03  0.91815208419E+02 0.  0.
         23    2    1    2    0    0 -0.83480694632E+02  0.22637495347E+03 -0.15526055892E+03  0.29992213801E+03  0.87365907411E+02 0.  0.
          5    1    3    3  502    0  0.13004028861E+02 -0.16049693641E+02 -0.68826506017E+02  0.72013022177E+02  0.47000000000E+01 0. -1.
         -5    1    3    3    0  502  0.70476665771E+02 -0.21032525982E+03 -0.16773056773E+03  0.27813541430E+03  0.47000000000E+01 0.  1.
          5    1    4    4  503    0 -0.85516979193E+02  0.17315438855E+03 -0.15296547427E+03  0.24640641697E+03  0.47000000000E+01 0. -1.
         -5    1    4    4    0  503  0.20362845612E+01  0.53220564913E+02 -0.22950846493E+01  0.53515721036E+02  0.47000000000E+01 0.  1.
<mgrwt>
<rscale>  0 0.25776825E+03</rscale>
<asrwt>0</asrwt>
<pdfrwt beam="1">  1        2 0.80145248E-01 0.25815631E+03</pdfrwt>
<pdfrwt beam="2">  1       -2 0.19865611E-01 0.25815631E+03</pdfrwt>
<totfact> 0.12636186E+03</totfact>
</mgrwt>
</event>
<event>
 8    1  0.3177960E-004  0.9265117E+02  0.7546771E-02  0.1296744E+00
          1   -1    0    0  501    0  0.00000000000E+00  0.00000000000E+00  0.12765082186E+03  0.12765082186E+03  0.00000000000E+00 0. -1.
         -1   -1    0    0    0  501 -0.00000000000E+00 -0.00000000000E+00 -0.91959193923E+02  0.91959193923E+02  0.00000000000E+00 0.  1.
         23    2    1    2    0    0 -0.13496419455E+02 -0.39250651397E+01 -0.39367198479E+02  0.10037047885E+03  0.91251834138E+02 0.  0.
         23    2    1    2    0    0  0.13496419455E+02  0.39250651397E+01  0.75058826415E+02  0.11923953693E+03  0.91578819990E+02 0.  0.
          5    1    4    4  502    0  0.48855187918E+02 -0.43686123088E+01  0.20142885483E+02  0.53232884532E+02  0.47000000000E+01 0. -1.
         -5    1    3    3    0  503 -0.36459206138E+02  0.19348007414E+02 -0.50612906022E+02  0.65478052500E+02  0.47000000000E+01 0.  1.
          5    1    3    3  503    0  0.22962786683E+02 -0.23273072554E+02  0.11245707543E+02  0.34892426348E+02  0.47000000000E+01 0. -1.
         -5    1    4    4    0  502 -0.35358768462E+02  0.82936774485E+01  0.54915940933E+02  0.66006652402E+02  0.47000000000E+01 0.  1.
<mgrwt>
<rscale>  0 0.92570269E+02</rscale>
<asrwt>0</asrwt>
<pdfrwt beam="1">  1        1 0.19638588E-01 0.92651172E+02</pdfrwt>
<pdfrwt beam="2">  1       -1 0.14147568E-01 0.92651172E+02</pdfrwt>
<totfact> 0.84368088E+03</totfact>
</mgrwt>
</event>
<event>
 8    1  0.3177960E-004  0.1316895E+03  0.7546771E-02  0.1225382E+00
          1   -1    0    0  501    0  0.00000000000E+00  0.00000000000E+00  0.14001983607E+04  0.14001983607E+04  0.00000000000E+00 0. -1.
         -1   -1    0    0    0  501 -0.00000000000E+00 -0.00000000000E+00 -0.23907951131E+02  0.23907951131E+02  0.00000000000E+00 0.  1.
         23    2    1    2    0    0 -0.32779445651E+01 -0.96464589895E+02  0.11832120864E+04  0.11903941680E+04  0.87927650544E+02 0.  0.
         23    2    1    2    0    0  0.32779445651E+01  0.96464589895E+02  0.19307832316E+03  0.23371214385E+03  0.89587751853E+02 0.  0.
          5    1    3    3  502    0 -0.45329752850E+02 -0.53106518522E+02  0.63056442991E+03  0.63443571705E+03  0.47000000000E+01 0. -1.
         -5    1    4    4    0  503 -0.23933886535E+02  0.31727619137E+02  0.15892010249E+02  0.43059478986E+02  0.47000000000E+01 0.  1.
          5    1    4    4  503    0  0.27211831100E+02  0.64736970757E+02  0.17718631291E+03  0.19065266486E+03  0.47000000000E+01 0. -1.
         -5    1    3    3    0  502  0.42051808285E+02 -0.43358071372E+02  0.55264765652E+03  0.55595845095E+03  0.47000000000E+01 0.  1.
<mgrwt>
<rscale>  0 0.13140769E+03</rscale>
<asrwt>0</asrwt>
<pdfrwt beam="1">  1        1 0.21541507E+00 0.13168951E+03</pdfrwt>
<pdfrwt beam="2">  1       -1 0.36781474E-02 0.13168951E+03</pdfrwt>
<totfact> 0.23135716E+03</totfact>
</mgrwt>
</event>
<event>
 8    1  0.3177960E-004  0.1122637E+03  0.7546771E-02  0.1256649E+00
          2   -1    0    0  501    0  0.00000000000E+00  0.00000000000E+00  0.15363699209E+03  0.15363699209E+03  0.00000000000E+00 0. -1.
         -2   -1    0    0    0  501 -0.00000000000E+00 -0.00000000000E+00 -0.17672332879E+03  0.17672332879E+03  0.00000000000E+00 0.  1.
         23    2    1    2    0    0 -0.54527097841E+02 -0.33401209242E+02 -0.13266428108E+03  0.17348308990E+03  0.91693652072E+02 0.  0.
         23    2    1    2    0    0  0.54527097841E+02  0.33401209242E+02  0.10957794439E+03  0.15687723098E+03  0.92272934952E+02 0.  0.
          5    1    3    3  502    0  0.25048592798E+02 -0.24938183154E+01 -0.39103856386E+02  0.46742408102E+02  0.47000000000E+01 0. -1.
         -5    1    3    3    0  502 -0.79575690639E+02 -0.30907390927E+02 -0.93560424693E+02  0.12674068180E+03  0.47000000000E+01 0.  1.
          5    1    4    4  503    0  0.55297599737E+02 -0.99512838461E-03  0.10992007901E+03  0.12313544700E+03  0.47000000000E+01 0. -1.
         -5    1    4    4    0  503 -0.77050189592E+00  0.33402204371E+02 -0.34213462258E+00  0.33741783979E+02  0.47000000000E+01 0.  1.
<mgrwt>
<rscale>  0 0.11214461E+03</rscale>
<asrwt>0</asrwt>
<pdfrwt beam="1">  1        2 0.23636460E-01 0.11226371E+03</pdfrwt>
<pdfrwt beam="2">  1       -2 0.27188205E-01 0.11226371E+03</pdfrwt>
<totfact> 0.26835219E+03</totfact>
</mgrwt>
</event>
<event>
 8    1  0.3177960E-004  0.9281438E+02  0.7546771E-02  0.1300906E+00
         -1   -1    0    0    0  501 -0.00000000000E+00  0.00000000000E+00  0.34786932208E+02  0.34786932208E+02  0.00000000000E+00 0.  1.
          1   -1    0    0  501    0  0.00000000000E+00 -0.00000000000E+00 -0.36585657560E+03  0.36585657560E+03  0.00000000000E+00 0. -1.
         23    2    1    2    0    0 -0.26775445725E+01  0.38958791115E+01 -0.28422801661E+03  0.29667886537E+03  0.84914289802E+02 0.  0.
         23    2    1    2    0    0  0.26775445725E+01 -0.38958791115E+01 -0.46841626789E+02  0.10396464244E+03  0.92693914360E+02 0.  0.
          5    1    4    4  502    0 -0.37380345464E+01  0.26866706261E+02 -0.62682010818E+02  0.68461064028E+02  0.47000000000E+01 0. -1.
         -5    1    4    4    0  502  0.64155791189E+01 -0.30762585373E+02  0.15840384029E+02  0.35503578417E+02  0.47000000000E+01 0.  1.
          5    1    3    3  503    0 -0.40377892273E+02  0.11378558966E+02 -0.19318810563E+03  0.19774625140E+03  0.47000000000E+01 0. -1.
         -5    1    3    3    0  503  0.37700347700E+02 -0.74826798544E+01 -0.91039910978E+02  0.98932613962E+02  0.47000000000E+01 0.  1.
<mgrwt>
<rscale>  0 0.90808109E+02</rscale>
<asrwt>0</asrwt>
<pdfrwt beam="1">  1        1 0.56285627E-01 0.92814379E+02</pdfrwt>
<pdfrwt beam="2">  1       -1 0.53518358E-02 0.92814379E+02</pdfrwt>
<totfact> 0.99311215E+03</totfact>
</mgrwt>
</event>
<event>
 8    1  0.3177960E-004  0.1319123E+03  0.7546771E-02  0.1225612E+00
         -1   -1    0    0    0  501 -0.00000000000E+00  0.00000000000E+00  0.19454633317E+03  0.19454633317E+03  0.00000000000E+00 0.  1.
          1   -1    0    0  501    0  0.00000000000E+00 -0.00000000000E+00 -0.11026715545E+03  0.11026715545E+03  0.00000000000E+00 0. -1.
         23    2    1    2    0    0 -0.50362256127E+02  0.78973186181E+02 -0.27186374858E+02  0.13211308887E+03  0.89115926160E+02 0.  0.
         23    2    1    2    0    0  0.50362256127E+02 -0.78973186181E+02  0.11146555258E+03  0.17270039974E+03  0.92885616117E+02 0.  0.
          5    1    3    3  502    0 -0.71025045840E+02  0.35389350955E+02 -0.25999527897E+02  0.83636288467E+02  0.47000000000E+01 0. -1.
         -5    1    3    3    0  502  0.20662789713E+02  0.43583835226E+02 -0.11868469604E+01  0.48476800404E+02  0.47000000000E+01 0.  1.
          5    1    4    4  503    0  0.27663141387E+02  0.45474684774E+01 -0.35872699179E+01  0.28651132027E+02  0.47000000000E+01 0. -1.
         -5    1    4    4    0  503  0.22699114740E+02 -0.83520654658E+02  0.11505282250E+03  0.14404926771E+03  0.47000000000E+01 0.  1.
<mgrwt>
<rscale>  0 0.13125068E+03</rscale>
<asrwt>0</asrwt>
<pdfrwt beam="1">  1        1 0.16964178E-01 0.13191231E+03</pdfrwt>
<pdfrwt beam="2">  1       -1 0.29930205E-01 0.13191231E+03</pdfrwt>
<totfact> 0.31294201E+03</totfact>
</mgrwt>
</event>
<event>
 8    1  0.3177960E-004  0.1006802E+03  0.7546771E-02  0.1280360E+00
         -1   -1    0    0    0  501 -0.00000000000E+00  0.00000000000E+00  0.40750603450E+03  0.40750603450E+03  0.00000000000E+00 0.  1.
          1   -1    0    0  501    0  0.00000000000E+00 -0.00000000000E+00 -0.28858139271E+02  0.28858139271E+02  0.00000000000E+00 0. -1.
         23    2    1    2    0    0  0.22501460881E+02 -0.27589833224E+02  0.27487448321E+03  0.29177712738E+03  0.91161372857E+02 0.  0.
         23    2    1    2    0    0 -0.22501460881E+02  0.27589833224E+02  0.10377341202E+03  0.14458704639E+03  0.94175253139E+02 0.  0.
          5    1    4    4  502    0  0.29611698164E+02  0.36182895915E+02  0.57069364023E+02  0.73926023395E+02  0.47000000000E+01 0. -1.
         -5    1    4    4    0  502 -0.52113159045E+02 -0.85930626904E+01  0.46704047994E+02  0.70661022998E+02  0.47000000000E+01 0.  1.
          5    1    3    3  503    0  0.46168131748E+02  0.12744443596E+02  0.17325704297E+03  0.17981660149E+03  0.47000000000E+01 0. -1.
         -5    1    3    3    0  503 -0.23666670867E+02 -0.40334276820E+02  0.10161744024E+03  0.11196052589E+03  0.47000000000E+01 0.  1.
<mgrwt>
<rscale>  0 0.99969321E+02</rscale>
<asrwt>0</asrwt>
<pdfrwt beam="1">  1        1 0.44397140E-02 0.10068015E+03</pdfrwt>
<pdfrwt beam="2">  1       -1 0.62693232E-01 0.10068015E+03</pdfrwt>
<totfact> 0.48942612E+03</totfact>
</mgrwt>
</event>
<event>
 8    1  0.3177960E-004  0.9571008E+02  0.7546771E-02  0.1289649E+00
         -1   -1    0    0    0  501 -0.00000000000E+00  0.00000000000E+00  0.30838063658E+02  0.30838063658E+02  0.00000000000E+00 0.  1.
          1   -1    0    0  501    0  0.00000000000E+00 -0.00000000000E+00 -0.37488015404E+03  0.37488015404E+03  0.00000000000E+00 0. -1.
         23    2    1    2    0    0  0.16998649619E+01  0.25958424644E+02 -0.26458269519E+03  0.28132281851E+03  0.91988022406E+02 0.  0.
         23    2    1    2    0    0 -0.16998649619E+01 -0.25958424644E+02 -0.79459395187E+02  0.12439539919E+03  0.92106951448E+02 0.  0.
          5    1    3    3  502    0  0.45679139834E+02  0.21463112932E+02 -0.12727918754E+03  0.13700120661E+03  0.47000000000E+01 0. -1.
         -5    1    4    4    0  503 -0.21619111313E+02  0.34204863558E+01  0.12550107223E+02  0.25664779215E+02  0.47000000000E+01 0.  1.
          5    1    4    4  503    0  0.19919246351E+02 -0.29378911000E+02 -0.92009502409E+02  0.98730619973E+02  0.47000000000E+01 0. -1.
         -5    1    3    3    0  502 -0.43979274872E+02  0.44953117114E+01 -0.13730350765E+03  0.14432161189E+03  0.47000000000E+01 0.  1.
<mgrwt>
<rscale>  0 0.95681458E+02</rscale>
<asrwt>0</asrwt>
<pdfrwt beam="1">  1        1 0.57673870E-01 0.95710082E+02</pdfrwt>
<pdfrwt beam="2">  1       -1 0.47443175E-02 0.95710082E+02</pdfrwt>
<totfact> 0.11527069E+04</totfact>
</mgrwt>
</event>
<event>
 8    1  0.3177960E-004  0.1087727E+03  0.7546771E-02  0.1263062E+00
         -1   -1    0    0    0  501 -0.00000000000E+00  0.00000000000E+00  0.99902342293E+01  0.99902342293E+01  0.00000000000E+00 0.  1.
          1   -1    0    0  501    0  0.00000000000E+00 -0.00000000000E+00 -0.13803902185E+04  0.13803902185E+04  0.00000000000E+00 0. -1.
         23    2    1    2    0    0 -0.57372288836E+02  0.15380830946E+02 -0.95146991779E+03  0.95766722080E+03  0.91122729583E+02 0.  0.
         23    2    1    2    0    0  0.57372288836E+02 -0.15380830946E+02 -0.41893006645E+03  0.43271323190E+03  0.90610104285E+02 0.  0.
          5    1    3    3  502    0 -0.41040432337E+02 -0.35405758400E+02 -0.42101643765E+03  0.42451715582E+03  0.47000000000E+01 0. -1.
         -5    1    3    3    0  502 -0.16331856499E+02  0.50786589345E+02 -0.53045348014E+03  0.53315006498E+03  0.47000000000E+01 0.  1.
          5    1    4    4  503    0  0.32190909126E+02 -0.36044342181E+02 -0.37334422606E+03  0.37648831371E+03  0.47000000000E+01 0. -1.
         -5    1    4    4    0  503  0.25181379710E+02  0.20663511235E+02 -0.45585840397E+02  0.56224918189E+02  0.47000000000E+01 0.  1.
<mgrwt>
<rscale>  0 0.10866528E+03</rscale>
<asrwt>0</asrwt>
<pdfrwt beam="1">  1        1 0.21236758E+00 0.10877270E+03</pdfrwt>
<pdfrwt beam="2">  1       -1 0.15369602E-02 0.10877270E+03</pdfrwt>
<totfact> 0.83520661E+03</totfact>
</mgrwt>
</event>
<event>
 8    1  0.3177960E-004  0.1229297E+03  0.7546771E-02  0.1238776E+00
          1   -1    0    0  501    0  0.00000000000E+00  0.00000000000E+00  0.22539042737E+03  0.22539042737E+03  0.00000000000E+00 0. -1.
         -1   -1    0    0    0  501 -0.00000000000E+00 -0.00000000000E+00 -0.10946066552E+03  0.10946066552E+03  0.00000000000E+00 0.  1.
         23    2    1    2    0    0  0.81362690329E+02  0.26653711571E+01 -0.47130876690E+02  0.13064414248E+03  0.90661904044E+02 0.  0.
         23    2    1    2    0    0 -0.81362690329E+02 -0.26653711571E+01  0.16306063855E+03  0.20420695041E+03  0.92112513659E+02 0.  0.
          5    1    4    4  502    0 -0.59452895690E+02 -0.37231060498E+02  0.14081501400E+03  0.15739045981E+03  0.47000000000E+01 0. -1.
         -5    1    4    4    0  502 -0.21909794639E+02  0.34565689341E+02  0.22245624547E+02  0.46816490601E+02  0.47000000000E+01 0.  1.
          5    1    3    3  503    0 -0.32262305177E+01 -0.25020787994E+02  0.66982002249E+01  0.26521769953E+02  0.47000000000E+01 0. -1.
         -5    1    3    3    0  503  0.84588920847E+02  0.27686159151E+02 -0.53829076915E+02  0.10412237252E+03  0.47000000000E+01 0.  1.
<mgrwt>
<rscale>  0 0.12265799E+03</rscale>
<asrwt>0</asrwt>
<pdfrwt beam="1">  1        1 0.34675450E-01 0.12292968E+03</pdfrwt>
<pdfrwt beam="2">  1       -1 0.16840102E-01 0.12292968E+03</pdfrwt>
<totfact> 0.32311649E+03</totfact>
</mgrwt>
</event>
<event>
 8    1  0.3177960E-004  0.1226418E+03  0.7546771E-02  0.1239831E+00
          2   -1    0    0  501    0  0.00000000000E+00  0.00000000000E+00  0.10452331031E+04  0.10452331031E+04  0.00000000000E+00 0. -1.
         -2   -1    0    0    0  501 -0.00000000000E+00 -0.00000000000E+00 -0.39251165716E+02  0.39251165716E+02  0.00000000000E+00 0.  1.
         23    2    1    2    0    0  0.78771019881E+02 -0.17401901993E+02  0.66999289810E+02  0.13752628983E+03  0.88976827286E+02 0.  0.
         23    2    1    2    0    0 -0.78771019881E+02  0.17401901993E+02  0.93898264758E+03  0.94695797899E+03  0.92375872127E+02 0.  0.
          5    1    4    4  502    0 -0.84271662525E+02  0.39020767561E+02  0.85117908399E+03  0.85624310592E+03  0.47000000000E+01 0. -1.
         -5    1    3    3    0  503  0.37442169359E+02 -0.51632782378E+02  0.22970311605E+02  0.67952818025E+02  0.47000000000E+01 0.  1.
          5    1    3    3  503    0  0.41328850523E+02  0.34230880385E+02  0.44028978205E+02  0.69573471807E+02  0.47000000000E+01 0. -1.
         -5    1    4    4    0  502  0.55006426433E+01 -0.21618865567E+02  0.87803563591E+02  0.90714873076E+02  0.47000000000E+01 0.  1.
<mgrwt>
<rscale>  0 0.12200192E+03</rscale>
<asrwt>0</asrwt>
<pdfrwt beam="1">  1        2 0.16080507E+00 0.12264176E+03</pdfrwt>
<pdfrwt beam="2">  1       -2 0.60386417E-02 0.12264176E+03</pdfrwt>
<totfact> 0.35389680E+03</totfact>
</mgrwt>
</event>
<event>
 8    1  0.3177960E-004  0.1064511E+03  0.7546771E-02  0.1268807E+00
          1   -1    0    0  501    0  0.00000000000E+00  0.00000000000E+00  0.47320394983E+02  0.47320394983E+02  0.00000000000E+00 0. -1.
         -1   -1    0    0    0  501 -0.00000000000E+00 -0.00000000000E+00 -0.23853153993E+03  0.23853153993E+03  0.00000000000E+00 0.  1.
         23    2    1    2    0    0 -0.50651680518E+02 -0.20757349837E+02 -0.11683783020E+03  0.15599344465E+03  0.87672207081E+02 0.  0.
         23    2    1    2    0    0  0.50651680518E+02  0.20757349837E+02 -0.74373314741E+02  0.12985849026E+03  0.91298287150E+02 0.  0.
          5    1    4    4  502    0  0.76083422965E+02  0.25040749336E+02 -0.55906548419E+02  0.97792425747E+02  0.47000000000E+01 0. -1.
         -5    1    3    3    0  503 -0.33878873936E+02 -0.69974249255E+01 -0.12690478115E+03  0.13161935850E+03  0.47000000000E+01 0.  1.
          5    1    3    3  503    0 -0.16772806581E+02 -0.13759924912E+02  0.10066950941E+02  0.24374086146E+02  0.47000000000E+01 0. -1.
         -5    1    4    4    0  502 -0.25431742448E+02 -0.42833994983E+01 -0.18466766323E+02  0.32066064517E+02  0.47000000000E+01 0.  1.
<mgrwt>
<rscale>  0 0.10566926E+03</rscale>
<asrwt>0</asrwt>
<pdfrwt beam="1">  1        1 0.72800608E-02 0.10645110E+03</pdfrwt>
<pdfrwt beam="2">  1       -1 0.36697160E-01 0.10645110E+03</pdfrwt>
<totfact> 0.66225275E+03</totfact>
</mgrwt>
</event>
<event>
 8    1  0.3177960E-004  0.1145138E+03  0.7546771E-02  0.1253117E+00
          1   -1    0    0  501    0  0.00000000000E+00  0.00000000000E+00  0.84475766791E+02  0.84475766791E+02  0.00000000000E+00 0. -1.
         -1   -1    0    0    0  501 -0.00000000000E+00 -0.00000000000E+00 -0.24166615717E+03  0.24166615717E+03  0.00000000000E+00 0.  1.
         23    2    1    2    0    0 -0.62188946189E+02  0.27014936542E+02 -0.17762919091E+03  0.21134221794E+03  0.92282890057E+02 0.  0.
         23    2    1    2    0    0  0.62188946189E+02 -0.27014936542E+02  0.20438800526E+02  0.11479970602E+03  0.90354613116E+02 0.  0.
          5    1    4    4  502    0  0.67806324171E+02  0.37141132924E+01  0.38709083207E+02  0.78306930459E+02  0.47000000000E+01 0. -1.
         -5    1    3    3    0  503 -0.58357012108E+02  0.56313116246E+01 -0.17964107728E+03  0.18902449359E+03  0.47000000000E+01 0.  1.
          5    1    3    3  503    0 -0.38319340809E+01  0.21383624917E+02  0.20118863679E+01  0.22317724350E+02  0.47000000000E+01 0. -1.
         -5    1    4    4    0  502 -0.56173779819E+01 -0.30729049834E+02 -0.18270282681E+02  0.36492775564E+02  0.47000000000E+01 0.  1.
<mgrwt>
<rscale>  0 0.11412475E+03</rscale>
<asrwt>0</asrwt>
<pdfrwt beam="1">  1        1 0.12996272E-01 0.11451377E+03</pdfrwt>
<pdfrwt beam="2">  1       -1 0.37179408E-01 0.11451377E+03</pdfrwt>
<totfact> 0.30297881E+03</totfact>
</mgrwt>
</event>
<event>
 8    1  0.3177960E-004  0.1007332E+03  0.7546771E-02  0.1279431E+00
         -2   -1    0    0    0  501 -0.00000000000E+00  0.00000000000E+00  0.36784652190E+02  0.36784652190E+02  0.00000000000E+00 0.  1.
          2   -1    0    0  501    0  0.00000000000E+00 -0.00000000000E+00 -0.80025740864E+03  0.80025740864E+03  0.00000000000E+00 0. -1.
         23    2    1    2    0    0  0.30895291232E+02 -0.28754826815E+02 -0.40992829733E+02  0.10757346624E+03  0.90057090020E+02 0.  0.
         23    2    1    2    0    0 -0.30895291232E+02  0.28754826815E+02 -0.72247992672E+03  0.72946859459E+03  0.91464894389E+02 0.  0.
          5    1    3    3  502    0  0.13667355394E+02  0.32246533688E+02 -0.92570441240E+01  0.36529692091E+02  0.47000000000E+01 0. -1.
         -5    1    4    4    0  503  0.18095432352E+02 -0.20507985320E+02 -0.13122777899E+03  0.13412994488E+03  0.47000000000E+01 0.  1.
          5    1    4    4  503    0 -0.48990723584E+02  0.49262812135E+02 -0.59125214772E+03  0.59533864971E+03  0.47000000000E+01 0. -1.
         -5    1    3    3    0  502  0.17227935838E+02 -0.61001360503E+02 -0.31735785609E+02  0.71043774144E+02  0.47000000000E+01 0.  1.
<mgrwt>
<rscale>  0 0.10041258E+03</rscale>
<asrwt>0</asrwt>
<pdfrwt beam="1">  1        2 0.12311653E+00 0.10073324E+03</pdfrwt>
<pdfrwt beam="2">  1       -2 0.56591770E-02 0.10073324E+03</pdfrwt>
<totfact> 0.54894698E+03</totfact>
</mgrwt>
</event>
<event>
 8    1  0.3177960E-004  0.9623177E+02  0.7546771E-02  0.1288765E+00
         -1   -1    0    0    0  501 -0.00000000000E+00  0.00000000000E+00  0.17222148803E+03  0.17222148803E+03  0.00000000000E+00 0.  1.
          1   -1    0    0  501    0  0.00000000000E+00 -0.00000000000E+00 -0.10822231853E+03  0.10822231853E+03  0.00000000000E+00 0. -1.
         23    2    1    2    0    0  0.20502687562E+02 -0.21322851826E+02  0.13182322076E+03  0.16321125957E+03  0.91572536880E+02 0.  0.
         23    2    1    2    0    0 -0.20502687562E+02  0.21322851826E+02 -0.67824051266E+02  0.11723254698E+03  0.90930434589E+02 0.  0.
          5    1    4    4  502    0 -0.45444925377E+02  0.39916120052E+02 -0.28950061444E+02  0.67221528844E+02  0.47000000000E+01 0. -1.
         -5    1    3    3    0  503  0.12538346640E+02  0.20175856928E+02  0.11494343693E+03  0.11746641662E+03  0.47000000000E+01 0.  1.
          5    1    3    3  503    0  0.79643409221E+01 -0.41498708754E+02  0.16879783833E+02  0.45744842953E+02  0.47000000000E+01 0. -1.
         -5    1    4    4    0  502  0.24942237815E+02 -0.18593268226E+02 -0.38873989822E+02  0.50011018138E+02  0.47000000000E+01 0.  1.
<mgrwt>
<rscale>  0 0.96078704E+02</rscale>
<asrwt>0</asrwt>
<pdfrwt beam="1">  1        1 0.16649587E-01 0.96231771E+02</pdfrwt>
<pdfrwt beam="2">  1       -1 0.26495614E-01 0.96231771E+02</pdfrwt>
<totfact> 0.38511617E+03</totfact>
</mgrwt>
</event>
<event>
 8    1  0.3177960E-004  0.1119026E+03  0.7546771E-02  0.1258704E+00
          2   -1    0    0  501    0  0.00000000000E+00  0.00000000000E+00  0.31982543784E+03  0.31982543784E+03  0.00000000000E+00 0. -1.
         -2   -1    0    0    0  501 -0.00000000000E+00 -0.00000000000E+00 -0.74099600884E+02  0.74099600884E+02  0.00000000000E+00 0.  1.
         23    2    1    2    0    0  0.35845457865E+02  0.41366800757E+02 -0.13727656802E+02  0.11274149965E+03  0.97601680965E+02 0.  0.
         23    2    1    2    0    0 -0.35845457865E+02 -0.41366800757E+02  0.25945349376E+03  0.28118353908E+03  0.93551900943E+02 0.  0.
          5    1    3    3  502    0 -0.28632183985E+02  0.35717060727E+02  0.16588002228E+01  0.46047280103E+02  0.47000000000E+01 0. -1.
         -5    1    4    4    0  503 -0.54296595259E+02  0.25260978173E+01  0.91332434298E+02  0.10638705270E+03  0.47000000000E+01 0.  1.
          5    1    4    4  503    0  0.18451137394E+02 -0.43892898574E+02  0.16812105946E+03  0.17479648638E+03  0.47000000000E+01 0. -1.
         -5    1    3    3    0  502  0.64477641850E+02  0.56497400305E+01 -0.15386457024E+02  0.66694219545E+02  0.47000000000E+01 0.  1.
<mgrwt>
<rscale>  0 0.11101355E+03</rscale>
<asrwt>0</asrwt>
<pdfrwt beam="1">  1        2 0.49203913E-01 0.11190262E+03</pdfrwt>
<pdfrwt beam="2">  1       -2 0.11399939E-01 0.11190262E+03</pdfrwt>
<totfact> 0.51913402E+03</totfact>
</mgrwt>
</event>
<event>
 8    1  0.3177960E-004  0.1277303E+03  0.7546771E-02  0.1230998E+00
          1   -1    0    0  501    0  0.00000000000E+00  0.00000000000E+00  0.14136788223E+03  0.14136788223E+03  0.00000000000E+00 0. -1.
         -1   -1    0    0    0  501 -0.00000000000E+00 -0.00000000000E+00 -0.12026563819E+03  0.12026563819E+03  0.00000000000E+00 0.  1.
         23    2    1    2    0    0  0.88116251304E+02 -0.14080318741E+02  0.37711709877E+02  0.13318108139E+03  0.91390909059E+02 0.  0.
         23    2    1    2    0    0 -0.88116251304E+02  0.14080318741E+02 -0.16609465835E+02  0.12845243903E+03  0.90892384810E+02 0.  0.
          5    1    4    4  502    0 -0.36013428739E+02  0.44244193454E+02  0.16515201282E+02  0.59576485104E+02  0.47000000000E+01 0. -1.
         -5    1    4    4    0  502 -0.52102822565E+02 -0.30163874713E+02 -0.33124667117E+02  0.68875953921E+02  0.47000000000E+01 0.  1.
          5    1    3    3  503    0  0.93061952941E+02  0.10503248808E+02  0.48394126615E+02  0.10552216266E+03  0.47000000000E+01 0. -1.
         -5    1    3    3    0  503 -0.49457016373E+01 -0.24583567549E+02 -0.10682416738E+02  0.27658918734E+02  0.47000000000E+01 0.  1.
<mgrwt>
<rscale>  0 0.12764114E+03</rscale>
<asrwt>0</asrwt>
<pdfrwt beam="1">  1        1 0.21748905E-01 0.12773029E+03</pdfrwt>
<pdfrwt beam="2">  1       -1 0.18502406E-01 0.12773029E+03</pdfrwt>
<totfact> 0.49902676E+03</totfact>
</mgrwt>
</event>
<event>
 8    1  0.3177960E-004  0.1272661E+03  0.7546771E-02  0.1232858E+00
         -1   -1    0    0    0  501 -0.00000000000E+00  0.00000000000E+00  0.41067006621E+02  0.41067006621E+02  0.00000000000E+00 0.  1.
          1   -1    0    0  501    0  0.00000000000E+00 -0.00000000000E+00 -0.38428890458E+03  0.38428890458E+03  0.00000000000E+00 0. -1.
         23    2    1    2    0    0  0.29901854110E+02  0.84133351665E+02 -0.16978836762E+03  0.21219036769E+03  0.90686937419E+02 0.  0.
         23    2    1    2    0    0 -0.29901854110E+02 -0.84133351665E+02 -0.17343353034E+03  0.21316554351E+03  0.85952415638E+02 0.  0.
          5    1    3    3  502    0 -0.84284714416E+01  0.82277014076E+02 -0.14263203570E+03  0.16494403228E+03  0.47000000000E+01 0. -1.
         -5    1    4    4    0  503  0.23888768030E+02 -0.47265061970E+02 -0.10947453699E+03  0.12170219214E+03  0.47000000000E+01 0.  1.
          5    1    4    4  503    0 -0.53790622140E+02 -0.36868289694E+02 -0.63958993344E+02  0.91463351375E+02  0.47000000000E+01 0. -1.
         -5    1    3    3    0  502  0.38330325552E+02  0.18563375889E+01 -0.27156331917E+02  0.47246335406E+02  0.47000000000E+01 0.  1.
<mgrwt>
<rscale>  0 0.12642552E+03</rscale>
<asrwt>0</asrwt>
<pdfrwt beam="1">  1        1 0.59121369E-01 0.12726611E+03</pdfrwt>
<pdfrwt beam="2">  1       -1 0.63180011E-02 0.12726611E+03</pdfrwt>
<totfact> 0.74852759E+03</totfact>
</mgrwt>
</event>
<event>
 8    1  0.3177960E-004  0.1170917E+03  0.7546771E-02  0.1256031E+00
         -1   -1    0    0    0  501 -0.00000000000E+00  0.00000000000E+00  0.48021646968E+02  0.48021646968E+02  0.00000000000E+00 0.  1.
          1   -1    0    0  501    0  0.00000000000E+00 -0.00000000000E+00 -0.10065726520E+04  0.10065726520E+04  0.00000000000E+00 0. -1.
         23    2    1    2    0    0  0.33970667431E+02 -0.22855616918E+02 -0.11570446352E+02  0.10040215980E+03  0.90941371191E+02 0.  0.
         23    2    1    2    0    0 -0.33970667431E+02  0.22855616918E+02 -0.94698055864E+03  0.95419213912E+03  0.10969992915E+03 0.  0.
          5    1    3    3  502    0  0.13405301163E+02 -0.29942120500E+02 -0.47631841992E+02  0.58026847673E+02  0.47000000000E+01 0. -1.
         -5    1    3    3    0  502  0.20565366268E+02  0.70865035824E+01  0.36061395640E+02  0.42375312131E+02  0.47000000000E+01 0.  1.
          5    1    4    4  503    0 -0.68188503057E+02  0.38182654911E+02 -0.57713302923E+03  0.58241927382E+03  0.47000000000E+01 0. -1.
         -5    1    4    4    0  503  0.34217835626E+02 -0.15327037993E+02 -0.36984752940E+03  0.37177286530E+03  0.47000000000E+01 0.  1.
<mgrwt>
<rscale>  0 0.11248756E+03</rscale>
<asrwt>0</asrwt>
<pdfrwt beam="1">  1        1 0.15485734E+00 0.11709167E+03</pdfrwt>
<pdfrwt beam="2">  1       -1 0.73879452E-02 0.11709167E+03</pdfrwt>
<totfact> 0.15314430E+03</totfact>
</mgrwt>
</event>
<event>
 8    1  0.3177960E-004  0.1036329E+03  0.7546771E-02  0.1279195E+00
          2   -1    0    0  501    0  0.00000000000E+00  0.00000000000E+00  0.37092970245E+03  0.37092970245E+03  0.00000000000E+00 0. -1.
         -2   -1    0    0    0  501 -0.00000000000E+00 -0.00000000000E+00 -0.25766624530E+02  0.25766624530E+02  0.00000000000E+00 0.  1.
         23    2    1    2    0    0  0.22334008896E+02  0.38805301865E+02  0.15456852605E+03  0.17974920544E+03  0.80085505592E+02 0.  0.
         23    2    1    2    0    0 -0.22334008896E+02 -0.38805301865E+02  0.19059455187E+03  0.21694712154E+03  0.93461815384E+02 0.  0.
          5    1    4    4  502    0 -0.58528037236E+02 -0.17894070104E+02  0.10664210988E+03  0.12304616405E+03  0.47000000000E+01 0. -1.
         -5    1    4    4    0  502  0.36194028340E+02 -0.20911231761E+02  0.83952441991E+02  0.93900957490E+02  0.47000000000E+01 0.  1.
          5    1    3    3  503    0 -0.23880797447E+02  0.18648370661E+02  0.10303421855E+03  0.10749974143E+03  0.47000000000E+01 0. -1.
         -5    1    3    3    0  503  0.46214806343E+02  0.20156931204E+02  0.51534307500E+02  0.72249464015E+02  0.47000000000E+01 0.  1.
<mgrwt>
<rscale>  0 0.10052556E+03</rscale>
<asrwt>0</asrwt>
<pdfrwt beam="1">  1        2 0.57066105E-01 0.10363286E+03</pdfrwt>
<pdfrwt beam="2">  1       -2 0.39640963E-02 0.10363286E+03</pdfrwt>
<totfact> 0.22005629E+04</totfact>
</mgrwt>
</event>
<event>
 8    1  0.3177960E-004  0.9464428E+02  0.7546771E-02  0.1293582E+00
         -1   -1    0    0    0  501 -0.00000000000E+00  0.00000000000E+00  0.16805828656E+03  0.16805828656E+03  0.00000000000E+00 0.  1.
          1   -1    0    0  501    0  0.00000000000E+00 -0.00000000000E+00 -0.67967705577E+02  0.67967705577E+02  0.00000000000E+00 0. -1.
         23    2    1    2    0    0  0.12119970187E+02  0.59298673191E+01 -0.81788422747E+01  0.92221233276E+02  0.90861462690E+02 0.  0.
         23    2    1    2    0    0 -0.12119970187E+02 -0.59298673191E+01  0.10826942325E+03  0.14380475886E+03  0.93677551498E+02 0.  0.
          5    1    3    3  502    0 -0.12321261214E+02  0.32756210914E+02 -0.32736139519E+02  0.48151092012E+02  0.47000000000E+01 0. -1.
         -5    1    4    4    0  503  0.12596309274E+02 -0.45241816353E+02  0.63605969174E+02  0.79204155628E+02  0.47000000000E+01 0.  1.
          5    1    4    4  503    0 -0.24716279460E+02  0.39311949034E+02  0.44663454081E+02  0.64600603230E+02  0.47000000000E+01 0. -1.
         -5    1    3    3    0  502  0.24441231401E+02 -0.26826343595E+02  0.24557297245E+02  0.44070141264E+02  0.47000000000E+01 0.  1.
<mgrwt>
<rscale>  0 0.93939847E+02</rscale>
<asrwt>0</asrwt>
<pdfrwt beam="1">  1        1 0.10456570E-01 0.94644285E+02</pdfrwt>
<pdfrwt beam="2">  1       -1 0.25855121E-01 0.94644285E+02</pdfrwt>
<totfact> 0.72974940E+03</totfact>
</mgrwt>
</event>
<event>
 8    1  0.3177960E-004  0.1240366E+03  0.7546771E-02  0.1236725E+00
          2   -1    0    0  501    0  0.00000000000E+00  0.00000000000E+00  0.19807910266E+03  0.19807910266E+03  0.00000000000E+00 0. -1.
         -2   -1    0    0    0  501 -0.00000000000E+00 -0.00000000000E+00 -0.81917047719E+02  0.81917047719E+02  0.00000000000E+00 0.  1.
         23    2    1    2    0    0 -0.18388101548E+02 -0.81161186671E+02  0.90867285735E+02  0.15375938970E+03  0.91977311358E+02 0.  0.
         23    2    1    2    0    0  0.18388101548E+02  0.81161186671E+02  0.25294769203E+02  0.12623676067E+03  0.91491168402E+02 0.  0.
          5    1    4    4  502    0 -0.26880785389E+02  0.48069966881E+02 -0.14704661427E+02  0.57198036739E+02  0.47000000000E+01 0. -1.
         -5    1    3    3    0  503 -0.34977611434E+02 -0.98420826335E+01 -0.41795589375E+00  0.36641023175E+02  0.47000000000E+01 0.  1.
          5    1    3    3  503    0  0.16589509886E+02 -0.71319104038E+02  0.91285241629E+02  0.11711836653E+03  0.47000000000E+01 0. -1.
         -5    1    4    4    0  502  0.45268886937E+02  0.33091219790E+02  0.39999430630E+02  0.69038723934E+02  0.47000000000E+01 0.  1.
<mgrwt>
<rscale>  0 0.12394652E+03</rscale>
<asrwt>0</asrwt>
<pdfrwt beam="1">  1        2 0.30473708E-01 0.12403663E+03</pdfrwt>
<pdfrwt beam="2">  1       -2 0.12602623E-01 0.12403663E+03</pdfrwt>
<totfact> 0.74115284E+03</totfact>
</mgrwt>
</event>
<event>
 8    1  0.3177960E-004  0.1026097E+03  0.7546771E-02  0.1276515E+00
          1   -1    0    0  501    0  0.00000000000E+00  0.00000000000E+00  0.25024308317E+03  0.25024308317E+03  0.00000000000E+00 0. -1.
         -1   -1    0    0    0  501 -0.00000000000E+00 -0.00000000000E+00 -0.47743737530E+02  0.47743737530E+02  0.00000000000E+00 0.  1.
         23    2    1    2    0    0  0.84026138624E+01  0.46586465449E+02  0.43110618642E+02  0.10842545593E+03  0.87502293521E+02 0.  0.
         23    2    1    2    0    0 -0.84026138624E+01 -0.46586465449E+02  0.15938872700E+03  0.18956136477E+03  0.91037585843E+02 0.  0.
          5    1    3    3  502    0 -0.24478038002E+02  0.99111096831E+00  0.45581441114E+02  0.51960700721E+02  0.47000000000E+01 0. -1.
         -5    1    4    4    0  503  0.33640189447E+02 -0.15927038772E+01  0.26803451974E+02  0.43297968652E+02  0.47000000000E+01 0.  1.
          5    1    4    4  503    0 -0.42042803309E+02 -0.44993761572E+02  0.13258527502E+03  0.14626339612E+03  0.47000000000E+01 0. -1.
         -5    1    3    3    0  502  0.32880651865E+02  0.45595354481E+02 -0.24708224713E+01  0.56464755210E+02  0.47000000000E+01 0.  1.
<mgrwt>
<rscale>  0 0.10181979E+03</rscale>
<asrwt>0</asrwt>
<pdfrwt beam="1">  1        1 0.38498935E-01 0.10260967E+03</pdfrwt>
<pdfrwt beam="2">  1       -1 0.73451905E-02 0.10260967E+03</pdfrwt>
<totfact> 0.99894639E+03</totfact>
</mgrwt>
</event>
<event>
 7    1  0.3177960E-004  0.1315288E+03  0.7546771E-02  0.1241720E+00
         -1   -1    0    0    0  501 -0.00000000000E+00  0.00000000000E+00  0.19754367740E+03  0.19754367740E+03  0.00000000000E+00 0.  1.
          1   -1    0    0  501    0  0.00000000000E+00 -0.00000000000E+00 -0.73619256869E+02  0.73619256869E+02  0.00000000000E+00 0. -1.
         23    2    1    2    0    0  0.73447647684E+01 -0.65438938578E+01  0.10078102412E+03  0.13761353784E+03  0.93187460836E+02 0.  0.
          5    1    3    3  502    0 -0.16865427288E+02 -0.20397465542E+02 -0.56664517154E+01  0.27471765746E+02  0.47000000000E+01 0. -1.
         -5    1    1    2    0  503  0.94825422678E+01  0.46558887791E+02  0.59811379029E+02  0.76531952161E+02  0.47000000000E+01 0.  1.
          5    1    1    2  503    0 -0.16827307036E+02 -0.40014993934E+02 -0.36667982619E+02  0.57017444269E+02  0.47000000000E+01 0. -1.
         -5    1    3    3    0  502  0.24210192056E+02  0.13853571685E+02  0.10644747583E+03  0.11014177209E+03  0.47000000000E+01 0.  1.
<mgrwt>
<rscale>  0 0.12083885E+03</rscale>
<asrwt>0</asrwt>
<pdfrwt beam="1">  1        1 0.11326040E-01 0.13152880E+03</pdfrwt>
<pdfrwt beam="2">  1       -1 0.30391335E-01 0.13152880E+03</pdfrwt>
<totfact> 0.51550982E+03</totfact>
</mgrwt>
</event>
<event>
 7    1  0.7462607E-004  0.2954506E+03  0.7546771E-02  0.1123068E+00
          1   -1    0    0  501    0  0.00000000000E+00  0.00000000000E+00  0.64509364388E+03  0.64509364388E+03  0.00000000000E+00 0. -1.
         -1   -1    0    0    0  501 -0.00000000000E+00 -0.00000000000E+00 -0.11959205659E+03  0.11959205659E+03  0.00000000000E+00 0.  1.
         23    2    1    2    0    0 -0.51413761489E+02 -0.29889701225E+02 -0.41269874678E+02  0.12552926135E+03  0.10255546689E+03 0.  0.
          5    1    1    2  502    0  0.14069898372E+03  0.34021102533E+02  0.51666696284E+03  0.53658222103E+03  0.47000000000E+01 0. -1.
         -5    1    3    3    0  503 -0.62854959955E+02 -0.50252597604E+02 -0.55415252129E+02  0.97821315292E+02  0.47000000000E+01 0.  1.
          5    1    3    3  503    0  0.11441198466E+02  0.20362896379E+02  0.14145377452E+02  0.27707946054E+02  0.47000000000E+01 0. -1.
         -5    1    1    2    0  502 -0.89285222228E+02 -0.41314013073E+01  0.50104499133E+02  0.10257421810E+03  0.47000000000E+01 0.  1.
<mgrwt>
<rscale>  0 0.23514740E+03</rscale>
<asrwt>0</asrwt>
<pdfrwt beam="1">  1        1 0.99245173E-01 0.29545061E+03</pdfrwt>
<pdfrwt beam="2">  1       -1 0.18398778E-01 0.29545061E+03</pdfrwt>
<totfact> 0.73552034E+02</totfact>
</mgrwt>
</event>
<event>
 8    1  0.3177960E-004  0.9393495E+02  0.7546771E-02  0.1293794E+00
          1   -1    0    0  501    0  0.00000000000E+00  0.00000000000E+00  0.13662774428E+02  0.13662774428E+02  0.00000000000E+00 0. -1.
         -1   -1    0    0    0  501 -0.00000000000E+00 -0.00000000000E+00 -0.73930395470E+03  0.73930395470E+03  0.00000000000E+00 0.  1.
         23    2    1    2    0    0 -0.46607996739E+01  0.20227692073E+02 -0.22782601190E+03  0.24643146605E+03  0.91612734822E+02 0.  0.
         23    2    1    2    0    0  0.46607996739E+01 -0.20227692073E+02 -0.49781516837E+03  0.50653526308E+03  0.91253209807E+02 0.  0.
          5    1    3    3  502    0 -0.22002643658E+02 -0.37297899501E+01 -0.73942445583E+01  0.23974830836E+02  0.47000000000E+01 0. -1.
         -5    1    3    3    0  502  0.17341843984E+02  0.23957482024E+02 -0.22043176735E+03  0.22245663522E+03  0.47000000000E+01 0.  1.
          5    1    4    4  503    0  0.44453056258E+02 -0.27647619684E+02 -0.26100592496E+03  0.26624546559E+03  0.47000000000E+01 0. -1.
         -5    1    4    4    0  503 -0.39792256584E+02  0.74199276105E+01 -0.23680924341E+03  0.24028979749E+03  0.47000000000E+01 0.  1.
<mgrwt>
<rscale>  0 0.93847181E+02</rscale>
<asrwt>0</asrwt>
<pdfrwt beam="1">  1        1 0.21019652E-02 0.93934955E+02</pdfrwt>
<pdfrwt beam="2">  1       -1 0.11373908E+00 0.93934955E+02</pdfrwt>
<totfact> 0.39461420E+03</totfact>
</mgrwt>
</event>
<event>
 8    1  0.3177960E-004  0.9436363E+02  0.7546771E-02  0.1292696E+00
         -2   -1    0    0    0  501 -0.00000000000E+00  0.00000000000E+00  0.77985366259E+02  0.77985366259E+02  0.00000000000E+00 0.  1.
          2   -1    0    0  501    0  0.00000000000E+00 -0.00000000000E+00 -0.21813339210E+03  0.21813339210E+03  0.00000000000E+00 0. -1.
         23    2    1    2    0    0  0.99957806440E+00 -0.89779551264E+00 -0.17233974901E+03  0.19641519313E+03  0.94213235854E+02 0.  0.
         23    2    1    2    0    0 -0.99957806440E+00  0.89779551264E+00  0.32191723166E+02  0.99703565231E+02  0.94354060253E+02 0.  0.
          5    1    3    3  502    0  0.37477440722E+02  0.14334317346E+02 -0.35097267925E+02  0.53515786761E+02  0.47000000000E+01 0. -1.
         -5    1    3    3    0  502 -0.36477862657E+02 -0.15232112858E+02 -0.13724248108E+03  0.14289940637E+03  0.47000000000E+01 0.  1.
          5    1    4    4  503    0  0.13022065019E+01  0.47323146448E+02  0.14315707825E+02  0.49681036845E+02  0.47000000000E+01 0. -1.
         -5    1    4    4    0  503 -0.23017845663E+01 -0.46425350935E+02  0.17876015341E+02  0.50022528386E+02  0.47000000000E+01 0.  1.
<mgrwt>
<rscale>  0 0.94328404E+02</rscale>
<asrwt>0</asrwt>
<pdfrwt beam="1">  1        2 0.33558983E-01 0.94363626E+02</pdfrwt>
<pdfrwt beam="2">  1       -2 0.11997749E-01 0.94363626E+02</pdfrwt>
<totfact> 0.70814615E+03</totfact>
</mgrwt>
</event>
<event>
 8    1  0.3177960E-004  0.9178719E+02  0.7546771E-02  0.1299244E+00
         -2   -1    0    0    0  501 -0.00000000000E+00  0.00000000000E+00  0.19517979090E+02  0.19517979090E+02  0.00000000000E+00 0.  1.
          2   -1    0    0  501    0  0.00000000000E+00 -0.00000000000E+00 -0.84321930270E+03  0.84321930270E+03  0.00000000000E+00 0. -1.
         23    2    1    2    0    0  0.42641563611E+01  0.16698314113E+02 -0.10729604460E+03  0.14047596295E+03  0.89017067212E+02 0.  0.
         23    2    1    2    0    0 -0.42641563611E+01 -0.16698314113E+02 -0.71640527901E+03  0.72226131884E+03  0.90154712478E+02 0.  0.
          5    1    4    4  502    0 -0.40028222516E+02 -0.32780910914E+02 -0.43746975210E+03  0.44054366494E+03  0.47000000000E+01 0. -1.
         -5    1    3    3    0  503  0.19843246438E+01  0.53371466698E+02 -0.64573576410E+02  0.83930255404E+02  0.47000000000E+01 0.  1.
          5    1    3    3  503    0  0.22798317173E+01 -0.36673152585E+02 -0.42722468192E+02  0.56545707543E+02  0.47000000000E+01 0. -1.
         -5    1    4    4    0  502  0.35764066155E+02  0.16082596801E+02 -0.27893552691E+03  0.28171765390E+03  0.47000000000E+01 0.  1.
<mgrwt>
<rscale>  0 0.91506620E+02</rscale>
<asrwt>0</asrwt>
<pdfrwt beam="1">  1        2 0.12972601E+00 0.91787194E+02</pdfrwt>
<pdfrwt beam="2">  1       -2 0.30027668E-02 0.91787194E+02</pdfrwt>
<totfact> 0.13028633E+04</totfact>
</mgrwt>
</event>
<event>
 8    1  0.3177960E-004  0.1200776E+03  0.7546771E-02  0.1248599E+00
          1   -1    0    0  501    0  0.00000000000E+00  0.00000000000E+00  0.43736263122E+02  0.43736263122E+02  0.00000000000E+00 0. -1.
         -1   -1    0    0    0  501 -0.00000000000E+00 -0.00000000000E+00 -0.93044406491E+03  0.93044406491E+03  0.00000000000E+00 0.  1.
         23    2    1    2    0    0  0.45302875968E+02 -0.33365750149E+02 -0.83762342517E+03  0.84445786539E+03  0.91271354663E+02 0.  0.
         23    2    1    2    0    0 -0.45302875968E+02  0.33365750149E+02 -0.49084376619E+02  0.12972246264E+03  0.10608024053E+03 0.  0.
          5    1    4    4  502    0 -0.74833654367E+02  0.29921201215E+01 -0.18575122818E+02  0.77305587097E+02  0.47000000000E+01 0. -1.
         -5    1    4    4    0  502  0.29530778399E+02  0.30373630027E+02 -0.30509253801E+02  0.52416875540E+02  0.47000000000E+01 0.  1.
          5    1    3    3  503    0 -0.58725883512E+01  0.22157527001E+02 -0.89122524065E+02  0.92143136438E+02  0.47000000000E+01 0.  1.
         -5    1    3    3    0  503  0.51175464319E+02 -0.55523277150E+02 -0.74850090110E+03  0.75231472896E+03  0.47000000000E+01 0.  1.
<mgrwt>
<rscale>  0 0.11672540E+03</rscale>
<asrwt>0</asrwt>
<pdfrwt beam="1">  1        1 0.67286559E-02 0.12007765E+03</pdfrwt>
<pdfrwt beam="2">  1       -1 0.14314524E+00 0.12007765E+03</pdfrwt>
<totfact> 0.46880870E+02</totfact>
</mgrwt>
</event>
<event>
 8    1  0.3177960E-004  0.1062772E+03  0.7546771E-02  0.1268826E+00
          2   -1    0    0  501    0  0.00000000000E+00  0.00000000000E+00  0.26231948156E+02  0.26231948156E+02  0.00000000000E+00 0.  1.
         -2   -1    0    0    0  501 -0.00000000000E+00 -0.00000000000E+00 -0.46444102431E+03  0.46444102431E+03  0.00000000000E+00 0. -1.
         23    2    1    2    0    0  0.45093510333E+02 -0.24376843272E+02 -0.29670367991E+03  0.31516333167E+03  0.93097780826E+02 0.  0.
         23    2    1    2    0    0 -0.45093510333E+02  0.24376843272E+02 -0.14150539624E+03  0.17550964079E+03  0.90289543603E+02 0.  0.
          5    1    3    3  502    0  0.23402364234E+02 -0.22883870735E+02 -0.29007271223E+03  0.29195138392E+03  0.47000000000E+01 0. -1.
         -5    1    3    3    0  502  0.21691146099E+02 -0.14929725367E+01 -0.66309676824E+01  0.23211947753E+02  0.47000000000E+01 0.  1.
          5    1    4    4  503    0  0.97325922778E+01  0.41939714803E+02 -0.81048403107E+02  0.91894486649E+02  0.47000000000E+01 0. -1.
         -5    1    4    4    0  503 -0.54826102611E+02 -0.17562871531E+02 -0.60456993134E+02  0.83615154145E+02  0.47000000000E+01 0.  1.
<mgrwt>
<rscale>  0 0.10565908E+03</rscale>
<asrwt>0</asrwt>
<pdfrwt beam="1">  1        2 0.40356844E-02 0.10627724E+03</pdfrwt>
<pdfrwt beam="2">  1       -2 0.71452464E-01 0.10627724E+03</pdfrwt>
<totfact> 0.35684527E+03</totfact>
</mgrwt>
</event>
<event>
 8    1  0.3177960E-004  0.9319349E+02  0.7546771E-02  0.1295368E+00
         -2   -1    0    0    0  501 -0.00000000000E+00  0.00000000000E+00  0.22848712753E+02  0.22848712753E+02  0.00000000000E+00 0.  1.
          2   -1    0    0  501    0  0.00000000000E+00 -0.00000000000E+00 -0.38839016456E+03  0.38839016456E+03  0.00000000000E+00 0. -1.
         23    2    1    2    0    0 -0.13197684168E+02 -0.19453272020E+00 -0.15197725663E+03  0.17827538790E+03  0.92254055120E+02 0.  0.
         23    2    1    2    0    0  0.13197684168E+02  0.19453272020E+00 -0.21356419518E+03  0.23296348942E+03  0.92130913538E+02 0.  0.
          5    1    3    3  502    0 -0.68433228906E+01 -0.45640749917E+02 -0.65487408587E+02  0.80253347623E+02  0.47000000000E+01 0. -1.
         -5    1    3    3    0  502 -0.63543612775E+01  0.45446217197E+02 -0.86489848046E+02  0.98022040275E+02  0.47000000000E+01 0.  1.
          5    1    4    4  503    0  0.44185487027E+02  0.68319696145E+01 -0.54235900049E+02  0.70446120736E+02  0.47000000000E+01 0. -1.
         -5    1    4    4    0  503 -0.30987802859E+02 -0.66374368943E+01 -0.15932829513E+03  0.16251736868E+03  0.47000000000E+01 0.  1.
<mgrwt>
<rscale>  0 0.93163005E+02</rscale>
<asrwt>0</asrwt>
<pdfrwt beam="1">  1        2 0.59752332E-01 0.93193494E+02</pdfrwt>
<pdfrwt beam="2">  1       -2 0.35151866E-02 0.93193494E+02</pdfrwt>
<totfact> 0.24740320E+04</totfact>
</mgrwt>
</event>
<event>
 8    1  0.3177960E-004  0.1013853E+03  0.7546771E-02  0.1279728E+00
          1   -1    0    0  501    0  0.00000000000E+00  0.00000000000E+00  0.13025502148E+03  0.13025502148E+03  0.00000000000E+00 0. -1.
         -1   -1    0    0    0  501 -0.00000000000E+00 -0.00000000000E+00 -0.84706651754E+02  0.84706651754E+02  0.00000000000E+00 0.  1.
         23    2    1    2    0    0  0.75671704387E+01  0.40769244196E+02 -0.13029383630E+02  0.97870556639E+02  0.87689723904E+02 0.  0.
         23    2    1    2    0    0 -0.75671704387E+01 -0.40769244196E+02  0.58577753353E+02  0.11709111659E+03  0.92518014765E+02 0.  0.
          5    1    3    3  502    0  0.28201478712E+02  0.38361896037E+02  0.25224881209E+02  0.54086441010E+02  0.47000000000E+01 0. -1.
         -5    1    4    4    0  503  0.32733070142E+02 -0.24072212546E+02  0.60665943114E+02  0.73166740748E+02  0.47000000000E+01 0.  1.
          5    1    4    4  503    0 -0.40300240581E+02 -0.16697031651E+02 -0.20881897609E+01  0.43924375844E+02  0.47000000000E+01 0. -1.
         -5    1    3    3    0  502 -0.20634308274E+02  0.24073481594E+01 -0.38254264839E+02  0.43784115629E+02  0.47000000000E+01 0.  1.
<mgrwt>
<rscale>  0 0.10027056E+03</rscale>
<asrwt>0</asrwt>
<pdfrwt beam="1">  1        1 0.20039234E-01 0.10138529E+03</pdfrwt>
<pdfrwt beam="2">  1       -1 0.13031793E-01 0.10138529E+03</pdfrwt>
<totfact> 0.94088491E+03</totfact>
</mgrwt>
</event>
<event>
 8    1  0.3177960E-004  0.9832649E+02  0.7546771E-02  0.1285126E+00
         -3   -1    0    0    0  501 -0.00000000000E+00  0.00000000000E+00  0.17627332857E+02  0.17627332857E+02  0.00000000000E+00 0.  1.
          3   -1    0    0  501    0  0.00000000000E+00 -0.00000000000E+00 -0.54582807014E+03  0.54582807014E+03  0.00000000000E+00 0. -1.
         23    2    1    2    0    0 -0.31076688388E+02 -0.13730864074E+01 -0.29967883594E+03  0.31467767569E+03  0.90812933785E+02 0.  0.
         23    2    1    2    0    0  0.31076688388E+02  0.13730864074E+01 -0.22852190135E+03  0.24877772731E+03  0.93276214981E+02 0.  0.
          5    1    3    3  502    0 -0.31729800932E+02 -0.26004734704E+02 -0.27936256849E+03  0.28239787742E+03  0.47000000000E+01 0. -1.
         -5    1    3    3    0  502  0.65311254364E+00  0.24631648297E+02 -0.20316267442E+02  0.32279798274E+02  0.47000000000E+01 0.  1.
          5    1    4    4  503    0  0.19458776787E+02 -0.34037361336E+02 -0.38752971124E+02  0.55326925920E+02  0.47000000000E+01 0. -1.
         -5    1    4    4    0  503  0.11617911601E+02  0.35410447743E+02 -0.18976893022E+03  0.19345080139E+03  0.47000000000E+01 0.  1.
<mgrwt>
<rscale>  0 0.97737823E+02</rscale>
<asrwt>0</asrwt>
<pdfrwt beam="1">  1        3 0.83973560E-01 0.98326488E+02</pdfrwt>
<pdfrwt beam="2">  1       -3 0.27118970E-02 0.98326488E+02</pdfrwt>
<totfact> 0.17327724E+03</totfact>
</mgrwt>
</event>
<event>
 8    1  0.3177960E-004  0.1111215E+03  0.7546771E-02  0.1261279E+00
         -2   -1    0    0    0  501 -0.00000000000E+00  0.00000000000E+00  0.23656083746E+02  0.23656083746E+02  0.00000000000E+00 0.  1.
          2   -1    0    0  501    0  0.00000000000E+00 -0.00000000000E+00 -0.56338186690E+03  0.56338186690E+03  0.00000000000E+00 0. -1.
         23    2    1    2    0    0  0.49253399014E+02 -0.14817524388E+01 -0.16093412386E+03  0.19228344787E+03  0.92978702921E+02 0.  0.
         23    2    1    2    0    0 -0.49253399014E+02  0.14817524388E+01 -0.37879165930E+03  0.39475450278E+03  0.99598711877E+02 0.  0.
          5    1    4    4  502    0 -0.55718590265E+02 -0.32706547217E+02 -0.31818609066E+03  0.32471334716E+03  0.47000000000E+01 0. -1.
         -5    1    4    4    0  502  0.64651912506E+01  0.34188299656E+02 -0.60605568637E+02  0.70041155624E+02  0.47000000000E+01 0.  1.
          5    1    3    3  503    0  0.23556959286E+02  0.31862277571E+02 -0.13893810754E+03  0.14455456682E+03  0.47000000000E+01 0. -1.
         -5    1    3    3    0  503  0.25696439728E+02 -0.33344030010E+02 -0.21996016324E+02  0.47728881048E+02  0.47000000000E+01 0.  1.
<mgrwt>
<rscale>  0 0.10961816E+03</rscale>
<asrwt>0</asrwt>
<pdfrwt beam="1">  1        2 0.86674137E-01 0.11112154E+03</pdfrwt>
<pdfrwt beam="2">  1       -2 0.36393973E-02 0.11112154E+03</pdfrwt>
<totfact> 0.16016265E+04</totfact>
</mgrwt>
</event>
<event>
 8    1  0.3177960E-004  0.9418354E+02  0.7546771E-02  0.1293648E+00
         -2   -1    0    0    0  501 -0.00000000000E+00  0.00000000000E+00  0.19042913538E+03  0.19042913538E+03  0.00000000000E+00 0.  1.
          2   -1    0    0  501    0  0.00000000000E+00 -0.00000000000E+00 -0.12050815949E+03  0.12050815949E+03  0.00000000000E+00 0. -1.
         23    2    1    2    0    0 -0.80439044923E-01  0.16320507629E+02  0.15724579669E+03  0.18329424379E+03  0.92758685795E+02 0.  0.
         23    2    1    2    0    0  0.80439044923E-01 -0.16320507629E+02 -0.87324820796E+02  0.12764305107E+03  0.91655652967E+02 0.  0.
          5    1    4    4  502    0 -0.36849913132E+02 -0.95198147108E+01 -0.80528342090E+02  0.89193311688E+02  0.47000000000E+01 0. -1.
         -5    1    3    3    0  503 -0.33475193794E+02 -0.12915194801E+02  0.25703571024E+02  0.44386421569E+02  0.47000000000E+01 0.  1.
          5    1    3    3  503    0  0.33394754749E+02  0.29235702430E+02  0.13154222567E+03  0.13890782222E+03  0.47000000000E+01 0. -1.
         -5    1    4    4    0  502  0.36930352177E+02 -0.68006929179E+01 -0.67964787063E+01  0.38449739387E+02  0.47000000000E+01 0.  1.
<mgrwt>
<rscale>  0 0.93910821E+02</rscale>
<asrwt>0</asrwt>
<pdfrwt beam="1">  1        2 0.18539717E-01 0.94183540E+02</pdfrwt>
<pdfrwt beam="2">  1       -2 0.29296790E-01 0.94183540E+02</pdfrwt>
<totfact> 0.30515301E+03</totfact>
</mgrwt>
</event>
<event>
 8    1  0.3177960E-004  0.9918398E+02  0.7546771E-02  0.1289071E+00
         -2   -1    0    0    0  501 -0.00000000000E+00  0.00000000000E+00  0.79782060220E+01  0.79782060220E+01  0.00000000000E+00 0.  1.
          2   -1    0    0  501    0  0.00000000000E+00 -0.00000000000E+00 -0.11673978717E+04  0.11673978717E+04  0.00000000000E+00 0. -1.
         23    2    1    2    0    0 -0.36251883562E+02  0.12525561699E+02 -0.70045280135E+03  0.70581453228E+03  0.77903390763E+02 0.  0.
         23    2    1    2    0    0  0.36251883562E+02 -0.12525561699E+02 -0.45896686434E+03  0.46956154546E+03  0.91467883189E+02 0.  0.
          5    1    3    3  502    0  0.23472939787E+02  0.11421105278E+02 -0.18529847661E+03  0.18718716832E+03  0.47000000000E+01 0. -1.
         -5    1    4    4    0  503 -0.24856509399E+02 -0.10064353615E+02 -0.59755728327E+02  0.65665625262E+02  0.47000000000E+01 0.  1.
          5    1    4    4  503    0  0.61108392961E+02 -0.24612080836E+01 -0.39921113601E+03  0.40389592020E+03  0.47000000000E+01 0. -1.
         -5    1    3    3    0  502 -0.59724823349E+02  0.11044564214E+01 -0.51515432474E+03  0.51862736396E+03  0.47000000000E+01 0.  1.
<mgrwt>
<rscale>  0 0.95940675E+02</rscale>
<asrwt>0</asrwt>
<pdfrwt beam="1">  1        2 0.17959967E+00 0.99183983E+02</pdfrwt>
<pdfrwt beam="2">  1       -2 0.12274163E-02 0.99183983E+02</pdfrwt>
<totfact> 0.30554246E+04</totfact>
</mgrwt>
</event>
<event>
 8    1  0.3177960E-004  0.1119586E+03  0.7546771E-02  0.1257699E+00
         -1   -1    0    0    0  501 -0.00000000000E+00  0.00000000000E+00  0.12083591944E+03  0.12083591944E+03  0.00000000000E+00 0.  1.
          1   -1    0    0  501    0  0.00000000000E+00 -0.00000000000E+00 -0.20825069291E+03  0.20825069291E+03  0.00000000000E+00 0. -1.
         23    2    1    2    0    0  0.20321058840E+02  0.60828308362E+02 -0.16092642557E+03  0.19515123363E+03  0.89853553134E+02 0.  0.
         23    2    1    2    0    0 -0.20321058840E+02 -0.60828308362E+02  0.73511652102E+02  0.13393537872E+03  0.91769788864E+02 0.  0.
          5    1    4    4  502    0 -0.28797501669E+02  0.16079221086E+02  0.13682341511E+02  0.36015745478E+02  0.47000000000E+01 0. -1.
         -5    1    3    3    0  503 -0.15230865728E+02  0.68173811216E+02 -0.12809274499E+03  0.14597770078E+03  0.47000000000E+01 0. -1.
          5    1    3    3  503    0  0.35551924568E+02 -0.73455028534E+01 -0.32833680585E+02  0.49173532854E+02  0.47000000000E+01 0.  1.
         -5    1    4    4    0  502  0.84764428286E+01 -0.76907529449E+02  0.59829310591E+02  0.97919633244E+02  0.47000000000E+01 0.  1.
<mgrwt>
<rscale>  0 0.11156520E+03</rscale>
<asrwt>0</asrwt>
<pdfrwt beam="1">  1        1 0.32038568E-01 0.11195858E+03</pdfrwt>
<pdfrwt beam="2">  1       -1 0.18590142E-01 0.11195858E+03</pdfrwt>
<totfact> 0.30323856E+03</totfact>
</mgrwt>
</event>
<event>
 8    1  0.3177960E-004  0.9563928E+02  0.7546771E-02  0.1290396E+00
         -1   -1    0    0    0  501 -0.00000000000E+00  0.00000000000E+00  0.16790721630E+03  0.16790721630E+03  0.00000000000E+00 0.  1.
          1   -1    0    0  501    0  0.00000000000E+00 -0.00000000000E+00 -0.53022780301E+03  0.53022780301E+03  0.00000000000E+00 0. -1.
         23    2    1    2    0    0 -0.79659544675E+01  0.21884557707E+02  0.14983104028E+03  0.17713006718E+03  0.91560525184E+02 0.  0.
         23    2    1    2    0    0  0.79659544675E+01 -0.21884557707E+02 -0.51215162699E+03  0.52100495213E+03  0.92760340735E+02 0.  0.
          5    1    3    3  502    0 -0.30991383823E+02 -0.24480672285E+02  0.44582028422E+02  0.59744593437E+02  0.47000000000E+01 0. -1.
         -5    1    3    3    0  502  0.23025429355E+02  0.46365229992E+02  0.10524901186E+03  0.11738547375E+03  0.47000000000E+01 0.  1.
          5    1    4    4  503    0 -0.26428510626E+02  0.22389116188E+02 -0.27801582187E+03  0.28020461436E+03  0.47000000000E+01 0. -1.
         -5    1    4    4    0  503  0.34394465093E+02 -0.44273673895E+02 -0.23413580512E+03  0.24080033776E+03  0.47000000000E+01 0.  1.
<mgrwt>
<rscale>  0 0.95347128E+02</rscale>
<asrwt>0</asrwt>
<pdfrwt beam="1">  1        1 0.81573508E-01 0.95639276E+02</pdfrwt>
<pdfrwt beam="2">  1       -1 0.25831879E-01 0.95639276E+02</pdfrwt>
<totfact> 0.55637391E+02</totfact>
</mgrwt>
</event>
<event>
 8    1  0.3177960E-004  0.9366715E+02  0.7546771E-02  0.1294973E+00
         -2   -1    0    0    0  501 -0.00000000000E+00  0.00000000000E+00  0.54674406978E+02  0.54674406978E+02  0.00000000000E+00 0.  1.
          2   -1    0    0  501    0  0.00000000000E+00 -0.00000000000E+00 -0.16441089808E+03  0.16441089808E+03  0.00000000000E+00 0. -1.
         23    2    1    2    0    0  0.16557902082E+02 -0.61542868529E+01 -0.33963849763E+02  0.99634722630E+02  0.91986387552E+02 0.  0.
         23    2    1    2    0    0 -0.16557902082E+02  0.61542868529E+01 -0.75772641342E+02  0.11945058243E+03  0.90636135724E+02 0.  0.
          5    1    4    4  502    0  0.20516210173E+02  0.21504291434E+02 -0.72995982406E+02  0.78954752089E+02  0.47000000000E+01 0. -1.
         -5    1    4    4    0  502 -0.37074112256E+02 -0.15350004581E+02 -0.27766589359E+01  0.40495830341E+02  0.47000000000E+01 0.  1.
          5    1    3    3  503    0  0.23075943492E+02  0.37288447723E+02 -0.33616821292E+02  0.55453657908E+02  0.47000000000E+01 0. -1.
         -5    1    3    3    0  503 -0.65180414094E+01 -0.43442734576E+02 -0.34702847089E+00  0.44181064722E+02  0.47000000000E+01 0.  1.
<mgrwt>
<rscale>  0 0.93333958E+02</rscale>
<asrwt>0</asrwt>
<pdfrwt beam="1">  1        2 0.25293984E-01 0.93667149E+02</pdfrwt>
<pdfrwt beam="2">  1       -2 0.84114472E-02 0.93667149E+02</pdfrwt>
<totfact> 0.16670190E+04</totfact>
</mgrwt>
</event>
<event>
 8    1  0.3177960E-004  0.9572739E+02  0.7546771E-02  0.1290999E+00
         -1   -1    0    0    0  501 -0.00000000000E+00  0.00000000000E+00  0.12173745040E+02  0.12173745040E+02  0.00000000000E+00 0.  1.
          1   -1    0    0  501    0  0.00000000000E+00 -0.00000000000E+00 -0.73364153227E+03  0.73364153227E+03  0.00000000000E+00 0. -1.
         23    2    1    2    0    0  0.36374259653E+01 -0.28610836398E+02 -0.36934827444E+03  0.38091544913E+03  0.88581153320E+02 0.  0.
         23    2    1    2    0    0 -0.36374259653E+01  0.28610836398E+02 -0.35211951279E+03  0.36489982818E+03  0.91279365108E+02 0.  0.
          5    1    4    4  502    0  0.28631010507E+02  0.78477060376E+01 -0.29121763955E+03  0.29276462361E+03  0.47000000000E+01 0. -1.
         -5    1    4    4    0  502 -0.32268436472E+02  0.20763130360E+02 -0.60901873236E+02  0.72135204570E+02  0.47000000000E+01 0.  1.
          5    1    3    3  503    0 -0.84175038925E+01  0.30690419374E+02 -0.14266109303E+03  0.14624306369E+03  0.47000000000E+01 0. -1.
         -5    1    3    3    0  503  0.12054929858E+02 -0.59301255772E+02 -0.22668718141E+03  0.23467238543E+03  0.47000000000E+01 0.  1.
<mgrwt>
<rscale>  0 0.95078500E+02</rscale>
<asrwt>0</asrwt>
<pdfrwt beam="1">  1        1 0.11286797E+00 0.95727391E+02</pdfrwt>
<pdfrwt beam="2">  1       -1 0.18728832E-02 0.95727391E+02</pdfrwt>
<totfact> 0.18273634E+04</totfact>
</mgrwt>
</event>
<event>
 8    1  0.7246336E-004  0.9031202E+02  0.7546771E-02  0.1307261E+00
          1   -1    0    0  501    0  0.00000000000E+00  0.00000000000E+00  0.41485082036E+03  0.41485082036E+03  0.00000000000E+00 0. -1.
         -1   -1    0    0    0  501 -0.00000000000E+00 -0.00000000000E+00 -0.50955174287E+02  0.50955174287E+02  0.00000000000E+00 0.  1.
         23    2    1    2    0    0 -0.34122588700E+01  0.29387887436E+00  0.36635856744E+03  0.37546039506E+03  0.82098589814E+02 0.  0.
         23    2    1    2    0    0  0.34122588700E+01 -0.29387887436E+00 -0.24629213656E+01  0.90345599584E+02  0.90247058163E+02 0.  0.
          5    1    4    4  502    0 -0.28083355070E+02  0.26124888833E+02 -0.22131966882E+02  0.44531995314E+02  0.47000000000E+01 0. -1.
         -5    1    4    4    0  502  0.31495613940E+02 -0.26418767708E+02  0.19669045516E+02  0.45813604270E+02  0.47000000000E+01 0.  1.
          5    1    3    3  503    0  0.14476247127E+02  0.30076398109E+02  0.28340714075E+03  0.28540471068E+03  0.47000000000E+01 0. -1.
         -5    1    3    3    0  503 -0.17888505997E+02 -0.29782519234E+02  0.82951426690E+02  0.90055684378E+02  0.47000000000E+01 0.  1.
<mgrwt>
<rscale>  0 0.88203840E+02</rscale>
<asrwt>0</asrwt>
<pdfrwt beam="1">  1        1 0.63823201E-01 0.90312022E+02</pdfrwt>
<pdfrwt beam="2">  1       -1 0.78392579E-02 0.90312022E+02</pdfrwt>
<totfact> 0.48229593E+03</totfact>
</mgrwt>
</event>
<event>
 8    1  0.3177960E-004  0.9399583E+02  0.7546771E-02  0.1294026E+00
          1   -1    0    0  501    0  0.00000000000E+00  0.00000000000E+00  0.35191279930E+03  0.35191279930E+03  0.00000000000E+00 0. -1.
         -1   -1    0    0    0  501 -0.00000000000E+00 -0.00000000000E+00 -0.35035225146E+02  0.35035225146E+02  0.00000000000E+00 0.  1.
         23    2    1    2    0    0  0.17858795479E+02  0.11592893907E+02  0.53479206085E+02  0.10728051303E+03  0.90530388421E+02 0.  0.
         23    2    1    2    0    0 -0.17858795479E+02 -0.11592893907E+02  0.26339836807E+03  0.27966751142E+03  0.91552634448E+02 0.  0.
          5    1    3    3  502    0 -0.27531808416E+02 -0.93442219219E+01  0.48612279784E+02  0.56838004045E+02  0.47000000000E+01 0. -1.
         -5    1    3    3    0  502  0.45390603896E+02  0.20937115829E+02  0.48669263009E+01  0.50442508987E+02  0.47000000000E+01 0.  1.
          5    1    4    4  503    0 -0.47693431031E+02 -0.12286954054E+02  0.22717368356E+03  0.23249861313E+03  0.47000000000E+01 0. -1.
         -5    1    4    4    0  503  0.29834635551E+02  0.69406014733E+00  0.36224684509E+02  0.47168898289E+02  0.47000000000E+01 0.  1.
<mgrwt>
<rscale>  0 0.93745992E+02</rscale>
<asrwt>0</asrwt>
<pdfrwt beam="1">  1        1 0.54140428E-01 0.93995833E+02</pdfrwt>
<pdfrwt beam="2">  1       -1 0.53900349E-02 0.93995833E+02</pdfrwt>
<totfact> 0.10321415E+04</totfact>
</mgrwt>
</event>
<event>
 8    1  0.3177960E-004  0.1026207E+03  0.7546771E-02  0.1275691E+00
          1   -1    0    0  501    0  0.00000000000E+00  0.00000000000E+00  0.47010933284E+02  0.47010933284E+02  0.00000000000E+00 0. -1.
         -1   -1    0    0    0  501 -0.00000000000E+00 -0.00000000000E+00 -0.22057906135E+03  0.22057906135E+03  0.00000000000E+00 0.  1.
         23    2    1    2    0    0  0.21351190787E+02 -0.44492759026E+02 -0.88542578565E+02  0.13553890481E+03  0.89975149588E+02 0.  0.
         23    2    1    2    0    0 -0.21351190787E+02  0.44492759026E+02 -0.85025549498E+02  0.13205108983E+03  0.88162731938E+02 0.  0.
          5    1    4    4  502    0 -0.19447847029E+01  0.64036506022E+02 -0.31218532039E+02  0.71422286674E+02  0.47000000000E+01 0. -1.
         -5    1    3    3    0  503  0.61841954308E+01 -0.66971530903E+02 -0.83894079176E+02  0.10762776940E+03  0.47000000000E+01 0.  1.
          5    1    3    3  503    0  0.15166995356E+02  0.22478771877E+02 -0.46484993896E+01  0.27911135409E+02  0.47000000000E+01 0. -1.
         -5    1    4    4    0  502 -0.19406406084E+02 -0.19543746996E+02 -0.53807017458E+02  0.60628803151E+02  0.47000000000E+01 0.  1.
<mgrwt>
<rscale>  0 0.10222205E+03</rscale>
<asrwt>0</asrwt>
<pdfrwt beam="1">  1        1 0.72324513E-02 0.10262069E+03</pdfrwt>
<pdfrwt beam="2">  1       -1 0.33935240E-01 0.10262069E+03</pdfrwt>
<totfact> 0.76114800E+03</totfact>
</mgrwt>
</event>
<event>
 8    1  0.3177960E-004  0.9139970E+02  0.7546771E-02  0.1300423E+00
          1   -1    0    0  501    0  0.00000000000E+00  0.00000000000E+00  0.32431696002E+02  0.32431696002E+02  0.00000000000E+00 0. -1.
         -1   -1    0    0    0  501 -0.00000000000E+00 -0.00000000000E+00 -0.39652590866E+03  0.39652590866E+03  0.00000000000E+00 0.  1.
         23    2    1    2    0    0  0.46023497844E+01  0.20977908463E+01 -0.54114866635E+02  0.10621828115E+03  0.91259641187E+02 0.  0.
         23    2    1    2    0    0 -0.46023497844E+01 -0.20977908463E+01 -0.30997934602E+03  0.32273932351E+03  0.89710053118E+02 0.  0.
          5    1    3    3  502    0  0.23287785149E+02 -0.28081653879E+02  0.49838613122E+01  0.37119120347E+02  0.47000000000E+01 0. -1.
         -5    1    4    4    0  503 -0.35108117985E+02 -0.22313898358E+02 -0.84951129789E+02  0.94706253547E+02  0.47000000000E+01 0.  1.
          5    1    4    4  503    0  0.30505768201E+02  0.20216107512E+02 -0.22502821623E+03  0.22803306996E+03  0.47000000000E+01 0. -1.
         -5    1    3    3    0  502 -0.18685435365E+02  0.30179444726E+02 -0.59098727947E+02  0.69099160803E+02  0.47000000000E+01 0.  1.
<mgrwt>
<rscale>  0 0.91010423E+02</rscale>
<asrwt>0</asrwt>
<pdfrwt beam="1">  1        1 0.49894918E-02 0.91399696E+02</pdfrwt>
<pdfrwt beam="2">  1       -1 0.61003984E-01 0.91399696E+02</pdfrwt>
<totfact> 0.43676228E+03</totfact>
</mgrwt>
</event>
<event>
 8    1  0.3177960E-004  0.1128691E+03  0.7546771E-02  0.1256323E+00
          3   -1    0    0  501    0  0.00000000000E+00  0.00000000000E+00  0.30259558298E+02  0.30259558298E+02  0.00000000000E+00 0. -1.
         -3   -1    0    0    0  501 -0.00000000000E+00 -0.00000000000E+00 -0.47471927298E+03  0.47471927298E+03  0.00000000000E+00 0.  1.
         23    2    1    2    0    0 -0.54382849763E+02  0.38108561685E+02 -0.12932039644E+03  0.17023679743E+03  0.88583550635E+02 0.  0.
         23    2    1    2    0    0  0.54382849763E+02 -0.38108561685E+02 -0.31513931824E+03  0.33474203384E+03  0.91267094276E+02 0.  0.
          5    1    4    4  502    0 -0.21463192385E+02 -0.14445841127E+02 -0.13886146299E+03  0.14132921445E+03  0.47000000000E+01 0. -1.
         -5    1    4    4    0  502  0.75846042148E+02 -0.23662720557E+02 -0.17627785525E+03  0.19341281940E+03  0.47000000000E+01 0.  1.
          5    1    3    3  503    0 -0.44816266168E+02  0.50613762376E+01 -0.10634534822E+02  0.46575729447E+02  0.47000000000E+01 0. -1.
         -5    1    3    3    0  503 -0.95665835954E+01  0.33047185447E+02 -0.11868586162E+03  0.12366106799E+03  0.47000000000E+01 0.  1.
<mgrwt>
<rscale>  0 0.11232554E+03</rscale>
<asrwt>0</asrwt>
<pdfrwt beam="1">  1        3 0.46553169E-02 0.11286912E+03</pdfrwt>
<pdfrwt beam="2">  1       -3 0.73033730E-01 0.11286912E+03</pdfrwt>
<totfact> 0.10377828E+03</totfact>
</mgrwt>
</event>
<event>
 8    1  0.3177960E-004  0.9440375E+02  0.7546771E-02  0.1292965E+00
         -2   -1    0    0    0  501 -0.00000000000E+00  0.00000000000E+00  0.15010083768E+03  0.15010083768E+03  0.00000000000E+00 0.  1.
          2   -1    0    0  501    0  0.00000000000E+00 -0.00000000000E+00 -0.82261023625E+02  0.82261023625E+02  0.00000000000E+00 0. -1.
         23    2    1    2    0    0  0.36187415707E+00  0.50724736934E+01 -0.28106692154E+02  0.97759482470E+02  0.93493686025E+02 0.  0.
         23    2    1    2    0    0 -0.36187415707E+00 -0.50724736934E+01  0.95946506207E+02  0.13460237883E+03  0.94266682301E+02 0.  0.
          5    1    4    4  502    0  0.83867378893E+01 -0.48552058036E+02  0.55892040701E+02  0.74656881302E+02  0.47000000000E+01 0. -1.
         -5    1    3    3    0  503 -0.31589071311E+02  0.20850070036E+02  0.15569151227E+02  0.41195671091E+02  0.47000000000E+01 0.  1.
          5    1    3    3  503    0  0.31950945468E+02 -0.15777596342E+02 -0.43675843381E+02  0.56563811378E+02  0.47000000000E+01 0. -1.
         -5    1    4    4    0  502 -0.87486120463E+01  0.43479584343E+02  0.40054465506E+02  0.59945497532E+02  0.47000000000E+01 0.  1.
<mgrwt>
<rscale>  0 0.94210191E+02</rscale>
<asrwt>0</asrwt>
<pdfrwt beam="1">  1        2 0.12655542E-01 0.94403752E+02</pdfrwt>
<pdfrwt beam="2">  1       -2 0.23092437E-01 0.94403752E+02</pdfrwt>
<totfact> 0.71818579E+03</totfact>
</mgrwt>
</event>
<event>
 8    1  0.3177960E-004  0.1246439E+03  0.7546771E-02  0.1246614E+00
         -2   -1    0    0    0  501 -0.00000000000E+00  0.00000000000E+00  0.22210757215E+02  0.22210757215E+02  0.00000000000E+00 0.  1.
          2   -1    0    0  501    0  0.00000000000E+00 -0.00000000000E+00 -0.57365816539E+03  0.57365816539E+03  0.00000000000E+00 0. -1.
         23    2    1    2    0    0 -0.22995680939E+02  0.33476288159E+02 -0.27354481502E+03  0.30060415595E+03  0.11784154419E+03 0.  0.
         23    2    1    2    0    0  0.22995680939E+02 -0.33476288159E+02 -0.27790259316E+03  0.29526476666E+03  0.91115135603E+02 0.  0.
          5    1    4    4  502    0  0.48335415420E+02 -0.48963450999E+02 -0.20911711071E+03  0.22019488620E+03  0.47000000000E+01 0. -1.
         -5    1    4    4    0  502 -0.25339734481E+02  0.15487162841E+02 -0.68785482454E+02  0.75069880464E+02  0.47000000000E+01 0.  1.
          5    1    3    3  503    0  0.44336233209E+02  0.27583129432E+02 -0.80996304139E+02  0.96483272584E+02  0.47000000000E+01 0. -1.
         -5    1    3    3    0  503 -0.67331914148E+02  0.58931587268E+01 -0.19254851088E+03  0.20412088336E+03  0.47000000000E+01 0.  1.
<mgrwt>
<rscale>  0 0.11789323E+03</rscale>
<asrwt>0</asrwt>
<pdfrwt beam="1">  1        2 0.88255099E-01 0.12464386E+03</pdfrwt>
<pdfrwt beam="2">  1       -2 0.34170397E-02 0.12464386E+03</pdfrwt>
<totfact> 0.17389587E+04</totfact>
</mgrwt>
</event>
<event>
 8    1  0.3177960E-004  0.1115728E+03  0.7546771E-02  0.1259919E+00
         -1   -1    0    0    0  501 -0.00000000000E+00  0.00000000000E+00  0.12537574928E+03  0.12537574928E+03  0.00000000000E+00 0.  1.
          1   -1    0    0  501    0  0.00000000000E+00 -0.00000000000E+00 -0.78601096695E+03  0.78601096695E+03  0.00000000000E+00 0. -1.
         23    2    1    2    0    0 -0.35484316162E+02 -0.43679835055E+02  0.97798072030E+02  0.14479063977E+03  0.90734788192E+02 0.  0.
         23    2    1    2    0    0  0.35484316162E+02  0.43679835055E+02 -0.75843328970E+03  0.76659607645E+03  0.96340151683E+02 0.  0.
          5    1    4    4  502    0  0.54386804889E+02  0.61782309111E+02 -0.49437456718E+03  0.50120183653E+03  0.47000000000E+01 0. -1.
         -5    1    4    4    0  502 -0.18902488727E+02 -0.18102474056E+02 -0.26405872252E+03  0.26539423992E+03  0.47000000000E+01 0.  1.
          5    1    3    3  503    0 -0.55876422308E+02 -0.58973950984E+01  0.28605394794E+02  0.63224302686E+02  0.47000000000E+01 0. -1.
         -5    1    3    3    0  503  0.20392106146E+02 -0.37782439956E+02  0.69192677236E+02  0.81566337083E+02  0.47000000000E+01 0.  1.
<mgrwt>
<rscale>  0 0.11035226E+03</rscale>
<asrwt>0</asrwt>
<pdfrwt beam="1">  1        1 0.12092476E+00 0.11157280E+03</pdfrwt>
<pdfrwt beam="2">  1       -1 0.19288577E-01 0.11157280E+03</pdfrwt>
<totfact> 0.51662901E+02</totfact>
</mgrwt>
</event>
<event>
 8    1  0.3177960E-004  0.9846105E+02  0.7546771E-02  0.1283781E+00
         -3   -1    0    0    0  501 -0.00000000000E+00  0.00000000000E+00  0.74216239508E+02  0.74216239508E+02  0.00000000000E+00 0.  1.
          3   -1    0    0  501    0  0.00000000000E+00 -0.00000000000E+00 -0.16777572744E+03  0.16777572744E+03  0.00000000000E+00 0. -1.
         23    2    1    2    0    0  0.40407088785E+02  0.18097440065E+02  0.10634025161E+02  0.98636235935E+02  0.87497282171E+02 0.  0.
         23    2    1    2    0    0 -0.40407088785E+02 -0.18097440065E+02 -0.10419351309E+03  0.14335573101E+03  0.87945024206E+02 0.  0.
          5    1    3    3  502    0  0.56775779953E+02 -0.48105695712E+01 -0.16236845042E+02  0.59433626053E+02  0.47000000000E+01 0. -1.
         -5    1    3    3    0  502 -0.16368691169E+02  0.22908009636E+02  0.26870870203E+02  0.39202609882E+02  0.47000000000E+01 0.  1.
          5    1    4    4  503    0 -0.28855811852E+02 -0.49397567295E+02 -0.37298460625E+02  0.68454676227E+02  0.47000000000E+01 0. -1.
         -5    1    4    4    0  503 -0.11551276932E+02  0.31300127230E+02 -0.66895052465E+02  0.74901054784E+02  0.47000000000E+01 0.  1.
<mgrwt>
<rscale>  0 0.98360964E+02</rscale>
<asrwt>0</asrwt>
<pdfrwt beam="1">  1        3 0.25811650E-01 0.98461045E+02</pdfrwt>
<pdfrwt beam="2">  1       -3 0.11417883E-01 0.98461045E+02</pdfrwt>
<totfact> 0.18109642E+03</totfact>
</mgrwt>
</event>
<event>
 8    1  0.3177960E-004  0.1515586E+03  0.7546771E-02  0.1198766E+00
          1   -1    0    0  501    0  0.00000000000E+00  0.00000000000E+00  0.30560141785E+03  0.30560141785E+03  0.00000000000E+00 0. -1.
         -1   -1    0    0    0  501 -0.00000000000E+00 -0.00000000000E+00 -0.77245805195E+02  0.77245805195E+02  0.00000000000E+00 0.  1.
         23    2    1    2    0    0 -0.50974704259E+02  0.10978653009E+03  0.80197961920E+02  0.17090221053E+03  0.90135175170E+02 0.  0.
         23    2    1    2    0    0  0.50974704259E+02 -0.10978653009E+03  0.14815765073E+03  0.21194501252E+03  0.91205790369E+02 0.  0.
          5    1    4    4  502    0  0.31579031382E+02 -0.11763549621E+03  0.94728193741E+02  0.15437249069E+03  0.47000000000E+01 0. -1.
         -5    1    3    3    0  503 -0.67482507281E+02  0.68602999964E+02  0.24264678629E+02  0.99353535528E+02  0.47000000000E+01 0.  1.
          5    1    3    3  503    0  0.16507803022E+02  0.41183530126E+02  0.55933283291E+02  0.71548674997E+02  0.47000000000E+01 0. -1.
         -5    1    4    4    0  502  0.19395672877E+02  0.78489661190E+01  0.53429456994E+02  0.57572521832E+02  0.47000000000E+01 0.  1.
<mgrwt>
<rscale>  0 0.15139785E+03</rscale>
<asrwt>0</asrwt>
<pdfrwt beam="1">  1        1 0.47015602E-01 0.15155857E+03</pdfrwt>
<pdfrwt beam="2">  1       -1 0.11883970E-01 0.15155857E+03</pdfrwt>
<totfact> 0.38601553E+03</totfact>
</mgrwt>
</event>
<event>
 8    1  0.3177960E-004  0.1076257E+03  0.7546771E-02  0.1265413E+00
          2   -1    0    0  501    0  0.00000000000E+00  0.00000000000E+00  0.71344365606E+02  0.71344365606E+02  0.00000000000E+00 0. -1.
         -2   -1    0    0    0  501 -0.00000000000E+00 -0.00000000000E+00 -0.16120194446E+03  0.16120194446E+03  0.00000000000E+00 0.  1.
         23    2    1    2    0    0  0.28293973414E+02 -0.47865299487E+02 -0.42815875538E+02  0.11508899688E+03  0.91217554109E+02 0.  0.
         23    2    1    2    0    0 -0.28293973414E+02  0.47865299487E+02 -0.47041703313E+02  0.11745731319E+03  0.92150218360E+02 0.  0.
          5    1    4    4  502    0 -0.17659872973E+02  0.67971574218E+02 -0.58533724360E+02  0.91543939737E+02  0.47000000000E+01 0. -1.
         -5    1    4    4    0  502 -0.10634100441E+02 -0.20106274732E+02  0.11492021047E+02  0.25913373449E+02  0.47000000000E+01 0.  1.
          5    1    3    3  503    0  0.38647898268E+02  0.44214319437E+01  0.94322783958E+01  0.40302195681E+02  0.47000000000E+01 0. -1.
         -5    1    3    3    0  503 -0.10353924855E+02 -0.52286731430E+02 -0.52248153934E+02  0.74786801196E+02  0.47000000000E+01 0.  1.
<mgrwt>
<rscale>  0 0.10742581E+03</rscale>
<asrwt>0</asrwt>
<pdfrwt beam="1">  1        2 0.10976056E-01 0.10762573E+03</pdfrwt>
<pdfrwt beam="2">  1       -2 0.24800299E-01 0.10762573E+03</pdfrwt>
<totfact> 0.76131097E+03</totfact>
</mgrwt>
</event>
<event>
 8    1  0.3177960E-004  0.1316697E+03  0.7546771E-02  0.1232139E+00
         -3   -1    0    0    0  501 -0.00000000000E+00  0.00000000000E+00  0.99323042722E+02  0.99323042722E+02  0.00000000000E+00 0.  1.
          3   -1    0    0  501    0  0.00000000000E+00 -0.00000000000E+00 -0.16370844461E+03  0.16370844461E+03  0.00000000000E+00 0. -1.
         23    2    1    2    0    0  0.20502744369E+02  0.62188548403E+02  0.59810807613E+01  0.11373861042E+03  0.92805819292E+02 0.  0.
         23    2    1    2    0    0 -0.20502744369E+02 -0.62188548403E+02 -0.70366482653E+02  0.14929287691E+03  0.11423284614E+03 0.  0.
          5    1    3    3  502    0 -0.23205407413E+02  0.36600251777E+02 -0.28686410672E+02  0.52183038629E+02  0.47000000000E+01 0. -1.
         -5    1    4    4    0  503  0.37823162387E+02  0.77476462385E+01 -0.31990174280E+02  0.50359496480E+02  0.47000000000E+01 0.  1.
          5    1    4    4  503    0 -0.58325906757E+02 -0.69936194641E+02 -0.38376308373E+02  0.98933380435E+02  0.47000000000E+01 0. -1.
         -5    1    3    3    0  502  0.43708151782E+02  0.25588296626E+02  0.34667491433E+02  0.61555571792E+02  0.47000000000E+01 0.  1.
<mgrwt>
<rscale>  0 0.12689402E+03</rscale>
<asrwt>0</asrwt>
<pdfrwt beam="1">  1        3 0.25185914E-01 0.13166974E+03</pdfrwt>
<pdfrwt beam="2">  1       -3 0.15280468E-01 0.13166974E+03</pdfrwt>
<totfact> 0.12207318E+03</totfact>
</mgrwt>
</event>
<event>
 8    1  0.3177960E-004  0.1236468E+03  0.7546771E-02  0.1238024E+00
         -2   -1    0    0    0  501 -0.00000000000E+00  0.00000000000E+00  0.59619070404E+02  0.59619070404E+02  0.00000000000E+00 0.  1.
          2   -1    0    0  501    0  0.00000000000E+00 -0.00000000000E+00 -0.32329609824E+03  0.32329609824E+03  0.00000000000E+00 0. -1.
         23    2    1    2    0    0  0.63666440772E+02  0.53015660573E+02 -0.42909030607E+02  0.13088057302E+03  0.91784876418E+02 0.  0.
         23    2    1    2    0    0 -0.63666440772E+02 -0.53015660573E+02 -0.22076799723E+03  0.25203459563E+03  0.88987936521E+02 0.  0.
          5    1    3    3  502    0 -0.21439476289E+02 -0.19816377689E+01 -0.10327915733E+02  0.24337910247E+02  0.47000000000E+01 0. -1.
         -5    1    3    3    0  502  0.85105917061E+02  0.54997298342E+02 -0.32581114873E+02  0.10654266277E+03  0.47000000000E+01 0.  1.
          5    1    4    4  503    0 -0.28982460094E+02 -0.20678062653E+02 -0.19416657624E+03  0.19745965308E+03  0.47000000000E+01 0. -1.
         -5    1    4    4    0  503 -0.34683980678E+02 -0.32337597920E+02 -0.26601420991E+02  0.54574942543E+02  0.47000000000E+01 0.  1.
<mgrwt>
<rscale>  0 0.12312814E+03</rscale>
<asrwt>0</asrwt>
<pdfrwt beam="1">  1        2 0.49737861E-01 0.12364683E+03</pdfrwt>
<pdfrwt beam="2">  1       -2 0.91721647E-02 0.12364683E+03</pdfrwt>
<totfact> 0.72658355E+03</totfact>
</mgrwt>
</event>
<event>
 8    1  0.3177960E-004  0.9510495E+02  0.7546771E-02  0.1291669E+00
          2   -1    0    0  501    0  0.00000000000E+00  0.00000000000E+00  0.32996031404E+03  0.32996031404E+03  0.00000000000E+00 0. -1.
         -2   -1    0    0    0  501 -0.00000000000E+00 -0.00000000000E+00 -0.56529135058E+02  0.56529135058E+02  0.00000000000E+00 0.  1.
         23    2    1    2    0    0 -0.15502981200E+01  0.30435171353E+02 -0.24045087529E+01  0.95135342496E+02  0.90090225052E+02 0.  0.
         23    2    1    2    0    0  0.15502981200E+01 -0.30435171353E+02  0.27583568774E+03  0.29135410660E+03  0.88730973882E+02 0.  0.
          5    1    3    3  502    0  0.10062948941E+02  0.60899178246E+02  0.17918148581E+01  0.61929584634E+02  0.47000000000E+01 0. -1.
         -5    1    3    3    0  502 -0.11613247061E+02 -0.30464006894E+02 -0.41963236110E+01  0.33205757862E+02  0.47000000000E+01 0.  1.
          5    1    4    4  503    0  0.34197115622E+02 -0.12897201138E+01  0.47025941060E+02  0.58349252158E+02  0.47000000000E+01 0. -1.
         -5    1    4    4    0  503 -0.32646817502E+02 -0.29145451239E+02  0.22880974667E+03  0.23300485444E+03  0.47000000000E+01 0.  1.
<mgrwt>
<rscale>  0 0.94781664E+02</rscale>
<asrwt>0</asrwt>
<pdfrwt beam="1">  1        2 0.50763124E-01 0.95104951E+02</pdfrwt>
<pdfrwt beam="2">  1       -2 0.86967902E-02 0.95104951E+02</pdfrwt>
<totfact> 0.75774602E+03</totfact>
</mgrwt>
</event>
<event>
 8    1  0.3177960E-004  0.9525308E+02  0.7546771E-02  0.1291008E+00
          1   -1    0    0  501    0  0.00000000000E+00  0.00000000000E+00  0.25901590265E+03  0.25901590265E+03  0.00000000000E+00 0. -1.
         -1   -1    0    0    0  501 -0.00000000000E+00 -0.00000000000E+00 -0.54808496109E+02  0.54808496109E+02  0.00000000000E+00 0.  1.
         23    2    1    2    0    0  0.14868672289E+02 -0.17601908140E+02  0.19674307416E+03  0.21827929778E+03  0.91690294067E+02 0.  0.
         23    2    1    2    0    0 -0.14868672289E+02  0.17601908140E+02  0.74643323835E+01  0.95545100976E+02  0.92424268873E+02 0.  0.
          5    1    3    3  502    0  0.50572571724E+02  0.38857965666E+01  0.12788503085E+03  0.13765665818E+03  0.47000000000E+01 0. -1.
         -5    1    4    4    0  503  0.38918983932E+02  0.52012807739E+01 -0.68085034819E+00  0.39551159138E+02  0.47000000000E+01 0. -1.
          5    1    4    4  503    0 -0.53787656221E+02  0.12400627366E+02  0.81451827317E+01  0.55993941838E+02  0.47000000000E+01 0.  1.
         -5    1    3    3    0  502 -0.35703899435E+02 -0.21487704707E+02  0.68858043304E+02  0.80622639600E+02  0.47000000000E+01 0.  1.
<mgrwt>
<rscale>  0 0.95074580E+02</rscale>
<asrwt>0</asrwt>
<pdfrwt beam="1">  1        1 0.39848600E-01 0.95253084E+02</pdfrwt>
<pdfrwt beam="2">  1       -1 0.84320765E-02 0.95253084E+02</pdfrwt>
<totfact> 0.77447574E+03</totfact>
</mgrwt>
</event>
<event>
 8    1  0.3177960E-004  0.1622758E+03  0.7546771E-02  0.1187103E+00
         -3   -1    0    0    0  501 -0.00000000000E+00  0.00000000000E+00  0.31522176503E+02  0.31522176503E+02  0.00000000000E+00 0.  1.
          3   -1    0    0  501    0  0.00000000000E+00 -0.00000000000E+00 -0.93252993696E+03  0.93252993696E+03  0.00000000000E+00 0. -1.
         23    2    1    2    0    0  0.12308685939E+03  0.53903354023E+02 -0.27739706066E+03  0.31967355157E+03  0.84770889923E+02 0.  0.
         23    2    1    2    0    0 -0.12308685939E+03 -0.53903354023E+02 -0.62361069979E+03  0.64437856189E+03  0.90980655095E+02 0.  0.
          5    1    4    4  502    0 -0.63158295332E+02 -0.69676126138E+02 -0.45593530571E+03  0.46555646899E+03  0.47000000000E+01 0. -1.
         -5    1    4    4    0  502 -0.59928564060E+02  0.15772772115E+02 -0.16767539408E+03  0.17882209290E+03  0.47000000000E+01 0.  1.
          5    1    3    3  503    0  0.51357217742E+02  0.24141567456E+02 -0.20721020098E+03  0.21489191815E+03  0.47000000000E+01 0. -1.
         -5    1    3    3    0  503  0.71729641650E+02  0.29761786568E+02 -0.70186859680E+02  0.10478163342E+03  0.47000000000E+01 0.  1.
<mgrwt>
<rscale>  0 0.16141944E+03</rscale>
<asrwt>0</asrwt>
<pdfrwt beam="1">  1        3 0.14346616E+00 0.16227577E+03</pdfrwt>
<pdfrwt beam="2">  1       -3 0.48495652E-02 0.16227577E+03</pdfrwt>
<totfact> 0.21977352E+02</totfact>
</mgrwt>
</event>
<event>
 8    1  0.3177960E-004  0.1255272E+03  0.7546771E-02  0.1234877E+00
         -1   -1    0    0    0  501 -0.00000000000E+00  0.00000000000E+00  0.42969900979E+02  0.42969900979E+02  0.00000000000E+00 0.  1.
          1   -1    0    0  501    0  0.00000000000E+00 -0.00000000000E+00 -0.66416601979E+03  0.66416601979E+03  0.00000000000E+00 0. -1.
         23    2    1    2    0    0 -0.86239596722E+02  0.78747396710E+01 -0.71033498364E+02  0.14283459279E+03  0.88637934536E+02 0.  0.
         23    2    1    2    0    0  0.86239596722E+02 -0.78747396710E+01 -0.55016262045E+03  0.56430132798E+03  0.90872439484E+02 0.  0.
          5    1    4    4  502    0  0.59194909317E+02 -0.17180503646E+02 -0.51516145078E+03  0.51885702979E+03  0.47000000000E+01 0. -1.
         -5    1    4    4    0  502  0.27044687405E+02  0.93057639746E+01 -0.35001169667E+02  0.45444298190E+02  0.47000000000E+01 0.  1.
          5    1    3    3  503    0 -0.43921151307E+02 -0.35241303496E+02 -0.57754291921E+02  0.80800156185E+02  0.47000000000E+01 0. -1.
         -5    1    3    3    0  503 -0.42318445415E+02  0.43116043167E+02 -0.13279206444E+02  0.62034436601E+02  0.47000000000E+01 0.  1.
<mgrwt>
<rscale>  0 0.12512325E+03</rscale>
<asrwt>0</asrwt>
<pdfrwt beam="1">  1        1 0.10217938E+00 0.12552721E+03</pdfrwt>
<pdfrwt beam="2">  1       -1 0.66107544E-02 0.12552721E+03</pdfrwt>
<totfact> 0.34123545E+03</totfact>
</mgrwt>
</event>
<event>
 8    1  0.3177960E-004  0.1228186E+03  0.7546771E-02  0.1239107E+00
          1   -1    0    0  501    0  0.00000000000E+00  0.00000000000E+00  0.42712978174E+02  0.42712978174E+02  0.00000000000E+00 0. -1.
         -1   -1    0    0    0  501 -0.00000000000E+00 -0.00000000000E+00 -0.37427927594E+03  0.37427927594E+03  0.00000000000E+00 0.  1.
         23    2    1    2    0    0 -0.30236222153E+02  0.76846121388E+02 -0.21908140506E+03  0.25044719257E+03  0.88924567574E+02 0.  0.
         23    2    1    2    0    0  0.30236222153E+02 -0.76846121388E+02 -0.11248489270E+03  0.16654506154E+03  0.90911225579E+02 0.  0.
          5    1    4    4  502    0  0.61532689591E+00 -0.82451387055E+02 -0.48797698163E+02  0.95926613620E+02  0.47000000000E+01 0. -1.
         -5    1    4    4    0  502  0.29620895257E+02  0.56052656673E+01 -0.63687194539E+02  0.70618447925E+02  0.47000000000E+01 0.  1.
          5    1    3    3  503    0 -0.33959937777E+02  0.30290104918E+02 -0.27892758364E+02  0.53580442317E+02  0.47000000000E+01 0. -1.
         -5    1    3    3    0  503  0.37237156242E+01  0.46556016470E+02 -0.19118864670E+03  0.19686675025E+03  0.47000000000E+01 0.  1.
<mgrwt>
<rscale>  0 0.12245115E+03</rscale>
<asrwt>0</asrwt>
<pdfrwt beam="1">  1        1 0.65712272E-02 0.12281859E+03</pdfrwt>
<pdfrwt beam="2">  1       -1 0.57581429E-01 0.12281859E+03</pdfrwt>
<totfact> 0.34257792E+03</totfact>
</mgrwt>
</event>
<event>
 8    1  0.3177960E-004  0.1288592E+03  0.7546771E-02  0.1234350E+00
         -1   -1    0    0    0  501 -0.00000000000E+00  0.00000000000E+00  0.27372973451E+03  0.27372973451E+03  0.00000000000E+00 0.  1.
          1   -1    0    0  501    0  0.00000000000E+00 -0.00000000000E+00 -0.96438237591E+02  0.96438237591E+02  0.00000000000E+00 0. -1.
         23    2    1    2    0    0 -0.75100292175E+02  0.71981867932E+01  0.21304001725E+03  0.24897940907E+03  0.10446448876E+03 0.  0.
         23    2    1    2    0    0  0.75100292175E+02 -0.71981867932E+01 -0.35748520331E+02  0.12118856303E+03  0.87845565203E+02 0.  0.
          5    1    4    4  502    0  0.36276587827E+02 -0.47286833740E+02 -0.17754472234E+02  0.62364627425E+02  0.47000000000E+01 0. -1.
         -5    1    3    3    0  503 -0.88660537417E+01  0.46462133318E+02  0.11346676924E+03  0.12302087003E+03  0.47000000000E+01 0.  1.
          5    1    3    3  503    0 -0.66234238434E+02 -0.39263946524E+02  0.99573248017E+02  0.12595853904E+03  0.47000000000E+01 0. -1.
         -5    1    4    4    0  502  0.38823704348E+02  0.40088646947E+02 -0.17994048097E+02  0.58823935607E+02  0.47000000000E+01 0.  1.
<mgrwt>
<rscale>  0 0.12546136E+03</rscale>
<asrwt>0</asrwt>
<pdfrwt beam="1">  1        1 0.14836652E-01 0.12885921E+03</pdfrwt>
<pdfrwt beam="2">  1       -1 0.42112267E-01 0.12885921E+03</pdfrwt>
<totfact> 0.20652792E+03</totfact>
</mgrwt>
</event>
<event>
 8    1  0.3177960E-004  0.1013917E+03  0.7546771E-02  0.1279440E+00
         -1   -1    0    0    0  501 -0.00000000000E+00  0.00000000000E+00  0.19975691034E+02  0.19975691034E+02  0.00000000000E+00 0.  1.
          1   -1    0    0  501    0  0.00000000000E+00 -0.00000000000E+00 -0.56312678839E+03  0.56312678839E+03  0.00000000000E+00 0. -1.
         23    2    1    2    0    0  0.31292635959E+02 -0.30363728353E+02 -0.17494871912E+03  0.20220613738E+03  0.91537329032E+02 0.  0.
         23    2    1    2    0    0 -0.31292635959E+02  0.30363728353E+02 -0.36820237823E+03  0.38089634205E+03  0.87222972792E+02 0.  0.
          5    1    4    4  502    0 -0.59502596117E+02  0.13769830812E+02 -0.28186264253E+03  0.28844203307E+03  0.47000000000E+01 0. -1.
         -5    1    4    4    0  502  0.28209960157E+02  0.16593897541E+02 -0.86339735704E+02  0.92454308981E+02  0.47000000000E+01 0.  1.
          5    1    3    3  503    0  0.15125973514E+02  0.31781406190E+02 -0.79520292482E+02  0.87088574283E+02  0.47000000000E+01 0. -1.
         -5    1    3    3    0  503  0.16166662446E+02 -0.62145134544E+02 -0.95428426641E+02  0.11511756310E+03  0.47000000000E+01 0.  1.
<mgrwt>
<rscale>  0 0.10040809E+03</rscale>
<asrwt>0</asrwt>
<pdfrwt beam="1">  1        1 0.86634890E-01 0.10139165E+03</pdfrwt>
<pdfrwt beam="2">  1       -1 0.30731833E-02 0.10139165E+03</pdfrwt>
<totfact> 0.12972425E+04</totfact>
</mgrwt>
</event>
<event>
 8    1  0.3177960E-004  0.9289266E+02  0.7546771E-02  0.1296074E+00
          2   -1    0    0  501    0  0.00000000000E+00  0.00000000000E+00  0.21521922447E+02  0.21521922447E+02  0.00000000000E+00 0. -1.
         -2   -1    0    0    0  501 -0.00000000000E+00 -0.00000000000E+00 -0.51993103551E+03  0.51993103551E+03  0.00000000000E+00 0.  1.
         23    2    1    2    0    0  0.46389827183E+01 -0.17157508514E+02 -0.11922485024E+03  0.15105604385E+03  0.91035505209E+02 0.  0.
         23    2    1    2    0    0 -0.46389827183E+01  0.17157508514E+02 -0.37918426282E+03  0.39039691411E+03  0.91176450444E+02 0.  0.
          5    1    4    4  502    0 -0.35470234244E+02 -0.18755522606E+02 -0.23829970600E+03  0.24169970423E+03  0.47000000000E+01 0. -1.
         -5    1    3    3    0  503 -0.36268015534E+02 -0.28225092163E+02 -0.40093267626E+02  0.61168495872E+02  0.47000000000E+01 0.  1.
          5    1    3    3  503    0  0.40906998252E+02  0.11067583649E+02 -0.79131582615E+02  0.89887547975E+02  0.47000000000E+01 0. -1.
         -5    1    4    4    0  502  0.30831251526E+02  0.35913031120E+02 -0.14088455682E+03  0.14869720988E+03  0.47000000000E+01 0.  1.
<mgrwt>
<rscale>  0 0.92858051E+02</rscale>
<asrwt>0</asrwt>
<pdfrwt beam="1">  1        2 0.33110651E-02 0.92892655E+02</pdfrwt>
<pdfrwt beam="2">  1       -2 0.79989387E-01 0.92892655E+02</pdfrwt>
<totfact> 0.35929799E+03</totfact>
</mgrwt>
</event>
<event>
 8    1  0.3177960E-004  0.9437130E+02  0.7546771E-02  0.1293573E+00
          1   -1    0    0  501    0  0.00000000000E+00  0.00000000000E+00  0.24800961616E+03  0.24800961616E+03  0.00000000000E+00 0. -1.
         -1   -1    0    0    0  501 -0.00000000000E+00 -0.00000000000E+00 -0.47239816832E+02  0.47239816832E+02  0.00000000000E+00 0.  1.
         23    2    1    2    0    0 -0.14975330433E+02 -0.57676661780E+01  0.17402371466E+03  0.19716123074E+03  0.91273058178E+02 0.  0.
         23    2    1    2    0    0  0.14975330433E+02  0.57676661780E+01  0.26746084669E+02  0.98088202250E+02  0.92996859520E+02 0.  0.
          5    1    3    3  502    0  0.24347282403E+02 -0.20078763157E+02  0.13832287223E+03  0.14195511218E+03  0.47000000000E+01 0.  1.
         -5    1    3    3    0  502 -0.39322612836E+02  0.14311096979E+02  0.35700842424E+02  0.55206118563E+02  0.47000000000E+01 0. -1.
          5    1    4    4  503    0  0.29280034821E+02  0.34684373647E+02  0.42067743935E+02  0.62065379191E+02  0.47000000000E+01 0. -1.
         -5    1    4    4    0  503 -0.14304704388E+02 -0.28916707469E+02 -0.15321659266E+02  0.36022823058E+02  0.47000000000E+01 0.  1.
<mgrwt>
<rscale>  0 0.93943847E+02</rscale>
<asrwt>0</asrwt>
<pdfrwt beam="1">  1        1 0.38155325E-01 0.94371301E+02</pdfrwt>
<pdfrwt beam="2">  1       -1 0.72676643E-02 0.94371301E+02</pdfrwt>
<totfact> 0.10187028E+04</totfact>
</mgrwt>
</event>
<event>
 7    1  0.3177960E-004  0.1364267E+03  0.7546771E-02  0.1235132E+00
          2   -1    0    0  501    0  0.00000000000E+00  0.00000000000E+00  0.51783027726E+03  0.51783027726E+03  0.00000000000E+00 0. -1.
         -2   -1    0    0    0  501 -0.00000000000E+00 -0.00000000000E+00 -0.46442834422E+02  0.46442834422E+02  0.00000000000E+00 0.  1.
         23    2    1    2    0    0  0.28337359582E+02 -0.34693632525E+01  0.27488837806E+02  0.99882966562E+02  0.91683850137E+02 0.  0.
          5    1    3    3  502    0 -0.25396393946E+02  0.20672854580E+02  0.23643657378E+02  0.40662713586E+02  0.47000000000E+01 0. -1.
         -5    1    3    3    0  502  0.53733753528E+02 -0.24142217833E+02  0.38451804283E+01  0.59220252976E+02  0.47000000000E+01 0.  1.
          5    1    1    2  503    0 -0.35449559275E+02  0.55147531032E+02  0.35642533137E+03  0.36243486073E+03  0.47000000000E+01 0. -1.
         -5    1    1    2    0  503  0.71121996934E+01 -0.51678167779E+02  0.87473273670E+02  0.10195528439E+03  0.47000000000E+01 0.  1.
<mgrwt>
<rscale>  0 0.12496015E+03</rscale>
<asrwt>0</asrwt>
<pdfrwt beam="1">  1        2 0.79666193E-01 0.13642667E+03</pdfrwt>
<pdfrwt beam="2">  1       -2 0.71450518E-02 0.13642667E+03</pdfrwt>
<totfact> 0.64847404E+03</totfact>
</mgrwt>
</event>
<event>
 8    1  0.3177960E-004  0.9943110E+02  0.7546771E-02  0.1283511E+00
          1   -1    0    0  501    0  0.00000000000E+00  0.00000000000E+00  0.51506166613E+03  0.51506166613E+03  0.00000000000E+00 0. -1.
         -1   -1    0    0    0  501 -0.00000000000E+00 -0.00000000000E+00 -0.25691937402E+02  0.25691937402E+02  0.00000000000E+00 0.  1.
         23    2    1    2    0    0  0.27286903494E+02 -0.22897903109E+02  0.39124983076E+03  0.40368672604E+03  0.92831318217E+02 0.  0.
         23    2    1    2    0    0 -0.27286903494E+02  0.22897903109E+02  0.98119897970E+02  0.13706687749E+03  0.88830881224E+02 0.  0.
          5    1    3    3  502    0  0.61740763997E+02 -0.13140208665E+02  0.25265363994E+03  0.26046216385E+03  0.47000000000E+01 0. -1.
         -5    1    3    3    0  502 -0.34453860504E+02 -0.97576944445E+01  0.13859619082E+03  0.14322456219E+03  0.47000000000E+01 0.  1.
          5    1    4    4  503    0  0.14302258369E+02  0.20612428295E+02  0.91048048473E+02  0.94558256781E+02  0.47000000000E+01 0. -1.
         -5    1    4    4    0  503 -0.41589161863E+02  0.22854748141E+01  0.70718494968E+01  0.42508620712E+02  0.47000000000E+01 0.  1.
<mgrwt>
<rscale>  0 0.98486681E+02</rscale>
<asrwt>0</asrwt>
<pdfrwt beam="1">  1        1 0.79240249E-01 0.99431095E+02</pdfrwt>
<pdfrwt beam="2">  1       -1 0.39526061E-02 0.99431095E+02</pdfrwt>
<totfact> 0.10105556E+04</totfact>
</mgrwt>
</event>
<event>
 8    1  0.3177960E-004  0.1437505E+03  0.7546771E-02  0.1209219E+00
         -1   -1    0    0    0  501 -0.00000000000E+00  0.00000000000E+00  0.40690477029E+03  0.40690477029E+03  0.00000000000E+00 0.  1.
          1   -1    0    0  501    0  0.00000000000E+00 -0.00000000000E+00 -0.67985637024E+02  0.67985637024E+02  0.00000000000E+00 0. -1.
         23    2    1    2    0    0  0.96477788782E+02  0.50827707498E+02  0.48036097832E+02  0.15156405576E+03  0.93663102265E+02 0.  0.
         23    2    1    2    0    0 -0.96477788782E+02 -0.50827707498E+02  0.29088303543E+03  0.32332635155E+03  0.89641339388E+02 0.  0.
          5    1    3    3  502    0  0.53068640374E+02  0.47255744359E+02 -0.16937685059E+02  0.73200827463E+02  0.47000000000E+01 0. -1.
         -5    1    4    4    0  503 -0.73901366126E+02 -0.65462600729E+02  0.27384442696E+03  0.29113506176E+03  0.47000000000E+01 0.  1.
          5    1    4    4  503    0 -0.22576422656E+02  0.14634893230E+02  0.17038608476E+02  0.32191289794E+02  0.47000000000E+01 0. -1.
         -5    1    3    3    0  502  0.43409148407E+02  0.35719631389E+01  0.64973782890E+02  0.78363228297E+02  0.47000000000E+01 0.  1.
<mgrwt>
<rscale>  0 0.14309918E+03</rscale>
<asrwt>0</asrwt>
<pdfrwt beam="1">  1        1 0.10459329E-01 0.14375047E+03</pdfrwt>
<pdfrwt beam="2">  1       -1 0.62600732E-01 0.14375047E+03</pdfrwt>
<totfact> 0.15816810E+03</totfact>
</mgrwt>
</event>
<event>
 7    1  0.3177960E-004  0.1605659E+03  0.7546771E-02  0.1198156E+00
          3   -1    0    0  501    0  0.00000000000E+00  0.00000000000E+00  0.96909257446E+02  0.96909257446E+02  0.00000000000E+00 0. -1.
         -3   -1    0    0    0  501 -0.00000000000E+00 -0.00000000000E+00 -0.33656800236E+03  0.33656800236E+03  0.00000000000E+00 0.  1.
         23    2    1    2    0    0  0.89844921488E+02  0.68761556023E+01  0.18016381389E+02  0.12986913940E+03  0.91771520291E+02 0.  0.
          5    1    3    3  502    0  0.49081419178E+02 -0.25978480955E+02  0.44211365744E+02  0.71137908615E+02  0.47000000000E+01 0. -1.
         -5    1    1    2    0  503 -0.52021191955E+02 -0.84623028791E+01 -0.26005753746E+03  0.26538618610E+03  0.47000000000E+01 0.  1.
          5    1    1    2  503    0 -0.37823729532E+02  0.15861472768E+01  0.23824111627E+01  0.38221934303E+02  0.47000000000E+01 0. -1.
         -5    1    3    3    0  502  0.40763502309E+02  0.32854636557E+02 -0.26194984355E+02  0.58731230782E+02  0.47000000000E+01 0.  1.
<mgrwt>
<rscale>  0 0.15190134E+03</rscale>
<asrwt>0</asrwt>
<pdfrwt beam="1">  1        3 0.14909116E-01 0.16056594E+03</pdfrwt>
<pdfrwt beam="2">  1       -3 0.51779693E-01 0.16056594E+03</pdfrwt>
<totfact> 0.33221694E+02</totfact>
</mgrwt>
</event>
<event>
 8    1  0.3177960E-004  0.1387300E+03  0.7546771E-02  0.1216505E+00
         -1   -1    0    0    0  501 -0.00000000000E+00  0.00000000000E+00  0.87597442711E+02  0.87597442711E+02  0.00000000000E+00 0.  1.
          1   -1    0    0  501    0  0.00000000000E+00 -0.00000000000E+00 -0.33519660194E+03  0.33519660194E+03  0.00000000000E+00 0. -1.
         23    2    1    2    0    0  0.53344872626E+02  0.81305067741E+02  0.49908198770E+01  0.13461406543E+03  0.92950787263E+02 0.  0.
         23    2    1    2    0    0 -0.53344872626E+02 -0.81305067741E+02 -0.25258997911E+03  0.28817997922E+03  0.98943485905E+02 0.  0.
          5    1    4    4  502    0 -0.77452116004E+02 -0.32838657652E+02 -0.15978479580E+03  0.18063908403E+03  0.47000000000E+01 0. -1.
         -5    1    3    3    0  503  0.17343357392E+02  0.45959552704E+02  0.47484964657E+02  0.68483460769E+02  0.47000000000E+01 0.  1.
          5    1    3    3  503    0  0.36001515234E+02  0.35345515037E+02 -0.42494144780E+02  0.66130604662E+02  0.47000000000E+01 0. -1.
         -5    1    4    4    0  502  0.24107243378E+02 -0.48466410090E+02 -0.92805183304E+02  0.10754089519E+03  0.47000000000E+01 0.  1.
<mgrwt>
<rscale>  0 0.13766567E+03</rscale>
<asrwt>0</asrwt>
<pdfrwt beam="1">  1        1 0.51568708E-01 0.13872996E+03</pdfrwt>
<pdfrwt beam="2">  1       -1 0.13476530E-01 0.13872996E+03</pdfrwt>
<totfact> 0.28200410E+03</totfact>
</mgrwt>
</event>
<event>
 8    1  0.3177960E-004  0.1000657E+03  0.7546771E-02  0.1283922E+00
          2   -1    0    0  501    0  0.00000000000E+00  0.00000000000E+00  0.21251309879E+03  0.21251309879E+03  0.00000000000E+00 0. -1.
         -2   -1    0    0    0  501 -0.00000000000E+00 -0.00000000000E+00 -0.85395774762E+02  0.85395774762E+02  0.00000000000E+00 0.  1.
         23    2    1    2    0    0 -0.15245080680E+02  0.87994976216E+01 -0.41374170355E+02  0.10194322938E+03  0.91491837895E+02 0.  0.
         23    2    1    2    0    0  0.15245080680E+02 -0.87994976216E+01  0.16849149439E+03  0.19596564417E+03  0.98505362145E+02 0.  0.
          5    1    3    3  502    0  0.32154626603E+02 -0.16921191768E+02 -0.56149720045E+01  0.37065680264E+02  0.47000000000E+01 0. -1.
         -5    1    3    3    0  502 -0.47399707283E+02  0.25720689390E+02 -0.35759198351E+02  0.64877549120E+02  0.47000000000E+01 0.  1.
          5    1    4    4  503    0  0.21824525590E+02 -0.48823939661E+02  0.12636956632E+03  0.13730056188E+03  0.47000000000E+01 0. -1.
         -5    1    4    4    0  503 -0.65794449105E+01  0.40024442039E+02  0.42121928067E+02  0.58665082289E+02  0.47000000000E+01 0.  1.
<mgrwt>
<rscale>  0 0.98295297E+02</rscale>
<asrwt>0</asrwt>
<pdfrwt beam="1">  1        2 0.32694323E-01 0.10006573E+03</pdfrwt>
<pdfrwt beam="2">  1       -2 0.13137812E-01 0.10006573E+03</pdfrwt>
<totfact> 0.63300688E+03</totfact>
</mgrwt>
</event>
<event>
 8    1  0.3177960E-004  0.1004920E+03  0.7546771E-02  0.1286659E+00
          2   -1    0    0  501    0  0.00000000000E+00  0.00000000000E+00  0.55611573240E+03  0.55611573240E+03  0.00000000000E+00 0. -1.
         -2   -1    0    0    0  501 -0.00000000000E+00 -0.00000000000E+00 -0.24454525505E+02  0.24454525505E+02  0.00000000000E+00 0.  1.
         23    2    1    2    0    0 -0.88509595402E+01  0.43092075100E+02  0.44966892776E+03  0.46076109682E+03  0.90351410243E+02 0.  0.
         23    2    1    2    0    0  0.88509595402E+01 -0.43092075100E+02  0.81992279139E+02  0.11980916109E+03  0.75473404722E+02 0.  0.
          5    1    3    3  502    0 -0.18519342128E+02  0.68268391812E+02  0.36349441205E+03  0.37034283703E+03  0.47000000000E+01 0. -1.
         -5    1    4    4    0  503  0.32403424390E+02 -0.46251374856E+02  0.76095984870E+02  0.94878135002E+02  0.47000000000E+01 0.  1.
          5    1    4    4  503    0 -0.23552464849E+02  0.31592997558E+01  0.58962942690E+01  0.24931026083E+02  0.47000000000E+01 0. -1.
         -5    1    3    3    0  502  0.96683825877E+01 -0.25176316712E+02  0.86174515711E+02  0.90418259787E+02  0.47000000000E+01 0.  1.
<mgrwt>
<rscale>  0 0.97034214E+02</rscale>
<asrwt>0</asrwt>
<pdfrwt beam="1">  1        2 0.85556257E-01 0.10049201E+03</pdfrwt>
<pdfrwt beam="2">  1       -2 0.37622351E-02 0.10049201E+03</pdfrwt>
<totfact> 0.15339913E+04</totfact>
</mgrwt>
</event>
<event>
 8    1  0.3177960E-004  0.1017501E+03  0.7546771E-02  0.1276678E+00
          1   -1    0    0  501    0  0.00000000000E+00  0.00000000000E+00  0.51508721438E+03  0.51508721438E+03  0.00000000000E+00 0. -1.
         -1   -1    0    0    0  501 -0.00000000000E+00 -0.00000000000E+00 -0.41350440351E+02  0.41350440351E+02  0.00000000000E+00 0.  1.
         23    2    1    2    0    0  0.16031628415E+02 -0.40919035374E+02  0.43633242141E+03  0.44803026456E+03  0.91726525174E+02 0.  0.
         23    2    1    2    0    0 -0.16031628415E+02  0.40919035374E+02  0.37404352626E+02  0.10840739018E+03  0.91769799415E+02 0.  0.
          5    1    4    4  502    0  0.24126334534E+02 -0.11884400370E+02  0.31432882233E+02  0.41634541857E+02  0.47000000000E+01 0. -1.
         -5    1    3    3    0  503 -0.36762036212E+02 -0.21931921379E+02  0.23785750813E+03  0.24172451398E+03  0.47000000000E+01 0.  1.
          5    1    3    3  503    0  0.52793664627E+02 -0.18987113995E+02  0.19847491328E+03  0.20630575058E+03  0.47000000000E+01 0. -1.
         -5    1    4    4    0  502 -0.40157962949E+02  0.52803435743E+02  0.59714703935E+01  0.66772848323E+02  0.47000000000E+01 0.  1.
<mgrwt>
<rscale>  0 0.10174031E+03</rscale>
<asrwt>0</asrwt>
<pdfrwt beam="1">  1        1 0.79244182E-01 0.10175007E+03</pdfrwt>
<pdfrwt beam="2">  1       -1 0.63616066E-02 0.10175007E+03</pdfrwt>
<totfact> 0.50329740E+03</totfact>
</mgrwt>
</event>
<event>
 8    1  0.3177960E-004  0.1225409E+03  0.7546771E-02  0.1245598E+00
         -2   -1    0    0    0  501 -0.00000000000E+00  0.00000000000E+00  0.73108650993E+02  0.73108650993E+02  0.00000000000E+00 0.  1.
          2   -1    0    0  501    0  0.00000000000E+00 -0.00000000000E+00 -0.24237812237E+03  0.24237812237E+03  0.00000000000E+00 0. -1.
         23    2    1    2    0    0  0.56109082439E+02 -0.48228695309E+01 -0.92265574238E+01  0.12288775090E+03  0.10883372987E+03 0.  0.
         23    2    1    2    0    0 -0.56109082439E+02  0.48228695309E+01 -0.16004291395E+03  0.19259902246E+03  0.91154593649E+02 0.  0.
          5    1    3    3  502    0 -0.31093055446E+02 -0.53561882265E+01 -0.15235813676E+02  0.35350910421E+02  0.47000000000E+01 0. -1.
         -5    1    3    3    0  502  0.87202137885E+02  0.53331869554E+00  0.60092562522E+01  0.87536840480E+02  0.47000000000E+01 0.  1.
          5    1    4    4  503    0 -0.59972573842E+02  0.34464002696E+02 -0.14022512981E+03  0.15642779205E+03  0.47000000000E+01 0. -1.
         -5    1    4    4    0  503  0.38634914031E+01 -0.29641133165E+02 -0.19817784144E+02  0.36171230412E+02  0.47000000000E+01 0.  1.
<mgrwt>
<rscale>  0 0.11849679E+03</rscale>
<asrwt>0</asrwt>
<pdfrwt beam="1">  1        2 0.37288943E-01 0.12254089E+03</pdfrwt>
<pdfrwt beam="2">  1       -2 0.11247484E-01 0.12254089E+03</pdfrwt>
<totfact> 0.71502134E+03</totfact>
</mgrwt>
</event>
<event>
 8    1  0.3177960E-004  0.9925832E+02  0.7546771E-02  0.1282740E+00
          2   -1    0    0  501    0  0.00000000000E+00  0.00000000000E+00  0.37931510068E+03  0.37931510068E+03  0.00000000000E+00 0. -1.
         -2   -1    0    0    0  501 -0.00000000000E+00 -0.00000000000E+00 -0.34312735341E+02  0.34312735341E+02  0.00000000000E+00 0.  1.
         23    2    1    2    0    0 -0.31666326417E+02 -0.14003952185E+02  0.27596072451E+03  0.29271893573E+03  0.91275335987E+02 0.  0.
         23    2    1    2    0    0  0.31666326417E+02  0.14003952185E+02  0.69041640829E+02  0.12090890029E+03  0.93023368541E+02 0.  0.
          5    1    4    4  502    0  0.63025647083E+02  0.12514841949E+02  0.59657506055E+02  0.87806386373E+02  0.47000000000E+01 0. -1.
         -5    1    4    4    0  502 -0.31359320666E+02  0.14891102356E+01  0.93841347732E+01  0.33102513913E+02  0.47000000000E+01 0.  1.
          5    1    3    3  503    0  0.28802557843E+02 -0.21513993183E+02  0.92791077329E+02  0.99622855174E+02  0.47000000000E+01 0. -1.
         -5    1    3    3    0  503 -0.60468884260E+02  0.75100409979E+01  0.18316964718E+03  0.19309608056E+03  0.47000000000E+01 0.  1.
<mgrwt>
<rscale>  0 0.98846685E+02</rscale>
<asrwt>0</asrwt>
<pdfrwt beam="1">  1        2 0.58356167E-01 0.99258320E+02</pdfrwt>
<pdfrwt beam="2">  1       -2 0.52788826E-02 0.99258320E+02</pdfrwt>
<totfact> 0.13993649E+04</totfact>
</mgrwt>
</event>
<event>
 8    1  0.3177960E-004  0.9419811E+02  0.7546771E-02  0.1293175E+00
          1   -1    0    0  501    0  0.00000000000E+00  0.00000000000E+00  0.10350031083E+03  0.10350031083E+03  0.00000000000E+00 0. -1.
         -1   -1    0    0    0  501 -0.00000000000E+00 -0.00000000000E+00 -0.86535774142E+02  0.86535774142E+02  0.00000000000E+00 0.  1.
         23    2    1    2    0    0  0.45435734217E+01 -0.21101988558E+02  0.19157321201E+02  0.95812453804E+02  0.91362384863E+02 0.  0.
         23    2    1    2    0    0 -0.45435734217E+01  0.21101988558E+02 -0.21927845157E+01  0.94223631166E+02  0.91691582959E+02 0.  0.
          5    1    3    3  502    0 -0.17510847622E+02  0.14723406016E+02  0.41742908053E+02  0.47832717275E+02  0.47000000000E+01 0. -1.
         -5    1    3    3    0  502  0.22054421044E+02 -0.35825394574E+02 -0.22585586852E+02  0.47979736529E+02  0.47000000000E+01 0.  1.
          5    1    4    4  503    0 -0.21258558199E+02 -0.12903393415E+01  0.38729788281E+02  0.44448596970E+02  0.47000000000E+01 0. -1.
         -5    1    4    4    0  503  0.16714984777E+02  0.22392327899E+02 -0.40922572797E+02  0.49775034196E+02  0.47000000000E+01 0.  1.
<mgrwt>
<rscale>  0 0.94117908E+02</rscale>
<asrwt>0</asrwt>
<pdfrwt beam="1">  1        1 0.15923125E-01 0.94198112E+02</pdfrwt>
<pdfrwt beam="2">  1       -1 0.13313196E-01 0.94198112E+02</pdfrwt>
<totfact> 0.12102835E+04</totfact>
</mgrwt>
</event>
<event>
 8    1  0.3177960E-004  0.1152856E+03  0.7546771E-02  0.1252046E+00
         -1   -1    0    0    0  501 -0.00000000000E+00  0.00000000000E+00  0.25703082381E+02  0.25703082381E+02  0.00000000000E+00 0.  1.
          1   -1    0    0  501    0  0.00000000000E+00 -0.00000000000E+00 -0.54069332251E+03  0.54069332251E+03  0.00000000000E+00 0. -1.
         23    2    1    2    0    0  0.62676912505E+02 -0.28133997327E+02 -0.32554417026E+03  0.34462945192E+03  0.89836157400E+02 0.  0.
         23    2    1    2    0    0 -0.62676912505E+02  0.28133997327E+02 -0.18944606987E+03  0.22176695297E+03  0.92578889995E+02 0.  0.
          5    1    4    4  502    0  0.15820809365E+02 -0.17750133501E+02 -0.40406130802E+02  0.47118050200E+02  0.47000000000E+01 0. -1.
         -5    1    3    3    0  503 -0.17894284600E+02 -0.18235030706E+02 -0.13474472742E+03  0.13722592078E+03  0.47000000000E+01 0.  1.
          5    1    3    3  503    0  0.80571197106E+02 -0.98989666209E+01 -0.19079944283E+03  0.20740353114E+03  0.47000000000E+01 0. -1.
         -5    1    4    4    0  502 -0.78497721871E+02  0.45884130828E+02 -0.14903993907E+03  0.17464890277E+03  0.47000000000E+01 0.  1.
<mgrwt>
<rscale>  0 0.11473397E+03</rscale>
<asrwt>0</asrwt>
<pdfrwt beam="1">  1        1 0.83183583E-01 0.11528559E+03</pdfrwt>
<pdfrwt beam="2">  1       -1 0.39543206E-02 0.11528559E+03</pdfrwt>
<totfact> 0.95844186E+03</totfact>
</mgrwt>
</event>
<event>
 8    1  0.3177960E-004  0.1043195E+03  0.7546771E-02  0.1273224E+00
          1   -1    0    0  501    0  0.00000000000E+00  0.00000000000E+00  0.13409562537E+03  0.13409562537E+03  0.00000000000E+00 0. -1.
         -1   -1    0    0    0  501 -0.00000000000E+00 -0.00000000000E+00 -0.58741875090E+03  0.58741875090E+03  0.00000000000E+00 0.  1.
         23    2    1    2    0    0 -0.33886354901E+02 -0.37353281120E+02 -0.56296409070E+03  0.57254793161E+03  0.91318201403E+02 0.  0.
         23    2    1    2    0    0  0.33886354901E+02  0.37353281120E+02  0.10964096517E+03  0.14896644466E+03  0.87328733724E+02 0.  0.
          5    1    3    3  502    0 -0.62696209047E+02 -0.40556827515E+02 -0.41708830489E+03  0.42374569610E+03  0.47000000000E+01 0.  1.
         -5    1    3    3    0  502  0.28809854146E+02  0.32035463947E+01 -0.14587578582E+03  0.14880223551E+03  0.47000000000E+01 0. -1.
          5    1    4    4  503    0 -0.24933682837E+02 -0.67306621189E+01  0.38239805549E+02  0.46382788627E+02  0.47000000000E+01 0. -1.
         -5    1    4    4    0  503  0.58820037738E+02  0.44083943239E+02  0.71401159618E+02  0.10258365604E+03  0.47000000000E+01 0.  1.
<mgrwt>
<rscale>  0 0.10344003E+03</rscale>
<asrwt>0</asrwt>
<pdfrwt beam="1">  1        1 0.20630096E-01 0.10431954E+03</pdfrwt>
<pdfrwt beam="2">  1       -1 0.90372116E-01 0.10431954E+03</pdfrwt>
<totfact> 0.31286281E+02</totfact>
</mgrwt>
</event>
<event>
 8    1  0.3177960E-004  0.9521667E+02  0.7546771E-02  0.1290908E+00
         -3   -1    0    0    0  501 -0.00000000000E+00  0.00000000000E+00  0.13594909144E+03  0.13594909144E+03  0.00000000000E+00 0.  1.
          3   -1    0    0  501    0  0.00000000000E+00 -0.00000000000E+00 -0.76889717454E+02  0.76889717454E+02  0.00000000000E+00 0. -1.
         23    2    1    2    0    0 -0.23492572145E+02  0.62270518804E+01 -0.96957551422E+01  0.95709049916E+02  0.92062682163E+02 0.  0.
         23    2    1    2    0    0  0.23492572145E+02 -0.62270518804E+01  0.68755129127E+02  0.11712975898E+03  0.91659345052E+02 0.  0.
          5    1    4    4  502    0 -0.34211320680E+02  0.73186864513E+01  0.23472734289E+02  0.42391471891E+02  0.47000000000E+01 0. -1.
         -5    1    3    3    0  503  0.32625887253E+02  0.20193907860E+01 -0.19559532134E+02  0.38382180181E+02  0.47000000000E+01 0.  1.
          5    1    3    3  503    0 -0.56118459398E+02  0.42076610944E+01  0.98637769915E+01  0.57326869735E+02  0.47000000000E+01 0. -1.
         -5    1    4    4    0  502  0.57703892826E+02 -0.13545738332E+02  0.45282394838E+02  0.74738287085E+02  0.47000000000E+01 0.  1.
<mgrwt>
<rscale>  0 0.95119041E+02</rscale>
<asrwt>0</asrwt>
<pdfrwt beam="1">  1        3 0.11829187E-01 0.95216672E+02</pdfrwt>
<pdfrwt beam="2">  1       -3 0.20915245E-01 0.95216672E+02</pdfrwt>
<totfact> 0.24652498E+03</totfact>
</mgrwt>
</event>
<event>
 8    1  0.3177960E-004  0.8808577E+02  0.7546771E-02  0.1329815E+00
          4   -1    0    0  501    0  0.00000000000E+00  0.00000000000E+00  0.21344100338E+03  0.21344100338E+03  0.00000000000E+00 0. -1.
         -4   -1    0    0    0  501 -0.00000000000E+00 -0.00000000000E+00 -0.45370509828E+02  0.45370509828E+02  0.00000000000E+00 0.  1.
         23    2    1    2    0    0  0.17487758874E+02 -0.56183620460E+01  0.83301326265E+01  0.88478773379E+02  0.86149373338E+02 0.  0.
         23    2    1    2    0    0 -0.17487758874E+02  0.56183620460E+01  0.15974036093E+03  0.17033273983E+03  0.56203840140E+02 0.  0.
          5    1    3    3  502    0 -0.27475486410E+02  0.54110203703E+01 -0.19324956506E+02  0.34347131450E+02  0.47000000000E+01 0. -1.
         -5    1    4    4    0  503  0.18692022208E+02  0.11077348191E+02  0.61500724273E+02  0.65395171253E+02  0.47000000000E+01 0.  1.
          5    1    4    4  503    0 -0.36179781082E+02 -0.54589861446E+01  0.98239636655E+02  0.10493756858E+03  0.47000000000E+01 0. -1.
         -5    1    3    3    0  502  0.44963245284E+02 -0.11029382416E+02  0.27655089132E+02  0.54131641929E+02  0.47000000000E+01 0.  1.
<mgrwt>
<rscale>  0 0.79731468E+02</rscale>
<asrwt>0</asrwt>
<pdfrwt beam="1">  1        4 0.32837077E-01 0.88085766E+02</pdfrwt>
<pdfrwt beam="2">  1       -4 0.69800786E-02 0.88085766E+02</pdfrwt>
<totfact> 0.18318835E+03</totfact>
</mgrwt>
</event>
<event>
 8    1  0.3177960E-004  0.1079727E+03  0.7546771E-02  0.1265806E+00
          2   -1    0    0  501    0  0.00000000000E+00  0.00000000000E+00  0.84385608158E+02  0.84385608158E+02  0.00000000000E+00 0. -1.
         -2   -1    0    0    0  501 -0.00000000000E+00 -0.00000000000E+00 -0.13899380909E+03  0.13899380909E+03  0.00000000000E+00 0.  1.
         23    2    1    2    0    0 -0.15994392069E+02  0.45093253615E+02 -0.65629467357E+01  0.10519964502E+03  0.93459461493E+02 0.  0.
         23    2    1    2    0    0  0.15994392069E+02 -0.45093253615E+02 -0.48045254196E+02  0.11817977223E+03  0.96793026684E+02 0.  0.
          5    1    4    4  502    0 -0.57787329543E+00  0.30263693389E+02 -0.12191129687E+02  0.32968753664E+02  0.47000000000E+01 0. -1.
         -5    1    3    3    0  503  0.22450579944E+02  0.85220881181E+01  0.31384812896E+02  0.39796369259E+02  0.47000000000E+01 0.  1.
          5    1    3    3  503    0 -0.38444972013E+02  0.36571165497E+02 -0.37947759631E+02  0.65403275758E+02  0.47000000000E+01 0. -1.
         -5    1    4    4    0  502  0.16572265365E+02 -0.75356947004E+02 -0.35854124510E+02  0.85211018568E+02  0.47000000000E+01 0.  1.
<mgrwt>
<rscale>  0 0.10722041E+03</rscale>
<asrwt>0</asrwt>
<pdfrwt beam="1">  1        2 0.12982401E-01 0.10797274E+03</pdfrwt>
<pdfrwt beam="2">  1       -2 0.21383663E-01 0.10797274E+03</pdfrwt>
<totfact> 0.80367809E+03</totfact>
</mgrwt>
</event>
<event>
 8    1  0.3177960E-004  0.1370783E+03  0.7546771E-02  0.1217734E+00
         -2   -1    0    0    0  501 -0.00000000000E+00  0.00000000000E+00  0.22205559575E+02  0.22205559575E+02  0.00000000000E+00 0.  1.
          2   -1    0    0  501    0  0.00000000000E+00 -0.00000000000E+00 -0.84304657449E+03  0.84304657449E+03  0.00000000000E+00 0. -1.
         23    2    1    2    0    0 -0.67497538615E+02 -0.75392053956E+02 -0.37782414892E+03  0.40151255187E+03  0.90671728114E+02 0.  0.
         23    2    1    2    0    0  0.67497538615E+02  0.75392053956E+02 -0.44301686599E+03  0.46373958220E+03  0.92469330182E+02 0.  0.
          5    1    3    3  502    0 -0.47061487971E+02  0.66514949165E+01 -0.95737584166E+02  0.10698972407E+03  0.47000000000E+01 0. -1.
         -5    1    3    3    0  502 -0.20436050644E+02 -0.82043548873E+02 -0.28208656476E+03  0.29452282780E+03  0.47000000000E+01 0.  1.
          5    1    4    4  503    0  0.52952505020E+02  0.36040389614E+02 -0.10491779941E+03  0.12301508893E+03  0.47000000000E+01 0. -1.
         -5    1    4    4    0  503  0.14545033594E+02  0.39351664343E+02 -0.33809906658E+03  0.34072449326E+03  0.47000000000E+01 0.  1.
<mgrwt>
<rscale>  0 0.13677575E+03</rscale>
<asrwt>0</asrwt>
<pdfrwt beam="1">  1        2 0.12969946E+00 0.13707829E+03</pdfrwt>
<pdfrwt beam="2">  1       -2 0.34162402E-02 0.13707829E+03</pdfrwt>
<totfact> 0.11089728E+04</totfact>
</mgrwt>
</event>
<event>
 8    1  0.3177960E-004  0.1010529E+03  0.7546771E-02  0.1278353E+00
          2   -1    0    0  501    0  0.00000000000E+00  0.00000000000E+00  0.10157327015E+04  0.10157327015E+04  0.00000000000E+00 0. -1.
         -2   -1    0    0    0  501 -0.00000000000E+00 -0.00000000000E+00 -0.10135479996E+02  0.10135479996E+02  0.00000000000E+00 0.  1.
         23    2    1    2    0    0  0.92451664067E+01 -0.41237365048E+02  0.55987458047E+03  0.56883386721E+03  0.91249269865E+02 0.  0.
         23    2    1    2    0    0 -0.92451664067E+01  0.41237365048E+02  0.44572264104E+03  0.45703431429E+03  0.91791602702E+02 0.  0.
          5    1    3    3  502    0 -0.30359848951E+02 -0.48295204001E+02  0.25927508892E+03  0.26551800107E+03  0.47000000000E+01 0. -1.
         -5    1    3    3    0  502  0.39605015358E+02  0.70578389529E+01  0.30059949155E+03  0.30331586614E+03  0.47000000000E+01 0.  1.
          5    1    4    4  503    0 -0.49421932471E+02  0.11981205164E+02  0.21746007378E+03  0.22337647677E+03  0.47000000000E+01 0. -1.
         -5    1    4    4    0  503  0.40176766065E+02  0.29256159884E+02  0.22826256726E+03  0.23365783752E+03  0.47000000000E+01 0.  1.
<mgrwt>
<rscale>  0 0.10092960E+03</rscale>
<asrwt>0</asrwt>
<pdfrwt beam="1">  1        2 0.15626649E+00 0.10105292E+03</pdfrwt>
<pdfrwt beam="2">  1       -2 0.15593054E-02 0.10105292E+03</pdfrwt>
<totfact> 0.26504501E+04</totfact>
</mgrwt>
</event>
<event>
 8    1  0.3177960E-004  0.1447300E+03  0.7546771E-02  0.1207380E+00
          2   -1    0    0  501    0  0.00000000000E+00  0.00000000000E+00  0.11505659638E+04  0.11505659638E+04  0.00000000000E+00 0. -1.
         -2   -1    0    0    0  501 -0.00000000000E+00 -0.00000000000E+00 -0.36085431300E+02  0.36085431300E+02  0.00000000000E+00 0.  1.
         23    2    1    2    0    0  0.71747915267E+01  0.11110797824E+03  0.13916846863E+03  0.20078506268E+03  0.92467931047E+02 0.  0.
         23    2    1    2    0    0 -0.71747915267E+01 -0.11110797824E+03  0.97531206386E+03  0.98586633242E+03  0.91117193847E+02 0.  0.
          5    1    3    3  502    0 -0.33165236131E+02  0.73483038040E+02  0.11464749089E+03  0.14023489913E+03  0.47000000000E+01 0. -1.
         -5    1    3    3    0  502  0.40340027657E+02  0.37624940197E+02  0.24520977745E+02  0.60550163549E+02  0.47000000000E+01 0.  1.
          5    1    4    4  503    0 -0.44493156128E+02 -0.50767053894E+02  0.60644800429E+03  0.61021160806E+03  0.47000000000E+01 0. -1.
         -5    1    4    4    0  503  0.37318364601E+02 -0.60340924344E+02  0.36886405957E+03  0.37565472435E+03  0.47000000000E+01 0.  1.
<mgrwt>
<rscale>  0 0.14451473E+03</rscale>
<asrwt>0</asrwt>
<pdfrwt beam="1">  1        2 0.17701012E+00 0.14473002E+03</pdfrwt>
<pdfrwt beam="2">  1       -2 0.55516057E-02 0.14473002E+03</pdfrwt>
<totfact> 0.35131398E+03</totfact>
</mgrwt>
</event>
<event>
 8    1  0.3177960E-004  0.1607314E+03  0.7546771E-02  0.1188066E+00
          1   -1    0    0  501    0  0.00000000000E+00  0.00000000000E+00  0.10218676881E+03  0.10218676881E+03  0.00000000000E+00 0. -1.
         -1   -1    0    0    0  501 -0.00000000000E+00 -0.00000000000E+00 -0.37644502750E+03  0.37644502750E+03  0.00000000000E+00 0.  1.
         23    2    1    2    0    0  0.93737194151E+02 -0.92485938094E+02  0.80635427406E+00  0.16004880722E+03  0.90965159121E+02 0.  0.
         23    2    1    2    0    0 -0.93737194151E+02  0.92485938094E+02 -0.27506461296E+03  0.31858298909E+03  0.92164360352E+02 0.  0.
          5    1    4    4  502    0 -0.74259488410E+02  0.11055454048E+02 -0.15293291743E+03  0.17043257293E+03  0.47000000000E+01 0.  1.
         -5    1    4    4    0  502 -0.19477705741E+02  0.81430484046E+02 -0.12213169553E+03  0.14815041616E+03  0.47000000000E+01 0. -1.
          5    1    3    3  503    0  0.72051407383E+02 -0.52783023920E+02  0.41884668354E+02  0.98761674566E+02  0.47000000000E+01 0. -1.
         -5    1    3    3    0  503  0.21685786769E+02 -0.39702914174E+02 -0.41078314080E+02  0.61287132657E+02  0.47000000000E+01 0.  1.
<mgrwt>
<rscale>  0 0.16055996E+03</rscale>
<asrwt>0</asrwt>
<pdfrwt beam="1">  1        1 0.15721042E-01 0.16073139E+03</pdfrwt>
<pdfrwt beam="2">  1       -1 0.57914619E-01 0.16073139E+03</pdfrwt>
<totfact> 0.10788090E+03</totfact>
</mgrwt>
</event>
<event>
 8    1  0.3177960E-004  0.1060840E+03  0.7546771E-02  0.1268923E+00
          2   -1    0    0  501    0  0.00000000000E+00  0.00000000000E+00  0.17010846300E+03  0.17010846300E+03  0.00000000000E+00 0.  1.
         -2   -1    0    0    0  501 -0.00000000000E+00 -0.00000000000E+00 -0.21016938326E+03  0.21016938326E+03  0.00000000000E+00 0. -1.
         23    2    1    2    0    0  0.11558682804E+01 -0.55617528189E+02 -0.17800448350E+03  0.20625989674E+03  0.88107340109E+02 0.  0.
         23    2    1    2    0    0 -0.11558682804E+01  0.55617528189E+02  0.13794356325E+03  0.17401794952E+03  0.90328149768E+02 0.  0.
          5    1    3    3  502    0  0.31550559555E+02  0.76277760345E+01 -0.71057996834E+02  0.78262057790E+02  0.47000000000E+01 0. -1.
         -5    1    3    3    0  502 -0.30394691275E+02 -0.63245304223E+02 -0.10694648667E+03  0.12799783895E+03  0.47000000000E+01 0.  1.
          5    1    4    4  503    0 -0.22586800959E+02 -0.14877838209E+02  0.16906764557E+02  0.32240383607E+02  0.47000000000E+01 0. -1.
         -5    1    4    4    0  503  0.21430932679E+02  0.70495366398E+02  0.12103679869E+03  0.14177756591E+03  0.47000000000E+01 0.  1.
<mgrwt>
<rscale>  0 0.10560974E+03</rscale>
<asrwt>0</asrwt>
<pdfrwt beam="1">  1        2 0.26170533E-01 0.10608402E+03</pdfrwt>
<pdfrwt beam="2">  1       -2 0.32333751E-01 0.10608402E+03</pdfrwt>
<totfact> 0.17560512E+03</totfact>
</mgrwt>
</event>
<event>
 8    1  0.3177960E-004  0.1622813E+03  0.7546771E-02  0.1186178E+00
          2   -1    0    0  501    0  0.00000000000E+00  0.00000000000E+00  0.13928266170E+03  0.13928266170E+03  0.00000000000E+00 0. -1.
         -2   -1    0    0    0  501 -0.00000000000E+00 -0.00000000000E+00 -0.20012826337E+03  0.20012826337E+03  0.00000000000E+00 0.  1.
         23    2    1    2    0    0  0.37873852543E+02 -0.12742774499E+03  0.96962451361E+01  0.16257066741E+03  0.93074947389E+02 0.  0.
         23    2    1    2    0    0 -0.37873852543E+02  0.12742774499E+03 -0.70541846805E+02  0.17684025766E+03  0.92865847746E+02 0.  0.
          5    1    4    4  502    0  0.17238407139E+01  0.40271013270E+02  0.19777502394E+02  0.45143833881E+02  0.47000000000E+01 0. -1.
         -5    1    3    3    0  503  0.19819724008E+02 -0.62850020743E+01 -0.27208405540E+02  0.34564577864E+02  0.47000000000E+01 0.  1.
          5    1    3    3  503    0  0.18054128535E+02 -0.12114274292E+03  0.36904650677E+02  0.12800608955E+03  0.47000000000E+01 0. -1.
         -5    1    4    4    0  502 -0.39597693257E+02  0.87156731725E+02 -0.90319349199E+02  0.13169642378E+03  0.47000000000E+01 0.  1.
<mgrwt>
<rscale>  0 0.16225128E+03</rscale>
<asrwt>0</asrwt>
<pdfrwt beam="1">  1        2 0.21428102E-01 0.16228125E+03</pdfrwt>
<pdfrwt beam="2">  1       -2 0.30788963E-01 0.16228125E+03</pdfrwt>
<totfact> 0.24404065E+03</totfact>
</mgrwt>
</event>
<event>
 8    1  0.3177960E-004  0.1121129E+03  0.7546771E-02  0.1263757E+00
         -1   -1    0    0    0  501 -0.00000000000E+00  0.00000000000E+00  0.20234516462E+03  0.20234516462E+03  0.00000000000E+00 0.  1.
          1   -1    0    0  501    0  0.00000000000E+00 -0.00000000000E+00 -0.17127801949E+03  0.17127801949E+03  0.00000000000E+00 0. -1.
         23    2    1    2    0    0  0.12423391643E+02  0.30536529794E+02  0.16943293654E+03  0.19553781212E+03  0.91873258742E+02 0.  0.
         23    2    1    2    0    0 -0.12423391643E+02 -0.30536529794E+02 -0.13836579141E+03  0.17808537199E+03  0.10715636785E+03 0.  0.
          5    1    4    4  502    0  0.41259497369E+02 -0.29931969488E+02 -0.98649527871E+02  0.11113994903E+03  0.47000000000E+01 0. -1.
         -5    1    4    4    0  502 -0.53682889012E+02 -0.60456030550E+00 -0.39716263541E+02  0.66945422962E+02  0.47000000000E+01 0.  1.
          5    1    3    3  503    0 -0.18133890429E+02  0.53095702581E+02  0.76111636322E+02  0.94673453503E+02  0.47000000000E+01 0. -1.
         -5    1    3    3    0  503  0.30557282072E+02 -0.22559172787E+02  0.93321300223E+02  0.10086435862E+03  0.47000000000E+01 0.  1.
<mgrwt>
<rscale>  0 0.10829645E+03</rscale>
<asrwt>0</asrwt>
<pdfrwt beam="1">  1        1 0.26350465E-01 0.11211292E+03</pdfrwt>
<pdfrwt beam="2">  1       -1 0.31130025E-01 0.11211292E+03</pdfrwt>
<totfact> 0.16675352E+03</totfact>
</mgrwt>
</event>
<event>
 8    1  0.3177960E-004  0.2174463E+03  0.7546771E-02  0.1136420E+00
          2   -1    0    0  501    0  0.00000000000E+00  0.00000000000E+00  0.22195413590E+04  0.22195413590E+04  0.00000000000E+00 0. -1.
         -2   -1    0    0    0  501 -0.00000000000E+00 -0.00000000000E+00 -0.22875219507E+02  0.22875219507E+02  0.00000000000E+00 0.  1.
         23    2    1    2    0    0  0.11728308533E+03 -0.15940863401E+03  0.14129270414E+04  0.14290717248E+04  0.81955692233E+02 0.  0.
         23    2    1    2    0    0 -0.11728308533E+03  0.15940863401E+03  0.78373909807E+03  0.81334485372E+03  0.90091301114E+02 0.  0.
          5    1    3    3  502    0  0.67575183054E+02 -0.14413036351E+03  0.95641363719E+03  0.96958192148E+03  0.47000000000E+01 0. -1.
         -5    1    3    3    0  502  0.49707902276E+02 -0.15278270491E+02  0.45651340423E+03  0.45948980330E+03  0.47000000000E+01 0.  1.
          5    1    4    4  503    0 -0.66361122440E+02  0.54451893665E+02  0.48577201933E+03  0.49332073954E+03  0.47000000000E+01 0. -1.
         -5    1    4    4    0  503 -0.50921962890E+02  0.10495674034E+03  0.29796707874E+03  0.32002411419E+03  0.47000000000E+01 0.  1.
<mgrwt>
<rscale>  0 0.21663102E+03</rscale>
<asrwt>0</asrwt>
<pdfrwt beam="1">  1        2 0.34146773E+00 0.21744626E+03</pdfrwt>
<pdfrwt beam="2">  1       -2 0.35192663E-02 0.21744626E+03</pdfrwt>
<totfact> 0.19031721E+03</totfact>
</mgrwt>
</event>
<event>
 8    1  0.3177960E-004  0.1062769E+03  0.7546771E-02  0.1268517E+00
          1   -1    0    0  501    0  0.00000000000E+00  0.00000000000E+00  0.19715852146E+02  0.19715852146E+02  0.00000000000E+00 0. -1.
         -1   -1    0    0    0  501 -0.00000000000E+00 -0.00000000000E+00 -0.59067639153E+03  0.59067639153E+03  0.00000000000E+00 0.  1.
         23    2    1    2    0    0  0.54199718238E+02 -0.84512636870E+00 -0.22186989480E+03  0.24601024325E+03  0.91413707239E+02 0.  0.
         23    2    1    2    0    0 -0.54199718238E+02  0.84512636870E+00 -0.34909064459E+03  0.36438200043E+03  0.89284043369E+02 0.  0.
          5    1    4    4  502    0  0.75903300892E+01 -0.22254819782E+02 -0.29479212357E+02  0.38000053626E+02  0.47000000000E+01 0. -1.
         -5    1    4    4    0  502 -0.61790048327E+02  0.23099946151E+02 -0.31961143223E+03  0.32638194680E+03  0.47000000000E+01 0.  1.
          5    1    3    3  503    0 -0.17411130986E+02 -0.21076997215E+02 -0.33969634019E+02  0.43856736418E+02  0.47000000000E+01 0. -1.
         -5    1    3    3    0  503  0.71610849224E+02  0.20231870846E+02 -0.18790026078E+03  0.20215350683E+03  0.47000000000E+01 0.  1.
<mgrwt>
<rscale>  0 0.10581743E+03</rscale>
<asrwt>0</asrwt>
<pdfrwt beam="1">  1        1 0.30332079E-02 0.10627695E+03</pdfrwt>
<pdfrwt beam="2">  1       -1 0.90873295E-01 0.10627695E+03</pdfrwt>
<totfact> 0.39346146E+03</totfact>
</mgrwt>
</event>
<event>
 8    1  0.3177960E-004  0.1098960E+03  0.7546771E-02  0.1261459E+00
          1   -1    0    0  501    0  0.00000000000E+00  0.00000000000E+00  0.79513955276E+03  0.79513955276E+03  0.00000000000E+00 0. -1.
         -1   -1    0    0    0  501 -0.00000000000E+00 -0.00000000000E+00 -0.15032809035E+02  0.15032809035E+02  0.00000000000E+00 0.  1.
         23    2    1    2    0    0 -0.50795479562E+02 -0.34028507335E+02  0.36414772740E+03  0.37994097967E+03  0.89517934546E+02 0.  0.
         23    2    1    2    0    0  0.50795479562E+02  0.34028507335E+02  0.41595901632E+03  0.43023138212E+03  0.91318228456E+02 0.  0.
          5    1    3    3  502    0  0.39541673177E+01 -0.39308063472E+02  0.24999095448E+03  0.25313697204E+03  0.47000000000E+01 0. -1.
         -5    1    3    3    0  502 -0.54749646880E+02  0.52795561365E+01  0.11415677292E+03  0.12680400763E+03  0.47000000000E+01 0.  1.
          5    1    4    4  503    0  0.38804635532E+01 -0.19810206970E+02  0.23645180845E+02  0.31443391591E+02  0.47000000000E+01 0. -1.
         -5    1    4    4    0  503  0.46915016009E+02  0.53838714306E+02  0.39231383548E+03  0.39878799053E+03  0.47000000000E+01 0.  1.
<mgrwt>
<rscale>  0 0.10952129E+03</rscale>
<asrwt>0</asrwt>
<pdfrwt beam="1">  1        1 0.12232913E+00 0.10989604E+03</pdfrwt>
<pdfrwt beam="2">  1       -1 0.23127405E-02 0.10989604E+03</pdfrwt>
<totfact> 0.12144585E+04</totfact>
</mgrwt>
</event>
<event>
 8    1  0.3177960E-004  0.1115403E+03  0.7546771E-02  0.1257941E+00
         -1   -1    0    0    0  501 -0.00000000000E+00  0.00000000000E+00  0.36741332899E+02  0.36741332899E+02  0.00000000000E+00 0.  1.
          1   -1    0    0  501    0  0.00000000000E+00 -0.00000000000E+00 -0.62919102173E+03  0.62919102173E+03  0.00000000000E+00 0. -1.
         23    2    1    2    0    0 -0.39980357880E+02 -0.51336620459E+02 -0.69130613526E+02  0.13085845035E+03  0.90061171910E+02 0.  0.
         23    2    1    2    0    0  0.39980357880E+02  0.51336620459E+02 -0.52331907530E+03  0.53507390428E+03  0.90594430533E+02 0.  0.
          5    1    3    3  502    0  0.11928869673E+02 -0.57039179598E+02 -0.32398432407E+02  0.66839467108E+02  0.47000000000E+01 0.  1.
         -5    1    3    3    0  502 -0.51909227553E+02  0.57025591393E+01 -0.36732181119E+02  0.64018983244E+02  0.47000000000E+01 0. -1.
          5    1    4    4  503    0 -0.14626805648E+02  0.40021577855E+02 -0.35759097254E+03  0.36015144562E+03  0.47000000000E+01 0. -1.
         -5    1    4    4    0  503  0.54607163528E+02  0.11315042604E+02 -0.16572810276E+03  0.17492245866E+03  0.47000000000E+01 0.  1.
<mgrwt>
<rscale>  0 0.11143193E+03</rscale>
<asrwt>0</asrwt>
<pdfrwt beam="1">  1        1 0.96798614E-01 0.11154025E+03</pdfrwt>
<pdfrwt beam="2">  1       -1 0.56525130E-02 0.11154025E+03</pdfrwt>
<totfact> 0.46163476E+03</totfact>
</mgrwt>
</event>
<event>
 8    1  0.3177960E-004  0.1555620E+03  0.7546771E-02  0.1193808E+00
         -1   -1    0    0    0  501 -0.00000000000E+00  0.00000000000E+00  0.17211512173E+03  0.17211512173E+03  0.00000000000E+00 0.  1.
          1   -1    0    0  501    0  0.00000000000E+00 -0.00000000000E+00 -0.17401933171E+03  0.17401933171E+03  0.00000000000E+00 0. -1.
         23    2    1    2    0    0  0.64091481002E+02 -0.10765486754E+03  0.74917477032E+02  0.17266203024E+03  0.92207699681E+02 0.  0.
         23    2    1    2    0    0 -0.64091481002E+02  0.10765486754E+03 -0.76821687016E+02  0.17347242320E+03  0.92161931252E+02 0.  0.
          5    1    4    4  502    0 -0.87119257034E+02  0.81062375522E+02 -0.50847275284E+02  0.12949289199E+03  0.47000000000E+01 0. -1.
         -5    1    3    3    0  503  0.31096780730E+02 -0.26845370015E+02  0.74549351831E+02  0.85248926805E+02  0.47000000000E+01 0.  1.
          5    1    3    3  503    0  0.32994700272E+02 -0.80809497526E+02  0.36812520069E+00  0.87413103438E+02  0.47000000000E+01 0. -1.
         -5    1    4    4    0  502  0.23027776032E+02  0.26592492019E+02 -0.25974411732E+02  0.43979531211E+02  0.47000000000E+01 0.  1.
<mgrwt>
<rscale>  0 0.15555526E+03</rscale>
<asrwt>0</asrwt>
<pdfrwt beam="1">  1        1 0.26772205E-01 0.15556204E+03</pdfrwt>
<pdfrwt beam="2">  1       -1 0.26479249E-01 0.15556204E+03</pdfrwt>
<totfact> 0.21677168E+03</totfact>
</mgrwt>
</event>
<event>
 8    1  0.3177960E-004  0.1037840E+03  0.7546771E-02  0.1273070E+00
          1   -1    0    0  501    0  0.00000000000E+00  0.00000000000E+00  0.23854163552E+03  0.23854163552E+03  0.00000000000E+00 0. -1.
         -1   -1    0    0    0  501 -0.00000000000E+00 -0.00000000000E+00 -0.48705358350E+02  0.48705358350E+02  0.00000000000E+00 0.  1.
         23    2    1    2    0    0 -0.28116552367E+02  0.38105692213E+02  0.13569768541E+03  0.17019101322E+03  0.91151164868E+02 0.  0.
         23    2    1    2    0    0  0.28116552367E+02 -0.38105692213E+02  0.54138591758E+02  0.11705598066E+03  0.92350047070E+02 0.  0.
          5    1    3    3  502    0 -0.59480023325E+02  0.36003594520E+02  0.10487586700E+03  0.12591731204E+03  0.47000000000E+01 0. -1.
         -5    1    3    3    0  502  0.31363470958E+02  0.21020976934E+01  0.30821818414E+02  0.44273701173E+02  0.47000000000E+01 0.  1.
          5    1    4    4  503    0  0.84307503179E+01  0.22110514247E+02 -0.10602975085E+02  0.26352712799E+02  0.47000000000E+01 0. -1.
         -5    1    4    4    0  503  0.19685802049E+02 -0.60216206460E+02  0.64741566844E+02  0.90703267858E+02  0.47000000000E+01 0.  1.
<mgrwt>
<rscale>  0 0.10351662E+03</rscale>
<asrwt>0</asrwt>
<pdfrwt beam="1">  1        1 0.36698713E-01 0.10378398E+03</pdfrwt>
<pdfrwt beam="2">  1       -1 0.74931322E-02 0.10378398E+03</pdfrwt>
<totfact> 0.10293100E+04</totfact>
</mgrwt>
</event>
<event>
 8    1  0.3177960E-004  0.9974434E+02  0.7546771E-02  0.1281189E+00
         -2   -1    0    0    0  501 -0.00000000000E+00  0.00000000000E+00  0.33791638210E+02  0.33791638210E+02  0.00000000000E+00 0.  1.
          2   -1    0    0  501    0  0.00000000000E+00 -0.00000000000E+00 -0.29394914903E+03  0.29394914903E+03  0.00000000000E+00 0. -1.
         23    2    1    2    0    0  0.35987506580E+02  0.22526529480E+02 -0.11792320591E+03  0.15401821877E+03  0.89516389894E+02 0.  0.
         23    2    1    2    0    0 -0.35987506580E+02 -0.22526529480E+02 -0.14223430491E+03  0.17372256847E+03  0.90257343987E+02 0.  0.
          5    1    4    4  502    0  0.15361860426E+02 -0.31812362681E+02 -0.10083297649E+03  0.10694574476E+03  0.47000000000E+01 0. -1.
         -5    1    4    4    0  502 -0.51349367005E+02  0.92858332016E+01 -0.41401328425E+02  0.66776823715E+02  0.47000000000E+01 0.  1.
          5    1    3    3  503    0  0.50404341752E+02 -0.16102731147E+02 -0.88238790885E+02  0.10299548454E+03  0.47000000000E+01 0. -1.
         -5    1    3    3    0  503 -0.14416835172E+02  0.38629260627E+02 -0.29684415024E+02  0.51022734230E+02  0.47000000000E+01 0.  1.
<mgrwt>
<rscale>  0 0.99576422E+02</rscale>
<asrwt>0</asrwt>
<pdfrwt beam="1">  1        2 0.45222947E-01 0.99744340E+02</pdfrwt>
<pdfrwt beam="2">  1       -2 0.51987135E-02 0.99744340E+02</pdfrwt>
<totfact> 0.18719765E+04</totfact>
</mgrwt>
</event>
<event>
 8    1  0.3177960E-004  0.1796157E+03  0.7546771E-02  0.1168359E+00
         -2   -1    0    0    0  501 -0.00000000000E+00  0.00000000000E+00  0.67000693317E+02  0.67000693317E+02  0.00000000000E+00 0.  1.
          2   -1    0    0  501    0  0.00000000000E+00 -0.00000000000E+00 -0.53057777160E+03  0.53057777160E+03  0.00000000000E+00 0. -1.
         23    2    1    2    0    0  0.13065650985E+03 -0.82625400867E+02 -0.13863847552E+03  0.22630108743E+03  0.89963741824E+02 0.  0.
         23    2    1    2    0    0 -0.13065650985E+03  0.82625400867E+02 -0.32493860276E+03  0.37127737748E+03  0.91453348946E+02 0.  0.
          5    1    4    4  502    0 -0.66759816442E+02  0.49350011610E+02 -0.26405161387E+03  0.27683504389E+03  0.47000000000E+01 0. -1.
         -5    1    3    3    0  503  0.11510741842E+03 -0.36615283788E+02 -0.12858268411E+03  0.17648227513E+03  0.47000000000E+01 0.  1.
          5    1    3    3  503    0  0.15549091430E+02 -0.46010117079E+02 -0.10055791407E+02  0.49818812298E+02  0.47000000000E+01 0. -1.
         -5    1    4    4    0  502 -0.63896693408E+02  0.33275389257E+02 -0.60886988884E+02  0.94442333591E+02  0.47000000000E+01 0.  1.
<mgrwt>
<rscale>  0 0.17942693E+03</rscale>
<asrwt>0</asrwt>
<pdfrwt beam="1">  1        2 0.81627350E-01 0.17961569E+03</pdfrwt>
<pdfrwt beam="2">  1       -2 0.10307799E-01 0.17961569E+03</pdfrwt>
<totfact> 0.36120418E+03</totfact>
</mgrwt>
</event>
<event>
 8    1  0.3177960E-004  0.2863491E+03  0.7546771E-02  0.1092362E+00
          1   -1    0    0  501    0  0.00000000000E+00  0.00000000000E+00  0.18049969224E+04  0.18049969224E+04  0.00000000000E+00 0. -1.
         -1   -1    0    0    0  501 -0.00000000000E+00 -0.00000000000E+00 -0.86227687071E+02  0.86227687071E+02  0.00000000000E+00 0.  1.
         23    2    1    2    0    0  0.23327169692E+03  0.13833779209E+03  0.20859828307E+03  0.35427256565E+03  0.91884589399E+02 0.  0.
         23    2    1    2    0    0 -0.23327169692E+03 -0.13833779209E+03  0.15101709523E+04  0.15369520439E+04  0.89734333675E+02 0.  0.
          5    1    3    3  502    0  0.17253404479E+03  0.13942791648E+03  0.18516794034E+03  0.28899376574E+03  0.47000000000E+01 0. -1.
         -5    1    3    3    0  502  0.60737652133E+02 -0.10901243889E+01  0.23430342723E+02  0.65278799911E+02  0.47000000000E+01 0.  1.
          5    1    4    4  503    0 -0.15243596929E+03 -0.99461653754E+02  0.12102632662E+04  0.12238825960E+04  0.47000000000E+01 0. -1.
         -5    1    4    4    0  503 -0.80835727636E+02 -0.38876138333E+02  0.29990768610E+03  0.31306944785E+03  0.47000000000E+01 0.  1.
<mgrwt>
<rscale>  0 0.28617827E+03</rscale>
<asrwt>0</asrwt>
<pdfrwt beam="1">  1        1 0.27769181E+00 0.28634910E+03</pdfrwt>
<pdfrwt beam="2">  1       -1 0.13265799E-01 0.28634910E+03</pdfrwt>
<totfact> 0.17670893E+02</totfact>
</mgrwt>
</event>
<event>
 8    1  0.3177960E-004  0.9595045E+02  0.7546771E-02  0.1295764E+00
          1   -1    0    0  501    0  0.00000000000E+00  0.00000000000E+00  0.75797167514E+02  0.75797167514E+02  0.00000000000E+00 0. -1.
         -1   -1    0    0    0  501 -0.00000000000E+00 -0.00000000000E+00 -0.12008952665E+03  0.12008952665E+03  0.00000000000E+00 0.  1.
         23    2    1    2    0    0  0.28002238929E+02  0.27222447949E+02 -0.52460534096E+02  0.99589192199E+02  0.75104677003E+02 0.  0.
         23    2    1    2    0    0 -0.28002238929E+02 -0.27222447949E+02  0.81681749641E+01  0.96297501961E+02  0.87643041619E+02 0.  0.
          5    1    4    4  502    0 -0.43412042818E+02  0.11092312203E+02 -0.16482862280E+02  0.47973113309E+02  0.47000000000E+01 0. -1.
         -5    1    4    4    0  502  0.15409803888E+02 -0.38314760152E+02  0.24651037244E+02  0.48324388652E+02  0.47000000000E+01 0.  1.
          5    1    3    3  503    0  0.22468949027E+02  0.52630571519E+02 -0.42128659050E+02  0.71216182446E+02  0.47000000000E+01 0. -1.
         -5    1    3    3    0  503  0.55332899027E+01 -0.25408123570E+02 -0.10331875046E+02  0.28373009753E+02  0.47000000000E+01 0.  1.
<mgrwt>
<rscale>  0 0.92991685E+02</rscale>
<asrwt>0</asrwt>
<pdfrwt beam="1">  1        1 0.11661103E-01 0.95950455E+02</pdfrwt>
<pdfrwt beam="2">  1       -1 0.18475312E-01 0.95950455E+02</pdfrwt>
<totfact> 0.10869201E+04</totfact>
</mgrwt>
</event>
<event>
 8    1  0.3177960E-004  0.1109680E+03  0.7546771E-02  0.1260861E+00
         -2   -1    0    0    0  501 -0.00000000000E+00  0.00000000000E+00  0.17839710456E+03  0.17839710456E+03  0.00000000000E+00 0.  1.
          2   -1    0    0  501    0  0.00000000000E+00 -0.00000000000E+00 -0.76282104391E+02  0.76282104391E+02  0.00000000000E+00 0. -1.
         23    2    1    2    0    0  0.27950276086E+02  0.47040676716E+02  0.58956961029E+01  0.11112446644E+03  0.96539342296E+02 0.  0.
         23    2    1    2    0    0 -0.27950276086E+02 -0.47040676716E+02  0.96219304065E+02  0.14355474250E+03  0.91409881422E+02 0.  0.
          5    1    4    4  502    0  0.16008670727E+01 -0.23881582562E+02 -0.13230242896E+02  0.27749271848E+02  0.47000000000E+01 0. -1.
         -5    1    3    3    0  503  0.26093276757E+02 -0.22994689006E+02 -0.14548048593E+02  0.37991453410E+02  0.47000000000E+01 0.  1.
          5    1    3    3  503    0  0.18569993296E+01  0.70035365721E+02  0.20443744696E+02  0.73133013034E+02  0.47000000000E+01 0. -1.
         -5    1    4    4    0  502 -0.29551143159E+02 -0.23159094154E+02  0.10944954696E+03  0.11580547066E+03  0.47000000000E+01 0.  1.
<mgrwt>
<rscale>  0 0.10984284E+03</rscale>
<asrwt>0</asrwt>
<pdfrwt beam="1">  1        2 0.11735708E-01 0.11096796E+03</pdfrwt>
<pdfrwt beam="2">  1       -2 0.27445708E-01 0.11096796E+03</pdfrwt>
<totfact> 0.58982880E+03</totfact>
</mgrwt>
</event>
<event>
 8    1  0.3177960E-004  0.1085930E+03  0.7546771E-02  0.1264819E+00
         -2   -1    0    0    0  501 -0.00000000000E+00  0.00000000000E+00  0.43944600176E+03  0.43944600176E+03  0.00000000000E+00 0.  1.
          2   -1    0    0  501    0  0.00000000000E+00 -0.00000000000E+00 -0.26068550378E+02  0.26068550378E+02  0.00000000000E+00 0. -1.
         23    2    1    2    0    0 -0.28473684055E+02  0.45195011389E+02  0.19848935680E+03  0.22625310328E+03  0.94546825664E+02 0.  0.
         23    2    1    2    0    0  0.28473684055E+02 -0.45195011389E+02  0.21488809458E+03  0.23926144885E+03  0.90641094313E+02 0.  0.
          5    1    4    4  502    0  0.15474750906E+02 -0.65263796777E+02  0.91832253800E+02  0.11381600908E+03  0.47000000000E+01 0. -1.
         -5    1    3    3    0  503 -0.59560846074E+02  0.41040070408E+02  0.16452611862E+03  0.17978519258E+03  0.47000000000E+01 0.  1.
          5    1    3    3  503    0  0.31087162019E+02  0.41549409804E+01  0.33963238182E+02  0.46467910699E+02  0.47000000000E+01 0. -1.
         -5    1    4    4    0  502  0.12998933149E+02  0.20068785388E+02  0.12305584078E+03  0.12544543977E+03  0.47000000000E+01 0.  1.
<mgrwt>
<rscale>  0 0.10773720E+03</rscale>
<asrwt>0</asrwt>
<pdfrwt beam="1">  1        2 0.40105465E-02 0.10859301E+03</pdfrwt>
<pdfrwt beam="2">  1       -2 0.67607072E-01 0.10859301E+03</pdfrwt>
<totfact> 0.40510891E+03</totfact>
</mgrwt>
</event>
<event>
 8    1  0.3177960E-004  0.1139998E+03  0.7546771E-02  0.1254030E+00
          1   -1    0    0  501    0  0.00000000000E+00  0.00000000000E+00  0.22083764039E+03  0.22083764039E+03  0.00000000000E+00 0. -1.
         -1   -1    0    0    0  501 -0.00000000000E+00 -0.00000000000E+00 -0.61160721292E+02  0.61160721292E+02  0.00000000000E+00 0.  1.
         23    2    1    2    0    0  0.57054620958E+01  0.65710159660E+02  0.47504059501E+02  0.12206494076E+03  0.91065013662E+02 0.  0.
         23    2    1    2    0    0 -0.57054620958E+01 -0.65710159660E+02  0.11217285960E+03  0.15993342092E+03  0.92981564395E+02 0.  0.
          5    1    3    3  502    0  0.60618866921E+01 -0.21064985951E+02 -0.11895772863E+01  0.22449614640E+02  0.47000000000E+01 0. -1.
         -5    1    3    3    0  502 -0.35642459631E+00  0.86775145611E+02  0.48693636788E+02  0.99615326120E+02  0.47000000000E+01 0.  1.
          5    1    4    4  503    0  0.34931682359E+02 -0.62841752310E+02  0.81093615524E+02  0.10847844369E+03  0.47000000000E+01 0. -1.
         -5    1    4    4    0  503 -0.40637144455E+02 -0.28684073502E+01  0.31079244073E+02  0.51454977236E+02  0.47000000000E+01 0.  1.
<mgrwt>
<rscale>  0 0.11360833E+03</rscale>
<asrwt>0</asrwt>
<pdfrwt beam="1">  1        1 0.33975021E-01 0.11399977E+03</pdfrwt>
<pdfrwt beam="2">  1       -1 0.94093418E-02 0.11399977E+03</pdfrwt>
<totfact> 0.80977058E+03</totfact>
</mgrwt>
</event>
<event>
 8    1  0.3177960E-004  0.9369272E+02  0.7546771E-02  0.1294311E+00
          2   -1    0    0  501    0  0.00000000000E+00  0.00000000000E+00  0.18892908139E+03  0.18892908139E+03  0.00000000000E+00 0. -1.
         -2   -1    0    0    0  501 -0.00000000000E+00 -0.00000000000E+00 -0.30636455605E+03  0.30636455605E+03  0.00000000000E+00 0.  1.
         23    2    1    2    0    0  0.52751159329E+01  0.18558059845E+02 -0.28686190884E+03  0.30168671035E+03  0.91394135620E+02 0.  0.
         23    2    1    2    0    0 -0.52751159329E+01 -0.18558059845E+02  0.16942643418E+03  0.19360692709E+03  0.91684770721E+02 0.  0.
          5    1    3    3  502    0 -0.40283091116E+02 -0.11419045426E+01 -0.92025591319E+02  0.10057251530E+03  0.47000000000E+01 0. -1.
         -5    1    3    3    0  502  0.45558207049E+02  0.19699964387E+02 -0.19483631752E+03  0.20111419506E+03  0.47000000000E+01 0.  1.
          5    1    4    4  503    0 -0.13050949202E+02  0.29342745084E+02  0.24401389599E+02  0.40605932799E+02  0.47000000000E+01 0.  1.
         -5    1    4    4    0  503  0.77758332692E+01 -0.47900804929E+02  0.14502504459E+03  0.15300099429E+03  0.47000000000E+01 0. -1.
<mgrwt>
<rscale>  0 0.93621541E+02</rscale>
<asrwt>0</asrwt>
<pdfrwt beam="1">  1        2 0.29066013E-01 0.93692719E+02</pdfrwt>
<pdfrwt beam="2">  1       -2 0.47133008E-01 0.93692719E+02</pdfrwt>
<totfact> 0.77056566E+02</totfact>
</mgrwt>
</event>
<event>
 8    1  0.3177960E-004  0.1031205E+03  0.7546771E-02  0.1279112E+00
         -2   -1    0    0    0  501 -0.00000000000E+00  0.00000000000E+00  0.23489176429E+02  0.23489176429E+02  0.00000000000E+00 0.  1.
          2   -1    0    0  501    0  0.00000000000E+00 -0.00000000000E+00 -0.41204597124E+03  0.41204597124E+03  0.00000000000E+00 0. -1.
         23    2    1    2    0    0 -0.42720779778E+02  0.25399631036E+02 -0.17130987702E+03  0.19505634439E+03  0.78928431128E+02 0.  0.
         23    2    1    2    0    0  0.42720779778E+02 -0.25399631036E+02 -0.21724691779E+03  0.24047880328E+03  0.90352782224E+02 0.  0.
          5    1    4    4  502    0  0.53231230339E+02  0.53489115944E+01 -0.19110936547E+03  0.19851210117E+03  0.47000000000E+01 0. -1.
         -5    1    4    4    0  502 -0.10510450562E+02 -0.30748542630E+02 -0.26137552316E+02  0.41966702110E+02  0.47000000000E+01 0.  1.
          5    1    3    3  503    0 -0.64737803436E+02  0.92503769170E+01 -0.11970908362E+03  0.13648775537E+03  0.47000000000E+01 0.  1.
         -5    1    3    3    0  503  0.22017023658E+02  0.16149254119E+02 -0.51600793404E+02  0.58568589016E+02  0.47000000000E+01 0. -1.
<mgrwt>
<rscale>  0 0.10056526E+03</rscale>
<asrwt>0</asrwt>
<pdfrwt beam="1">  1        2 0.63391693E-01 0.10312047E+03</pdfrwt>
<pdfrwt beam="2">  1       -2 0.36137191E-02 0.10312047E+03</pdfrwt>
<totfact> 0.22554984E+04</totfact>
</mgrwt>
</event>
<event>
 8    1  0.3177960E-004  0.9881602E+02  0.7546771E-02  0.1283620E+00
          1   -1    0    0  501    0  0.00000000000E+00  0.00000000000E+00  0.33470792681E+02  0.33470792681E+02  0.00000000000E+00 0. -1.
         -1   -1    0    0    0  501 -0.00000000000E+00 -0.00000000000E+00 -0.61002676143E+03  0.61002676143E+03  0.00000000000E+00 0.  1.
         23    2    1    2    0    0  0.36476365611E+02  0.45564720524E+01 -0.52125601653E+03  0.53026023805E+03  0.90093277199E+02 0.  0.
         23    2    1    2    0    0 -0.36476365611E+02 -0.45564720524E+01 -0.55299952215E+02  0.11323731606E+03  0.91724142668E+02 0.  0.
          5    1    4    4  502    0 -0.17432331584E+02 -0.17019160505E+02  0.21603624907E+02  0.32899006335E+02  0.47000000000E+01 0. -1.
         -5    1    4    4    0  502 -0.19044034027E+02  0.12462688452E+02 -0.76903577122E+02  0.80338309726E+02  0.47000000000E+01 0.  1.
          5    1    3    3  503    0 -0.12937885859E+02 -0.28541598927E+02 -0.10280838228E+03  0.10758097056E+03  0.47000000000E+01 0. -1.
         -5    1    3    3    0  503  0.49414251470E+02  0.33098070980E+02 -0.41844763425E+03  0.42267926748E+03  0.47000000000E+01 0.  1.
<mgrwt>
<rscale>  0 0.98435845E+02</rscale>
<asrwt>0</asrwt>
<pdfrwt beam="1">  1        1 0.51493530E-02 0.98816016E+02</pdfrwt>
<pdfrwt beam="2">  1       -1 0.93850266E-01 0.98816016E+02</pdfrwt>
<totfact> 0.17762189E+03</totfact>
</mgrwt>
</event>
<event>
 8    1  0.3177960E-004  0.1030651E+03  0.7546771E-02  0.1275829E+00
          1   -1    0    0  501    0  0.00000000000E+00  0.00000000000E+00  0.21753847273E+03  0.21753847273E+03  0.00000000000E+00 0. -1.
         -1   -1    0    0    0  501 -0.00000000000E+00 -0.00000000000E+00 -0.71802060686E+02  0.71802060686E+02  0.00000000000E+00 0.  1.
         23    2    1    2    0    0 -0.17406756289E+02  0.39457987322E+02  0.15849004904E+03  0.18905427166E+03  0.93608194393E+02 0.  0.
         23    2    1    2    0    0  0.17406756289E+02 -0.39457987322E+02 -0.12753637002E+02  0.10028626176E+03  0.89636773215E+02 0.  0.
          5    1    4    4  502    0 -0.74838907891E+01 -0.37644897154E+02  0.31091389787E+02  0.49617652322E+02  0.47000000000E+01 0. -1.
         -5    1    3    3    0  503  0.33806824462E+02  0.24884942428E+02  0.10613691946E+03  0.11423352141E+03  0.47000000000E+01 0.  1.
          5    1    3    3  503    0 -0.51213580752E+02  0.14573044894E+02  0.52353129579E+02  0.74820750248E+02  0.47000000000E+01 0. -1.
         -5    1    4    4    0  502  0.24890647078E+02 -0.18130901682E+01 -0.43845026789E+02  0.50668609435E+02  0.47000000000E+01 0.  1.
<mgrwt>
<rscale>  0 0.10215486E+03</rscale>
<asrwt>0</asrwt>
<pdfrwt beam="1">  1        1 0.33467457E-01 0.10306513E+03</pdfrwt>
<pdfrwt beam="2">  1       -1 0.11046471E-01 0.10306513E+03</pdfrwt>
<totfact> 0.64164192E+03</totfact>
</mgrwt>
</event>
<event>
 8    1  0.3177960E-004  0.1383207E+03  0.7546771E-02  0.1216690E+00
          1   -1    0    0  501    0  0.00000000000E+00  0.00000000000E+00  0.48316532831E+03  0.48316532831E+03  0.00000000000E+00 0. -1.
         -1   -1    0    0    0  501 -0.00000000000E+00 -0.00000000000E+00 -0.44477075346E+02  0.44477075346E+02  0.00000000000E+00 0.  1.
         23    2    1    2    0    0  0.75621692155E+02 -0.68716928687E+02  0.12651124572E+03  0.18745052438E+03  0.93230612924E+02 0.  0.
         23    2    1    2    0    0 -0.75621692155E+02  0.68716928687E+02  0.31217700725E+03  0.34019187927E+03  0.88517649413E+02 0.  0.
          5    1    3    3  502    0  0.18101411805E+02  0.14480510330E+02 -0.21209996131E+01  0.23747314124E+02  0.47000000000E+01 0. -1.
         -5    1    4    4    0  503  0.14041418454E+02  0.33748002140E+02  0.62350200417E+02  0.72427388277E+02  0.47000000000E+01 0.  1.
          5    1    4    4  503    0 -0.89663110609E+02  0.34968926547E+02  0.24982680683E+03  0.26776449100E+03  0.47000000000E+01 0. -1.
         -5    1    3    3    0  502  0.57520280350E+02 -0.83197439017E+02  0.12863224533E+03  0.16370321026E+03  0.47000000000E+01 0.  1.
<mgrwt>
<rscale>  0 0.13753097E+03</rscale>
<asrwt>0</asrwt>
<pdfrwt beam="1">  1        1 0.74333124E-01 0.13832066E+03</pdfrwt>
<pdfrwt beam="2">  1       -1 0.68426273E-02 0.13832066E+03</pdfrwt>
<totfact> 0.49896140E+03</totfact>
</mgrwt>
</event>
<event>
 8    1  0.3177960E-004  0.9313037E+02  0.7546771E-02  0.1296690E+00
         -1   -1    0    0    0  501 -0.00000000000E+00  0.00000000000E+00  0.24303197815E+02  0.24303197815E+02  0.00000000000E+00 0.  1.
          1   -1    0    0  501    0  0.00000000000E+00 -0.00000000000E+00 -0.54216960641E+03  0.54216960641E+03  0.00000000000E+00 0. -1.
         23    2    1    2    0    0  0.73704836402E+01  0.12186366132E+02 -0.42616590891E+03  0.43577373315E+03  0.89880659963E+02 0.  0.
         23    2    1    2    0    0 -0.73704836402E+01 -0.12186366132E+02 -0.91700499687E+02  0.13069907108E+03  0.92034960691E+02 0.  0.
          5    1    3    3  502    0 -0.12086982949E+02  0.45673952187E+02 -0.29936004161E+03  0.30310184687E+03  0.47000000000E+01 0. -1.
         -5    1    4    4    0  503  0.36853915118E+02 -0.26598059367E+02 -0.53262137637E+02  0.70175587830E+02  0.47000000000E+01 0.  1.
          5    1    4    4  503    0 -0.44224398759E+02  0.14411693235E+02 -0.38438362050E+02  0.60523483248E+02  0.47000000000E+01 0. -1.
         -5    1    3    3    0  502  0.19457466589E+02 -0.33487586055E+02 -0.12680586730E+03  0.13267188628E+03  0.47000000000E+01 0.  1.
<mgrwt>
<rscale>  0 0.92593655E+02</rscale>
<asrwt>0</asrwt>
<pdfrwt beam="1">  1        1 0.83410707E-01 0.93130369E+02</pdfrwt>
<pdfrwt beam="2">  1       -1 0.37389536E-02 0.93130369E+02</pdfrwt>
<totfact> 0.10194798E+04</totfact>
</mgrwt>
</event>
<event>
 8    1  0.3177960E-004  0.9342189E+02  0.7546771E-02  0.1294914E+00
          1   -1    0    0  501    0  0.00000000000E+00  0.00000000000E+00  0.58614324455E+03  0.58614324455E+03  0.00000000000E+00 0. -1.
         -1   -1    0    0    0  501 -0.00000000000E+00 -0.00000000000E+00 -0.16834534767E+02  0.16834534767E+02  0.00000000000E+00 0.  1.
         23    2    1    2    0    0  0.26480186562E+01  0.14924097859E+02  0.18148553781E+03  0.20411920621E+03  0.92184104985E+02 0.  0.
         23    2    1    2    0    0 -0.26480186562E+01 -0.14924097859E+02  0.38782317198E+03  0.39885857311E+03  0.91932627064E+02 0.  0.
          5    1    3    3  502    0  0.32649624007E+02  0.36905837769E+02  0.13851811136E+03  0.14709655327E+03  0.47000000000E+01 0. -1.
         -5    1    3    3    0  502 -0.30001605351E+02 -0.21981739910E+02  0.42967426452E+02  0.57022652947E+02  0.47000000000E+01 0.  1.
          5    1    4    4  503    0  0.40958532826E+02 -0.23819938460E+02  0.22600566882E+03  0.23096675782E+03  0.47000000000E+01 0. -1.
         -5    1    4    4    0  503 -0.43606551482E+02  0.88958406006E+01  0.16181750316E+03  0.16789181529E+03  0.47000000000E+01 0.  1.
<mgrwt>
<rscale>  0 0.93359796E+02</rscale>
<asrwt>0</asrwt>
<pdfrwt beam="1">  1        1 0.90175868E-01 0.93421892E+02</pdfrwt>
<pdfrwt beam="2">  1       -1 0.25899289E-02 0.93421892E+02</pdfrwt>
<totfact> 0.15627076E+04</totfact>
</mgrwt>
</event>
<event>
 8    1  0.3177960E-004  0.1147847E+03  0.7546771E-02  0.1261869E+00
          2   -1    0    0  501    0  0.00000000000E+00  0.00000000000E+00  0.22682768949E+03  0.22682768949E+03  0.00000000000E+00 0. -1.
         -2   -1    0    0    0  501 -0.00000000000E+00 -0.00000000000E+00 -0.71863203150E+02  0.71863203150E+02  0.00000000000E+00 0.  1.
         23    2    1    2    0    0 -0.25200845867E+02 -0.12421890232E+02  0.15780400325E+03  0.18387106192E+03  0.90094827711E+02 0.  0.
         23    2    1    2    0    0  0.25200845867E+02  0.12421890232E+02 -0.28395169064E+01  0.11481983072E+03  0.11129305765E+03 0.  0.
          5    1    4    4  502    0  0.40204634437E+02  0.29772721100E+02  0.41175587838E+02  0.64964194644E+02  0.47000000000E+01 0. -1.
         -5    1    3    3    0  503 -0.37804374638E+02  0.21895747006E+02  0.13133998286E+03  0.13849503809E+03  0.47000000000E+01 0.  1.
          5    1    3    3  503    0  0.12603528771E+02 -0.34317637238E+02  0.26464020390E+02  0.45376023826E+02  0.47000000000E+01 0. -1.
         -5    1    4    4    0  502 -0.15003788570E+02 -0.17350830868E+02 -0.44015104744E+02  0.49855636080E+02  0.47000000000E+01 0.  1.
<mgrwt>
<rscale>  0 0.10930152E+03</rscale>
<asrwt>0</asrwt>
<pdfrwt beam="1">  1        2 0.34896567E-01 0.11478471E+03</pdfrwt>
<pdfrwt beam="2">  1       -2 0.11055878E-01 0.11478471E+03</pdfrwt>
<totfact> 0.78471635E+03</totfact>
</mgrwt>
</event>
<event>
 8    1  0.3177960E-004  0.1074237E+03  0.7546771E-02  0.1267516E+00
          1   -1    0    0  501    0  0.00000000000E+00  0.00000000000E+00  0.30186375698E+03  0.30186375698E+03  0.00000000000E+00 0. -1.
         -1   -1    0    0    0  501 -0.00000000000E+00 -0.00000000000E+00 -0.10033903931E+03  0.10033903931E+03  0.00000000000E+00 0.  1.
         23    2    1    2    0    0  0.42232908879E+02  0.32043818581E+02  0.26164025004E+03  0.28283471262E+03  0.93431415076E+02 0.  0.
         23    2    1    2    0    0 -0.42232908879E+02 -0.32043818581E+02 -0.60115532369E+02  0.11936808366E+03  0.88455849236E+02 0.  0.
          5    1    3    3  502    0 -0.20727521079E+02  0.37887588987E+02  0.12101453011E+03  0.12857568210E+03  0.47000000000E+01 0. -1.
         -5    1    3    3    0  502  0.62960429959E+02 -0.58437704064E+01  0.14062571993E+03  0.15425903053E+03  0.47000000000E+01 0.  1.
          5    1    4    4  503    0 -0.46290004399E+00 -0.54761300288E+02 -0.37258139214E+02  0.66402358568E+02  0.47000000000E+01 0. -1.
         -5    1    4    4    0  503 -0.41770008835E+02  0.22717481707E+02 -0.22857393155E+02  0.52965725097E+02  0.47000000000E+01 0.  1.
<mgrwt>
<rscale>  0 0.10633264E+03</rscale>
<asrwt>0</asrwt>
<pdfrwt beam="1">  1        1 0.46440578E-01 0.10742371E+03</pdfrwt>
<pdfrwt beam="2">  1       -1 0.15436775E-01 0.10742371E+03</pdfrwt>
<totfact> 0.25692713E+03</totfact>
</mgrwt>
</event>
<event>
 8    1  0.3177960E-004  0.1063631E+03  0.7546771E-02  0.1268719E+00
         -1   -1    0    0    0  501 -0.00000000000E+00  0.00000000000E+00  0.48178763971E+02  0.48178763971E+02  0.00000000000E+00 0.  1.
          1   -1    0    0  501    0  0.00000000000E+00 -0.00000000000E+00 -0.32036636683E+03  0.32036636683E+03  0.00000000000E+00 0. -1.
         23    2    1    2    0    0 -0.54242642484E+02  0.47187155280E+01 -0.36592115894E+02  0.11005268048E+03  0.88363335127E+02 0.  0.
         23    2    1    2    0    0  0.54242642484E+02 -0.47187155280E+01 -0.23559548697E+03  0.25849245033E+03  0.91370579819E+02 0.  0.
          5    1    3    3  502    0  0.19748633264E+02  0.48912936561E+01 -0.28701100723E+02  0.35493329686E+02  0.47000000000E+01 0. -1.
         -5    1    3    3    0  502 -0.73991275748E+02 -0.17257812806E+00 -0.78910151706E+01  0.74559350792E+02  0.47000000000E+01 0.  1.
          5    1    4    4  503    0  0.26038538457E+02 -0.13369590653E+02 -0.22477284142E+03  0.22671936768E+03  0.47000000000E+01 0. -1.
         -5    1    4    4    0  503  0.28204104027E+02  0.86508751255E+01 -0.10822645545E+02  0.31773082648E+02  0.47000000000E+01 0.  1.
<mgrwt>
<rscale>  0 0.10571422E+03</rscale>
<asrwt>0</asrwt>
<pdfrwt beam="1">  1        1 0.49287135E-01 0.10636312E+03</pdfrwt>
<pdfrwt beam="2">  1       -1 0.74121174E-02 0.10636312E+03</pdfrwt>
<totfact> 0.73004503E+03</totfact>
</mgrwt>
</event>
<event>
 8    1  0.3177960E-004  0.1393505E+03  0.7546771E-02  0.1214537E+00
         -2   -1    0    0    0  501 -0.00000000000E+00  0.00000000000E+00  0.27448685362E+02  0.27448685362E+02  0.00000000000E+00 0.  1.
          2   -1    0    0  501    0  0.00000000000E+00 -0.00000000000E+00 -0.71461033925E+03  0.71461033925E+03  0.00000000000E+00 0. -1.
         23    2    1    2    0    0  0.15589196055E+02  0.10412014896E+03 -0.29411266495E+03  0.32503855955E+03  0.89798535936E+02 0.  0.
         23    2    1    2    0    0 -0.15589196055E+02 -0.10412014896E+03 -0.39304898893E+03  0.41702046506E+03  0.91293658734E+02 0.  0.
          5    1    4    4  502    0 -0.28635782479E+02  0.18699680428E+01 -0.51589471635E+02  0.59220506602E+02  0.47000000000E+01 0. -1.
         -5    1    4    4    0  502  0.13046586424E+02 -0.10599011700E+03 -0.34145951729E+03  0.35779995846E+03  0.47000000000E+01 0.  1.
          5    1    3    3  503    0 -0.33895491697E+02  0.44939974935E+02 -0.16678864189E+03  0.17609385784E+03  0.47000000000E+01 0. -1.
         -5    1    3    3    0  503  0.49484687752E+02  0.59180174023E+02 -0.12732402306E+03  0.14894470171E+03  0.47000000000E+01 0.  1.
<mgrwt>
<rscale>  0 0.13910613E+03</rscale>
<asrwt>0</asrwt>
<pdfrwt beam="1">  1        2 0.10994006E+00 0.13935050E+03</pdfrwt>
<pdfrwt beam="2">  1       -2 0.42228744E-02 0.13935050E+03</pdfrwt>
<totfact> 0.99353362E+03</totfact>
</mgrwt>
</event>
<event>
 8    1  0.3177960E-004  0.1113566E+03  0.7546771E-02  0.1258288E+00
         -2   -1    0    0    0  501 -0.00000000000E+00  0.00000000000E+00  0.47293586884E+02  0.47293586884E+02  0.00000000000E+00 0.  1.
          2   -1    0    0  501    0  0.00000000000E+00 -0.00000000000E+00 -0.28747454606E+03  0.28747454606E+03  0.00000000000E+00 0. -1.
         23    2    1    2    0    0 -0.74132541859E+01 -0.62544504518E+02 -0.69631615263E+02  0.13133491608E+03  0.91834236293E+02 0.  0.
         23    2    1    2    0    0  0.74132541859E+01  0.62544504518E+02 -0.17054934391E+03  0.20343321686E+03  0.91275536864E+02 0.  0.
          5    1    3    3  502    0  0.15895545967E+02 -0.79198797194E+02 -0.41609845777E+02  0.90986741475E+02  0.47000000000E+01 0. -1.
         -5    1    4    4    0  503  0.56692715577E+01  0.19862261604E+02  0.57674024809E+01  0.21954566891E+02  0.47000000000E+01 0.  1.
          5    1    4    4  503    0  0.17439826282E+01  0.42682242914E+02 -0.17631674639E+03  0.18147864997E+03  0.47000000000E+01 0. -1.
         -5    1    3    3    0  502 -0.23308800153E+02  0.16654292676E+02 -0.28021769486E+02  0.40348174609E+02  0.47000000000E+01 0.  1.
<mgrwt>
<rscale>  0 0.11124137E+03</rscale>
<asrwt>0</asrwt>
<pdfrwt beam="1">  1        2 0.44226854E-01 0.11135663E+03</pdfrwt>
<pdfrwt beam="2">  1       -2 0.72759363E-02 0.11135663E+03</pdfrwt>
<totfact> 0.11658029E+04</totfact>
</mgrwt>
</event>
<event>
 8    1  0.3177960E-004  0.9717208E+02  0.7546771E-02  0.1286985E+00
          2   -1    0    0  501    0  0.00000000000E+00  0.00000000000E+00  0.12874118988E+03  0.12874118988E+03  0.00000000000E+00 0. -1.
         -2   -1    0    0    0  501 -0.00000000000E+00 -0.00000000000E+00 -0.76692729054E+02  0.76692729054E+02  0.00000000000E+00 0.  1.
         23    2    1    2    0    0 -0.29862397836E+02  0.13057594212E+02  0.18213534127E+01  0.96048473787E+02  0.90331215077E+02 0.  0.
         23    2    1    2    0    0  0.29862397836E+02 -0.13057594212E+02  0.50227107418E+02  0.10938544515E+03  0.91543157693E+02 0.  0.
          5    1    4    4  502    0 -0.23086272805E+02  0.22534141660E+02  0.22792754090E+02  0.39778928736E+02  0.47000000000E+01 0. -1.
         -5    1    4    4    0  502  0.52948670641E+02 -0.35591735872E+02  0.27434353328E+02  0.69606516416E+02  0.47000000000E+01 0.  1.
          5    1    3    3  503    0 -0.23369199485E+02  0.46820674905E+02  0.20787368235E+02  0.56502210234E+02  0.47000000000E+01 0. -1.
         -5    1    3    3    0  503 -0.64931983506E+01 -0.33763080693E+02 -0.18966014823E+02  0.39546263553E+02  0.47000000000E+01 0.  1.
<mgrwt>
<rscale>  0 0.96885597E+02</rscale>
<asrwt>0</asrwt>
<pdfrwt beam="1">  1        2 0.19806337E-01 0.97172081E+02</pdfrwt>
<pdfrwt beam="2">  1       -2 0.11798881E-01 0.97172081E+02</pdfrwt>
<totfact> 0.12940883E+04</totfact>
</mgrwt>
</event>
<event>
 8    1  0.3177960E-004  0.1081448E+03  0.7546771E-02  0.1266164E+00
          1   -1    0    0  501    0  0.00000000000E+00  0.00000000000E+00  0.10174299578E+03  0.10174299578E+03  0.00000000000E+00 0. -1.
         -1   -1    0    0    0  501 -0.00000000000E+00 -0.00000000000E+00 -0.16383518728E+03  0.16383518728E+03  0.00000000000E+00 0.  1.
         23    2    1    2    0    0 -0.49052905279E+02  0.11930397723E+02 -0.10734144680E+03  0.15237287336E+03  0.95638822817E+02 0.  0.
         23    2    1    2    0    0  0.49052905279E+02 -0.11930397723E+02  0.45249255299E+02  0.11320530970E+03  0.90661045294E+02 0.  0.
          5    1    4    4  502    0  0.23301186847E+02 -0.42166720044E+02  0.53734162190E+02  0.72321696426E+02  0.47000000000E+01 0. -1.
         -5    1    3    3    0  503 -0.47172308633E+02  0.43569749683E+02 -0.10089518974E+03  0.11968909350E+03  0.47000000000E+01 0.  1.
          5    1    3    3  503    0 -0.18805966465E+01 -0.31639351960E+02 -0.64462570562E+01  0.32683779865E+02  0.47000000000E+01 0. -1.
         -5    1    4    4    0  502  0.25751718432E+02  0.30236322321E+02 -0.84849068901E+01  0.40883613277E+02  0.47000000000E+01 0.  1.
<mgrwt>
<rscale>  0 0.10703380E+03</rscale>
<asrwt>0</asrwt>
<pdfrwt beam="1">  1        1 0.15652769E-01 0.10814484E+03</pdfrwt>
<pdfrwt beam="2">  1       -1 0.25205413E-01 0.10814484E+03</pdfrwt>
<totfact> 0.45572429E+03</totfact>
</mgrwt>
</event>
<event>
 8    1  0.3177960E-004  0.1671963E+03  0.7546771E-02  0.1184675E+00
         -2   -1    0    0    0  501 -0.00000000000E+00  0.00000000000E+00  0.44542161241E+03  0.44542161241E+03  0.00000000000E+00 0.  1.
          2   -1    0    0  501    0  0.00000000000E+00 -0.00000000000E+00 -0.68356564559E+02  0.68356564559E+02  0.00000000000E+00 0. -1.
         23    2    1    2    0    0 -0.94602536583E+02  0.78402474330E+02  0.93881124040E+02  0.19175057177E+03  0.11339324678E+03 0.  0.
         23    2    1    2    0    0  0.94602536583E+02 -0.78402474330E+02  0.28318392381E+03  0.32202760520E+03  0.91717260618E+02 0.  0.
          5    1    3    3  502    0 -0.79073687771E+02  0.62818863497E+02  0.62651887571E+01  0.10129264682E+03  0.47000000000E+01 0. -1.
         -5    1    4    4    0  503  0.78570296641E+02 -0.62686708957E+01  0.13569813762E+03  0.15699892453E+03  0.47000000000E+01 0.  1.
          5    1    4    4  503    0  0.16032239942E+02 -0.72133803434E+02  0.14748578619E+03  0.16502868067E+03  0.47000000000E+01 0. -1.
         -5    1    3    3    0  502 -0.15528848811E+02  0.15583610833E+02  0.87615935283E+02  0.90457924957E+02  0.47000000000E+01 0.  1.
<mgrwt>
<rscale>  0 0.16361515E+03</rscale>
<asrwt>0</asrwt>
<pdfrwt beam="1">  1        2 0.10516395E-01 0.16719634E+03</pdfrwt>
<pdfrwt beam="2">  1       -2 0.68526400E-01 0.16719634E+03</pdfrwt>
<totfact> 0.11804453E+03</totfact>
</mgrwt>
</event>
<event>
 8    1  0.3177960E-004  0.9283323E+02  0.7546771E-02  0.1296529E+00
         -1   -1    0    0    0  501 -0.00000000000E+00  0.00000000000E+00  0.30641480286E+02  0.30641480286E+02  0.00000000000E+00 0.  1.
          1   -1    0    0  501    0  0.00000000000E+00 -0.00000000000E+00 -0.33640054833E+03  0.33640054833E+03  0.00000000000E+00 0. -1.
         23    2    1    2    0    0 -0.11014497878E+02  0.10246592899E+02 -0.22902693747E+03  0.24712617619E+03  0.91606206339E+02 0.  0.
         23    2    1    2    0    0  0.11014497878E+02 -0.10246592899E+02 -0.76732130574E+02  0.11991585243E+03  0.90915785054E+02 0.  0.
          5    1    3    3  502    0  0.74292477266E+01  0.48658631618E+02 -0.10958092013E+03  0.12022031529E+03  0.47000000000E+01 0. -1.
         -5    1    3    3    0  502 -0.18443745604E+02 -0.38412038719E+02 -0.11944601735E+03  0.12690586090E+03  0.47000000000E+01 0.  1.
          5    1    4    4  503    0  0.18464035588E+02  0.18381421436E+02 -0.84848831180E+02  0.88883133477E+02  0.47000000000E+01 0. -1.
         -5    1    4    4    0  503 -0.74495377100E+01 -0.28628014335E+02  0.81167006060E+01  0.31032718952E+02  0.47000000000E+01 0.  1.
<mgrwt>
<rscale>  0 0.92662454E+02</rscale>
<asrwt>0</asrwt>
<pdfrwt beam="1">  1        1 0.51753930E-01 0.92833231E+02</pdfrwt>
<pdfrwt beam="2">  1       -1 0.47140739E-02 0.92833231E+02</pdfrwt>
<totfact> 0.13261597E+04</totfact>
</mgrwt>
</event>
<event>
 8    1  0.3177960E-004  0.9682315E+02  0.7546771E-02  0.1287367E+00
          1   -1    0    0  501    0  0.00000000000E+00  0.00000000000E+00  0.77407638848E+03  0.77407638848E+03  0.00000000000E+00 0. -1.
         -1   -1    0    0    0  501 -0.00000000000E+00 -0.00000000000E+00 -0.15646068046E+02  0.15646068046E+02  0.00000000000E+00 0.  1.
         23    2    1    2    0    0 -0.32508842851E+02  0.33647885297E+01  0.19072519163E+03  0.21389441574E+03  0.91140417479E+02 0.  0.
         23    2    1    2    0    0  0.32508842851E+02 -0.33647885297E+01  0.56770512880E+03  0.57582804078E+03  0.90667924964E+02 0.  0.
          5    1    3    3  502    0 -0.27560195635E+02 -0.16019242387E+02  0.19063987432E+03  0.19334381860E+03  0.47000000000E+01 0. -1.
         -5    1    3    3    0  502 -0.49486472161E+01  0.19384030916E+02  0.85317308644E-01  0.20550597142E+02  0.47000000000E+01 0.  1.
          5    1    4    4  503    0  0.56232282087E+02 -0.23522673078E+02  0.44354423065E+03  0.44773760200E+03  0.47000000000E+01 0. -1.
         -5    1    4    4    0  503 -0.23723439237E+02  0.20157884548E+02  0.12416089815E+03  0.12809043879E+03  0.47000000000E+01 0.  1.
<mgrwt>
<rscale>  0 0.96711801E+02</rscale>
<asrwt>0</asrwt>
<pdfrwt beam="1">  1        1 0.11908865E+00 0.96823150E+02</pdfrwt>
<pdfrwt beam="2">  1       -1 0.24070880E-02 0.96823150E+02</pdfrwt>
<totfact> 0.11817327E+04</totfact>
</mgrwt>
</event>
<event>
 8    1  0.3177960E-004  0.9829855E+02  0.7546771E-02  0.1284099E+00
          1   -1    0    0  501    0  0.00000000000E+00  0.00000000000E+00  0.19276575594E+03  0.19276575594E+03  0.00000000000E+00 0. -1.
         -1   -1    0    0    0  501 -0.00000000000E+00 -0.00000000000E+00 -0.50415191953E+02  0.50415191953E+02  0.00000000000E+00 0.  1.
         23    2    1    2    0    0  0.25451795022E+02  0.29146904764E+02  0.82955246358E+02  0.12862417060E+03  0.90361874914E+02 0.  0.
         23    2    1    2    0    0 -0.25451795022E+02 -0.29146904764E+02  0.59395317630E+02  0.11455677729E+03  0.89989530168E+02 0.  0.
          5    1    3    3  502    0  0.46216869076E+02  0.80954976598E+01  0.86455821336E+02  0.98479617751E+02  0.47000000000E+01 0. -1.
         -5    1    3    3    0  502 -0.20765074054E+02  0.21051407104E+02 -0.35005749775E+01  0.30144552853E+02  0.47000000000E+01 0.  1.
          5    1    4    4  503    0 -0.50749601243E+02 -0.43017300525E+02  0.51541607484E+02  0.84289011578E+02  0.47000000000E+01 0. -1.
         -5    1    4    4    0  503  0.25297806221E+02  0.13870395762E+02  0.78537101458E+01  0.30267765713E+02  0.47000000000E+01 0.  1.
<mgrwt>
<rscale>  0 0.98212892E+02</rscale>
<asrwt>0</asrwt>
<pdfrwt beam="1">  1        1 0.29656270E-01 0.98298547E+02</pdfrwt>
<pdfrwt beam="2">  1       -1 0.77561835E-02 0.98298547E+02</pdfrwt>
<totfact> 0.12639884E+04</totfact>
</mgrwt>
</event>
<event>
 8    1  0.3177960E-004  0.1095507E+03  0.7546771E-02  0.1262351E+00
          3   -1    0    0  501    0  0.00000000000E+00  0.00000000000E+00  0.10346118312E+03  0.10346118312E+03  0.00000000000E+00 0. -1.
         -3   -1    0    0    0  501 -0.00000000000E+00 -0.00000000000E+00 -0.13448081788E+03  0.13448081788E+03  0.00000000000E+00 0.  1.
         23    2    1    2    0    0 -0.47897540503E+02 -0.30032576162E+02 -0.62199586516E+02  0.12597677471E+03  0.93836182720E+02 0.  0.
         23    2    1    2    0    0  0.47897540503E+02  0.30032576162E+02  0.31179951759E+02  0.11196522629E+03  0.91476185361E+02 0.  0.
          5    1    4    4  502    0 -0.24934224464E+02  0.66457258413E+01 -0.58126542487E+01  0.26865557336E+02  0.47000000000E+01 0. -1.
         -5    1    3    3    0  503 -0.12563552029E+02 -0.59564103457E+02 -0.47668567556E+02  0.77460361432E+02  0.47000000000E+01 0.  1.
          5    1    3    3  503    0 -0.35333988474E+02  0.29531527295E+02 -0.14531018960E+02  0.48516413283E+02  0.47000000000E+01 0. -1.
         -5    1    4    4    0  502  0.72831764966E+02  0.23386850321E+02  0.36992606007E+02  0.85099668949E+02  0.47000000000E+01 0.  1.
<mgrwt>
<rscale>  0 0.10904356E+03</rscale>
<asrwt>0</asrwt>
<pdfrwt beam="1">  1        3 0.15917105E-01 0.10955072E+03</pdfrwt>
<pdfrwt beam="2">  1       -3 0.20689357E-01 0.10955072E+03</pdfrwt>
<totfact> 0.15655988E+03</totfact>
</mgrwt>
</event>
<event>
 8    1  0.3177960E-004  0.9349602E+02  0.7546771E-02  0.1294830E+00
          4   -1    0    0  501    0  0.00000000000E+00  0.00000000000E+00  0.35398572603E+03  0.35398572603E+03  0.00000000000E+00 0. -1.
         -4   -1    0    0    0  501 -0.00000000000E+00 -0.00000000000E+00 -0.24590347530E+02  0.24590347530E+02  0.00000000000E+00 0.  1.
         23    2    1    2    0    0  0.12444377230E+02 -0.10507903081E+02  0.16368011971E+03  0.18850115874E+03  0.92066425521E+02 0.  0.
         23    2    1    2    0    0 -0.12444377230E+02  0.10507903081E+02  0.16571525879E+03  0.19007491482E+03  0.91660502368E+02 0.  0.
          5    1    3    3  502    0 -0.15175958150E+02 -0.39856865044E+02  0.41236625199E+02  0.59509903837E+02  0.47000000000E+01 0. -1.
         -5    1    4    4    0  503 -0.37781999281E+02  0.37819743918E+02  0.11563264691E+03  0.12747867089E+03  0.47000000000E+01 0.  1.
          5    1    4    4  503    0  0.25337622052E+02 -0.27311840838E+02  0.50082611878E+02  0.62596243927E+02  0.47000000000E+01 0. -1.
         -5    1    3    3    0  502  0.27620335380E+02  0.29348961963E+02  0.12244349451E+03  0.12899125490E+03  0.47000000000E+01 0.  1.
<mgrwt>
<rscale>  0 0.93395934E+02</rscale>
<asrwt>0</asrwt>
<pdfrwt beam="1">  1        4 0.54459339E-01 0.93496017E+02</pdfrwt>
<pdfrwt beam="2">  1       -4 0.37831306E-02 0.93496017E+02</pdfrwt>
<totfact> 0.18278561E+03</totfact>
</mgrwt>
</event>
<event>
 8    1  0.3177960E-004  0.1968000E+03  0.7546771E-02  0.1153113E+00
          1   -1    0    0  501    0  0.00000000000E+00  0.00000000000E+00  0.23549182452E+03  0.23549182452E+03  0.00000000000E+00 0. -1.
         -1   -1    0    0    0  501 -0.00000000000E+00 -0.00000000000E+00 -0.27167039436E+03  0.27167039436E+03  0.00000000000E+00 0.  1.
         23    2    1    2    0    0 -0.74935666805E+02 -0.15340487544E+03  0.14295067238E+03  0.24323884273E+03  0.97886821929E+02 0.  0.
         23    2    1    2    0    0  0.74935666805E+02  0.15340487544E+03 -0.17912924223E+03  0.26392337616E+03  0.91759757488E+02 0.  0.
          5    1    3    3  502    0 -0.54524830142E+02 -0.16030357653E+03  0.14221821252E+03  0.22117482615E+03  0.47000000000E+01 0. -1.
         -5    1    3    3    0  502 -0.20410836663E+02  0.68987010895E+01  0.73245986383E+00  0.22064016575E+02  0.47000000000E+01 0.  1.
          5    1    4    4  503    0  0.27095090857E+02  0.50526737112E+01 -0.64747033910E+02  0.70526178547E+02  0.47000000000E+01 0. -1.
         -5    1    4    4    0  503  0.47840575948E+02  0.14835220173E+03 -0.11438220831E+03  0.19339719761E+03  0.47000000000E+01 0.  1.
<mgrwt>
<rscale>  0 0.19605208E+03</rscale>
<asrwt>0</asrwt>
<pdfrwt beam="1">  1        1 0.36229511E-01 0.19680000E+03</pdfrwt>
<pdfrwt beam="2">  1       -1 0.41795445E-01 0.19680000E+03</pdfrwt>
<totfact> 0.68132140E+02</totfact>
</mgrwt>
</event>
<event>
 8    1  0.3177960E-004  0.1085433E+03  0.7546771E-02  0.1263966E+00
         -1   -1    0    0    0  501 -0.00000000000E+00  0.00000000000E+00  0.82016396265E+02  0.82016396265E+02  0.00000000000E+00 0.  1.
          1   -1    0    0  501    0  0.00000000000E+00 -0.00000000000E+00 -0.14185180311E+03  0.14185180311E+03  0.00000000000E+00 0. -1.
         23    2    1    2    0    0 -0.53361488661E+02 -0.24859790853E+02 -0.27141192161E+02  0.11050793672E+03  0.89498056365E+02 0.  0.
         23    2    1    2    0    0  0.53361488661E+02  0.24859790853E+02 -0.32694214688E+02  0.11336026266E+03  0.91193090759E+02 0.  0.
          5    1    4    4  502    0  0.48019324824E+02 -0.25873937139E+02 -0.29105831319E+02  0.62004480454E+02  0.47000000000E+01 0. -1.
         -5    1    3    3    0  503 -0.21518154369E+02  0.30876105268E+02  0.55295138809E+01  0.38327931952E+02  0.47000000000E+01 0.  1.
          5    1    3    3  503    0 -0.31843334292E+02 -0.55735896121E+02 -0.32670706042E+02  0.72180004770E+02  0.47000000000E+01 0. -1.
         -5    1    4    4    0  502  0.53421638368E+01  0.50733727992E+02 -0.35883833685E+01  0.51355782202E+02  0.47000000000E+01 0.  1.
<mgrwt>
<rscale>  0 0.10818646E+03</rscale>
<asrwt>0</asrwt>
<pdfrwt beam="1">  1        1 0.21823354E-01 0.10854325E+03</pdfrwt>
<pdfrwt beam="2">  1       -1 0.12617907E-01 0.10854325E+03</pdfrwt>
<totfact> 0.89348029E+03</totfact>
</mgrwt>
</event>
<event>
 8    1  0.3177960E-004  0.1514181E+03  0.7546771E-02  0.1199035E+00
          2   -1    0    0  501    0  0.00000000000E+00  0.00000000000E+00  0.19532727091E+03  0.19532727091E+03  0.00000000000E+00 0. -1.
         -2   -1    0    0    0  501 -0.00000000000E+00 -0.00000000000E+00 -0.15635498659E+03  0.15635498659E+03  0.00000000000E+00 0.  1.
         23    2    1    2    0    0 -0.11189850617E+03  0.45764617399E+02  0.10816151833E+03  0.18608154911E+03  0.91168815835E+02 0.  0.
         23    2    1    2    0    0  0.11189850617E+03 -0.45764617399E+02 -0.69189234008E+02  0.16560070839E+03  0.89558744000E+02 0.  0.
          5    1    3    3  502    0 -0.40399935014E+02  0.32130236793E+02  0.10006820581E+03  0.11269535340E+03  0.47000000000E+01 0.  1.
         -5    1    4    4    0  503  0.45787376393E+02  0.22059550048E+02 -0.44233615694E+02  0.67541175165E+02  0.47000000000E+01 0.  1.
          5    1    4    4  503    0  0.66111129781E+02 -0.67824167447E+02 -0.24955618314E+02  0.98059533225E+02  0.47000000000E+01 0. -1.
         -5    1    3    3    0  502 -0.71498571159E+02  0.13634380606E+02  0.80933125272E+01  0.73386195705E+02  0.47000000000E+01 0. -1.
<mgrwt>
<rscale>  0 0.15117650E+03</rscale>
<asrwt>0</asrwt>
<pdfrwt beam="1">  1        2 0.30050349E-01 0.15141806E+03</pdfrwt>
<pdfrwt beam="2">  1       -2 0.24054613E-01 0.15141806E+03</pdfrwt>
<totfact> 0.25940848E+03</totfact>
</mgrwt>
</event>
<event>
 8    1  0.3177960E-004  0.9086825E+02  0.7546771E-02  0.1303812E+00
         -3   -1    0    0    0  501 -0.00000000000E+00  0.00000000000E+00  0.30889471128E+02  0.30889471128E+02  0.00000000000E+00 0.  1.
          3   -1    0    0  501    0  0.00000000000E+00 -0.00000000000E+00 -0.28239108612E+03  0.28239108612E+03  0.00000000000E+00 0. -1.
         23    2    1    2    0    0  0.99198294929E+00 -0.17268474496E+01 -0.72031450407E+02  0.11211748971E+03  0.85894328214E+02 0.  0.
         23    2    1    2    0    0 -0.99198294929E+00  0.17268474496E+01 -0.17947016458E+03  0.20116306753E+03  0.90846429384E+02 0.  0.
          5    1    4    4  502    0 -0.37919921841E+02 -0.19516471142E+02 -0.56548968653E+02  0.70983723303E+02  0.47000000000E+01 0. -1.
         -5    1    4    4    0  502  0.36927938891E+02  0.21243318591E+02 -0.12292119593E+03  0.13017934423E+03  0.47000000000E+01 0.  1.
          5    1    3    3  503    0 -0.95218692377E+01 -0.38660335621E+02 -0.58923930707E+02  0.71269959689E+02  0.47000000000E+01 0. -1.
         -5    1    3    3    0  503  0.10513852187E+02  0.36933488171E+02 -0.13107519700E+02  0.40847530023E+02  0.47000000000E+01 0.  1.
<mgrwt>
<rscale>  0 0.89604421E+02</rscale>
<asrwt>0</asrwt>
<pdfrwt beam="1">  1        3 0.43444782E-01 0.90868255E+02</pdfrwt>
<pdfrwt beam="2">  1       -3 0.47522264E-02 0.90868255E+02</pdfrwt>
<totfact> 0.27616386E+03</totfact>
</mgrwt>
</event>
<event>
 8    1  0.3177960E-004  0.9653959E+02  0.7546771E-02  0.1289940E+00
          3   -1    0    0  501    0  0.00000000000E+00  0.00000000000E+00  0.17193918261E+03  0.17193918261E+03  0.00000000000E+00 0. -1.
         -3   -1    0    0    0  501 -0.00000000000E+00 -0.00000000000E+00 -0.13876610511E+03  0.13876610511E+03  0.00000000000E+00 0.  1.
         23    2    1    2    0    0 -0.72798442627E+01 -0.24427683688E+02 -0.10634712327E+03  0.14104156510E+03  0.89069100112E+02 0.  0.
         23    2    1    2    0    0  0.72798442627E+01  0.24427683688E+02  0.13952020076E+03  0.16966372262E+03  0.93113825459E+02 0.  0.
          5    1    4    4  502    0  0.36260109402E+02  0.39740526026E+02  0.11907483437E+03  0.13074789146E+03  0.47000000000E+01 0. -1.
         -5    1    3    3    0  503  0.26605537102E+02  0.91801325620E+01 -0.82874020285E+02  0.87648860099E+02  0.47000000000E+01 0.  1.
          5    1    3    3  503    0 -0.33885381365E+02 -0.33607816250E+02 -0.23473102981E+02  0.53392704997E+02  0.47000000000E+01 0. -1.
         -5    1    4    4    0  502 -0.28980265139E+02 -0.15312842338E+02  0.20445366394E+02  0.38915831161E+02  0.47000000000E+01 0.  1.
<mgrwt>
<rscale>  0 0.95550740E+02</rscale>
<asrwt>0</asrwt>
<pdfrwt beam="1">  1        3 0.26452182E-01 0.96539590E+02</pdfrwt>
<pdfrwt beam="2">  1       -3 0.21348632E-01 0.96539590E+02</pdfrwt>
<totfact> 0.59395747E+02</totfact>
</mgrwt>
</event>
<event>
 8    1  0.3177960E-004  0.1127022E+03  0.7546771E-02  0.1255744E+00
         -3   -1    0    0    0  501 -0.00000000000E+00  0.00000000000E+00  0.20306747261E+03  0.20306747261E+03  0.00000000000E+00 0.  1.
          3   -1    0    0  501    0  0.00000000000E+00 -0.00000000000E+00 -0.90163868579E+02  0.90163868579E+02  0.00000000000E+00 0. -1.
         23    2    1    2    0    0  0.61152313689E+02  0.30171914669E+02 -0.24903671814E+02  0.11520707185E+03  0.89456842278E+02 0.  0.
         23    2    1    2    0    0 -0.61152313689E+02 -0.30171914669E+02  0.13780727585E+03  0.17802426934E+03  0.89732075054E+02 0.  0.
          5    1    3    3  502    0  0.47466281024E+01  0.23293926217E+02 -0.47936213452E+02  0.53713201702E+02  0.47000000000E+01 0. -1.
         -5    1    3    3    0  502  0.56405685586E+02  0.68779884526E+01  0.23032541638E+02  0.61493870149E+02  0.47000000000E+01 0.  1.
          5    1    4    4  503    0 -0.33605152186E+02 -0.58752682660E+02  0.60097284631E+02  0.90636403245E+02  0.47000000000E+01 0.  1.
         -5    1    4    4    0  503 -0.27547161503E+02  0.28580767991E+02  0.77709991217E+02  0.87387866096E+02  0.47000000000E+01 0. -1.
<mgrwt>
<rscale>  0 0.11264745E+03</rscale>
<asrwt>0</asrwt>
<pdfrwt beam="1">  1        3 0.13871364E-01 0.11270224E+03</pdfrwt>
<pdfrwt beam="2">  1       -3 0.31241150E-01 0.11270224E+03</pdfrwt>
<totfact> 0.94555801E+02</totfact>
</mgrwt>
</event>
<event>
 8    1  0.3177960E-004  0.9541065E+02  0.7546771E-02  0.1292296E+00
         -2   -1    0    0    0  501 -0.00000000000E+00  0.00000000000E+00  0.61985055785E+02  0.61985055785E+02  0.00000000000E+00 0.  1.
          2   -1    0    0  501    0  0.00000000000E+00 -0.00000000000E+00 -0.14747309762E+03  0.14747309762E+03  0.00000000000E+00 0. -1.
         23    2    1    2    0    0  0.16112794962E+02  0.15853009078E+02 -0.63190197507E+02  0.11147658944E+03  0.89011734470E+02 0.  0.
         23    2    1    2    0    0 -0.16112794962E+02 -0.15853009078E+02 -0.22297844326E+02  0.97981563965E+02  0.92694406288E+02 0.  0.
          5    1    3    3  502    0  0.20921028181E+02 -0.34321446699E+02 -0.35171866329E+02  0.53617173599E+02  0.47000000000E+01 0. -1.
         -5    1    4    4    0  503 -0.47210717437E+02 -0.20664183222E+01  0.12485468825E+02  0.49102941433E+02  0.47000000000E+01 0.  1.
          5    1    4    4  503    0  0.31097922475E+02 -0.13786590756E+02 -0.34783313151E+02  0.48878622533E+02  0.47000000000E+01 0. -1.
         -5    1    3    3    0  502 -0.48082332185E+01  0.50174455777E+02 -0.28018331178E+02  0.57859415839E+02  0.47000000000E+01 0.  1.
<mgrwt>
<rscale>  0 0.94504403E+02</rscale>
<asrwt>0</asrwt>
<pdfrwt beam="1">  1        2 0.22688169E-01 0.95410655E+02</pdfrwt>
<pdfrwt beam="2">  1       -2 0.95361625E-02 0.95410655E+02</pdfrwt>
<totfact> 0.15502065E+04</totfact>
</mgrwt>
</event>
<event>
 8    1  0.3177960E-004  0.1284482E+03  0.7546771E-02  0.1234330E+00
         -2   -1    0    0    0  501 -0.00000000000E+00  0.00000000000E+00  0.12140595023E+04  0.12140595023E+04  0.00000000000E+00 0.  1.
          2   -1    0    0  501    0  0.00000000000E+00 -0.00000000000E+00 -0.16183381718E+02  0.16183381718E+02  0.00000000000E+00 0. -1.
         23    2    1    2    0    0  0.22365458086E+02 -0.59817547822E+02  0.87455765282E+03  0.88234381112E+03  0.97985510020E+02 0.  0.
         23    2    1    2    0    0 -0.22365458086E+02  0.59817547822E+02  0.32331846773E+03  0.34789907287E+03  0.11144765849E+03 0.  0.
          5    1    3    3  502    0  0.27108030101E+02  0.21268518987E+02  0.31229011613E+03  0.31422030780E+03  0.47000000000E+01 0. -1.
         -5    1    4    4    0  503  0.33802032495E+02 -0.94455164470E+01  0.57989910824E+02  0.67946412261E+02  0.47000000000E+01 0.  1.
          5    1    4    4  503    0 -0.56167490582E+02  0.69263064269E+02  0.26532855691E+03  0.27995266061E+03  0.47000000000E+01 0. -1.
         -5    1    3    3    0  502 -0.47425720150E+01 -0.81086066809E+02  0.56226753668E+03  0.56812350332E+03  0.47000000000E+01 0.  1.
<mgrwt>
<rscale>  0 0.12547430E+03</rscale>
<asrwt>0</asrwt>
<pdfrwt beam="1">  1        2 0.24897520E-02 0.12844817E+03</pdfrwt>
<pdfrwt beam="2">  1       -2 0.18677831E+00 0.12844817E+03</pdfrwt>
<totfact> 0.68928204E+02</totfact>
</mgrwt>
</event>
<event>
 8    1  0.3177960E-004  0.1007350E+03  0.7546771E-02  0.1283486E+00
          2   -1    0    0  501    0  0.00000000000E+00  0.00000000000E+00  0.49804958698E+02  0.49804958698E+02  0.00000000000E+00 0. -1.
         -2   -1    0    0    0  501 -0.00000000000E+00 -0.00000000000E+00 -0.31497292431E+03  0.31497292431E+03  0.00000000000E+00 0.  1.
         23    2    1    2    0    0 -0.45819750441E+02  0.32114756740E+01 -0.12698312068E+02  0.92953554276E+02  0.79808226498E+02 0.  0.
         23    2    1    2    0    0  0.45819750441E+02 -0.32114756740E+01 -0.25246965354E+03  0.27182432873E+03  0.89653648131E+02 0.  0.
          5    1    4    4  502    0  0.65863678557E+02 -0.22802850513E+02 -0.14969726467E+03  0.16519490063E+03  0.47000000000E+01 0. -1.
         -5    1    4    4    0  502 -0.20043928115E+02  0.19591374839E+02 -0.10277238887E+03  0.10662942810E+03  0.47000000000E+01 0.  1.
          5    1    3    3  503    0  0.43907874921E+01  0.28902690722E+02  0.11011369477E+02  0.31590897479E+02  0.47000000000E+01 0.  1.
         -5    1    3    3    0  503 -0.50210537933E+02 -0.25691215048E+02 -0.23709681545E+02  0.61362656797E+02  0.47000000000E+01 0. -1.
<mgrwt>
<rscale>  0 0.98498385E+02</rscale>
<asrwt>0</asrwt>
<pdfrwt beam="1">  1        2 0.76623012E-02 0.10073500E+03</pdfrwt>
<pdfrwt beam="2">  1       -2 0.48457374E-01 0.10073500E+03</pdfrwt>
<totfact> 0.34406255E+03</totfact>
</mgrwt>
</event>
<event>
 8    1  0.3177960E-004  0.1051116E+03  0.7546771E-02  0.1270494E+00
          1   -1    0    0  501    0  0.00000000000E+00  0.00000000000E+00  0.71828757866E+03  0.71828757866E+03  0.00000000000E+00 0. -1.
         -1   -1    0    0    0  501 -0.00000000000E+00 -0.00000000000E+00 -0.67934287898E+02  0.67934287898E+02  0.00000000000E+00 0.  1.
         23    2    1    2    0    0 -0.23239081970E+02 -0.45351889689E+02 -0.20734246337E+02  0.10713711303E+03  0.91932601336E+02 0.  0.
         23    2    1    2    0    0  0.23239081970E+02  0.45351889689E+02  0.67108753710E+03  0.67908475353E+03  0.90558109490E+02 0.  0.
          5    1    3    3  502    0  0.22040298526E+02 -0.53344981195E+01  0.22810255080E+02  0.32505835878E+02  0.47000000000E+01 0. -1.
         -5    1    4    4    0  503 -0.25613422618E+02  0.47730780044E+02  0.38224163539E+03  0.38608941012E+03  0.47000000000E+01 0.  1.
          5    1    4    4  503    0  0.48852504587E+02 -0.23788903550E+01  0.28884590171E+03  0.29299534341E+03  0.47000000000E+01 0. -1.
         -5    1    3    3    0  502 -0.45279380495E+02 -0.40017391569E+02 -0.43544501417E+02  0.74631277154E+02  0.47000000000E+01 0.  1.
<mgrwt>
<rscale>  0 0.10481032E+03</rscale>
<asrwt>0</asrwt>
<pdfrwt beam="1">  1        1 0.11050578E+00 0.10511162E+03</pdfrwt>
<pdfrwt beam="2">  1       -1 0.10451429E-01 0.10511162E+03</pdfrwt>
<totfact> 0.15249452E+03</totfact>
</mgrwt>
</event>
<event>
 8    1  0.3177960E-004  0.9456905E+02  0.7546771E-02  0.1292641E+00
          4   -1    0    0  501    0  0.00000000000E+00  0.00000000000E+00  0.31750310777E+03  0.31750310777E+03  0.00000000000E+00 0. -1.
         -4   -1    0    0    0  501 -0.00000000000E+00 -0.00000000000E+00 -0.41493715188E+02  0.41493715188E+02  0.00000000000E+00 0.  1.
         23    2    1    2    0    0 -0.15111310620E+02 -0.21636400438E+02  0.34882539148E+02  0.99988205750E+02  0.89913092590E+02 0.  0.
         23    2    1    2    0    0  0.15111310620E+02  0.21636400438E+02  0.24112685344E+03  0.25900861721E+03  0.90811997050E+02 0.  0.
          5    1    3    3  502    0  0.15357907385E+02  0.24287367996E+02  0.33871451341E+02  0.44666618177E+02  0.47000000000E+01 0. -1.
         -5    1    4    4    0  503 -0.37648154379E+02  0.16296674934E+02  0.10907193269E+03  0.11662650489E+03  0.47000000000E+01 0.  1.
          5    1    4    4  503    0  0.52759464999E+02  0.53397255041E+01  0.13205492074E+03  0.14238211232E+03  0.47000000000E+01 0. -1.
         -5    1    3    3    0  502 -0.30469218005E+02 -0.45923768434E+02  0.10110878064E+01  0.55321587573E+02  0.47000000000E+01 0.  1.
<mgrwt>
<rscale>  0 0.94352589E+02</rscale>
<asrwt>0</asrwt>
<pdfrwt beam="1">  1        4 0.48846630E-01 0.94569045E+02</pdfrwt>
<pdfrwt beam="2">  1       -4 0.63836487E-02 0.94569045E+02</pdfrwt>
<totfact> 0.99303981E+02</totfact>
</mgrwt>
</event>
<event>
 8    1  0.3177960E-004  0.1292173E+03  0.7546771E-02  0.1231476E+00
          1   -1    0    0  501    0  0.00000000000E+00  0.00000000000E+00  0.25504754268E+03  0.25504754268E+03  0.00000000000E+00 0. -1.
         -1   -1    0    0    0  501 -0.00000000000E+00 -0.00000000000E+00 -0.64243009255E+02  0.64243009255E+02  0.00000000000E+00 0.  1.
         23    2    1    2    0    0  0.52495548208E+02 -0.58734239258E+02  0.12398414847E+03  0.17381865259E+03  0.92926645654E+02 0.  0.
         23    2    1    2    0    0 -0.52495548208E+02  0.58734239258E+02  0.66820384950E+02  0.14547189934E+03  0.10242859079E+03 0.  0.
          5    1    3    3  502    0  0.17958949583E+02 -0.66890410722E+02  0.34663234514E+02  0.77591756931E+02  0.47000000000E+01 0. -1.
         -5    1    4    4    0  503 -0.78749906048E+02  0.45471654918E+02  0.70903292469E+02  0.11540617829E+03  0.47000000000E+01 0.  1.
          5    1    4    4  503    0  0.26254357839E+02  0.13262584340E+02 -0.40829075194E+01  0.30065721058E+02  0.47000000000E+01 0. -1.
         -5    1    3    3    0  502  0.34536598625E+02  0.81561714648E+01  0.89320913957E+02  0.96226895657E+02  0.47000000000E+01 0.  1.
<mgrwt>
<rscale>  0 0.12732769E+03</rscale>
<asrwt>0</asrwt>
<pdfrwt beam="1">  1        1 0.39238083E-01 0.12921730E+03</pdfrwt>
<pdfrwt beam="2">  1       -1 0.98835400E-02 0.12921730E+03</pdfrwt>
<totfact> 0.63486481E+03</totfact>
</mgrwt>
</event>
<event>
 8    1  0.3177960E-004  0.1068102E+03  0.7546771E-02  0.1267380E+00
          2   -1    0    0  501    0  0.00000000000E+00  0.00000000000E+00  0.48706485327E+03  0.48706485327E+03  0.00000000000E+00 0. -1.
         -2   -1    0    0    0  501 -0.00000000000E+00 -0.00000000000E+00 -0.23608503809E+02  0.23608503809E+02  0.00000000000E+00 0.  1.
         23    2    1    2    0    0 -0.56190166426E+02  0.13955040316E+02  0.27205661198E+03  0.29227251215E+03  0.89757135015E+02 0.  0.
         23    2    1    2    0    0  0.56190166426E+02 -0.13955040316E+02  0.19139973749E+03  0.21840084493E+03  0.87823639204E+02 0.  0.
          5    1    4    4  502    0 -0.17759006098E+02  0.11876218470E+02  0.18970175326E+02  0.28954868582E+02  0.47000000000E+01 0. -1.
         -5    1    3    3    0  503 -0.12670081068E+01 -0.33634628409E+02  0.86115969718E+02  0.92579391758E+02  0.47000000000E+01 0.  1.
          5    1    3    3  503    0 -0.54923158319E+02  0.47589668725E+02  0.18594064226E+03  0.19969312040E+03  0.47000000000E+01 0. -1.
         -5    1    4    4    0  502  0.73949172524E+02 -0.25831258786E+02  0.17242956216E+03  0.18944597635E+03  0.47000000000E+01 0.  1.
<mgrwt>
<rscale>  0 0.10640299E+03</rscale>
<asrwt>0</asrwt>
<pdfrwt beam="1">  1        2 0.74933047E-01 0.10681021E+03</pdfrwt>
<pdfrwt beam="2">  1       -2 0.36320779E-02 0.10681021E+03</pdfrwt>
<totfact> 0.18779753E+04</totfact>
</mgrwt>
</event>
<event>
 8    1  0.3177960E-004  0.1055365E+03  0.7546771E-02  0.1269560E+00
          1   -1    0    0  501    0  0.00000000000E+00  0.00000000000E+00  0.23558701818E+03  0.23558701818E+03  0.00000000000E+00 0. -1.
         -1   -1    0    0    0  501 -0.00000000000E+00 -0.00000000000E+00 -0.12131110723E+03  0.12131110723E+03  0.00000000000E+00 0.  1.
         23    2    1    2    0    0  0.49021277604E+02  0.20300429795E+02 -0.82582794309E+02  0.13400700557E+03  0.91229197734E+02 0.  0.
         23    2    1    2    0    0 -0.49021277604E+02 -0.20300429795E+02  0.19685870525E+03  0.22289111983E+03  0.90066133251E+02 0.  0.
          5    1    4    4  502    0 -0.53496739216E+02 -0.50359797561E+02  0.14434597329E+03  0.16203660180E+03  0.47000000000E+01 0. -1.
         -5    1    3    3    0  503  0.66354121145E+02 -0.29472444914E+01 -0.80624311293E+02  0.10456541118E+03  0.47000000000E+01 0.  1.
          5    1    3    3  503    0 -0.17332843541E+02  0.23247674286E+02 -0.19584830159E+01  0.29441594397E+02  0.47000000000E+01 0. -1.
         -5    1    4    4    0  502  0.44754616118E+01  0.30059367766E+02  0.52512731960E+02  0.60854518033E+02  0.47000000000E+01 0.  1.
<mgrwt>
<rscale>  0 0.10528469E+03</rscale>
<asrwt>0</asrwt>
<pdfrwt beam="1">  1        1 0.36244156E-01 0.10553653E+03</pdfrwt>
<pdfrwt beam="2">  1       -1 0.18663247E-01 0.10553653E+03</pdfrwt>
<totfact> 0.25816032E+03</totfact>
</mgrwt>
</event>
<event>
 8    1  0.3177960E-004  0.1084077E+03  0.7546771E-02  0.1263670E+00
          1   -1    0    0  501    0  0.00000000000E+00  0.00000000000E+00  0.28652487879E+03  0.28652487879E+03  0.00000000000E+00 0. -1.
         -1   -1    0    0    0  501 -0.00000000000E+00 -0.00000000000E+00 -0.41129511664E+02  0.41129511664E+02  0.00000000000E+00 0.  1.
         23    2    1    2    0    0 -0.32725785154E+02 -0.45428082390E+02  0.11082292456E+03  0.15484824144E+03  0.92528750046E+02 0.  0.
         23    2    1    2    0    0  0.32725785154E+02  0.45428082390E+02  0.13457244256E+03  0.17280614901E+03  0.92830680032E+02 0.  0.
          5    1    4    4  502    0 -0.31894254986E+02  0.12107457918E+02  0.55236444031E+02  0.65092156114E+02  0.47000000000E+01 0. -1.
         -5    1    3    3    0  503  0.46064304920E+01  0.24984725575E+02  0.14104370754E+02  0.29436015157E+02  0.47000000000E+01 0.  1.
          5    1    3    3  503    0 -0.37332215646E+02 -0.70412807966E+02  0.96718553805E+02  0.12541222628E+03  0.47000000000E+01 0. -1.
         -5    1    4    4    0  502  0.64620040140E+02  0.33320624472E+02  0.79335998533E+02  0.10771399290E+03  0.47000000000E+01 0.  1.
<mgrwt>
<rscale>  0 0.10834300E+03</rscale>
<asrwt>0</asrwt>
<pdfrwt beam="1">  1        1 0.44080749E-01 0.10840767E+03</pdfrwt>
<pdfrwt beam="2">  1       -1 0.63276174E-02 0.10840767E+03</pdfrwt>
<totfact> 0.10613496E+04</totfact>
</mgrwt>
</event>
<event>
 7    1  0.3177960E-004  0.1842102E+03  0.7546771E-02  0.1180444E+00
         -2   -1    0    0    0  501 -0.00000000000E+00  0.00000000000E+00  0.18843504968E+03  0.18843504968E+03  0.00000000000E+00 0.  1.
          2   -1    0    0  501    0  0.00000000000E+00 -0.00000000000E+00 -0.25953760011E+03  0.25953760011E+03  0.00000000000E+00 0. -1.
         23    2    1    2    0    0  0.76560055988E+02  0.44733418122E+02  0.12598506957E+03  0.17820067774E+03  0.89558488829E+02 0.  0.
          5    1    1    2  502    0 -0.13936263756E+02 -0.96107161906E+02 -0.14046614516E+03  0.17083218067E+03  0.47000000000E+01 0. -1.
         -5    1    3    3    0  503 -0.19978467507E+01  0.22346843528E+02  0.82331876273E+02  0.85463446326E+02  0.47000000000E+01 0.  1.
          5    1    3    3  503    0  0.78557902739E+02  0.22386574594E+02  0.43653193301E+02  0.92737231414E+02  0.47000000000E+01 0. -1.
         -5    1    1    2    0  502 -0.62623792232E+02  0.51373743784E+02 -0.56621474847E+02  0.98939791377E+02  0.47000000000E+01 0.  1.
<mgrwt>
<rscale>  0 0.16753386E+03</rscale>
<asrwt>0</asrwt>
<pdfrwt beam="1">  1        2 0.39928862E-01 0.18421017E+03</pdfrwt>
<pdfrwt beam="2">  1       -2 0.28990007E-01 0.18421017E+03</pdfrwt>
<totfact> 0.13813042E+03</totfact>
</mgrwt>
</event>
<event>
 8    1  0.3177960E-004  0.9530786E+02  0.7546771E-02  0.1290498E+00
          3   -1    0    0  501    0  0.00000000000E+00  0.00000000000E+00  0.87219776123E+02  0.87219776123E+02  0.00000000000E+00 0. -1.
         -3   -1    0    0    0  501 -0.00000000000E+00 -0.00000000000E+00 -0.10456182204E+03  0.10456182204E+03  0.00000000000E+00 0.  1.
         23    2    1    2    0    0 -0.55755204005E+01 -0.21393670645E+02 -0.24362505130E+01  0.95338996430E+02  0.92708216207E+02 0.  0.
         23    2    1    2    0    0  0.55755204005E+01  0.21393670645E+02 -0.14905795408E+02  0.96442601736E+02  0.92683424201E+02 0.  0.
          5    1    3    3  502    0  0.10857731843E+02 -0.37118029477E+02 -0.36979444572E+02  0.53714130114E+02  0.47000000000E+01 0. -1.
         -5    1    4    4    0  503  0.11397084552E+02  0.45473682766E+02 -0.39303157421E+02  0.61356153268E+02  0.47000000000E+01 0.  1.
          5    1    4    4  503    0 -0.58215641512E+01 -0.24080012121E+02  0.24397362013E+02  0.35086448468E+02  0.47000000000E+01 0. -1.
         -5    1    3    3    0  502 -0.16433252244E+02  0.15724358832E+02  0.34543194059E+02  0.41624866316E+02  0.47000000000E+01 0.  1.
<mgrwt>
<rscale>  0 0.95301834E+02</rscale>
<asrwt>0</asrwt>
<pdfrwt beam="1">  1        3 0.13418427E-01 0.95307864E+02</pdfrwt>
<pdfrwt beam="2">  1       -3 0.16086434E-01 0.95307864E+02</pdfrwt>
<totfact> 0.31464745E+03</totfact>
</mgrwt>
</event>
<event>
 8    1  0.3177960E-004  0.1091601E+03  0.7546771E-02  0.1262314E+00
          1   -1    0    0  501    0  0.00000000000E+00  0.00000000000E+00  0.62132529914E+02  0.62132529914E+02  0.00000000000E+00 0. -1.
         -1   -1    0    0    0  501 -0.00000000000E+00 -0.00000000000E+00 -0.36538690760E+03  0.36538690760E+03  0.00000000000E+00 0.  1.
         23    2    1    2    0    0 -0.54347338052E+02  0.66558905767E+01 -0.29939759865E+03  0.31867672853E+03  0.94435169269E+02 0.  0.
         23    2    1    2    0    0  0.54347338052E+02 -0.66558905767E+01 -0.38567790308E+01  0.10884270898E+03  0.93988970210E+02 0.  0.
          5    1    3    3  502    0  0.24225434286E+02  0.37021021606E+00 -0.35627824585E+02  0.43340980683E+02  0.47000000000E+01 0. -1.
         -5    1    3    3    0  502 -0.78572772338E+02  0.62856803606E+01 -0.26376977407E+03  0.27533574785E+03  0.47000000000E+01 0.  1.
          5    1    4    4  503    0  0.61149077969E+02  0.20569540100E+02  0.24026437330E+02  0.69004894081E+02  0.47000000000E+01 0. -1.
         -5    1    4    4    0  503 -0.68017399164E+01 -0.27225430677E+02 -0.27883216361E+02  0.39837814901E+02  0.47000000000E+01 0.  1.
<mgrwt>
<rscale>  0 0.10906356E+03</rscale>
<asrwt>0</asrwt>
<pdfrwt beam="1">  1        1 0.95588505E-02 0.10916014E+03</pdfrwt>
<pdfrwt beam="2">  1       -1 0.56213372E-01 0.10916014E+03</pdfrwt>
<totfact> 0.21585549E+03</totfact>
</mgrwt>
</event>
<event>
 8    1  0.3177960E-004  0.1141907E+03  0.7546771E-02  0.1253093E+00
         -2   -1    0    0    0  501 -0.00000000000E+00  0.00000000000E+00  0.17403844327E+02  0.17403844327E+02  0.00000000000E+00 0.  1.
          2   -1    0    0  501    0  0.00000000000E+00 -0.00000000000E+00 -0.88425416272E+03  0.88425416272E+03  0.00000000000E+00 0. -1.
         23    2    1    2    0    0 -0.13537895593E+02  0.66025794837E+02 -0.61014990181E+03  0.62070493879E+03  0.91918649674E+02 0.  0.
         23    2    1    2    0    0  0.13537895593E+02 -0.66025794837E+02 -0.25670041659E+03  0.28095306826E+03  0.92178318971E+02 0.  0.
          5    1    4    4  502    0 -0.11793656623E+02 -0.82320549967E+02 -0.19807168805E+03  0.21487262946E+03  0.47000000000E+01 0. -1.
         -5    1    4    4    0  502  0.25331552216E+02  0.16294755130E+02 -0.58628728533E+02  0.66080438798E+02  0.47000000000E+01 0.  1.
          5    1    3    3  503    0 -0.31683216314E+02  0.82760437698E+02 -0.48655709656E+03  0.49458367791E+03  0.47000000000E+01 0. -1.
         -5    1    3    3    0  503  0.18145320721E+02 -0.16734642861E+02 -0.12359280525E+03  0.12612126088E+03  0.47000000000E+01 0.  1.
<mgrwt>
<rscale>  0 0.11413832E+03</rscale>
<asrwt>0</asrwt>
<pdfrwt beam="1">  1        2 0.13603908E+00 0.11419073E+03</pdfrwt>
<pdfrwt beam="2">  1       -2 0.26775149E-02 0.11419073E+03</pdfrwt>
<totfact> 0.14734630E+04</totfact>
</mgrwt>
</event>
<event>
 8    1  0.3177960E-004  0.9804266E+02  0.7546771E-02  0.1285407E+00
          1   -1    0    0  501    0  0.00000000000E+00  0.00000000000E+00  0.12059475560E+04  0.12059475560E+04  0.00000000000E+00 0. -1.
         -1   -1    0    0    0  501 -0.00000000000E+00 -0.00000000000E+00 -0.78891560509E+01  0.78891560509E+01  0.00000000000E+00 0.  1.
         23    2    1    2    0    0  0.24751564403E+02 -0.24366734859E+02  0.55227011724E+03  0.56090520143E+03  0.91684158308E+02 0.  0.
         23    2    1    2    0    0 -0.24751564403E+02  0.24366734859E+02  0.64578828269E+03  0.65293151060E+03  0.89836928774E+02 0.  0.
          5    1    4    4  502    0 -0.36197863624E+02  0.48514579365E+02  0.55104231160E+03  0.55437682935E+03  0.47000000000E+01 0.  1.
         -5    1    3    3    0  503 -0.11284083519E+02  0.19386281670E+02  0.45427871287E+02  0.50881626817E+02  0.47000000000E+01 0.  1.
          5    1    3    3  503    0  0.36035647922E+02 -0.43753016529E+02  0.50684224596E+03  0.51002357462E+03  0.47000000000E+01 0. -1.
         -5    1    4    4    0  502  0.11446299220E+02 -0.24147844505E+02  0.94745971087E+02  0.98554681255E+02  0.47000000000E+01 0. -1.
<mgrwt>
<rscale>  0 0.97608480E+02</rscale>
<asrwt>0</asrwt>
<pdfrwt beam="1">  1        1 0.18553025E+00 0.98042657E+02</pdfrwt>
<pdfrwt beam="2">  1       -1 0.12137173E-02 0.98042657E+02</pdfrwt>
<totfact> 0.15150493E+04</totfact>
</mgrwt>
</event>
<event>
 8    1  0.3177960E-004  0.1003358E+03  0.7546771E-02  0.1280745E+00
          1   -1    0    0  501    0  0.00000000000E+00  0.00000000000E+00  0.59154836494E+03  0.59154836494E+03  0.00000000000E+00 0. -1.
         -1   -1    0    0    0  501 -0.00000000000E+00 -0.00000000000E+00 -0.18956279492E+02  0.18956279492E+02  0.00000000000E+00 0.  1.
         23    2    1    2    0    0 -0.12377030070E+02  0.37542257923E+02  0.18261446713E+03  0.20836341543E+03  0.92220698756E+02 0.  0.
         23    2    1    2    0    0  0.12377030070E+02 -0.37542257923E+02  0.38997761831E+03  0.40214122900E+03  0.89846609700E+02 0.  0.
          5    1    3    3  502    0 -0.49963399461E+02  0.36552854282E+02  0.12178766426E+03  0.13669958891E+03  0.47000000000E+01 0. -1.
         -5    1    4    4    0  503  0.50149905381E+02 -0.10778670586E+02  0.21465849068E+03  0.22075223752E+03  0.47000000000E+01 0.  1.
          5    1    4    4  503    0 -0.37772875312E+02 -0.26763587337E+02  0.17531912763E+03  0.18138899148E+03  0.47000000000E+01 0. -1.
         -5    1    3    3    0  502  0.37586369391E+02  0.98940364025E+00  0.60826802874E+02  0.71663826520E+02  0.47000000000E+01 0.  1.
<mgrwt>
<rscale>  0 0.99786890E+02</rscale>
<asrwt>0</asrwt>
<pdfrwt beam="1">  1        1 0.91007427E-01 0.10033578E+03</pdfrwt>
<pdfrwt beam="2">  1       -1 0.29163511E-02 0.10033578E+03</pdfrwt>
<totfact> 0.13092473E+04</totfact>
</mgrwt>
</event>
<event>
 8    1  0.3177960E-004  0.2173541E+03  0.7546771E-02  0.1136033E+00
          1   -1    0    0  501    0  0.00000000000E+00  0.00000000000E+00  0.59510769190E+02  0.59510769190E+02  0.00000000000E+00 0. -1.
         -1   -1    0    0    0  501 -0.00000000000E+00 -0.00000000000E+00 -0.95787212077E+03  0.95787212077E+03  0.00000000000E+00 0.  1.
         23    2    1    2    0    0  0.12446654481E+03  0.15195265600E+03 -0.23742465930E+03  0.32189014885E+03  0.93065937051E+02 0.  0.
         23    2    1    2    0    0 -0.12446654481E+03 -0.15195265600E+03 -0.66093669228E+03  0.69549274111E+03  0.91056637852E+02 0.  0.
          5    1    4    4  502    0 -0.45816464979E+02 -0.26739566443E+02 -0.80667428568E+02  0.96661662041E+02  0.47000000000E+01 0. -1.
         -5    1    4    4    0  502 -0.78650079826E+02 -0.12521308956E+03 -0.58026926371E+03  0.59883107907E+03  0.47000000000E+01 0.  1.
          5    1    3    3  503    0  0.83293559743E+02  0.14994689824E+03 -0.21381218652E+03  0.27415256791E+03  0.47000000000E+01 0. -1.
         -5    1    3    3    0  503  0.41172985063E+02  0.20057577633E+01 -0.23612472783E+02  0.47737580941E+02  0.47000000000E+01 0.  1.
<mgrwt>
<rscale>  0 0.21714059E+03</rscale>
<asrwt>0</asrwt>
<pdfrwt beam="1">  1        1 0.91555035E-02 0.21735409E+03</pdfrwt>
<pdfrwt beam="2">  1       -1 0.14736493E+00 0.21735409E+03</pdfrwt>
<totfact> 0.28742189E+02</totfact>
</mgrwt>
</event>
<event>
 8    1  0.9246389E-004  0.1114282E+03  0.7546771E-02  0.1259186E+00
         -1   -1    0    0    0  501 -0.00000000000E+00  0.00000000000E+00  0.20719565605E+03  0.20719565605E+03  0.00000000000E+00 0.  1.
          1   -1    0    0  501    0  0.00000000000E+00 -0.00000000000E+00 -0.34097747181E+03  0.34097747181E+03  0.00000000000E+00 0. -1.
         23    2    1    2    0    0 -0.27482218182E+02  0.54671759028E+02 -0.31622145793E+03  0.33439643160E+03  0.89892655187E+02 0.  0.
         23    2    1    2    0    0  0.27482218182E+02 -0.54671759028E+02  0.18243964218E+03  0.21377669626E+03  0.93123462535E+02 0.  0.
          5    1    3    3  502    0 -0.58646466456E+02  0.20909402426E+02 -0.18936824343E+03  0.19939667188E+03  0.47000000000E+01 0. -1.
         -5    1    3    3    0  502  0.31164248274E+02  0.33762356602E+02 -0.12685321451E+03  0.13499975972E+03  0.47000000000E+01 0.  1.
          5    1    4    4  503    0 -0.32501075301E+02 -0.51433685368E+01  0.48055126728E+02  0.58430808145E+02  0.47000000000E+01 0. -1.
         -5    1    4    4    0  503  0.59983293483E+02 -0.49528390491E+02  0.13438451545E+03  0.15534588811E+03  0.47000000000E+01 0.  1.
<mgrwt>
<rscale>  0 0.11075069E+03</rscale>
<asrwt>0</asrwt>
<pdfrwt beam="1">  1        1 0.52458073E-01 0.11142824E+03</pdfrwt>
<pdfrwt beam="2">  1       -1 0.31876255E-01 0.11142824E+03</pdfrwt>
<totfact> 0.68565638E+02</totfact>
</mgrwt>
</event>
<event>
 8    1  0.3177960E-004  0.1056228E+03  0.7546771E-02  0.1269292E+00
          4   -1    0    0  501    0  0.00000000000E+00  0.00000000000E+00  0.35137027889E+02  0.35137027889E+02  0.00000000000E+00 0.  1.
         -4   -1    0    0    0  501 -0.00000000000E+00 -0.00000000000E+00 -0.72495409986E+03  0.72495409986E+03  0.00000000000E+00 0. -1.
         23    2    1    2    0    0 -0.42540384151E+02  0.25400418606E+02 -0.63009347201E+03  0.63875243370E+03  0.92368947939E+02 0.  0.
         23    2    1    2    0    0  0.42540384151E+02 -0.25400418606E+02 -0.59723599967E+02  0.12133869405E+03  0.93280784367E+02 0.  0.
          5    1    3    3  502    0 -0.68977170287E+02  0.21279014175E+02 -0.53453907586E+03  0.53941149421E+03  0.47000000000E+01 0. -1.
         -5    1    3    3    0  502  0.26436786136E+02  0.41214044314E+01 -0.95554396143E+02  0.99340939486E+02  0.47000000000E+01 0.  1.
          5    1    4    4  503    0  0.16273845778E+02 -0.18817642706E+02 -0.82088958590E+02  0.85904766200E+02  0.47000000000E+01 0. -1.
         -5    1    4    4    0  503  0.26266538373E+02 -0.65827759008E+01  0.22365358623E+02  0.35433927852E+02  0.47000000000E+01 0.  1.
<mgrwt>
<rscale>  0 0.10542109E+03</rscale>
<asrwt>0</asrwt>
<pdfrwt beam="1">  1        4 0.54056967E-02 0.10562277E+03</pdfrwt>
<pdfrwt beam="2">  1       -4 0.11153140E+00 0.10562277E+03</pdfrwt>
<totfact> 0.22193643E+02</totfact>
</mgrwt>
</event>
<event>
 8    1  0.3177960E-004  0.9277315E+02  0.7546771E-02  0.1296390E+00
          2   -1    0    0  501    0  0.00000000000E+00  0.00000000000E+00  0.90443650527E+02  0.90443650527E+02  0.00000000000E+00 0. -1.
         -2   -1    0    0    0  501 -0.00000000000E+00 -0.00000000000E+00 -0.26426847509E+03  0.26426847509E+03  0.00000000000E+00 0.  1.
         23    2    1    2    0    0 -0.15683406778E+02  0.97933342913E+01 -0.22890757434E+03  0.24699298577E+03  0.90911928728E+02 0.  0.
         23    2    1    2    0    0  0.15683406778E+02 -0.97933342913E+01  0.55082749775E+02  0.10771913985E+03  0.90705154881E+02 0.  0.
          5    1    4    4  502    0  0.36666885519E+02 -0.38284348785E+01  0.71115765303E+02  0.80241257978E+02  0.47000000000E+01 0. -1.
         -5    1    4    4    0  502 -0.20983478741E+02 -0.59648994128E+01 -0.16033015528E+02  0.27477881869E+02  0.47000000000E+01 0.  1.
          5    1    3    3  503    0 -0.86044531745E+01 -0.36116601476E+02 -0.52250598669E+02  0.64270215324E+02  0.47000000000E+01 0. -1.
         -5    1    3    3    0  503 -0.70789536036E+01  0.45909935767E+02 -0.17665697567E+03  0.18272277045E+03  0.47000000000E+01 0.  1.
<mgrwt>
<rscale>  0 0.92722455E+02</rscale>
<asrwt>0</asrwt>
<pdfrwt beam="1">  1        2 0.13914408E-01 0.92773150E+02</pdfrwt>
<pdfrwt beam="2">  1       -2 0.40656688E-01 0.92773150E+02</pdfrwt>
<totfact> 0.23284717E+03</totfact>
</mgrwt>
</event>
<event>
 8    1  0.3177960E-004  0.9951692E+02  0.7546771E-02  0.1284521E+00
          4   -1    0    0  501    0  0.00000000000E+00  0.00000000000E+00  0.80757665878E+02  0.80757665878E+02  0.00000000000E+00 0. -1.
         -4   -1    0    0    0  501 -0.00000000000E+00 -0.00000000000E+00 -0.13295231297E+03  0.13295231297E+03  0.00000000000E+00 0.  1.
         23    2    1    2    0    0  0.35269738546E+02 -0.12379821334E+02  0.11897456086E+02  0.10022557918E+03  0.92230162243E+02 0.  0.
         23    2    1    2    0    0 -0.35269738546E+02  0.12379821334E+02 -0.64092103179E+02  0.11348439967E+03  0.85870232588E+02 0.  0.
          5    1    4    4  502    0  0.12383870282E+02 -0.26709682653E+02 -0.10302000974E+02  0.31543440121E+02  0.47000000000E+01 0. -1.
         -5    1    4    4    0  502 -0.47653608828E+02  0.39089503987E+02 -0.53790102205E+02  0.81940959547E+02  0.47000000000E+01 0.  1.
          5    1    3    3  503    0  0.39257987771E+02  0.34289634405E+02  0.85734149853E+01  0.53033593843E+02  0.47000000000E+01 0. -1.
         -5    1    3    3    0  503 -0.39882492248E+01 -0.46669455739E+02  0.33240411009E+01  0.47191985337E+02  0.47000000000E+01 0.  1.
<mgrwt>
<rscale>  0 0.98017424E+02</rscale>
<asrwt>0</asrwt>
<pdfrwt beam="1">  1        4 0.12424256E-01 0.99516919E+02</pdfrwt>
<pdfrwt beam="2">  1       -4 0.20454202E-01 0.99516919E+02</pdfrwt>
<totfact> 0.17318026E+03</totfact>
</mgrwt>
</event>
<event>
 8    1  0.3177960E-004  0.1041275E+03  0.7546771E-02  0.1272156E+00
          2   -1    0    0  501    0  0.00000000000E+00  0.00000000000E+00  0.43784784935E+03  0.43784784935E+03  0.00000000000E+00 0. -1.
         -2   -1    0    0    0  501 -0.00000000000E+00 -0.00000000000E+00 -0.25358277065E+02  0.25358277065E+02  0.00000000000E+00 0.  1.
         23    2    1    2    0    0 -0.44789203363E+02 -0.19329229680E+02  0.16723634972E+03  0.19700390233E+03  0.91993744394E+02 0.  0.
         23    2    1    2    0    0  0.44789203363E+02  0.19329229680E+02  0.24525322257E+03  0.26620222409E+03  0.91295065973E+02 0.  0.
          5    1    3    3  502    0 -0.83569297346E+01  0.33904448278E+02  0.87542520364E+02  0.94367010970E+02  0.47000000000E+01 0. -1.
         -5    1    4    4    0  503  0.15885532411E+02 -0.32452308439E+02  0.14607987020E+03  0.15055537500E+03  0.47000000000E+01 0.  1.
          5    1    4    4  503    0  0.28903670953E+02  0.51781538119E+02  0.99173352371E+02  0.11564684909E+03  0.47000000000E+01 0. -1.
         -5    1    3    3    0  502 -0.36432273629E+02 -0.53233677958E+02  0.79693829353E+02  0.10263689136E+03  0.47000000000E+01 0.  1.
<mgrwt>
<rscale>  0 0.10397299E+03</rscale>
<asrwt>0</asrwt>
<pdfrwt beam="1">  1        2 0.67361202E-01 0.10412752E+03</pdfrwt>
<pdfrwt beam="2">  1       -2 0.39012737E-02 0.10412752E+03</pdfrwt>
<totfact> 0.18908616E+04</totfact>
</mgrwt>
</event>
<event>
 8    1  0.3177960E-004  0.1781604E+03  0.7546771E-02  0.1170053E+00
          2   -1    0    0  501    0  0.00000000000E+00  0.00000000000E+00  0.13412072915E+04  0.13412072915E+04  0.00000000000E+00 0. -1.
         -2   -1    0    0    0  501 -0.00000000000E+00 -0.00000000000E+00 -0.23887765368E+02  0.23887765368E+02  0.00000000000E+00 0.  1.
         23    2    1    2    0    0  0.94139985647E+02  0.11996741502E+03  0.55980735481E+03  0.58691395672E+03  0.88482769705E+02 0.  0.
         23    2    1    2    0    0 -0.94139985647E+02 -0.11996741502E+03  0.75751217128E+03  0.77818110010E+03  0.92122838393E+02 0.  0.
          5    1    3    3  502    0  0.85023064777E+02  0.96226857494E+02  0.53785793818E+03  0.55299347312E+03  0.47000000000E+01 0. -1.
         -5    1    4    4    0  503  0.19169676900E+01 -0.56002226175E+02  0.35496632454E+03  0.35939269005E+03  0.47000000000E+01 0.  1.
          5    1    4    4  503    0 -0.96056953337E+02 -0.63965188845E+02  0.40254584674E+03  0.41878841005E+03  0.47000000000E+01 0. -1.
         -5    1    3    3    0  502  0.91169208695E+01  0.23740557526E+02  0.21949416631E+02  0.33920483608E+02  0.47000000000E+01 0.  1.
<mgrwt>
<rscale>  0 0.17769493E+03</rscale>
<asrwt>0</asrwt>
<pdfrwt beam="1">  1        2 0.20633952E+00 0.17816042E+03</pdfrwt>
<pdfrwt beam="2">  1       -2 0.36750419E-02 0.17816042E+03</pdfrwt>
<totfact> 0.51484316E+03</totfact>
</mgrwt>
</event>
<event>
 8    1  0.3177960E-004  0.1373711E+03  0.7546771E-02  0.1217165E+00
         -1   -1    0    0    0  501 -0.00000000000E+00  0.00000000000E+00  0.97970411534E+02  0.97970411534E+02  0.00000000000E+00 0.  1.
          1   -1    0    0  501    0  0.00000000000E+00 -0.00000000000E+00 -0.22988713579E+03  0.22988713579E+03  0.00000000000E+00 0. -1.
         23    2    1    2    0    0  0.38603225147E+02  0.95173138081E+02 -0.13301670067E+03  0.19121781266E+03  0.91228690756E+02 0.  0.
         23    2    1    2    0    0 -0.38603225147E+02 -0.95173138081E+02  0.10999764168E+01  0.13663973466E+03  0.90116990277E+02 0.  0.
          5    1    4    4  502    0 -0.15989894703E+02 -0.29679054604E+02 -0.42644570161E+02  0.54563471105E+02  0.47000000000E+01 0. -1.
         -5    1    4    4    0  502 -0.22613330444E+02 -0.65494083477E+02  0.43744546578E+02  0.82076263557E+02  0.47000000000E+01 0.  1.
          5    1    3    3  503    0  0.94026034744E+01  0.80522755624E+02 -0.13565825607E+03  0.15810621609E+03  0.47000000000E+01 0. -1.
         -5    1    3    3    0  503  0.29200621673E+02  0.14650382457E+02  0.26415554068E+01  0.33111596567E+02  0.47000000000E+01 0.  1.
<mgrwt>
<rscale>  0 0.13718675E+03</rscale>
<asrwt>0</asrwt>
<pdfrwt beam="1">  1        1 0.35367251E-01 0.13737106E+03</pdfrwt>
<pdfrwt beam="2">  1       -1 0.15072371E-01 0.13737106E+03</pdfrwt>
<totfact> 0.37754618E+03</totfact>
</mgrwt>
</event>
<event>
 8    1  0.3348035E-004  0.9631909E+02  0.7546771E-02  0.1290576E+00
          4   -1    0    0  501    0  0.00000000000E+00  0.00000000000E+00  0.24638417005E+03  0.24638417005E+03  0.00000000000E+00 0. -1.
         -4   -1    0    0    0  501 -0.00000000000E+00 -0.00000000000E+00 -0.19983937493E+03  0.19983937493E+03  0.00000000000E+00 0.  1.
         23    2    1    2    0    0 -0.13709758118E+02 -0.10798888903E+02  0.22515704943E+03  0.24329571490E+03  0.90512620721E+02 0.  0.
         23    2    1    2    0    0  0.13709758118E+02  0.10798888903E+02 -0.17861225430E+03  0.20292783008E+03  0.94724829718E+02 0.  0.
          5    1    3    3  502    0 -0.38466789018E+02 -0.20190210401E+02  0.51373756596E+02  0.67443986538E+02  0.47000000000E+01 0. -1.
         -5    1    4    4    0  503 -0.40353778027E+02  0.40161688836E+01 -0.89510762281E+02  0.98381012282E+02  0.47000000000E+01 0. -1.
          5    1    4    4  503    0  0.54063536145E+02  0.67827200197E+01 -0.89101492023E+02  0.10454681780E+03  0.47000000000E+01 0.  1.
         -5    1    3    3    0  502  0.24757030900E+02  0.93913214974E+01  0.17378329283E+03  0.17585172836E+03  0.47000000000E+01 0.  1.
<mgrwt>
<rscale>  0 0.95267148E+02</rscale>
<asrwt>0</asrwt>
<pdfrwt beam="1">  1        4 0.37905257E-01 0.96319089E+02</pdfrwt>
<pdfrwt beam="2">  1       -4 0.30744519E-01 0.96319089E+02</pdfrwt>
<totfact> 0.10825950E+02</totfact>
</mgrwt>
</event>
<event>
 8    1  0.3177960E-004  0.1574789E+03  0.7546771E-02  0.1191788E+00
         -1   -1    0    0    0  501 -0.00000000000E+00  0.00000000000E+00  0.11058345699E+02  0.11058345699E+02  0.00000000000E+00 0.  1.
          1   -1    0    0  501    0  0.00000000000E+00 -0.00000000000E+00 -0.22519298174E+04  0.22519298174E+04  0.00000000000E+00 0. -1.
         23    2    1    2    0    0 -0.61412676065E+02  0.11401169406E+03 -0.12293902465E+04  0.12394353461E+04  0.89607007253E+02 0.  0.
         23    2    1    2    0    0  0.61412676065E+02 -0.11401169406E+03 -0.10114812252E+04  0.10235528170E+04  0.88294490976E+02 0.  0.
          5    1    4    4  502    0  0.16389802687E+02  0.13288879524E+02 -0.14331300118E+03  0.14493421356E+03  0.47000000000E+01 0. -1.
         -5    1    4    4    0  502  0.45022873377E+02 -0.12730057359E+03 -0.86816822399E+03  0.87861860344E+03  0.47000000000E+01 0.  1.
          5    1    3    3  503    0 -0.14545548447E+02  0.10783270898E+03 -0.78658977671E+03  0.79409384391E+03  0.47000000000E+01 0. -1.
         -5    1    3    3    0  503 -0.46867127618E+02  0.61789850779E+01 -0.44280046979E+03  0.44534150216E+03  0.47000000000E+01 0.  1.
<mgrwt>
<rscale>  0 0.15729277E+03</rscale>
<asrwt>0</asrwt>
<pdfrwt beam="1">  1        1 0.34645100E+00 0.15747888E+03</pdfrwt>
<pdfrwt beam="2">  1       -1 0.17012827E-02 0.15747888E+03</pdfrwt>
<totfact> 0.20164967E+03</totfact>
</mgrwt>
</event>
<event>
 8    1  0.3177960E-004  0.1028402E+03  0.7546771E-02  0.1275335E+00
         -2   -1    0    0    0  501 -0.00000000000E+00  0.00000000000E+00  0.98005903108E+02  0.98005903108E+02  0.00000000000E+00 0.  1.
          2   -1    0    0  501    0  0.00000000000E+00 -0.00000000000E+00 -0.12417920916E+03  0.12417920916E+03  0.00000000000E+00 0. -1.
         23    2    1    2    0    0 -0.42363451576E+02  0.22271273462E+02  0.29238213966E+02  0.10691579488E+03  0.91024405456E+02 0.  0.
         23    2    1    2    0    0  0.42363451576E+02 -0.22271273462E+02 -0.55411520015E+02  0.11526931738E+03  0.89027564990E+02 0.  0.
          5    1    3    3  502    0  0.15788133185E+02  0.38652928085E+02  0.84994923367E+01  0.42867766083E+02  0.47000000000E+01 0. -1.
         -5    1    3    3    0  502 -0.58151584761E+02 -0.16381654623E+02  0.20738721630E+02  0.64048028801E+02  0.47000000000E+01 0.  1.
          5    1    4    4  503    0  0.16965940365E+02 -0.36736674002E+02  0.11307648129E+02  0.42277408334E+02  0.47000000000E+01 0. -1.
         -5    1    4    4    0  503  0.25397511211E+02  0.14465400540E+02 -0.66719168144E+02  0.72991909047E+02  0.47000000000E+01 0.  1.
<mgrwt>
<rscale>  0 0.10239659E+03</rscale>
<asrwt>0</asrwt>
<pdfrwt beam="1">  1        2 0.19104494E-01 0.10284024E+03</pdfrwt>
<pdfrwt beam="2">  1       -2 0.15077831E-01 0.10284024E+03</pdfrwt>
<totfact> 0.91463784E+03</totfact>
</mgrwt>
</event>
<event>
 8    1  0.3177960E-004  0.9728123E+02  0.7546771E-02  0.1286399E+00
         -2   -1    0    0    0  501 -0.00000000000E+00  0.00000000000E+00  0.97382799719E+02  0.97382799719E+02  0.00000000000E+00 0.  1.
          2   -1    0    0  501    0  0.00000000000E+00 -0.00000000000E+00 -0.10970721237E+03  0.10970721237E+03  0.00000000000E+00 0. -1.
         23    2    1    2    0    0 -0.51947882112E+01  0.24105335300E+02 -0.41842438675E+02  0.10542904975E+03  0.93575861426E+02 0.  0.
         23    2    1    2    0    0  0.51947882112E+01 -0.24105335300E+02  0.29518026021E+02  0.10166096235E+03  0.94104114631E+02 0.  0.
          5    1    4    4  502    0 -0.43392745023E+02 -0.27362655681E+01  0.17025334393E+02  0.46929409554E+02  0.47000000000E+01 0. -1.
         -5    1    4    4    0  502  0.48587533234E+02 -0.21369069732E+02  0.12492691628E+02  0.54731552792E+02  0.47000000000E+01 0.  1.
          5    1    3    3  503    0  0.10080953182E+02 -0.22632674557E+02  0.15612651027E+02  0.29659879412E+02  0.47000000000E+01 0.  1.
         -5    1    3    3    0  503 -0.15275741393E+02  0.46738009857E+02 -0.57455089702E+02  0.75769170334E+02  0.47000000000E+01 0. -1.
<mgrwt>
<rscale>  0 0.97153249E+02</rscale>
<asrwt>0</asrwt>
<pdfrwt beam="1">  1        2 0.16878033E-01 0.97281228E+02</pdfrwt>
<pdfrwt beam="2">  1       -2 0.14981969E-01 0.97281228E+02</pdfrwt>
<totfact> 0.10584206E+04</totfact>
</mgrwt>
</event>
<event>
 8    1  0.3177960E-004  0.9953431E+02  0.7546771E-02  0.1282213E+00
         -1   -1    0    0    0  501 -0.00000000000E+00  0.00000000000E+00  0.28703700719E+03  0.28703700719E+03  0.00000000000E+00 0.  1.
          1   -1    0    0  501    0  0.00000000000E+00 -0.00000000000E+00 -0.40782087664E+02  0.40782087664E+02  0.00000000000E+00 0. -1.
         23    2    1    2    0    0 -0.15429179292E+02  0.11056409770E+02  0.19131452097E+03  0.21565788679E+03  0.97707596581E+02 0.  0.
         23    2    1    2    0    0  0.15429179292E+02 -0.11056409770E+02  0.54940398547E+02  0.11216120806E+03  0.95923852246E+02 0.  0.
          5    1    4    4  502    0  0.55541326669E+02 -0.26554548721E+01  0.38290339995E+02  0.67676661750E+02  0.47000000000E+01 0. -1.
         -5    1    4    4    0  502 -0.40112147376E+02 -0.84009548979E+01  0.16650058552E+02  0.44484546307E+02  0.47000000000E+01 0.  1.
          5    1    3    3  503    0 -0.10443387972E+02  0.32274636985E+02  0.14082307986E+02  0.37028609791E+02  0.47000000000E+01 0. -1.
         -5    1    3    3    0  503 -0.49857913199E+01 -0.21218227215E+02  0.17723221299E+03  0.17862927700E+03  0.47000000000E+01 0.  1.
<mgrwt>
<rscale>  0 0.99093787E+02</rscale>
<asrwt>0</asrwt>
<pdfrwt beam="1">  1        1 0.62741675E-02 0.99534307E+02</pdfrwt>
<pdfrwt beam="2">  1       -1 0.44159538E-01 0.99534307E+02</pdfrwt>
<totfact> 0.58225485E+03</totfact>
</mgrwt>
</event>
<event>
 8    1  0.3177960E-004  0.1054748E+03  0.7546771E-02  0.1271256E+00
          2   -1    0    0  501    0  0.00000000000E+00  0.00000000000E+00  0.20097659389E+03  0.20097659389E+03  0.00000000000E+00 0. -1.
         -2   -1    0    0    0  501 -0.00000000000E+00 -0.00000000000E+00 -0.54318762316E+02  0.54318762316E+02  0.00000000000E+00 0.  1.
         23    2    1    2    0    0  0.33494126638E+02  0.26913976031E+02  0.90162550902E+02  0.13564317546E+03  0.91779991499E+02 0.  0.
         23    2    1    2    0    0 -0.33494126638E+02 -0.26913976031E+02  0.56495280677E+02  0.11965218075E+03  0.96326055633E+02 0.  0.
          5    1    3    3  502    0  0.21704669058E+02  0.50176987219E+02  0.94023091754E+02  0.10886346719E+03  0.47000000000E+01 0. -1.
         -5    1    4    4    0  503 -0.99169591214E+01 -0.60907977088E+02  0.22333922676E+02  0.65795302669E+02  0.47000000000E+01 0.  1.
          5    1    4    4  503    0 -0.23577167516E+02  0.33994001057E+02  0.34161358001E+02  0.53856878079E+02  0.47000000000E+01 0. -1.
         -5    1    3    3    0  502  0.11789457580E+02 -0.23263011188E+02 -0.38605408526E+01  0.26779708274E+02  0.47000000000E+01 0.  1.
<mgrwt>
<rscale>  0 0.10442551E+03</rscale>
<asrwt>0</asrwt>
<pdfrwt beam="1">  1        2 0.30919476E-01 0.10547477E+03</pdfrwt>
<pdfrwt beam="2">  1       -2 0.83567328E-02 0.10547477E+03</pdfrwt>
<totfact> 0.13714395E+04</totfact>
</mgrwt>
</event>
<event>
 8    1  0.3177960E-004  0.1119907E+03  0.7546771E-02  0.1261191E+00
          3   -1    0    0  501    0  0.00000000000E+00  0.00000000000E+00  0.18350815359E+03  0.18350815359E+03  0.00000000000E+00 0. -1.
         -3   -1    0    0    0  501 -0.00000000000E+00 -0.00000000000E+00 -0.10473022685E+03  0.10473022685E+03  0.00000000000E+00 0.  1.
         23    2    1    2    0    0 -0.30121292626E+02 -0.59611485575E+02  0.12937063135E+03  0.16535003854E+03  0.78377633970E+02 0.  0.
         23    2    1    2    0    0  0.30121292626E+02  0.59611485575E+02 -0.50592704605E+02  0.12288834190E+03  0.89894946097E+02 0.  0.
          5    1    3    3  502    0  0.50873991963E+01 -0.44848230463E+02  0.20334575069E+02  0.49727561266E+02  0.47000000000E+01 0. -1.
         -5    1    4    4    0  503 -0.25319973226E+01  0.39392163032E+02 -0.69314044676E+02  0.79904194559E+02  0.47000000000E+01 0.  1.
          5    1    4    4  503    0  0.32653289949E+02  0.20219322543E+02  0.18721340071E+02  0.42984147341E+02  0.47000000000E+01 0. -1.
         -5    1    3    3    0  502 -0.35208691822E+02 -0.14763255113E+02  0.10903605628E+03  0.11562247727E+03  0.47000000000E+01 0.  1.
<mgrwt>
<rscale>  0 0.10966540E+03</rscale>
<asrwt>0</asrwt>
<pdfrwt beam="1">  1        3 0.28232024E-01 0.11199073E+03</pdfrwt>
<pdfrwt beam="2">  1       -3 0.16112343E-01 0.11199073E+03</pdfrwt>
<totfact> 0.88197841E+02</totfact>
</mgrwt>
</event>
<event>
 8    1  0.3177960E-004  0.1060210E+03  0.7546771E-02  0.1268952E+00
         -2   -1    0    0    0  501 -0.00000000000E+00  0.00000000000E+00  0.11600439960E+03  0.11600439960E+03  0.00000000000E+00 0.  1.
          2   -1    0    0  501    0  0.00000000000E+00 -0.00000000000E+00 -0.12642011592E+03  0.12642011592E+03  0.00000000000E+00 0. -1.
         23    2    1    2    0    0 -0.51787508072E+02  0.58560167599E+01 -0.65324361238E+02  0.12452998797E+03  0.92326631090E+02 0.  0.
         23    2    1    2    0    0  0.51787508072E+02 -0.58560167599E+01  0.54908644919E+02  0.11789452755E+03  0.90376553453E+02 0.  0.
          5    1    4    4  502    0 -0.10405312018E+02 -0.25938060081E+02  0.42691740988E+02  0.51241860111E+02  0.47000000000E+01 0. -1.
         -5    1    4    4    0  502  0.62192820090E+02  0.20082043321E+02  0.12216903931E+02  0.66652667436E+02  0.47000000000E+01 0.  1.
          5    1    3    3  503    0 -0.32071074166E+02 -0.17612982733E+02 -0.81568803659E+02  0.89522794244E+02  0.47000000000E+01 0. -1.
         -5    1    3    3    0  503 -0.19716433906E+02  0.23468999493E+02  0.16244442420E+02  0.35007193728E+02  0.47000000000E+01 0.  1.
<mgrwt>
<rscale>  0 0.10559496E+03</rscale>
<asrwt>0</asrwt>
<pdfrwt beam="1">  1        2 0.19449249E-01 0.10602097E+03</pdfrwt>
<pdfrwt beam="2">  1       -2 0.17846831E-01 0.10602097E+03</pdfrwt>
<totfact> 0.68156721E+03</totfact>
</mgrwt>
</event>
<event>
 8    1  0.3177960E-004  0.1102965E+03  0.7546771E-02  0.1263846E+00
         -1   -1    0    0    0  501 -0.00000000000E+00  0.00000000000E+00  0.44159460752E+02  0.44159460752E+02  0.00000000000E+00 0.  1.
          1   -1    0    0  501    0  0.00000000000E+00 -0.00000000000E+00 -0.26169508056E+03  0.26169508056E+03  0.00000000000E+00 0. -1.
         23    2    1    2    0    0 -0.31267320679E+02 -0.33404504305E+02 -0.13537866218E+03  0.17462159493E+03  0.10035842261E+03 0.  0.
         23    2    1    2    0    0  0.31267320679E+02  0.33404504305E+02 -0.82156957628E+02  0.13123294639E+03  0.91535863358E+02 0.  0.
          5    1    4    4  502    0 -0.75714725915E+01  0.34383140175E+02 -0.84871748010E+02  0.92004516931E+02  0.47000000000E+01 0. -1.
         -5    1    3    3    0  503  0.35877387274E+02 -0.21002270989E+02 -0.52851390395E+02  0.67406541010E+02  0.47000000000E+01 0.  1.
          5    1    3    3  503    0 -0.67144707953E+02 -0.12402233316E+02 -0.82527271789E+02  0.10721505392E+03  0.47000000000E+01 0. -1.
         -5    1    4    4    0  502  0.38838793270E+02 -0.97863586967E+00  0.27147903821E+01  0.39228429457E+02  0.47000000000E+01 0.  1.
<mgrwt>
<rscale>  0 0.10824970E+03</rscale>
<asrwt>0</asrwt>
<pdfrwt beam="1">  1        1 0.40260781E-01 0.11029651E+03</pdfrwt>
<pdfrwt beam="2">  1       -1 0.67937632E-02 0.11029651E+03</pdfrwt>
<totfact> 0.10688120E+04</totfact>
</mgrwt>
</event>
<event>
 8    1  0.3177960E-004  0.9518948E+02  0.7546771E-02  0.1292022E+00
          1   -1    0    0  501    0  0.00000000000E+00  0.00000000000E+00  0.38698913955E+03  0.38698913955E+03  0.00000000000E+00 0. -1.
         -1   -1    0    0    0  501 -0.00000000000E+00 -0.00000000000E+00 -0.23256890121E+02  0.23256890121E+02  0.00000000000E+00 0.  1.
         23    2    1    2    0    0  0.22198487689E+01  0.35308751119E+02  0.21053506765E+03  0.23105421927E+03  0.88370820390E+02 0.  0.
         23    2    1    2    0    0 -0.22198487689E+01 -0.35308751119E+02  0.15319718179E+03  0.17919181041E+03  0.85957505648E+02 0.  0.
          5    1    3    3  502    0 -0.33959791384E+02  0.18062552602E+02  0.16804404610E+03  0.17245409437E+03  0.47000000000E+01 0. -1.
         -5    1    4    4    0  503  0.43912937103E+01  0.28185365885E+02  0.49901888608E+02  0.57671368955E+02  0.47000000000E+01 0.  1.
          5    1    4    4  503    0 -0.66111424792E+01 -0.63494117004E+02  0.10329529318E+03  0.12152044146E+03  0.47000000000E+01 0. -1.
         -5    1    3    3    0  502  0.36179640153E+02  0.17246198517E+02  0.42491021551E+02  0.58600124892E+02  0.47000000000E+01 0.  1.
<mgrwt>
<rscale>  0 0.94625460E+02</rscale>
<asrwt>0</asrwt>
<pdfrwt beam="1">  1        1 0.59536786E-01 0.95189482E+02</pdfrwt>
<pdfrwt beam="2">  1       -1 0.35779834E-02 0.95189482E+02</pdfrwt>
<totfact> 0.16702611E+04</totfact>
</mgrwt>
</event>
<event>
 8    1  0.3177960E-004  0.9866092E+02  0.7546771E-02  0.1283173E+00
          4   -1    0    0  501    0  0.00000000000E+00  0.00000000000E+00  0.52426508131E+02  0.52426508131E+02  0.00000000000E+00 0. -1.
         -4   -1    0    0    0  501 -0.00000000000E+00 -0.00000000000E+00 -0.22273668973E+03  0.22273668973E+03  0.00000000000E+00 0.  1.
         23    2    1    2    0    0  0.31170505406E+02  0.24826197601E+02 -0.28911110755E+02  0.10274604426E+03  0.90182907426E+02 0.  0.
         23    2    1    2    0    0 -0.31170505406E+02 -0.24826197601E+02 -0.14139907084E+03  0.17241715360E+03  0.90255399422E+02 0.  0.
          5    1    3    3  502    0  0.51212767924E+02  0.31343687893E+02 -0.45528505077E+02  0.75499067171E+02  0.47000000000E+01 0. -1.
         -5    1    4    4    0  503 -0.10336560201E+02 -0.46994058243E+02 -0.13146271153E+03  0.14007076965E+03  0.47000000000E+01 0.  1.
          5    1    4    4  503    0 -0.20833945204E+02  0.22167860642E+02 -0.99363593129E+01  0.32346383950E+02  0.47000000000E+01 0. -1.
         -5    1    3    3    0  502 -0.20042262518E+02 -0.65174902920E+01  0.16617394321E+02  0.27246977091E+02  0.47000000000E+01 0.  1.
<mgrwt>
<rscale>  0 0.98644340E+02</rscale>
<asrwt>0</asrwt>
<pdfrwt beam="1">  1        4 0.80656166E-02 0.98660922E+02</pdfrwt>
<pdfrwt beam="2">  1       -4 0.34267183E-01 0.98660922E+02</pdfrwt>
<totfact> 0.13723957E+03</totfact>
</mgrwt>
</event>
<event>
 8    1  0.3177960E-004  0.1092074E+03  0.7546771E-02  0.1262202E+00
         -1   -1    0    0    0  501 -0.00000000000E+00  0.00000000000E+00  0.32337770067E+03  0.32337770067E+03  0.00000000000E+00 0.  1.
          1   -1    0    0  501    0  0.00000000000E+00 -0.00000000000E+00 -0.10967680267E+03  0.10967680267E+03  0.00000000000E+00 0. -1.
         23    2    1    2    0    0  0.35181408998E+02 -0.45919026595E+02  0.28344784399E+03  0.30375802915E+03  0.92628135404E+02 0.  0.
         23    2    1    2    0    0 -0.35181408998E+02  0.45919026595E+02 -0.69746945993E+02  0.12929647419E+03  0.92231519673E+02 0.  0.
          5    1    4    4  502    0 -0.58514398856E+02  0.52660937147E+02 -0.68613682695E+02  0.10453246686E+03  0.47000000000E+01 0. -1.
         -5    1    3    3    0  503  0.10856005989E+02 -0.45932963887E+02  0.27262768430E+03  0.27672302810E+03  0.47000000000E+01 0.  1.
          5    1    3    3  503    0  0.24325403009E+02  0.13937292279E-01  0.10820159692E+02  0.27035001046E+02  0.47000000000E+01 0. -1.
         -5    1    4    4    0  502  0.23332989858E+02 -0.67419105518E+01 -0.11332632985E+01  0.24764007335E+02  0.47000000000E+01 0.  1.
<mgrwt>
<rscale>  0 0.10912327E+03</rscale>
<asrwt>0</asrwt>
<pdfrwt beam="1">  1        1 0.16873354E-01 0.10920742E+03</pdfrwt>
<pdfrwt beam="2">  1       -1 0.49750415E-01 0.10920742E+03</pdfrwt>
<totfact> 0.12911719E+03</totfact>
</mgrwt>
</event>
<event>
 8    1  0.3177960E-004  0.1183256E+03  0.7546771E-02  0.1249834E+00
         -2   -1    0    0    0  501 -0.00000000000E+00  0.00000000000E+00  0.92563872498E+01  0.92563872498E+01  0.00000000000E+00 0.  1.
          2   -1    0    0  501    0  0.00000000000E+00 -0.00000000000E+00 -0.14707574530E+04  0.14707574530E+04  0.00000000000E+00 0. -1.
         23    2    1    2    0    0 -0.64040579257E+02 -0.58037624887E+01 -0.59564719952E+03  0.60728620488E+03  0.99328087113E+02 0.  0.
         23    2    1    2    0    0  0.64040579257E+02  0.58037624887E+01 -0.86585386621E+03  0.87272763535E+03  0.88406608483E+02 0.  0.
          5    1    4    4  502    0 -0.19555618533E+02 -0.11868324495E+02 -0.15701959545E+03  0.15874672499E+03  0.47000000000E+01 0. -1.
         -5    1    3    3    0  503  0.19781034458E+02  0.38986960056E+01 -0.38017176755E+02  0.43288392015E+02  0.47000000000E+01 0.  1.
          5    1    3    3  503    0 -0.83821613716E+02 -0.97024584942E+01 -0.55763002277E+03  0.56399781287E+03  0.47000000000E+01 0. -1.
         -5    1    4    4    0  502  0.83596197790E+02  0.17672086984E+02 -0.70883427076E+03  0.71398091035E+03  0.47000000000E+01 0.  1.
<mgrwt>
<rscale>  0 0.11600663E+03</rscale>
<asrwt>0</asrwt>
<pdfrwt beam="1">  1        2 0.22627038E+00 0.11832560E+03</pdfrwt>
<pdfrwt beam="2">  1       -2 0.14240596E-02 0.11832560E+03</pdfrwt>
<totfact> 0.17258178E+04</totfact>
</mgrwt>
</event>
<event>
 8    1  0.3177960E-004  0.1076226E+03  0.7546771E-02  0.1269574E+00
         -1   -1    0    0    0  501 -0.00000000000E+00  0.00000000000E+00  0.76091519393E+02  0.76091519393E+02  0.00000000000E+00 0.  1.
          1   -1    0    0  501    0  0.00000000000E+00 -0.00000000000E+00 -0.14165216678E+03  0.14165216678E+03  0.00000000000E+00 0. -1.
         23    2    1    2    0    0 -0.34623367728E+02 -0.59420284835E+01 -0.18425625630E+02  0.10025185205E+03  0.92069782579E+02 0.  0.
         23    2    1    2    0    0  0.34623367728E+02  0.59420284835E+01 -0.47135021759E+02  0.11749183412E+03  0.10172775194E+03 0.  0.
          5    1    4    4  502    0  0.41807035287E+02 -0.32191140441E+02  0.40049977774E+01  0.53124643336E+02  0.47000000000E+01 0. -1.
         -5    1    4    4    0  502 -0.71836675587E+01  0.38133168924E+02 -0.51140019536E+02  0.64367190788E+02  0.47000000000E+01 0.  1.
          5    1    3    3  503    0 -0.28619782193E+02 -0.47842189457E+02 -0.97934390993E+01  0.56797609758E+02  0.47000000000E+01 0. -1.
         -5    1    3    3    0  503 -0.60035855353E+01  0.41900160973E+02 -0.86321865303E+01  0.43454242292E+02  0.47000000000E+01 0.  1.
<mgrwt>
<rscale>  0 0.10527740E+03</rscale>
<asrwt>0</asrwt>
<pdfrwt beam="1">  1        1 0.21792641E-01 0.10762259E+03</pdfrwt>
<pdfrwt beam="2">  1       -1 0.11706388E-01 0.10762259E+03</pdfrwt>
<totfact> 0.10034906E+04</totfact>
</mgrwt>
</event>
<event>
 8    1  0.3177960E-004  0.1049506E+03  0.7546771E-02  0.1275685E+00
          2   -1    0    0  501    0  0.00000000000E+00  0.00000000000E+00  0.34175192462E+03  0.34175192462E+03  0.00000000000E+00 0. -1.
         -2   -1    0    0    0  501 -0.00000000000E+00 -0.00000000000E+00 -0.69262492279E+02  0.69262492279E+02  0.00000000000E+00 0.  1.
         23    2    1    2    0    0 -0.17178999358E+02 -0.18332233069E+02 -0.23181088452E+02  0.97269801458E+02  0.91065155936E+02 0.  0.
         23    2    1    2    0    0  0.17178999358E+02  0.18332233069E+02  0.29567052080E+03  0.31374461544E+03  0.10189915635E+03 0.  0.
          5    1    4    4  502    0  0.53591575036E+02  0.35414205266E+02  0.18618335027E+03  0.19700901697E+03  0.47000000000E+01 0. -1.
         -5    1    3    3    0  503  0.17217522645E+02 -0.43017866796E+02 -0.28092035981E+02  0.54389635366E+02  0.47000000000E+01 0.  1.
          5    1    3    3  503    0 -0.34396522004E+02  0.24685633726E+02  0.49109475291E+01  0.42880166092E+02  0.47000000000E+01 0. -1.
         -5    1    4    4    0  502 -0.36412575678E+02 -0.17081972196E+02  0.10948717053E+03  0.11673559847E+03  0.47000000000E+01 0.  1.
<mgrwt>
<rscale>  0 0.10222543E+03</rscale>
<asrwt>0</asrwt>
<pdfrwt beam="1">  1        2 0.52577218E-01 0.10495059E+03</pdfrwt>
<pdfrwt beam="2">  1       -2 0.10655768E-01 0.10495059E+03</pdfrwt>
<totfact> 0.53627409E+03</totfact>
</mgrwt>
</event>
<event>
 8    1  0.3177960E-004  0.1227974E+03  0.7546771E-02  0.1239785E+00
         -2   -1    0    0    0  501 -0.00000000000E+00  0.00000000000E+00  0.32813112222E+02  0.32813112222E+02  0.00000000000E+00 0.  1.
          2   -1    0    0  501    0  0.00000000000E+00 -0.00000000000E+00 -0.45281177771E+03  0.45281177771E+03  0.00000000000E+00 0. -1.
         23    2    1    2    0    0  0.65693772241E+02 -0.36632588411E+02 -0.18298981030E+03  0.21869345749E+03  0.93187657079E+02 0.  0.
         23    2    1    2    0    0 -0.65693772241E+02  0.36632588411E+02 -0.23700885519E+03  0.26693143244E+03  0.97064792492E+02 0.  0.
          5    1    4    4  502    0 -0.61134858441E+02  0.11718955272E+02 -0.55271835377E+02  0.83377878453E+02  0.47000000000E+01 0. -1.
         -5    1    4    4    0  502 -0.45589137997E+01  0.24913633139E+02 -0.18173701981E+03  0.18355355399E+03  0.47000000000E+01 0.  1.
          5    1    3    3  503    0  0.42707595678E+01 -0.42315128211E+02 -0.13123777595E+03  0.13803714463E+03  0.47000000000E+01 0. -1.
         -5    1    3    3    0  503  0.61423012673E+02  0.56825398001E+01 -0.51752034347E+02  0.80656312856E+02  0.47000000000E+01 0.  1.
<mgrwt>
<rscale>  0 0.12202992E+03</rscale>
<asrwt>0</asrwt>
<pdfrwt beam="1">  1        2 0.69663342E-01 0.12279736E+03</pdfrwt>
<pdfrwt beam="2">  1       -2 0.50481717E-02 0.12279736E+03</pdfrwt>
<totfact> 0.12614937E+04</totfact>
</mgrwt>
</event>
<event>
 8    1  0.3177960E-004  0.9858674E+02  0.7546771E-02  0.1283471E+00
          1   -1    0    0  501    0  0.00000000000E+00  0.00000000000E+00  0.84779430615E+02  0.84779430615E+02  0.00000000000E+00 0. -1.
         -1   -1    0    0    0  501 -0.00000000000E+00 -0.00000000000E+00 -0.11445193112E+03  0.11445193112E+03  0.00000000000E+00 0.  1.
         23    2    1    2    0    0 -0.33895963196E+02 -0.16178535203E+02 -0.10782886397E+02  0.98851268050E+02  0.90799896661E+02 0.  0.
         23    2    1    2    0    0  0.33895963196E+02  0.16178535203E+02 -0.18889614110E+02  0.10038009369E+03  0.91151875269E+02 0.  0.
          5    1    3    3  502    0 -0.42570421237E+02 -0.43419183177E+02  0.11797770834E+02  0.62118786439E+02  0.47000000000E+01 0. -1.
         -5    1    3    3    0  502  0.86744580409E+01  0.27240647973E+02 -0.22580657231E+02  0.36732481611E+02  0.47000000000E+01 0.  1.
          5    1    4    4  503    0 -0.16213254999E+02 -0.26905773198E+02 -0.11218420867E+02  0.33685801695E+02  0.47000000000E+01 0. -1.
         -5    1    4    4    0  503  0.50109218195E+02  0.43084308402E+02 -0.76711932432E+01  0.66694291992E+02  0.47000000000E+01 0.  1.
<mgrwt>
<rscale>  0 0.98505305E+02</rscale>
<asrwt>0</asrwt>
<pdfrwt beam="1">  1        1 0.13042989E-01 0.98586742E+02</pdfrwt>
<pdfrwt beam="2">  1       -1 0.17607989E-01 0.98586742E+02</pdfrwt>
<totfact> 0.10165687E+04</totfact>
</mgrwt>
</event>
<event>
 8    1  0.3177960E-004  0.9490685E+02  0.7546771E-02  0.1291409E+00
         -1   -1    0    0    0  501 -0.00000000000E+00  0.00000000000E+00  0.17761922014E+03  0.17761922014E+03  0.00000000000E+00 0.  1.
          1   -1    0    0  501    0  0.00000000000E+00 -0.00000000000E+00 -0.61054304106E+02  0.61054304106E+02  0.00000000000E+00 0. -1.
         23    2    1    2    0    0 -0.28587288749E+01 -0.29126591324E+02  0.10744126340E+03  0.14332914437E+03  0.90239059674E+02 0.  0.
         23    2    1    2    0    0  0.28587288749E+01  0.29126591324E+02  0.91236526354E+01  0.95344379881E+02  0.90281665273E+02 0.  0.
          5    1    3    3  502    0 -0.36419465836E+02  0.48994517145E+01  0.16643193239E+02  0.40613643028E+02  0.47000000000E+01 0. -1.
         -5    1    3    3    0  502  0.33560736961E+02 -0.34026043039E+02  0.90798070160E+02  0.10271550134E+03  0.47000000000E+01 0.  1.
          5    1    4    4  503    0  0.38633762685E+02  0.12893793699E+02  0.29816202554E+02  0.50694313980E+02  0.47000000000E+01 0.  1.
         -5    1    4    4    0  503 -0.35775033810E+02  0.16232797625E+02 -0.20692549919E+02  0.44650065901E+02  0.47000000000E+01 0. -1.
<mgrwt>
<rscale>  0 0.94896714E+02</rscale>
<asrwt>0</asrwt>
<pdfrwt beam="1">  1        1 0.93929700E-02 0.94906848E+02</pdfrwt>
<pdfrwt beam="2">  1       -1 0.27326034E-01 0.94906848E+02</pdfrwt>
<totfact> 0.76740644E+03</totfact>
</mgrwt>
</event>
<event>
 8    1  0.3177960E-004  0.1195967E+03  0.7546771E-02  0.1244115E+00
         -3   -1    0    0    0  501 -0.00000000000E+00  0.00000000000E+00  0.26070201581E+03  0.26070201581E+03  0.00000000000E+00 0.  1.
          3   -1    0    0  501    0  0.00000000000E+00 -0.00000000000E+00 -0.55475686454E+02  0.55475686454E+02  0.00000000000E+00 0. -1.
         23    2    1    2    0    0  0.72053763715E+02 -0.20167927007E+02  0.81774945073E+02  0.14488099280E+03  0.93299894365E+02 0.  0.
         23    2    1    2    0    0 -0.72053763715E+02  0.20167927007E+02  0.12345138429E+03  0.17129670946E+03  0.92216203816E+02 0.  0.
          5    1    3    3  502    0  0.51734849247E+02  0.93131804023E+01 -0.28705388386E+01  0.52854138429E+02  0.47000000000E+01 0. -1.
         -5    1    4    4    0  503 -0.76548381732E+02 -0.63731091433E+01  0.12160253858E+03  0.14390809100E+03  0.47000000000E+01 0.  1.
          5    1    4    4  503    0  0.44946180179E+01  0.26541036151E+02  0.18488457076E+01  0.27388618467E+02  0.47000000000E+01 0. -1.
         -5    1    3    3    0  502  0.20318914467E+02 -0.29481107410E+02  0.84645483911E+02  0.92026854373E+02  0.47000000000E+01 0.  1.
<mgrwt>
<rscale>  0 0.11938523E+03</rscale>
<asrwt>0</asrwt>
<pdfrwt beam="1">  1        3 0.85347212E-02 0.11959666E+03</pdfrwt>
<pdfrwt beam="2">  1       -3 0.40108002E-01 0.11959666E+03</pdfrwt>
<totfact> 0.13341512E+03</totfact>
</mgrwt>
</event>
<event>
 8    1  0.3177960E-004  0.1010610E+03  0.7546771E-02  0.1278674E+00
         -4   -1    0    0    0  501 -0.00000000000E+00  0.00000000000E+00  0.21693492336E+03  0.21693492336E+03  0.00000000000E+00 0.  1.
          4   -1    0    0  501    0  0.00000000000E+00 -0.00000000000E+00 -0.47725630061E+02  0.47725630061E+02  0.00000000000E+00 0. -1.
         23    2    1    2    0    0 -0.29289768283E+02  0.12593366059E+02  0.63385634522E+02  0.11833222266E+03  0.94701071066E+02 0.  0.
         23    2    1    2    0    0  0.29289768283E+02 -0.12593366059E+02  0.10582365877E+03  0.14632833076E+03  0.95900209757E+02 0.  0.
          5    1    4    4  502    0 -0.23246813180E+02  0.16165679328E+02  0.52518105062E+01  0.29179016857E+02  0.47000000000E+01 0. -1.
         -5    1    4    4    0  502  0.52536581464E+02 -0.28759045387E+02  0.10057184827E+03  0.11714931390E+03  0.47000000000E+01 0.  1.
          5    1    3    3  503    0 -0.30710623364E+02  0.38927034585E+02  0.74265248717E+02  0.89419648713E+02  0.47000000000E+01 0. -1.
         -5    1    3    3    0  503  0.14208550803E+01 -0.26333668526E+02 -0.10879614195E+02  0.28912573947E+02  0.47000000000E+01 0.  1.
<mgrwt>
<rscale>  0 0.10077553E+03</rscale>
<asrwt>0</asrwt>
<pdfrwt beam="1">  1        4 0.73424047E-02 0.10106104E+03</pdfrwt>
<pdfrwt beam="2">  1       -4 0.33374603E-01 0.10106104E+03</pdfrwt>
<totfact> 0.16938734E+03</totfact>
</mgrwt>
</event>
<event>
 8    1  0.3177960E-004  0.1033400E+03  0.7546771E-02  0.1273882E+00
          1   -1    0    0  501    0  0.00000000000E+00  0.00000000000E+00  0.37649661557E+03  0.37649661557E+03  0.00000000000E+00 0. -1.
         -1   -1    0    0    0  501 -0.00000000000E+00 -0.00000000000E+00 -0.30448789323E+02  0.30448789323E+02  0.00000000000E+00 0.  1.
         23    2    1    2    0    0  0.44224490118E+02 -0.20490325195E+02  0.11741686959E+03  0.15641572516E+03  0.91123536263E+02 0.  0.
         23    2    1    2    0    0 -0.44224490118E+02  0.20490325195E+02  0.22863095666E+03  0.25052967973E+03  0.90096321407E+02 0.  0.
          5    1    4    4  502    0 -0.50739960775E+02 -0.23883155215E+02  0.14456486486E+03  0.15513232698E+03  0.47000000000E+01 0. -1.
         -5    1    3    3    0  503  0.72156139294E+02 -0.19890120089E+02  0.84043482509E+02  0.11263890210E+03  0.47000000000E+01 0.  1.
          5    1    3    3  503    0 -0.27931649176E+02 -0.60020510577E+00  0.33373387080E+02  0.43776823058E+02  0.47000000000E+01 0. -1.
         -5    1    4    4    0  502  0.65154706572E+01  0.44373480410E+02  0.84066091795E+02  0.95397352747E+02  0.47000000000E+01 0.  1.
<mgrwt>
<rscale>  0 0.10311311E+03</rscale>
<asrwt>0</asrwt>
<pdfrwt beam="1">  1        1 0.57922553E-01 0.10334001E+03</pdfrwt>
<pdfrwt beam="2">  1       -1 0.46844294E-02 0.10334001E+03</pdfrwt>
<totfact> 0.11758545E+04</totfact>
</mgrwt>
</event>
<event>
 8    1  0.3177960E-004  0.1018584E+03  0.7546771E-02  0.1278414E+00
         -1   -1    0    0    0  501 -0.00000000000E+00  0.00000000000E+00  0.11372945905E+02  0.11372945905E+02  0.00000000000E+00 0.  1.
          1   -1    0    0  501    0  0.00000000000E+00 -0.00000000000E+00 -0.99246480378E+03  0.99246480378E+03  0.00000000000E+00 0. -1.
         23    2    1    2    0    0  0.13755396877E+02 -0.43576157637E+02 -0.32887723528E+03  0.34428967189E+03  0.91033234746E+02 0.  0.
         23    2    1    2    0    0 -0.13755396877E+02  0.43576157637E+02 -0.65221462260E+03  0.65954807780E+03  0.86785140070E+02 0.  0.
          5    1    3    3  502    0 -0.22894853242E+02 -0.48557659148E+01 -0.23514019788E+03  0.23634880034E+03  0.47000000000E+01 0. -1.
         -5    1    4    4    0  503 -0.89758873591E+01 -0.25816125513E+02 -0.15364431967E+03  0.15612721050E+03  0.47000000000E+01 0.  1.
          5    1    4    4  503    0 -0.47795095181E+01  0.69392283151E+02 -0.49857030293E+03  0.50342086730E+03  0.47000000000E+01 0. -1.
         -5    1    3    3    0  502  0.36650250119E+02 -0.38720391723E+02 -0.93737037403E+02  0.10794087155E+03  0.47000000000E+01 0.  1.
<mgrwt>
<rscale>  0 0.10090049E+03</rscale>
<asrwt>0</asrwt>
<pdfrwt beam="1">  1        1 0.15268694E+00 0.10185844E+03</pdfrwt>
<pdfrwt beam="2">  1       -1 0.17496835E-02 0.10185844E+03</pdfrwt>
<totfact> 0.12722463E+04</totfact>
</mgrwt>
</event>
<event>
 8    1  0.3177960E-004  0.1042987E+03  0.7546771E-02  0.1271887E+00
          2   -1    0    0  501    0  0.00000000000E+00  0.00000000000E+00  0.29576614372E+03  0.29576614372E+03  0.00000000000E+00 0. -1.
         -2   -1    0    0    0  501 -0.00000000000E+00 -0.00000000000E+00 -0.44595548513E+02  0.44595548513E+02  0.00000000000E+00 0.  1.
         23    2    1    2    0    0 -0.34910750868E+02  0.35369615411E+02  0.19841453406E+03  0.22415741761E+03  0.91697602608E+02 0.  0.
         23    2    1    2    0    0  0.34910750868E+02 -0.35369615411E+02  0.52756061148E+02  0.11620427462E+03  0.90832049585E+02 0.  0.
          5    1    3    3  502    0  0.54695079517E+01  0.56926121139E+02  0.12455468451E+03  0.13713664068E+03  0.47000000000E+01 0. -1.
         -5    1    4    4    0  503 -0.20793229290E+02 -0.41610787422E+02  0.18093813162E+02  0.50132744678E+02  0.47000000000E+01 0.  1.
          5    1    4    4  503    0  0.55703980158E+02  0.62411720112E+01  0.34662247986E+02  0.66071529942E+02  0.47000000000E+01 0. -1.
         -5    1    3    3    0  502 -0.40380258820E+02 -0.21556505727E+02  0.73859849557E+02  0.87020776933E+02  0.47000000000E+01 0.  1.
<mgrwt>
<rscale>  0 0.10410815E+03</rscale>
<asrwt>0</asrwt>
<pdfrwt beam="1">  1        2 0.45502482E-01 0.10429871E+03</pdfrwt>
<pdfrwt beam="2">  1       -2 0.68608538E-02 0.10429871E+03</pdfrwt>
<totfact> 0.12303152E+04</totfact>
</mgrwt>
</event>
<event>
 8    1  0.3177960E-004  0.1011528E+03  0.7546771E-02  0.1279155E+00
          3   -1    0    0  501    0  0.00000000000E+00  0.00000000000E+00  0.33756815909E+02  0.33756815909E+02  0.00000000000E+00 0. -1.
         -3   -1    0    0    0  501 -0.00000000000E+00 -0.00000000000E+00 -0.48638101627E+03  0.48638101627E+03  0.00000000000E+00 0.  1.
         23    2    1    2    0    0 -0.36304614071E+02 -0.15188229633E+02 -0.38738600465E+03  0.39977206502E+03  0.90559814738E+02 0.  0.
         23    2    1    2    0    0  0.36304614071E+02  0.15188229633E+02 -0.65238195712E+02  0.12036576716E+03  0.93183627334E+02 0.  0.
          5    1    3    3  502    0  0.10360562524E+02  0.18809826572E+02 -0.27271327422E+02  0.35028076322E+02  0.47000000000E+01 0. -1.
         -5    1    4    4    0  503 -0.25160172592E+02  0.18581434040E+02 -0.45762578588E+02  0.55629197144E+02  0.47000000000E+01 0.  1.
          5    1    4    4  503    0  0.61464786663E+02 -0.33932044066E+01 -0.19475617124E+02  0.64736570020E+02  0.47000000000E+01 0. -1.
         -5    1    3    3    0  502 -0.46665176596E+02 -0.33998056205E+02 -0.36011467723E+03  0.36474398869E+03  0.47000000000E+01 0.  1.
<mgrwt>
<rscale>  0 0.10054441E+03</rscale>
<asrwt>0</asrwt>
<pdfrwt beam="1">  1        3 0.51933569E-02 0.10115283E+03</pdfrwt>
<pdfrwt beam="2">  1       -3 0.74827839E-01 0.10115283E+03</pdfrwt>
<totfact> 0.81423633E+02</totfact>
</mgrwt>
</event>
<event>
 8    1  0.3177960E-004  0.9746955E+02  0.7546771E-02  0.1286638E+00
         -2   -1    0    0    0  501 -0.00000000000E+00  0.00000000000E+00  0.17516450853E+02  0.17516450853E+02  0.00000000000E+00 0.  1.
          2   -1    0    0  501    0  0.00000000000E+00 -0.00000000000E+00 -0.54174883459E+03  0.54174883459E+03  0.00000000000E+00 0. -1.
         23    2    1    2    0    0  0.99894958865E+01  0.25701933647E+02 -0.29992854582E+03  0.31536874626E+03  0.93487614708E+02 0.  0.
         23    2    1    2    0    0 -0.99894958865E+01 -0.25701933647E+02 -0.22430383792E+03  0.24389653918E+03  0.91722029502E+02 0.  0.
          5    1    3    3  502    0 -0.35755845631E+02  0.21857680578E+02 -0.21107715849E+03  0.21524845071E+03  0.47000000000E+01 0. -1.
         -5    1    4    4    0  503  0.36110566209E+02 -0.27224471089E+02 -0.76500794379E+02  0.88992170209E+02  0.47000000000E+01 0.  1.
          5    1    4    4  503    0 -0.46100062095E+02  0.15225374426E+01 -0.14780304354E+03  0.15490436897E+03  0.47000000000E+01 0. -1.
         -5    1    3    3    0  502  0.45745341517E+02  0.38442530690E+01 -0.88851387331E+02  0.10012029556E+03  0.47000000000E+01 0.  1.
<mgrwt>
<rscale>  0 0.97043731E+02</rscale>
<asrwt>0</asrwt>
<pdfrwt beam="1">  1        2 0.83345982E-01 0.97469552E+02</pdfrwt>
<pdfrwt beam="2">  1       -2 0.26948384E-02 0.97469552E+02</pdfrwt>
<totfact> 0.25631285E+04</totfact>
</mgrwt>
</event>
<event>
 8    1  0.3177960E-004  0.9643089E+02  0.7546771E-02  0.1289825E+00
         -2   -1    0    0    0  501 -0.00000000000E+00  0.00000000000E+00  0.21554016756E+02  0.21554016756E+02  0.00000000000E+00 0.  1.
          2   -1    0    0  501    0  0.00000000000E+00 -0.00000000000E+00 -0.41768694976E+03  0.41768694976E+03  0.00000000000E+00 0. -1.
         23    2    1    2    0    0 -0.15104597425E+02 -0.39990770634E+01 -0.20410203817E+03  0.22435778433E+03  0.91840252208E+02 0.  0.
         23    2    1    2    0    0  0.15104597425E+02  0.39990770634E+01 -0.19203089483E+03  0.21488318218E+03  0.95156586388E+02 0.  0.
          5    1    3    3  502    0 -0.12772540580E+02 -0.28066640601E+02 -0.19594096880E+03  0.19840823411E+03  0.47000000000E+01 0. -1.
         -5    1    3    3    0  502 -0.23320568454E+01  0.24067563538E+02 -0.81610693717E+01  0.25949550228E+02  0.47000000000E+01 0.  1.
          5    1    4    4  503    0  0.52998234896E+02  0.14779253982E+02 -0.13008230771E+03  0.14131785460E+03  0.47000000000E+01 0.  1.
         -5    1    4    4    0  503 -0.37893637471E+02 -0.10780176919E+02 -0.61948587125E+02  0.73565327580E+02  0.47000000000E+01 0. -1.
<mgrwt>
<rscale>  0 0.95602542E+02</rscale>
<asrwt>0</asrwt>
<pdfrwt beam="1">  1        2 0.64259524E-01 0.96430894E+02</pdfrwt>
<pdfrwt beam="2">  1       -2 0.33160029E-02 0.96430894E+02</pdfrwt>
<totfact> 0.25043618E+04</totfact>
</mgrwt>
</event>
<event>
 8    1  0.3177960E-004  0.1174055E+03  0.7546771E-02  0.1248747E+00
         -1   -1    0    0    0  501 -0.00000000000E+00  0.00000000000E+00  0.21772063016E+03  0.21772063016E+03  0.00000000000E+00 0.  1.
          1   -1    0    0  501    0  0.00000000000E+00 -0.00000000000E+00 -0.61710239430E+02  0.61710239430E+02  0.00000000000E+00 0. -1.
         23    2    1    2    0    0 -0.38421274593E+02  0.57045803598E+02  0.74125473926E+02  0.13629039448E+03  0.91378704810E+02 0.  0.
         23    2    1    2    0    0  0.38421274593E+02 -0.57045803598E+02  0.81884916808E+02  0.14314047512E+03  0.95150606758E+02 0.  0.
          5    1    3    3  502    0 -0.18836781736E+02  0.12421949916E+02  0.83343480334E+02  0.86471699995E+02  0.47000000000E+01 0.  1.
         -5    1    3    3    0  502 -0.19584492857E+02  0.44623853681E+02 -0.92180064079E+01  0.49818694483E+02  0.47000000000E+01 0. -1.
          5    1    4    4  503    0  0.66366108947E+02 -0.53700791467E+02  0.45349222355E+02  0.96782629584E+02  0.47000000000E+01 0. -1.
         -5    1    4    4    0  503 -0.27944834355E+02 -0.33450121311E+01  0.36535694453E+02  0.46357845533E+02  0.47000000000E+01 0.  1.
<mgrwt>
<rscale>  0 0.11663916E+03</rscale>
<asrwt>0</asrwt>
<pdfrwt beam="1">  1        1 0.94938831E-02 0.11740552E+03</pdfrwt>
<pdfrwt beam="2">  1       -1 0.33495481E-01 0.11740552E+03</pdfrwt>
<totfact> 0.54769319E+03</totfact>
</mgrwt>
</event>
<event>
 8    1  0.3177960E-004  0.1141542E+03  0.7546771E-02  0.1253879E+00
         -2   -1    0    0    0  501 -0.00000000000E+00  0.00000000000E+00  0.50342477331E+02  0.50342477331E+02  0.00000000000E+00 0.  1.
          2   -1    0    0  501    0  0.00000000000E+00 -0.00000000000E+00 -0.79968892101E+03  0.79968892101E+03  0.00000000000E+00 0. -1.
         23    2    1    2    0    0  0.80488468625E+01  0.65181482589E+02 -0.22852485171E+02  0.11462357694E+03  0.91120352851E+02 0.  0.
         23    2    1    2    0    0 -0.80488468625E+01 -0.65181482589E+02 -0.72649395850E+03  0.73540782140E+03  0.93369065652E+02 0.  0.
          5    1    4    4  502    0  0.14989119850E+02 -0.82870967484E+02 -0.56384039537E+03  0.57011433276E+03  0.47000000000E+01 0. -1.
         -5    1    3    3    0  503  0.20492444882E+02  0.64708395069E+01  0.28148900465E+02  0.35724818524E+02  0.47000000000E+01 0.  1.
          5    1    3    3  503    0 -0.12443598020E+02  0.58710643082E+02 -0.51001385636E+02  0.78898758416E+02  0.47000000000E+01 0. -1.
         -5    1    4    4    0  502 -0.23037966712E+02  0.17689484895E+02 -0.16265356313E+03  0.16529348864E+03  0.47000000000E+01 0.  1.
<mgrwt>
<rscale>  0 0.11369351E+03</rscale>
<asrwt>0</asrwt>
<pdfrwt beam="1">  1        2 0.12302905E+00 0.11415425E+03</pdfrwt>
<pdfrwt beam="2">  1       -2 0.77449974E-02 0.11415425E+03</pdfrwt>
<totfact> 0.34333378E+03</totfact>
</mgrwt>
</event>
<event>
 8    1  0.3177960E-004  0.1273270E+03  0.7546771E-02  0.1233096E+00
          1   -1    0    0  501    0  0.00000000000E+00  0.00000000000E+00  0.55182721012E+02  0.55182721012E+02  0.00000000000E+00 0. -1.
         -1   -1    0    0    0  501 -0.00000000000E+00 -0.00000000000E+00 -0.45000088466E+03  0.45000088466E+03  0.00000000000E+00 0.  1.
         23    2    1    2    0    0  0.44544111785E+02  0.69267961217E+02 -0.46197359347E+02  0.13544875707E+03  0.97107885541E+02 0.  0.
         23    2    1    2    0    0 -0.44544111785E+02 -0.69267961217E+02 -0.34862080430E+03  0.36973484860E+03  0.91570545140E+02 0.  0.
          5    1    3    3  502    0  0.12450496079E+02  0.71175653130E+02 -0.65514260421E+02  0.97648332140E+02  0.47000000000E+01 0. -1.
         -5    1    3    3    0  502  0.32093615706E+02 -0.19076919138E+01  0.19316901073E+02  0.37800424926E+02  0.47000000000E+01 0.  1.
          5    1    4    4  503    0 -0.24104377049E+02 -0.79197267300E+02 -0.32918031253E+03  0.33946280547E+03  0.47000000000E+01 0. -1.
         -5    1    4    4    0  503 -0.20439734736E+02  0.99293060834E+01 -0.19440491772E+02  0.30272043137E+02  0.47000000000E+01 0.  1.
<mgrwt>
<rscale>  0 0.12627120E+03</rscale>
<asrwt>0</asrwt>
<pdfrwt beam="1">  1        1 0.84896496E-02 0.12732702E+03</pdfrwt>
<pdfrwt beam="2">  1       -1 0.69230903E-01 0.12732702E+03</pdfrwt>
<totfact> 0.17087876E+03</totfact>
</mgrwt>
</event>
<event>
 8    1  0.3177960E-004  0.9625543E+02  0.7546771E-02  0.1289009E+00
          3   -1    0    0  501    0  0.00000000000E+00  0.00000000000E+00  0.81651185178E+02  0.81651185178E+02  0.00000000000E+00 0. -1.
         -3   -1    0    0    0  501 -0.00000000000E+00 -0.00000000000E+00 -0.12310057309E+03  0.12310057309E+03  0.00000000000E+00 0.  1.
         23    2    1    2    0    0 -0.16859372315E+02 -0.21935326379E+02 -0.51173486486E+02  0.10800639191E+03  0.91001417549E+02 0.  0.
         23    2    1    2    0    0  0.16859372315E+02  0.21935326379E+02  0.97240985717E+01  0.96745366360E+02  0.92193876374E+02 0.  0.
          5    1    4    4  502    0  0.21832119585E+02 -0.18032361467E+01 -0.37365893157E+02  0.43568257684E+02  0.47000000000E+01 0.  1.
         -5    1    4    4    0  502 -0.49727472698E+01  0.23738562526E+02  0.47089991729E+02  0.53177108677E+02  0.47000000000E+01 0. -1.
          5    1    3    3  503    0 -0.32243513523E+02  0.25416966105E+02 -0.83353313241E+01  0.42157254163E+02  0.47000000000E+01 0. -1.
         -5    1    3    3    0  503  0.15384141208E+02 -0.47352292485E+02 -0.42838155162E+02  0.65849137746E+02  0.47000000000E+01 0.  1.
<mgrwt>
<rscale>  0 0.95968771E+02</rscale>
<asrwt>0</asrwt>
<pdfrwt beam="1">  1        3 0.12561721E-01 0.96255430E+02</pdfrwt>
<pdfrwt beam="2">  1       -3 0.18938550E-01 0.96255430E+02</pdfrwt>
<totfact> 0.26585026E+03</totfact>
</mgrwt>
</event>
<event>
 8    1  0.3177960E-004  0.2358841E+03  0.7546771E-02  0.1122574E+00
          2   -1    0    0  501    0  0.00000000000E+00  0.00000000000E+00  0.23416279127E+04  0.23416279127E+04  0.00000000000E+00 0. -1.
         -2   -1    0    0    0  501 -0.00000000000E+00 -0.00000000000E+00 -0.26368843018E+02  0.26368843018E+02  0.00000000000E+00 0.  1.
         23    2    1    2    0    0  0.13792812770E+03 -0.16852146474E+03  0.78509777745E+03  0.81976814854E+03  0.90651225668E+02 0.  0.
         23    2    1    2    0    0 -0.13792812770E+03  0.16852146474E+03  0.15301612922E+04  0.15482286071E+04  0.90523960067E+02 0.  0.
          5    1    3    3  502    0  0.14471022954E+02 -0.33736877788E+02  0.28311131104E+03  0.28552003759E+03  0.47000000000E+01 0. -1.
         -5    1    4    4    0  503 -0.32190453219E+02  0.21560957998E+02  0.11317523942E+03  0.11971560052E+03  0.47000000000E+01 0.  1.
          5    1    4    4  503    0 -0.10573767448E+03  0.14696050674E+03  0.14169860528E+04  0.14285130066E+04  0.47000000000E+01 0. -1.
         -5    1    3    3    0  502  0.12345710475E+03 -0.13478458695E+03  0.50198646642E+03  0.53424811095E+03  0.47000000000E+01 0.  1.
<mgrwt>
<rscale>  0 0.23587185E+03</rscale>
<asrwt>0</asrwt>
<pdfrwt beam="1">  1        2 0.36025028E+00 0.23588408E+03</pdfrwt>
<pdfrwt beam="2">  1       -2 0.40567469E-02 0.23588408E+03</pdfrwt>
<totfact> 0.13210708E+03</totfact>
</mgrwt>
</event>
<event>
 8    1  0.3177960E-004  0.1586478E+03  0.7546771E-02  0.1191688E+00
          2   -1    0    0  501    0  0.00000000000E+00  0.00000000000E+00  0.17321884941E+03  0.17321884941E+03  0.00000000000E+00 0. -1.
         -2   -1    0    0    0  501 -0.00000000000E+00 -0.00000000000E+00 -0.20484428992E+03  0.20484428992E+03  0.00000000000E+00 0.  1.
         23    2    1    2    0    0  0.10706422187E+03  0.58110577600E+02 -0.12137085875E+03  0.19579040409E+03  0.93613087476E+02 0.  0.
         23    2    1    2    0    0 -0.10706422187E+03 -0.58110577600E+02  0.89745418246E+02  0.18227273523E+03  0.10163426135E+03 0.  0.
          5    1    3    3  502    0  0.10538490648E+03  0.10789119814E+02 -0.84742081470E+02  0.13574127594E+03  0.47000000000E+01 0. -1.
         -5    1    4    4    0  503 -0.45139890385E+02 -0.23432998557E+02 -0.17147018134E+02  0.53877874459E+02  0.47000000000E+01 0.  1.
          5    1    4    4  503    0 -0.61924331485E+02 -0.34677579043E+02  0.10689243638E+03  0.12839486077E+03  0.47000000000E+01 0. -1.
         -5    1    3    3    0  502  0.16793153863E+01  0.47321457786E+02 -0.36628777283E+02  0.60049128157E+02  0.47000000000E+01 0.  1.
<mgrwt>
<rscale>  0 0.15737884E+03</rscale>
<asrwt>0</asrwt>
<pdfrwt beam="1">  1        2 0.26649054E-01 0.15864775E+03</pdfrwt>
<pdfrwt beam="2">  1       -2 0.31514506E-01 0.15864775E+03</pdfrwt>
<totfact> 0.18331882E+03</totfact>
</mgrwt>
</event>
<event>
 8    1  0.3177960E-004  0.1013779E+03  0.7546771E-02  0.1280046E+00
          2   -1    0    0  501    0  0.00000000000E+00  0.00000000000E+00  0.29218186094E+03  0.29218186094E+03  0.00000000000E+00 0. -1.
         -2   -1    0    0    0  501 -0.00000000000E+00 -0.00000000000E+00 -0.40453485938E+02  0.40453485938E+02  0.00000000000E+00 0.  1.
         23    2    1    2    0    0 -0.41979298975E+02 -0.51344544431E+01  0.59435332765E+02  0.11751614893E+03  0.92135022188E+02 0.  0.
         23    2    1    2    0    0  0.41979298975E+02  0.51344544431E+01  0.19229304224E+03  0.21511919795E+03  0.86666204881E+02 0.  0.
          5    1    4    4  502    0 -0.23111331069E+02  0.94432896624E+01  0.25650393999E+02  0.36101828981E+02  0.47000000000E+01 0. -1.
         -5    1    3    3    0  503  0.38240282785E+01  0.33294159010E+02  0.11113913249E+01  0.33859258810E+02  0.47000000000E+01 0.  1.
          5    1    3    3  503    0 -0.45803327253E+02 -0.38428613453E+02  0.58323941441E+02  0.83656890120E+02  0.47000000000E+01 0. -1.
         -5    1    4    4    0  502  0.65090630044E+02 -0.43088352193E+01  0.16664264824E+03  0.17901736897E+03  0.47000000000E+01 0.  1.
<mgrwt>
<rscale>  0 0.10011887E+03</rscale>
<asrwt>0</asrwt>
<pdfrwt beam="1">  1        2 0.44951054E-01 0.10137794E+03</pdfrwt>
<pdfrwt beam="2">  1       -2 0.62236134E-02 0.10137794E+03</pdfrwt>
<totfact> 0.14405039E+04</totfact>
</mgrwt>
</event>
<event>
 7    1  0.3177960E-004  0.1916848E+03  0.7546771E-02  0.1164055E+00
          2   -1    0    0  501    0  0.00000000000E+00  0.00000000000E+00  0.41257942607E+03  0.41257942607E+03  0.00000000000E+00 0. -1.
         -2   -1    0    0    0  501 -0.00000000000E+00 -0.00000000000E+00 -0.92961207603E+02  0.92961207603E+02  0.00000000000E+00 0.  1.
         23    2    1    2    0    0  0.12566636458E+03  0.47966722812E+02  0.41400195172E+02  0.16768216400E+03  0.91161890504E+02 0.  0.
          5    1    1    2  502    0  0.26761345976E+02 -0.13422907397E+02  0.78941584225E+02  0.84558901373E+02  0.47000000000E+01 0. -1.
         -5    1    1    2    0  502 -0.15242771056E+03 -0.34543815415E+02  0.19927643907E+03  0.25329956829E+03  0.47000000000E+01 0.  1.
          5    1    3    3  503    0  0.18752466711E+02 -0.25732993890E+02  0.12764173533E+02  0.34624501560E+02  0.47000000000E+01 0. -1.
         -5    1    3    3    0  503  0.10691389787E+03  0.73699716702E+02  0.28636021639E+02  0.13305766245E+03  0.47000000000E+01 0.  1.
<mgrwt>
<rscale>  0 0.18392813E+03</rscale>
<asrwt>0</asrwt>
<pdfrwt beam="1">  1        2 0.63473757E-01 0.19168484E+03</pdfrwt>
<pdfrwt beam="2">  1       -2 0.14301725E-01 0.19168484E+03</pdfrwt>
<totfact> 0.28178529E+03</totfact>
</mgrwt>
</event>
<event>
 8    1  0.3177960E-004  0.9162687E+02  0.7546771E-02  0.1300277E+00
          2   -1    0    0  501    0  0.00000000000E+00  0.00000000000E+00  0.40855842583E+03  0.40855842583E+03  0.00000000000E+00 0. -1.
         -2   -1    0    0    0  501 -0.00000000000E+00 -0.00000000000E+00 -0.23897787054E+02  0.23897787054E+02  0.00000000000E+00 0.  1.
         23    2    1    2    0    0  0.56557502190E+01 -0.14688321606E+02  0.10370662431E+03  0.13693863177E+03  0.88030623326E+02 0.  0.
         23    2    1    2    0    0 -0.56557502190E+01  0.14688321606E+02  0.28095401447E+03  0.29551758112E+03  0.90264878002E+02 0.  0.
          5    1    3    3  502    0 -0.21343448881E+02 -0.11489562422E+02  0.10638963989E+03  0.10921720711E+03  0.47000000000E+01 0. -1.
         -5    1    3    3    0  502  0.26999199100E+02 -0.31987591841E+01 -0.26830155766E+01  0.27721424656E+02  0.47000000000E+01 0.  1.
          5    1    4    4  503    0 -0.10102247892E+02  0.47621591150E+02  0.98175672193E+02  0.10968328937E+03  0.47000000000E+01 0. -1.
         -5    1    4    4    0  503  0.44464976728E+01 -0.32933269544E+02  0.18277834228E+03  0.18583429175E+03  0.47000000000E+01 0.  1.
<mgrwt>
<rscale>  0 0.91071787E+02</rscale>
<asrwt>0</asrwt>
<pdfrwt beam="1">  1        2 0.62855137E-01 0.91626866E+02</pdfrwt>
<pdfrwt beam="2">  1       -2 0.36765829E-02 0.91626866E+02</pdfrwt>
<totfact> 0.21924530E+04</totfact>
</mgrwt>
</event>
<event>
 8    1  0.3177960E-004  0.1156692E+03  0.7546771E-02  0.1251842E+00
         -4   -1    0    0    0  501 -0.00000000000E+00  0.00000000000E+00  0.41988278853E+03  0.41988278853E+03  0.00000000000E+00 0.  1.
          4   -1    0    0  501    0  0.00000000000E+00 -0.00000000000E+00 -0.47692603622E+02  0.47692603622E+02  0.00000000000E+00 0. -1.
         23    2    1    2    0    0  0.66471864709E+02  0.11262683877E+02  0.45984355664E+02  0.12146902624E+03  0.89971142733E+02 0.  0.
         23    2    1    2    0    0 -0.66471864709E+02 -0.11262683877E+02  0.32620582925E+03  0.34610636591E+03  0.93989449645E+02 0.  0.
          5    1    4    4  502    0 -0.26814770402E+02  0.33573817485E+02  0.64797848809E+02  0.77891490822E+02  0.47000000000E+01 0. -1.
         -5    1    4    4    0  502 -0.39657094307E+02 -0.44836501362E+02  0.26140798044E+03  0.26821487509E+03  0.47000000000E+01 0.  1.
          5    1    3    3  503    0  0.19756661072E+02 -0.23930049426E+02  0.53788616845E+02  0.62275823755E+02  0.47000000000E+01 0. -1.
         -5    1    3    3    0  503  0.46715203637E+02  0.35192733303E+02 -0.78042611813E+01  0.59193202488E+02  0.47000000000E+01 0.  1.
<mgrwt>
<rscale>  0 0.11485040E+03</rscale>
<asrwt>0</asrwt>
<pdfrwt beam="1">  1        4 0.73373239E-02 0.11566924E+03</pdfrwt>
<pdfrwt beam="2">  1       -4 0.64597350E-01 0.11566924E+03</pdfrwt>
<totfact> 0.46487984E+02</totfact>
</mgrwt>
</event>
<event>
 8    1  0.3177960E-004  0.1174146E+03  0.7546771E-02  0.1248639E+00
         -3   -1    0    0    0  501 -0.00000000000E+00  0.00000000000E+00  0.44561904299E+02  0.44561904299E+02  0.00000000000E+00 0.  1.
          3   -1    0    0  501    0  0.00000000000E+00 -0.00000000000E+00 -0.65279123639E+03  0.65279123639E+03  0.00000000000E+00 0. -1.
         23    2    1    2    0    0  0.70513866843E+02  0.84744960989E+01 -0.46802239723E+02  0.12377964226E+03  0.89927346747E+02 0.  0.
         23    2    1    2    0    0 -0.70513866843E+02 -0.84744960989E+01 -0.56142709237E+03  0.57357349843E+03  0.93499494953E+02 0.  0.
          5    1    3    3  502    0  0.17223091398E+02 -0.32873046045E+02 -0.41630535255E+02  0.55968415193E+02  0.47000000000E+01 0. -1.
         -5    1    4    4    0  503 -0.34642174257E+02 -0.48474856614E+02 -0.22274038568E+03  0.23061929966E+03  0.47000000000E+01 0.  1.
          5    1    4    4  503    0 -0.35871692586E+02  0.40000360515E+02 -0.33868670668E+03  0.34295419877E+03  0.47000000000E+01 0. -1.
         -5    1    3    3    0  502  0.53290775445E+02  0.41347542144E+02 -0.51717044686E+01  0.67811227065E+02  0.47000000000E+01 0.  1.
<mgrwt>
<rscale>  0 0.11670205E+03</rscale>
<asrwt>0</asrwt>
<pdfrwt beam="1">  1        3 0.10042942E+00 0.11741456E+03</pdfrwt>
<pdfrwt beam="2">  1       -3 0.68556774E-02 0.11741456E+03</pdfrwt>
<totfact> 0.28165129E+02</totfact>
</mgrwt>
</event>
<event>
 8    1  0.3177960E-004  0.1067088E+03  0.7546771E-02  0.1267513E+00
          1   -1    0    0  501    0  0.00000000000E+00  0.00000000000E+00  0.18685986345E+03  0.18685986345E+03  0.00000000000E+00 0. -1.
         -1   -1    0    0    0  501 -0.00000000000E+00 -0.00000000000E+00 -0.83669748514E+02  0.83669748514E+02  0.00000000000E+00 0.  1.
         23    2    1    2    0    0 -0.42082181556E+02 -0.30801869376E+02 -0.20473934352E+02  0.10719080829E+03  0.91383927647E+02 0.  0.
         23    2    1    2    0    0  0.42082181556E+02  0.30801869376E+02  0.12366404928E+03  0.16333880367E+03  0.93097274602E+02 0.  0.
          5    1    4    4  502    0 -0.26305916976E+02  0.24477731915E+02  0.29691494971E+02  0.46849071509E+02  0.47000000000E+01 0. -1.
         -5    1    3    3    0  503  0.14347690962E+02 -0.37245719417E+02 -0.29008009958E+02  0.49564649626E+02  0.47000000000E+01 0.  1.
          5    1    3    3  503    0 -0.56429872518E+02  0.64438500407E+01  0.85340756065E+01  0.57626158662E+02  0.47000000000E+01 0. -1.
         -5    1    4    4    0  502  0.68388098531E+02  0.63241374608E+01  0.93972554314E+02  0.11648973216E+03  0.47000000000E+01 0.  1.
<mgrwt>
<rscale>  0 0.10633396E+03</rscale>
<asrwt>0</asrwt>
<pdfrwt beam="1">  1        1 0.28747671E-01 0.10670880E+03</pdfrwt>
<pdfrwt beam="2">  1       -1 0.12872269E-01 0.10670880E+03</pdfrwt>
<totfact> 0.61377793E+03</totfact>
</mgrwt>
</event>
<event>
 8    1  0.3177960E-004  0.1120948E+03  0.7546771E-02  0.1258342E+00
          3   -1    0    0  501    0  0.00000000000E+00  0.00000000000E+00  0.13056313768E+04  0.13056313768E+04  0.00000000000E+00 0. -1.
         -3   -1    0    0    0  501 -0.00000000000E+00 -0.00000000000E+00 -0.12564377557E+02  0.12564377557E+02  0.00000000000E+00 0.  1.
         23    2    1    2    0    0 -0.58386933740E+02  0.19690617807E+01  0.31956823049E+03  0.33865780497E+03  0.95667882248E+02 0.  0.
         23    2    1    2    0    0  0.58386933740E+02 -0.19690617807E+01  0.97349876873E+03  0.97953794937E+03  0.91552336322E+02 0.  0.
          5    1    3    3  502    0 -0.18264016777E+02  0.47486606078E+02  0.15436156544E+03  0.16259807794E+03  0.47000000000E+01 0.  1.
         -5    1    4    4    0  503 -0.17894372763E+02  0.21606843138E+02  0.28085018793E+03  0.28228705657E+03  0.47000000000E+01 0.  1.
          5    1    4    4  503    0  0.76281306503E+02 -0.23575904918E+02  0.69264858080E+03  0.69725089279E+03  0.47000000000E+01 0. -1.
         -5    1    3    3    0  502 -0.40122916963E+02 -0.45517544297E+02  0.16520666506E+03  0.17605972703E+03  0.47000000000E+01 0. -1.
<mgrwt>
<rscale>  0 0.11121165E+03</rscale>
<asrwt>0</asrwt>
<pdfrwt beam="1">  1        3 0.20086626E+00 0.11209485E+03</pdfrwt>
<pdfrwt beam="2">  1       -3 0.19329822E-02 0.11209485E+03</pdfrwt>
<totfact> 0.36472240E+02</totfact>
</mgrwt>
</event>
<event>
 8    1  0.3177960E-004  0.1161911E+03  0.7546771E-02  0.1252335E+00
          1   -1    0    0  501    0  0.00000000000E+00  0.00000000000E+00  0.26025352241E+03  0.26025352241E+03  0.00000000000E+00 0. -1.
         -1   -1    0    0    0  501 -0.00000000000E+00 -0.00000000000E+00 -0.61683857649E+02  0.61683857649E+02  0.00000000000E+00 0.  1.
         23    2    1    2    0    0 -0.23236660404E+02  0.60383173913E+02  0.16981408073E+03  0.20224085323E+03  0.88760749329E+02 0.  0.
         23    2    1    2    0    0  0.23236660404E+02 -0.60383173913E+02  0.28755584035E+02  0.11969652684E+03  0.96510646278E+02 0.  0.
          5    1    3    3  502    0  0.26315800016E+02  0.48168919733E+02  0.62479943061E+02  0.83298255946E+02  0.47000000000E+01 0. -1.
         -5    1    3    3    0  502 -0.49552460420E+02  0.12214254179E+02  0.10733413767E+03  0.11894259728E+03  0.47000000000E+01 0.  1.
          5    1    4    4  503    0 -0.32481001363E+02 -0.99275022427E+01 -0.89980533143E+01  0.35448916962E+02  0.47000000000E+01 0. -1.
         -5    1    4    4    0  503  0.55717661767E+02 -0.50455671670E+02  0.37753637350E+02  0.84247609875E+02  0.47000000000E+01 0.  1.
<mgrwt>
<rscale>  0 0.11456937E+03</rscale>
<asrwt>0</asrwt>
<pdfrwt beam="1">  1        1 0.40039003E-01 0.11619111E+03</pdfrwt>
<pdfrwt beam="2">  1       -1 0.94898244E-02 0.11619111E+03</pdfrwt>
<totfact> 0.65397384E+03</totfact>
</mgrwt>
</event>
<event>
 8    1  0.3177960E-004  0.3195517E+03  0.7546771E-02  0.1075856E+00
         -1   -1    0    0    0  501 -0.00000000000E+00  0.00000000000E+00  0.74154173226E+02  0.74154173226E+02  0.00000000000E+00 0.  1.
          1   -1    0    0  501    0  0.00000000000E+00 -0.00000000000E+00 -0.15996112444E+04  0.15996112444E+04  0.00000000000E+00 0. -1.
         23    2    1    2    0    0  0.19986786613E+02  0.30585986605E+03 -0.10749205440E+04  0.11214131585E+04  0.90352458292E+02 0.  0.
         23    2    1    2    0    0 -0.19986786613E+02 -0.30585986605E+03 -0.45053652709E+03  0.55235225910E+03  0.90333419030E+02 0.  0.
          5    1    4    4  502    0  0.59310739222E+01 -0.16238022586E+03 -0.30871771825E+03  0.34890003576E+03  0.47000000000E+01 0. -1.
         -5    1    3    3    0  503 -0.33106552735E+02  0.14962265124E+03 -0.56542590503E+03  0.58584257756E+03  0.47000000000E+01 0.  1.
          5    1    3    3  503    0  0.53093339348E+02  0.15623721480E+03 -0.50949463902E+03  0.53557058093E+03  0.47000000000E+01 0. -1.
         -5    1    4    4    0  502 -0.25917860535E+02 -0.14347964019E+03 -0.14181880883E+03  0.20345222334E+03  0.47000000000E+01 0.  1.
<mgrwt>
<rscale>  0 0.31955037E+03</rscale>
<asrwt>0</asrwt>
<pdfrwt beam="1">  1        1 0.24609403E+00 0.31955171E+03</pdfrwt>
<pdfrwt beam="2">  1       -1 0.11408335E-01 0.31955171E+03</pdfrwt>
<totfact> 0.30376958E+02</totfact>
</mgrwt>
</event>
<event>
 8    1  0.3177960E-004  0.1040260E+03  0.7546771E-02  0.1272085E+00
         -1   -1    0    0    0  501 -0.00000000000E+00  0.00000000000E+00  0.11512247545E+02  0.11512247545E+02  0.00000000000E+00 0.  1.
          1   -1    0    0  501    0  0.00000000000E+00 -0.00000000000E+00 -0.10140425477E+04  0.10140425477E+04  0.00000000000E+00 0. -1.
         23    2    1    2    0    0  0.48296694909E+02 -0.13346405402E+02 -0.36226407924E+03  0.37690406667E+03  0.91163123533E+02 0.  0.
         23    2    1    2    0    0 -0.48296694909E+02  0.13346405402E+02 -0.64026622087E+03  0.64865072853E+03  0.91083679947E+02 0.  0.
          5    1    3    3  502    0  0.43765698148E+02 -0.44663280478E+02 -0.30434055301E+03  0.31073382044E+03  0.47000000000E+01 0. -1.
         -5    1    3    3    0  502  0.45309967607E+01  0.31316875075E+02 -0.57923526227E+02  0.66170246234E+02  0.47000000000E+01 0.  1.
          5    1    4    4  503    0 -0.41341133167E+02 -0.31351756218E+02 -0.22762118229E+03  0.23350699033E+03  0.47000000000E+01 0. -1.
         -5    1    4    4    0  503 -0.69555617414E+01  0.44698161620E+02 -0.41264503859E+03  0.41514373819E+03  0.47000000000E+01 0.  1.
<mgrwt>
<rscale>  0 0.10400861E+03</rscale>
<asrwt>0</asrwt>
<pdfrwt beam="1">  1        1 0.15600658E+00 0.10402602E+03</pdfrwt>
<pdfrwt beam="2">  1       -1 0.17711146E-02 0.10402602E+03</pdfrwt>
<totfact> 0.12080178E+04</totfact>
</mgrwt>
</event>
<event>
 8    1  0.3177960E-004  0.9772793E+02  0.7546771E-02  0.1286859E+00
          1   -1    0    0  501    0  0.00000000000E+00  0.00000000000E+00  0.74919299601E+03  0.74919299601E+03  0.00000000000E+00 0. -1.
         -1   -1    0    0    0  501 -0.00000000000E+00 -0.00000000000E+00 -0.12388333555E+02  0.12388333555E+02  0.00000000000E+00 0.  1.
         23    2    1    2    0    0 -0.15673516457E+02  0.30772691528E+02  0.34036741900E+03  0.35327600674E+03  0.88098463995E+02 0.  0.
         23    2    1    2    0    0  0.15673516457E+02 -0.30772691528E+02  0.39643724346E+03  0.40830532283E+03  0.91422814378E+02 0.  0.
          5    1    3    3  502    0  0.18811896916E+02  0.29397025508E+02  0.51939221921E+02  0.62752253729E+02  0.47000000000E+01 0. -1.
         -5    1    3    3    0  502 -0.34485413373E+02  0.13756660198E+01  0.28842819708E+03  0.29052375301E+03  0.47000000000E+01 0.  1.
          5    1    4    4  503    0  0.53351634368E+02 -0.16015253755E+02  0.25866187942E+03  0.26463360162E+03  0.47000000000E+01 0. -1.
         -5    1    4    4    0  503 -0.37678117912E+02 -0.14757437773E+02  0.13777536404E+03  0.14367172121E+03  0.47000000000E+01 0.  1.
<mgrwt>
<rscale>  0 0.96942878E+02</rscale>
<asrwt>0</asrwt>
<pdfrwt beam="1">  1        1 0.11526043E+00 0.97727932E+02</pdfrwt>
<pdfrwt beam="2">  1       -1 0.19058980E-02 0.97727932E+02</pdfrwt>
<totfact> 0.17324894E+04</totfact>
</mgrwt>
</event>
<event>
 8    1  0.3177960E-004  0.1102236E+03  0.7546771E-02  0.1264541E+00
          1   -1    0    0  501    0  0.00000000000E+00  0.00000000000E+00  0.52104737639E+03  0.52104737639E+03  0.00000000000E+00 0. -1.
         -1   -1    0    0    0  501 -0.00000000000E+00 -0.00000000000E+00 -0.23351143547E+02  0.23351143547E+02  0.00000000000E+00 0.  1.
         23    2    1    2    0    0 -0.42051028687E+02  0.20199549528E+02  0.33649685577E+03  0.35408951722E+03  0.99864615591E+02 0.  0.
         23    2    1    2    0    0  0.42051028687E+02 -0.20199549528E+02  0.16119937707E+03  0.19030900272E+03  0.89755036249E+02 0.  0.
          5    1    3    3  502    0  0.26493902823E+02  0.19889264813E+02  0.18133521272E+03  0.18439647262E+03  0.47000000000E+01 0. -1.
         -5    1    3    3    0  502 -0.68544931510E+02  0.31028471435E+00  0.15516164305E+03  0.16969304460E+03  0.47000000000E+01 0.  1.
          5    1    4    4  503    0  0.45857996124E+02 -0.51464903786E+02  0.11601709353E+03  0.13503202628E+03  0.47000000000E+01 0. -1.
         -5    1    4    4    0  503 -0.38069674366E+01  0.31265354258E+02  0.45182283542E+02  0.55276976437E+02  0.47000000000E+01 0.  1.
<mgrwt>
<rscale>  0 0.10788290E+03</rscale>
<asrwt>0</asrwt>
<pdfrwt beam="1">  1        1 0.80161126E-01 0.11022365E+03</pdfrwt>
<pdfrwt beam="2">  1       -1 0.35924840E-02 0.11022365E+03</pdfrwt>
<totfact> 0.11533675E+04</totfact>
</mgrwt>
</event>
<event>
 7    1  0.3177960E-004  0.1429604E+03  0.7546771E-02  0.1222016E+00
          2   -1    0    0  501    0  0.00000000000E+00  0.00000000000E+00  0.80492009528E+02  0.80492009528E+02  0.00000000000E+00 0. -1.
         -2   -1    0    0    0  501 -0.00000000000E+00 -0.00000000000E+00 -0.20258194309E+03  0.20258194309E+03  0.00000000000E+00 0.  1.
         23    2    1    2    0    0 -0.16906380512E+02  0.54449521168E+02 -0.74404890010E+02  0.13237043819E+03  0.93462662023E+02 0.  0.
          5    1    1    2  502    0 -0.13449805343E+01 -0.65032912141E+02  0.28749037416E+02  0.71271914430E+02  0.47000000000E+01 0. -1.
         -5    1    3    3    0  503 -0.30058255260E+00  0.68669745223E+02 -0.17196278499E+02  0.70946643706E+02  0.47000000000E+01 0.  1.
          5    1    3    3  503    0 -0.16605797960E+02 -0.14220224056E+02 -0.57208611511E+02  0.61423794486E+02  0.47000000000E+01 0. -1.
         -5    1    1    2    0  502  0.18251361047E+02  0.10583390973E+02 -0.76434080966E+02  0.79431599995E+02  0.47000000000E+01 0.  1.
<mgrwt>
<rscale>  0 0.13373512E+03</rscale>
<asrwt>0</asrwt>
<pdfrwt beam="1">  1        2 0.12383386E-01 0.14296043E+03</pdfrwt>
<pdfrwt beam="2">  1       -2 0.31166453E-01 0.14296043E+03</pdfrwt>
<totfact> 0.44857561E+03</totfact>
</mgrwt>
</event>
<event>
 8    1  0.3177960E-004  0.1143053E+03  0.7546771E-02  0.1255661E+00
         -2   -1    0    0    0  501 -0.00000000000E+00  0.00000000000E+00  0.20996727086E+03  0.20996727086E+03  0.00000000000E+00 0.  1.
          2   -1    0    0  501    0  0.00000000000E+00 -0.00000000000E+00 -0.59668476741E+02  0.59668476741E+02  0.00000000000E+00 0. -1.
         23    2    1    2    0    0  0.33283184752E+02 -0.48415553398E+02  0.88930783471E+02  0.13989853288E+03  0.90615004586E+02 0.  0.
         23    2    1    2    0    0 -0.33283184752E+02  0.48415553398E+02  0.61368010645E+02  0.12973721471E+03  0.98050374571E+02 0.  0.
          5    1    3    3  502    0 -0.77324168887E+01  0.21616821202E+02  0.69481349634E+01  0.24442663711E+02  0.47000000000E+01 0. -1.
         -5    1    4    4    0  503  0.24425478211E+02  0.40983791462E+02  0.51805328434E+02  0.70584397728E+02  0.47000000000E+01 0.  1.
          5    1    4    4  503    0 -0.57708662963E+02  0.74317619357E+01  0.95626822109E+01  0.59152816987E+02  0.47000000000E+01 0. -1.
         -5    1    3    3    0  502  0.41015601641E+02 -0.70032374600E+02  0.81982648508E+02  0.11545586917E+03  0.47000000000E+01 0.  1.
<mgrwt>
<rscale>  0 0.11269400E+03</rscale>
<asrwt>0</asrwt>
<pdfrwt beam="1">  1        2 0.91797657E-02 0.11430535E+03</pdfrwt>
<pdfrwt beam="2">  1       -2 0.32302657E-01 0.11430535E+03</pdfrwt>
<totfact> 0.59531208E+03</totfact>
</mgrwt>
</event>
<event>
 8    1  0.3177960E-004  0.1018324E+03  0.7546771E-02  0.1276866E+00
         -1   -1    0    0    0  501 -0.00000000000E+00  0.00000000000E+00  0.80311024466E+02  0.80311024466E+02  0.00000000000E+00 0.  1.
          1   -1    0    0  501    0  0.00000000000E+00 -0.00000000000E+00 -0.17829184634E+03  0.17829184634E+03  0.00000000000E+00 0. -1.
         23    2    1    2    0    0 -0.32665453661E+02  0.32438978694E+02  0.19675003634E+02  0.10299849083E+03  0.90012577703E+02 0.  0.
         23    2    1    2    0    0  0.32665453661E+02 -0.32438978694E+02 -0.11765582551E+03  0.15560437997E+03  0.90832321280E+02 0.  0.
          5    1    3    3  502    0 -0.62480925876E+02  0.15625094408E+02  0.22373819215E+02  0.68342427963E+02  0.47000000000E+01 0. -1.
         -5    1    3    3    0  502  0.29815472215E+02  0.16813884286E+02 -0.26988155815E+01  0.34656062872E+02  0.47000000000E+01 0.  1.
          5    1    4    4  503    0 -0.85315382519E+01 -0.54002187164E+02 -0.58391968950E+02  0.80129491458E+02  0.47000000000E+01 0. -1.
         -5    1    4    4    0  503  0.41196991913E+02  0.21563208470E+02 -0.59263856560E+02  0.75474888517E+02  0.47000000000E+01 0.  1.
<mgrwt>
<rscale>  0 0.10164924E+03</rscale>
<asrwt>0</asrwt>
<pdfrwt beam="1">  1        1 0.27429515E-01 0.10183236E+03</pdfrwt>
<pdfrwt beam="2">  1       -1 0.12355542E-01 0.10183236E+03</pdfrwt>
<totfact> 0.69030245E+03</totfact>
</mgrwt>
</event>
<event>
 8    1  0.3177960E-004  0.1127074E+03  0.7546771E-02  0.1256761E+00
         -1   -1    0    0    0  501 -0.00000000000E+00  0.00000000000E+00  0.78178331344E+02  0.78178331344E+02  0.00000000000E+00 0.  1.
          1   -1    0    0  501    0  0.00000000000E+00 -0.00000000000E+00 -0.19246430353E+03  0.19246430353E+03  0.00000000000E+00 0. -1.
         23    2    1    2    0    0 -0.45098946867E+02 -0.44652531745E+02 -0.13808054517E+00  0.11022851039E+03  0.90125145415E+02 0.  0.
         23    2    1    2    0    0  0.45098946867E+02  0.44652531745E+02 -0.11414789164E+03  0.16041412449E+03  0.93140681604E+02 0.  0.
          5    1    4    4  502    0  0.68614239634E+02  0.51065680639E+02 -0.73927239433E+02  0.11315009655E+03  0.47000000000E+01 0. -1.
         -5    1    3    3    0  503 -0.69321299246E+02 -0.31086799290E+02  0.15990049177E+02  0.77779195753E+02  0.47000000000E+01 0.  1.
          5    1    3    3  503    0  0.24222352380E+02 -0.13565732455E+02 -0.16128129723E+02  0.32449314634E+02  0.47000000000E+01 0. -1.
         -5    1    4    4    0  502 -0.23515292768E+02 -0.64131488937E+01 -0.40220652210E+02  0.47264027937E+02  0.47000000000E+01 0.  1.
<mgrwt>
<rscale>  0 0.11208245E+03</rscale>
<asrwt>0</asrwt>
<pdfrwt beam="1">  1        1 0.29609892E-01 0.11270737E+03</pdfrwt>
<pdfrwt beam="2">  1       -1 0.12027436E-01 0.11270737E+03</pdfrwt>
<totfact> 0.65946978E+03</totfact>
</mgrwt>
</event>
<event>
 8    1  0.3177960E-004  0.9885568E+02  0.7546771E-02  0.1285061E+00
         -1   -1    0    0    0  501 -0.00000000000E+00  0.00000000000E+00  0.16254084907E+02  0.16254084907E+02  0.00000000000E+00 0.  1.
          1   -1    0    0  501    0  0.00000000000E+00 -0.00000000000E+00 -0.57839285017E+03  0.57839285017E+03  0.00000000000E+00 0. -1.
         23    2    1    2    0    0  0.23334813040E+02  0.97469576777E+01 -0.25377969115E+03  0.27082944882E+03  0.91131454638E+02 0.  0.
         23    2    1    2    0    0 -0.23334813040E+02 -0.97469576777E+01 -0.30835907411E+03  0.32381748626E+03  0.95566359846E+02 0.  0.
          5    1    3    3  502    0  0.53061769833E+02  0.24427402085E+02 -0.18944070494E+03  0.19829805869E+03  0.47000000000E+01 0. -1.
         -5    1    3    3    0  502 -0.29726956794E+02 -0.14680444407E+02 -0.64338986202E+02  0.72531390127E+02  0.47000000000E+01 0.  1.
          5    1    4    4  503    0 -0.16955731830E+02  0.38785060419E+02 -0.20472988829E+03  0.20911287601E+03  0.47000000000E+01 0. -1.
         -5    1    4    4    0  503 -0.63790812098E+01 -0.48532018097E+02 -0.10362918582E+03  0.11470461025E+03  0.47000000000E+01 0.  1.
<mgrwt>
<rscale>  0 0.97767719E+02</rscale>
<asrwt>0</asrwt>
<pdfrwt beam="1">  1        1 0.88983510E-01 0.98855682E+02</pdfrwt>
<pdfrwt beam="2">  1       -1 0.25006286E-02 0.98855682E+02</pdfrwt>
<totfact> 0.16814835E+04</totfact>
</mgrwt>
</event>
<event>
 8    1  0.3177960E-004  0.9624043E+02  0.7546771E-02  0.1289154E+00
         -1   -1    0    0    0  501 -0.00000000000E+00  0.00000000000E+00  0.12524467928E+03  0.12524467928E+03  0.00000000000E+00 0.  1.
          1   -1    0    0  501    0  0.00000000000E+00 -0.00000000000E+00 -0.72930390803E+02  0.72930390803E+02  0.00000000000E+00 0. -1.
         23    2    1    2    0    0  0.12745901392E+01  0.27676460304E+02  0.26745248264E+02  0.98595977971E+02  0.90764792361E+02 0.  0.
         23    2    1    2    0    0 -0.12745901392E+01 -0.27676460304E+02  0.25569040209E+02  0.99579092109E+02  0.92166201685E+02 0.  0.
          5    1    3    3  502    0  0.24240309935E+02  0.42613525648E+02 -0.12209295107E+02  0.50741128101E+02  0.47000000000E+01 0. -1.
         -5    1    3    3    0  502 -0.22965719796E+02 -0.14937065344E+02  0.38954543372E+02  0.47854849870E+02  0.47000000000E+01 0.  1.
          5    1    4    4  503    0  0.45152321881E+02 -0.11251013935E+02  0.12484200259E+02  0.48407259186E+02  0.47000000000E+01 0. -1.
         -5    1    4    4    0  503 -0.46426912020E+02 -0.16425446369E+02  0.13084839951E+02  0.51171832923E+02  0.47000000000E+01 0.  1.
<mgrwt>
<rscale>  0 0.95903354E+02</rscale>
<asrwt>0</asrwt>
<pdfrwt beam="1">  1        1 0.11220060E-01 0.96240427E+02</pdfrwt>
<pdfrwt beam="2">  1       -1 0.19268412E-01 0.96240427E+02</pdfrwt>
<totfact> 0.10696484E+04</totfact>
</mgrwt>
</event>
<event>
 8    1  0.3177960E-004  0.9636499E+02  0.7546771E-02  0.1289251E+00
          2   -1    0    0  501    0  0.00000000000E+00  0.00000000000E+00  0.94345094047E+03  0.94345094047E+03  0.00000000000E+00 0. -1.
         -2   -1    0    0    0  501 -0.00000000000E+00 -0.00000000000E+00 -0.10272709784E+02  0.10272709784E+02  0.00000000000E+00 0.  1.
         23    2    1    2    0    0 -0.32385390268E+02  0.23072527135E+01  0.58041387257E+03  0.58803402350E+03  0.88598038379E+02 0.  0.
         23    2    1    2    0    0  0.32385390268E+02 -0.23072527135E+01  0.35276435812E+03  0.36568962675E+03  0.90730776699E+02 0.  0.
          5    1    4    4  502    0 -0.21161714862E+02  0.10215034828E+02  0.22808395645E+03  0.22933936928E+03  0.47000000000E+01 0. -1.
         -5    1    3    3    0  503 -0.32449145435E+02 -0.38534884730E+02  0.24969437996E+03  0.25476902827E+03  0.47000000000E+01 0.  1.
          5    1    3    3  503    0  0.63755166973E-01  0.40842137443E+02  0.33071949261E+03  0.33326499523E+03  0.47000000000E+01 0. -1.
         -5    1    4    4    0  502  0.53547105131E+02 -0.12522287541E+02  0.12468040166E+03  0.13635025747E+03  0.47000000000E+01 0.  1.
<mgrwt>
<rscale>  0 0.95859700E+02</rscale>
<asrwt>0</asrwt>
<pdfrwt beam="1">  1        2 0.14514623E+00 0.96364987E+02</pdfrwt>
<pdfrwt beam="2">  1       -2 0.15804176E-02 0.96364987E+02</pdfrwt>
<totfact> 0.28579961E+04</totfact>
</mgrwt>
</event>
<event>
 8    1  0.3177960E-004  0.1013603E+03  0.7546771E-02  0.1284630E+00
         -2   -1    0    0    0  501 -0.00000000000E+00  0.00000000000E+00  0.89068966861E+01  0.89068966861E+01  0.00000000000E+00 0.  1.
          2   -1    0    0  501    0  0.00000000000E+00 -0.00000000000E+00 -0.10844437818E+04  0.10844437818E+04  0.00000000000E+00 0. -1.
         23    2    1    2    0    0 -0.35540440877E+02  0.20249666537E+02 -0.71355390323E+03  0.72071705993E+03  0.92740151638E+02 0.  0.
         23    2    1    2    0    0  0.35540440877E+02 -0.20249666537E+02 -0.36198298190E+03  0.37263361858E+03  0.78428072608E+02 0.  0.
          5    1    4    4  502    0  0.51668672613E+02 -0.37656809823E+02 -0.25267482013E+03  0.26068053587E+03  0.47000000000E+01 0. -1.
         -5    1    4    4    0  502 -0.16128231737E+02  0.17407143286E+02 -0.10930816177E+03  0.11195308270E+03  0.47000000000E+01 0.  1.
          5    1    3    3  503    0  0.29476480991E+02  0.11080183021E+02 -0.15069296161E+03  0.15401977816E+03  0.47000000000E+01 0. -1.
         -5    1    3    3    0  503 -0.65016921868E+02  0.91694835163E+01 -0.56286094162E+03  0.56669728176E+03  0.47000000000E+01 0.  1.
<mgrwt>
<rscale>  0 0.97967136E+02</rscale>
<asrwt>0</asrwt>
<pdfrwt beam="1">  1        2 0.16683741E+00 0.10136029E+03</pdfrwt>
<pdfrwt beam="2">  1       -2 0.13702925E-02 0.10136029E+03</pdfrwt>
<totfact> 0.29113732E+04</totfact>
</mgrwt>
</event>
<event>
 7    1  0.3177960E-004  0.1150748E+03  0.7546771E-02  0.1265372E+00
          1   -1    0    0  501    0  0.00000000000E+00  0.00000000000E+00  0.34764078241E+02  0.34764078241E+02  0.00000000000E+00 0. -1.
         -1   -1    0    0    0  501 -0.00000000000E+00 -0.00000000000E+00 -0.30553857354E+03  0.30553857354E+03  0.00000000000E+00 0.  1.
         23    2    1    2    0    0 -0.32327167527E+02 -0.67026578125E+02 -0.12190136788E+03  0.16763697804E+03  0.87775879268E+02 0.  0.
          5    1    1    2  502    0  0.41558750249E+00  0.51182902391E+02 -0.92185611463E+02  0.10554685770E+03  0.47000000000E+01 0. -1.
         -5    1    1    2    0  502  0.31911580025E+02  0.15843675734E+02 -0.56687515961E+02  0.67118816038E+02  0.47000000000E+01 0.  1.
          5    1    3    3  503    0 -0.48171285992E+02 -0.23268839941E+02 -0.23371430284E+02  0.58568126654E+02  0.47000000000E+01 0. -1.
         -5    1    3    3    0  503  0.15844118464E+02 -0.43757738184E+02 -0.98529937594E+02  0.10906885139E+03  0.47000000000E+01 0.  1.
<mgrwt>
<rscale>  0 0.10744705E+03</rscale>
<asrwt>0</asrwt>
<pdfrwt beam="1">  1        1 0.53483197E-02 0.11507481E+03</pdfrwt>
<pdfrwt beam="2">  1       -1 0.47005935E-01 0.11507481E+03</pdfrwt>
<totfact> 0.65381980E+03</totfact>
</mgrwt>
</event>
<event>
 8    1  0.3177960E-004  0.9377465E+02  0.7546771E-02  0.1294821E+00
          2   -1    0    0  501    0  0.00000000000E+00  0.00000000000E+00  0.87160946139E+03  0.87160946139E+03  0.00000000000E+00 0. -1.
         -2   -1    0    0    0  501 -0.00000000000E+00 -0.00000000000E+00 -0.11339626922E+02  0.11339626922E+02  0.00000000000E+00 0.  1.
         23    2    1    2    0    0 -0.17249028029E+02 -0.80174099166E+01  0.27143417921E+03  0.28669317559E+03  0.90303130936E+02 0.  0.
         23    2    1    2    0    0  0.17249028029E+02  0.80174099166E+01  0.58883565526E+03  0.59625591272E+03  0.91825251015E+02 0.  0.
          5    1    3    3  502    0  0.34170500538E+02 -0.15241567181E+02  0.82730022092E+02  0.90919057587E+02  0.47000000000E+01 0. -1.
         -5    1    3    3    0  502 -0.51419528567E+02  0.72241572648E+01  0.18870415712E+03  0.19577411800E+03  0.47000000000E+01 0.  1.
          5    1    4    4  503    0  0.48391452222E+02 -0.17538260432E+02  0.38203572917E+03  0.38551616255E+03  0.47000000000E+01 0. -1.
         -5    1    4    4    0  503 -0.31142424193E+02  0.25555670349E+02  0.20679992609E+03  0.21073975017E+03  0.47000000000E+01 0.  1.
<mgrwt>
<rscale>  0 0.93399917E+02</rscale>
<asrwt>0</asrwt>
<pdfrwt beam="1">  1        2 0.13409371E+00 0.93774648E+02</pdfrwt>
<pdfrwt beam="2">  1       -2 0.17445587E-02 0.93774648E+02</pdfrwt>
<totfact> 0.27408598E+04</totfact>
</mgrwt>
</event>
<event>
 8    1  0.3177960E-004  0.9874136E+02  0.7546771E-02  0.1284144E+00
          1   -1    0    0  501    0  0.00000000000E+00  0.00000000000E+00  0.10684182644E+04  0.10684182644E+04  0.00000000000E+00 0. -1.
         -1   -1    0    0    0  501 -0.00000000000E+00 -0.00000000000E+00 -0.12582282657E+02  0.12582282657E+02  0.00000000000E+00 0.  1.
         23    2    1    2    0    0  0.19667875626E+02  0.29519126680E+02  0.81511957776E+03  0.82081937198E+03  0.89812644969E+02 0.  0.
         23    2    1    2    0    0 -0.19667875626E+02 -0.29519126680E+02  0.24071640403E+03  0.26018117513E+03  0.92150163045E+02 0.  0.
          5    1    4    4  502    0  0.29994519964E+02 -0.13343267892E+02  0.16357271485E+03  0.16690068026E+03  0.47000000000E+01 0. -1.
         -5    1    3    3    0  503 -0.22293442159E+02  0.45364967312E+02  0.38207265652E+03  0.38543038630E+03  0.47000000000E+01 0.  1.
          5    1    3    3  503    0  0.41961317785E+02 -0.15845840632E+02  0.43304692124E+03  0.43538898568E+03  0.47000000000E+01 0. -1.
         -5    1    4    4    0  502 -0.49662395590E+02 -0.16175858788E+02  0.77143689182E+02  0.93280494873E+02  0.47000000000E+01 0.  1.
<mgrwt>
<rscale>  0 0.98192343E+02</rscale>
<asrwt>0</asrwt>
<pdfrwt beam="1">  1        1 0.16437197E+00 0.98741363E+02</pdfrwt>
<pdfrwt beam="2">  1       -1 0.19357366E-02 0.98741363E+02</pdfrwt>
<totfact> 0.96989808E+03</totfact>
</mgrwt>
</event>
<event>
 8    1  0.3177960E-004  0.9368435E+02  0.7546771E-02  0.1294518E+00
         -1   -1    0    0    0  501 -0.00000000000E+00  0.00000000000E+00  0.12057745508E+03  0.12057745508E+03  0.00000000000E+00 0.  1.
          1   -1    0    0  501    0  0.00000000000E+00 -0.00000000000E+00 -0.72348634002E+02  0.72348634002E+02  0.00000000000E+00 0. -1.
         23    2    1    2    0    0  0.25110543044E+02 -0.34591995694E+01  0.22148083482E+02  0.96266789352E+02  0.90190086465E+02 0.  0.
         23    2    1    2    0    0 -0.25110543044E+02  0.34591995694E+01  0.26080737600E+02  0.96659299734E+02  0.89556183024E+02 0.  0.
          5    1    4    4  502    0 -0.23149410897E+02  0.39338071747E+02  0.36854241784E+02  0.58853243336E+02  0.47000000000E+01 0. -1.
         -5    1    4    4    0  502 -0.19611321474E+01 -0.35878872177E+02 -0.10773504185E+02  0.37806056399E+02  0.47000000000E+01 0.  1.
          5    1    3    3  503    0 -0.17657906236E+02 -0.21456702086E+02 -0.19066843573E+02  0.34026845885E+02  0.47000000000E+01 0. -1.
         -5    1    3    3    0  503  0.42768449280E+02  0.17997502516E+02  0.41214927055E+02  0.62239943467E+02  0.47000000000E+01 0.  1.
<mgrwt>
<rscale>  0 0.93531449E+02</rscale>
<asrwt>0</asrwt>
<pdfrwt beam="1">  1        1 0.11130559E-01 0.93684348E+02</pdfrwt>
<pdfrwt beam="2">  1       -1 0.18550378E-01 0.93684348E+02</pdfrwt>
<totfact> 0.11448629E+04</totfact>
</mgrwt>
</event>
<event>
 7    1  0.3177960E-004  0.1251469E+03  0.7546771E-02  0.1247052E+00
          1   -1    0    0  501    0  0.00000000000E+00  0.00000000000E+00  0.23962685569E+02  0.23962685569E+02  0.00000000000E+00 0. -1.
         -1   -1    0    0    0  501 -0.00000000000E+00 -0.00000000000E+00 -0.53131289536E+03  0.53131289536E+03  0.00000000000E+00 0.  1.
         23    2    1    2    0    0  0.15524119785E+02  0.85850271553E+02 -0.24066014066E+03  0.27125459647E+03  0.89724497102E+02 0.  0.
          5    1    3    3  502    0 -0.33521656363E+02  0.46460678252E+02 -0.78815356629E+02  0.97551250682E+02  0.47000000000E+01 0. -1.
         -5    1    1    2    0  503 -0.18813470038E+02 -0.28324003561E+02 -0.14894184647E+03  0.15284619544E+03  0.47000000000E+01 0.  1.
          5    1    1    2  503    0  0.32893502534E+01 -0.57526267993E+02 -0.11774822266E+03  0.13117478902E+03  0.47000000000E+01 0. -1.
         -5    1    3    3    0  502  0.49045776148E+02  0.39389593302E+02 -0.16184478403E+03  0.17370334579E+03  0.47000000000E+01 0.  1.
<mgrwt>
<rscale>  0 0.11763412E+03</rscale>
<asrwt>0</asrwt>
<pdfrwt beam="1">  1        1 0.36865670E-02 0.12514692E+03</pdfrwt>
<pdfrwt beam="2">  1       -1 0.81740446E-01 0.12514692E+03</pdfrwt>
<totfact> 0.37946071E+03</totfact>
</mgrwt>
</event>
<event>
 8    1  0.3177960E-004  0.9609396E+02  0.7546771E-02  0.1289774E+00
          4   -1    0    0  501    0  0.00000000000E+00  0.00000000000E+00  0.63538068941E+02  0.63538068941E+02  0.00000000000E+00 0. -1.
         -4   -1    0    0    0  501 -0.00000000000E+00 -0.00000000000E+00 -0.15985736691E+03  0.15985736691E+03  0.00000000000E+00 0.  1.
         23    2    1    2    0    0 -0.21950613513E+02 -0.50097718040E+00 -0.11806032610E+02  0.96816483551E+02  0.93551957059E+02 0.  0.
         23    2    1    2    0    0  0.21950613513E+02  0.50097718040E+00 -0.84513265361E+02  0.12657895230E+03  0.91638740345E+02 0.  0.
          5    1    4    4  502    0  0.24727870575E+02  0.38535214132E+02 -0.17325965495E+02  0.49180376084E+02  0.47000000000E+01 0. -1.
         -5    1    3    3    0  503 -0.58574918794E+02  0.30878274557E+01 -0.98796709343E+01  0.59667861432E+02  0.47000000000E+01 0.  1.
          5    1    3    3  503    0  0.36624305281E+02 -0.35888046361E+01 -0.19263616759E+01  0.37148622119E+02  0.47000000000E+01 0. -1.
         -5    1    4    4    0  502 -0.27772570623E+01 -0.38034236952E+02 -0.67187299865E+02  0.77398576217E+02  0.47000000000E+01 0.  1.
<mgrwt>
<rscale>  0 0.95625142E+02</rscale>
<asrwt>0</asrwt>
<pdfrwt beam="1">  1        4 0.97750876E-02 0.96093960E+02</pdfrwt>
<pdfrwt beam="2">  1       -4 0.24593441E-01 0.96093960E+02</pdfrwt>
<totfact> 0.18427390E+03</totfact>
</mgrwt>
</event>
<event>
 8    1  0.3177960E-004  0.2254269E+03  0.7546771E-02  0.1130008E+00
         -1   -1    0    0    0  501 -0.00000000000E+00  0.00000000000E+00  0.35262398409E+02  0.35262398409E+02  0.00000000000E+00 0.  1.
          1   -1    0    0  501    0  0.00000000000E+00 -0.00000000000E+00 -0.14554253895E+04  0.14554253895E+04  0.00000000000E+00 0. -1.
         23    2    1    2    0    0  0.18285062226E+03 -0.94790982943E+02 -0.62604451269E+03  0.66519311559E+03  0.90169111392E+02 0.  0.
         23    2    1    2    0    0 -0.18285062226E+03  0.94790982943E+02 -0.79411847844E+03  0.82549467236E+03  0.91638506003E+02 0.  0.
          5    1    4    4  502    0 -0.77055131636E+02  0.80242501807E+02 -0.50800402347E+03  0.52006396748E+03  0.47000000000E+01 0. -1.
         -5    1    4    4    0  502 -0.10579549063E+03  0.14548481137E+02 -0.28611445497E+03  0.30543070488E+03  0.47000000000E+01 0.  1.
          5    1    3    3  503    0  0.16779871412E+03 -0.47748684017E+02 -0.50812020541E+03  0.53725652944E+03  0.47000000000E+01 0. -1.
         -5    1    3    3    0  503  0.15051908149E+02 -0.47042298927E+02 -0.11792430728E+03  0.12793658615E+03  0.47000000000E+01 0.  1.
<mgrwt>
<rscale>  0 0.22527844E+03</rscale>
<asrwt>0</asrwt>
<pdfrwt beam="1">  1        1 0.22391160E+00 0.22542692E+03</pdfrwt>
<pdfrwt beam="2">  1       -1 0.54249844E-02 0.22542692E+03</pdfrwt>
<totfact> 0.11955880E+03</totfact>
</mgrwt>
</event>
<event>
 8    1  0.3177960E-004  0.9604979E+02  0.7546771E-02  0.1289160E+00
         -3   -1    0    0    0  501 -0.00000000000E+00  0.00000000000E+00  0.10859674251E+03  0.10859674251E+03  0.00000000000E+00 0.  1.
          3   -1    0    0  501    0  0.00000000000E+00 -0.00000000000E+00 -0.10412441719E+03  0.10412441719E+03  0.00000000000E+00 0. -1.
         23    2    1    2    0    0 -0.21889504081E+02  0.19766383903E+02  0.48489329115E+02  0.10706577970E+03  0.90785493459E+02 0.  0.
         23    2    1    2    0    0  0.21889504081E+02 -0.19766383903E+02 -0.44017003802E+02  0.10565538000E+03  0.91409531113E+02 0.  0.
          5    1    3    3  502    0  0.35495236652E+02  0.73476015036E+01  0.19041074600E+02  0.41213488020E+02  0.47000000000E+01 0. -1.
         -5    1    3    3    0  502 -0.57384740732E+02  0.12418782400E+02  0.29448254515E+02  0.65852291677E+02  0.47000000000E+01 0.  1.
          5    1    4    4  503    0  0.44042703870E+02 -0.43129587815E+02 -0.37996640438E+02  0.72565527586E+02  0.47000000000E+01 0. -1.
         -5    1    4    4    0  503 -0.22153199789E+02  0.23363203911E+02 -0.60203633640E+01  0.33089852417E+02  0.47000000000E+01 0.  1.
<mgrwt>
<rscale>  0 0.95901023E+02</rscale>
<asrwt>0</asrwt>
<pdfrwt beam="1">  1        3 0.16019141E-01 0.96049793E+02</pdfrwt>
<pdfrwt beam="2">  1       -3 0.16707191E-01 0.96049793E+02</pdfrwt>
<totfact> 0.21884359E+03</totfact>
</mgrwt>
</event>
<event>
 8    1  0.3177960E-004  0.9229958E+02  0.7546771E-02  0.1298491E+00
          3   -1    0    0  501    0  0.00000000000E+00  0.00000000000E+00  0.58793182182E+02  0.58793182182E+02  0.00000000000E+00 0. -1.
         -3   -1    0    0    0  501 -0.00000000000E+00 -0.00000000000E+00 -0.20160878821E+03  0.20160878821E+03  0.00000000000E+00 0.  1.
         23    2    1    2    0    0  0.18649222991E+02 -0.21127260585E+01 -0.14170733202E+03  0.16809573214E+03  0.88447442494E+02 0.  0.
         23    2    1    2    0    0 -0.18649222991E+02  0.21127260585E+01 -0.11082740079E+01  0.92306238258E+02  0.90371213450E+02 0.  0.
          5    1    4    4  502    0  0.11157204405E+01  0.26081630054E+02  0.35338139697E+02  0.44185635399E+02  0.47000000000E+01 0. -1.
         -5    1    4    4    0  502 -0.19764943432E+02 -0.23968903995E+02 -0.36446413704E+02  0.48120602859E+02  0.47000000000E+01 0.  1.
          5    1    3    3  503    0 -0.28694118275E+02  0.15506476051E+02 -0.26758920313E+02  0.42449181846E+02  0.47000000000E+01 0. -1.
         -5    1    3    3    0  503  0.47343341266E+02 -0.17619202109E+02 -0.11494841171E+03  0.12564655029E+03  0.47000000000E+01 0.  1.
<mgrwt>
<rscale>  0 0.91825258E+02</rscale>
<asrwt>0</asrwt>
<pdfrwt beam="1">  1        3 0.90451049E-02 0.92299585E+02</pdfrwt>
<pdfrwt beam="2">  1       -3 0.31016737E-01 0.92299585E+02</pdfrwt>
<totfact> 0.18760307E+03</totfact>
</mgrwt>
</event>
<event>
 8    1  0.3177960E-004  0.1088044E+03  0.7546771E-02  0.1263139E+00
         -2   -1    0    0    0  501 -0.00000000000E+00  0.00000000000E+00  0.49842135578E+02  0.49842135578E+02  0.00000000000E+00 0.  1.
          2   -1    0    0  501    0  0.00000000000E+00 -0.00000000000E+00 -0.24775480888E+03  0.24775480888E+03  0.00000000000E+00 0. -1.
         23    2    1    2    0    0 -0.24622186205E+02 -0.52354808499E+02 -0.13174526809E+03  0.17086609440E+03  0.92147319688E+02 0.  0.
         23    2    1    2    0    0  0.24622186205E+02  0.52354808499E+02 -0.66167405216E+02  0.12673085006E+03  0.91297890541E+02 0.  0.
          5    1    4    4  502    0 -0.21904075894E+02  0.21046765863E+02 -0.63315768500E+02  0.70382749554E+02  0.47000000000E+01 0. -1.
         -5    1    4    4    0  502  0.46526262098E+02  0.31308042636E+02 -0.28516367160E+01  0.56348100505E+02  0.47000000000E+01 0.  1.
          5    1    3    3  503    0 -0.24273967170E+02 -0.20058075147E+02 -0.13440000404E+03  0.13811952413E+03  0.47000000000E+01 0. -1.
         -5    1    3    3    0  503 -0.34821903482E+00 -0.32296733352E+02  0.26547359464E+01  0.32746570273E+02  0.47000000000E+01 0.  1.
<mgrwt>
<rscale>  0 0.10862438E+03</rscale>
<asrwt>0</asrwt>
<pdfrwt beam="1">  1        2 0.38116124E-01 0.10880444E+03</pdfrwt>
<pdfrwt beam="2">  1       -2 0.76680209E-02 0.10880444E+03</pdfrwt>
<totfact> 0.12560718E+04</totfact>
</mgrwt>
</event>
<event>
 8    1  0.3177960E-004  0.9577082E+02  0.7546771E-02  0.1289980E+00
          1   -1    0    0  501    0  0.00000000000E+00  0.00000000000E+00  0.35257135463E+02  0.35257135463E+02  0.00000000000E+00 0. -1.
         -1   -1    0    0    0  501 -0.00000000000E+00 -0.00000000000E+00 -0.25761600365E+03  0.25761600365E+03  0.00000000000E+00 0.  1.
         23    2    1    2    0    0  0.26431668985E+02 -0.11222974726E+02 -0.10995610387E+03  0.14581630663E+03  0.91364447213E+02 0.  0.
         23    2    1    2    0    0 -0.26431668985E+02  0.11222974726E+02 -0.11240276431E+03  0.14705683248E+03  0.90370029689E+02 0.  0.
          5    1    3    3  502    0  0.50859826401E+02 -0.34504510689E+02 -0.73273914744E+02  0.95751970117E+02  0.47000000000E+01 0. -1.
         -5    1    3    3    0  502 -0.24428157416E+02  0.23281535963E+02 -0.36682189128E+02  0.50064336516E+02  0.47000000000E+01 0.  1.
          5    1    4    4  503    0 -0.30379169166E+01 -0.29936966397E+02 -0.67620991784E+01  0.31197225542E+02  0.47000000000E+01 0. -1.
         -5    1    4    4    0  503 -0.23393752068E+02  0.41159941122E+02 -0.10564066514E+03  0.11585960694E+03  0.47000000000E+01 0.  1.
<mgrwt>
<rscale>  0 0.95532889E+02</rscale>
<asrwt>0</asrwt>
<pdfrwt beam="1">  1        1 0.54241746E-02 0.95770823E+02</pdfrwt>
<pdfrwt beam="2">  1       -1 0.39633232E-01 0.95770823E+02</pdfrwt>
<totfact> 0.85313853E+03</totfact>
</mgrwt>
</event>
<event>
 8    1  0.3177960E-004  0.9777308E+02  0.7546771E-02  0.1285083E+00
          3   -1    0    0  501    0  0.00000000000E+00  0.00000000000E+00  0.39527064347E+03  0.39527064347E+03  0.00000000000E+00 0. -1.
         -3   -1    0    0    0  501 -0.00000000000E+00 -0.00000000000E+00 -0.38061069503E+02  0.38061069503E+02  0.00000000000E+00 0.  1.
         23    2    1    2    0    0  0.18306073202E+02  0.30392956734E+02  0.30953547752E+03  0.32461020846E+03  0.91108350119E+02 0.  0.
         23    2    1    2    0    0 -0.18306073202E+02 -0.30392956734E+02  0.47674096447E+02  0.10872150451E+03  0.91042308490E+02 0.  0.
          5    1    4    4  502    0  0.26454028875E+02 -0.32028410137E+02  0.48041048123E+02  0.63684118934E+02  0.47000000000E+01 0. -1.
         -5    1    4    4    0  502 -0.44760102077E+02  0.16354534023E+01 -0.36695167605E+00  0.45037385574E+02  0.47000000000E+01 0.  1.
          5    1    3    3  503    0  0.37912544188E+02  0.93909660608E+00  0.26400525833E+03  0.26675664816E+03  0.47000000000E+01 0. -1.
         -5    1    3    3    0  503 -0.19606470986E+02  0.29453860128E+02  0.45530219187E+02  0.57853560307E+02  0.47000000000E+01 0.  1.
<mgrwt>
<rscale>  0 0.97757694E+02</rscale>
<asrwt>0</asrwt>
<pdfrwt beam="1">  1        3 0.60810865E-01 0.97773082E+02</pdfrwt>
<pdfrwt beam="2">  1       -3 0.58555494E-02 0.97773082E+02</pdfrwt>
<totfact> 0.10335654E+03</totfact>
</mgrwt>
</event>
<event>
 8    1  0.3177960E-004  0.1287007E+03  0.7546771E-02  0.1245726E+00
         -1   -1    0    0    0  501 -0.00000000000E+00  0.00000000000E+00  0.10013326299E+02  0.10013326299E+02  0.00000000000E+00 0.  1.
          1   -1    0    0  501    0  0.00000000000E+00 -0.00000000000E+00 -0.13692257674E+04  0.13692257674E+04  0.00000000000E+00 0. -1.
         23    2    1    2    0    0  0.92663923893E+01 -0.20638556599E+02 -0.55365050128E+03  0.56841248587E+03  0.12669672640E+03 0.  0.
         23    2    1    2    0    0 -0.92663923893E+01  0.20638556599E+02 -0.80556193982E+03  0.81082660783E+03  0.89431163628E+02 0.  0.
          5    1    3    3  502    0  0.18602380377E+02  0.50875574705E+02 -0.28901131673E+03  0.29408162788E+03  0.47000000000E+01 0. -1.
         -5    1    4    4    0  503  0.35625295632E+02 -0.97916005939E+01 -0.28406217918E+03  0.28649336601E+03  0.47000000000E+01 0.  1.
          5    1    4    4  503    0 -0.44891688021E+02  0.30430157193E+02 -0.52149976064E+03  0.52433324181E+03  0.47000000000E+01 0. -1.
         -5    1    3    3    0  502 -0.93359879874E+01 -0.71514131304E+02 -0.26463918455E+03  0.27433085799E+03  0.47000000000E+01 0.  1.
<mgrwt>
<rscale>  0 0.11842008E+03</rscale>
<asrwt>0</asrwt>
<pdfrwt beam="1">  1        1 0.21065002E+00 0.12870072E+03</pdfrwt>
<pdfrwt beam="2">  1       -1 0.15405124E-02 0.12870072E+03</pdfrwt>
<totfact> 0.85361402E+03</totfact>
</mgrwt>
</event>
<event>
 8    1  0.3177960E-004  0.1088715E+03  0.7546771E-02  0.1262724E+00
         -1   -1    0    0    0  501 -0.00000000000E+00  0.00000000000E+00  0.41631325663E+02  0.41631325663E+02  0.00000000000E+00 0.  1.
          1   -1    0    0  501    0  0.00000000000E+00 -0.00000000000E+00 -0.28594272549E+03  0.28594272549E+03  0.00000000000E+00 0. -1.
         23    2    1    2    0    0  0.43502448022E+02 -0.41518831734E+02 -0.13409716366E+03  0.17272826560E+03  0.90756421622E+02 0.  0.
         23    2    1    2    0    0 -0.43502448022E+02  0.41518831734E+02 -0.11021423618E+03  0.15484578555E+03  0.90629813392E+02 0.  0.
          5    1    4    4  502    0 -0.91645114934E+01  0.65271761238E+02 -0.58855029666E+02  0.88489522561E+02  0.47000000000E+01 0. -1.
         -5    1    3    3    0  503 -0.37630711426E+01 -0.43612994689E+02 -0.18537490629E+02  0.47770101203E+02  0.47000000000E+01 0.  1.
          5    1    3    3  503    0  0.47265519164E+02  0.20941629548E+01 -0.11555967303E+03  0.12495816440E+03  0.47000000000E+01 0. -1.
         -5    1    4    4    0  502 -0.34337936528E+02 -0.23752929504E+02 -0.51359206509E+02  0.66356262992E+02  0.47000000000E+01 0.  1.
<mgrwt>
<rscale>  0 0.10884511E+03</rscale>
<asrwt>0</asrwt>
<pdfrwt beam="1">  1        1 0.43991190E-01 0.10887150E+03</pdfrwt>
<pdfrwt beam="2">  1       -1 0.64048191E-02 0.10887150E+03</pdfrwt>
<totfact> 0.10453991E+04</totfact>
</mgrwt>
</event>
<event>
 8    1  0.3177960E-004  0.1647062E+03  0.7546771E-02  0.1183796E+00
          1   -1    0    0  501    0  0.00000000000E+00  0.00000000000E+00  0.21601291375E+03  0.21601291375E+03  0.00000000000E+00 0. -1.
         -1   -1    0    0    0  501 -0.00000000000E+00 -0.00000000000E+00 -0.13438342511E+03  0.13438342511E+03  0.00000000000E+00 0.  1.
         23    2    1    2    0    0  0.16567659246E+02  0.13479446237E+03 -0.63117220281E+01  0.16368321956E+03  0.91150008841E+02 0.  0.
         23    2    1    2    0    0 -0.16567659246E+02 -0.13479446237E+03  0.87941210672E+02  0.18671311930E+03  0.93188507690E+02 0.  0.
          5    1    3    3  502    0 -0.17831532877E+02  0.10982824773E+03  0.20462105133E+02  0.11322983401E+03  0.47000000000E+01 0. -1.
         -5    1    4    4    0  503  0.14531412166E+02 -0.26072778414E+02  0.64363736620E+02  0.71103672940E+02  0.47000000000E+01 0.  1.
          5    1    4    4  503    0 -0.31099071412E+02 -0.10872168396E+03  0.23577474052E+02  0.11560944636E+03  0.47000000000E+01 0. -1.
         -5    1    3    3    0  502  0.34399192122E+02  0.24966214638E+02 -0.26773827161E+02  0.50453385544E+02  0.47000000000E+01 0.  1.
<mgrwt>
<rscale>  0 0.16441927E+03</rscale>
<asrwt>0</asrwt>
<pdfrwt beam="1">  1        1 0.33232756E-01 0.16470620E+03</pdfrwt>
<pdfrwt beam="2">  1       -1 0.20674373E-01 0.16470620E+03</pdfrwt>
<totfact> 0.24864585E+03</totfact>
</mgrwt>
</event>
<event>
 8    1  0.3177960E-004  0.1059675E+03  0.7546771E-02  0.1268836E+00
          1   -1    0    0  501    0  0.00000000000E+00  0.00000000000E+00  0.28625509104E+03  0.28625509104E+03  0.00000000000E+00 0. -1.
         -1   -1    0    0    0  501 -0.00000000000E+00 -0.00000000000E+00 -0.42291568149E+02  0.42291568149E+02  0.00000000000E+00 0.  1.
         23    2    1    2    0    0  0.44935755425E+02  0.32367701722E+02  0.75223953140E+02  0.12995289910E+03  0.90345019945E+02 0.  0.
         23    2    1    2    0    0 -0.44935755425E+02 -0.32367701722E+02  0.16873956976E+03  0.19859376009E+03  0.88879406586E+02 0.  0.
          5    1    4    4  502    0 -0.25559333134E+02 -0.56554004294E+02  0.14918973415E+03  0.16165179148E+03  0.47000000000E+01 0. -1.
         -5    1    3    3    0  503  0.52405814386E+02 -0.11242141974E+02  0.64853542981E+02  0.84266405968E+02  0.47000000000E+01 0.  1.
          5    1    3    3  503    0 -0.74700589613E+01  0.43609843696E+02  0.10370410160E+02  0.45686493135E+02  0.47000000000E+01 0. -1.
         -5    1    4    4    0  502 -0.19376422290E+02  0.24186302571E+02  0.19549835606E+02  0.36941968614E+02  0.47000000000E+01 0.  1.
<mgrwt>
<rscale>  0 0.10565444E+03</rscale>
<asrwt>0</asrwt>
<pdfrwt beam="1">  1        1 0.44039243E-01 0.10596751E+03</pdfrwt>
<pdfrwt beam="2">  1       -1 0.65063953E-02 0.10596751E+03</pdfrwt>
<totfact> 0.10175581E+04</totfact>
</mgrwt>
</event>
<event>
 8    1  0.3177960E-004  0.1121850E+03  0.7546771E-02  0.1257047E+00
          2   -1    0    0  501    0  0.00000000000E+00  0.00000000000E+00  0.15147200034E+02  0.15147200034E+02  0.00000000000E+00 0. -1.
         -2   -1    0    0    0  501 -0.00000000000E+00 -0.00000000000E+00 -0.88427591744E+03  0.88427591744E+03  0.00000000000E+00 0.  1.
         23    2    1    2    0    0  0.59118440080E+02  0.18803011513E+02 -0.55086276061E+03  0.56196392944E+03  0.92223282116E+02 0.  0.
         23    2    1    2    0    0 -0.59118440080E+02 -0.18803011513E+02 -0.31826595679E+03  0.33745918803E+03  0.93471606031E+02 0.  0.
          5    1    4    4  502    0 -0.19068671151E+02 -0.14538277536E+02 -0.97797900145E+01  0.26319384983E+02  0.47000000000E+01 0. -1.
         -5    1    4    4    0  502 -0.40049768929E+02 -0.42647339774E+01 -0.30848616678E+03  0.31113980305E+03  0.47000000000E+01 0.  1.
          5    1    3    3  503    0  0.39592692999E+02 -0.35353844551E+02 -0.27618673381E+03  0.28128042519E+03  0.47000000000E+01 0. -1.
         -5    1    3    3    0  503  0.19525747081E+02  0.54156856064E+02 -0.27467602680E+03  0.28068350425E+03  0.47000000000E+01 0.  1.
<mgrwt>
<rscale>  0 0.11192465E+03</rscale>
<asrwt>0</asrwt>
<pdfrwt beam="1">  1        2 0.23303382E-02 0.11218505E+03</pdfrwt>
<pdfrwt beam="2">  1       -2 0.13604246E+00 0.11218505E+03</pdfrwt>
<totfact> 0.17077065E+03</totfact>
</mgrwt>
</event>
<event>
 8    1  0.3177960E-004  0.9505334E+02  0.7546771E-02  0.1292365E+00
         -1   -1    0    0    0  501 -0.00000000000E+00  0.00000000000E+00  0.97163542355E+01  0.97163542355E+01  0.00000000000E+00 0.  1.
          1   -1    0    0  501    0  0.00000000000E+00 -0.00000000000E+00 -0.94346946062E+03  0.94346946062E+03  0.00000000000E+00 0. -1.
         23    2    1    2    0    0  0.11553054488E+02 -0.20629552614E+02 -0.56532882516E+03  0.57326417831E+03  0.92065661707E+02 0.  0.
         23    2    1    2    0    0 -0.11553054488E+02  0.20629552614E+02 -0.36842428122E+03  0.37992163654E+03  0.89693630832E+02 0.  0.
          5    1    4    4  502    0 -0.39420124564E+02  0.32166730688E+02 -0.30816288591E+03  0.31237013147E+03  0.47000000000E+01 0. -1.
         -5    1    4    4    0  502  0.27867070076E+02 -0.11537178075E+02 -0.60261395312E+02  0.67551505072E+02  0.47000000000E+01 0.  1.
          5    1    3    3  503    0  0.32104110035E+02  0.23970256667E+02 -0.35209330545E+03  0.35439671673E+03  0.47000000000E+01 0. -1.
         -5    1    3    3    0  503 -0.20551055547E+02 -0.44599809281E+02 -0.21323551971E+03  0.21886746158E+03  0.47000000000E+01 0.  1.
<mgrwt>
<rscale>  0 0.94474169E+02</rscale>
<asrwt>0</asrwt>
<pdfrwt beam="1">  1        1 0.14514913E+00 0.95053341E+02</pdfrwt>
<pdfrwt beam="2">  1       -1 0.14948239E-02 0.95053341E+02</pdfrwt>
<totfact> 0.17199763E+04</totfact>
</mgrwt>
</event>
<event>
 8    1  0.3177960E-004  0.1048861E+03  0.7546771E-02  0.1271042E+00
         -2   -1    0    0    0  501 -0.00000000000E+00  0.00000000000E+00  0.51784038173E+02  0.51784038173E+02  0.00000000000E+00 0.  1.
          2   -1    0    0  501    0  0.00000000000E+00 -0.00000000000E+00 -0.21446535578E+03  0.21446535578E+03  0.00000000000E+00 0. -1.
         23    2    1    2    0    0  0.48969002594E+02  0.12584609638E+02 -0.60766543510E+02  0.12000396465E+03  0.90288665435E+02 0.  0.
         23    2    1    2    0    0 -0.48969002594E+02 -0.12584609638E+02 -0.10191477410E+03  0.14624542931E+03  0.91895423167E+02 0.  0.
          5    1    4    4  502    0 -0.46370444166E+02 -0.47243919898E+02 -0.83409216760E+02  0.10658983770E+03  0.47000000000E+01 0. -1.
         -5    1    3    3    0  503  0.63243495804E+02 -0.12026821831E+02 -0.64107719641E+02  0.90974028835E+02  0.47000000000E+01 0.  1.
          5    1    3    3  503    0 -0.14274493209E+02  0.24611431468E+02  0.33411761313E+01  0.29029935812E+02  0.47000000000E+01 0. -1.
         -5    1    4    4    0  502 -0.25985584281E+01  0.34659310261E+02 -0.18505557337E+02  0.39655591611E+02  0.47000000000E+01 0.  1.
<mgrwt>
<rscale>  0 0.10453316E+03</rscale>
<asrwt>0</asrwt>
<pdfrwt beam="1">  1        2 0.32994670E-01 0.10488615E+03</pdfrwt>
<pdfrwt beam="2">  1       -2 0.79667750E-02 0.10488615E+03</pdfrwt>
<totfact> 0.13761795E+04</totfact>
</mgrwt>
</event>
<event>
 8    1  0.3177960E-004  0.9288523E+02  0.7546771E-02  0.1296711E+00
          1   -1    0    0  501    0  0.00000000000E+00  0.00000000000E+00  0.45291452812E+02  0.45291452812E+02  0.00000000000E+00 0. -1.
         -1   -1    0    0    0  501 -0.00000000000E+00 -0.00000000000E+00 -0.19062783316E+03  0.19062783316E+03  0.00000000000E+00 0.  1.
         23    2    1    2    0    0 -0.34673934248E+01  0.94639048702E+01 -0.58468323481E+02  0.10874332774E+03  0.91131652927E+02 0.  0.
         23    2    1    2    0    0  0.34673934248E+01 -0.94639048702E+01 -0.86868056868E+02  0.12717595823E+03  0.92336757228E+02 0.  0.
          5    1    4    4  502    0  0.35739240400E+02 -0.22298399434E+02 -0.81305007091E+02  0.91690272656E+02  0.47000000000E+01 0. -1.
         -5    1    3    3    0  503 -0.14169533312E+02 -0.22624952951E+02 -0.68069385829E+02  0.73267970201E+02  0.47000000000E+01 0.  1.
          5    1    3    3  503    0  0.10702139887E+02  0.32088857821E+02  0.96010623481E+01  0.35475357541E+02  0.47000000000E+01 0. -1.
         -5    1    4    4    0  502 -0.32271846976E+02  0.12834494563E+02 -0.55630497773E+01  0.35485685575E+02  0.47000000000E+01 0.  1.
<mgrwt>
<rscale>  0 0.92584292E+02</rscale>
<asrwt>0</asrwt>
<pdfrwt beam="1">  1        1 0.69679158E-02 0.92885225E+02</pdfrwt>
<pdfrwt beam="2">  1       -1 0.29327359E-01 0.92885225E+02</pdfrwt>
<totfact> 0.10124756E+04</totfact>
</mgrwt>
</event>
<event>
 8    1  0.3177960E-004  0.9620475E+02  0.7546771E-02  0.1290168E+00
          2   -1    0    0  501    0  0.00000000000E+00  0.00000000000E+00  0.75798576855E+02  0.75798576855E+02  0.00000000000E+00 0. -1.
         -2   -1    0    0    0  501 -0.00000000000E+00 -0.00000000000E+00 -0.12999426910E+03  0.12999426910E+03  0.00000000000E+00 0.  1.
         23    2    1    2    0    0  0.36439009201E+02 -0.46804597040E+01 -0.58290653100E+02  0.11248624234E+03  0.88913701883E+02 0.  0.
         23    2    1    2    0    0 -0.36439009201E+02  0.46804597040E+01  0.40949608574E+01  0.93306603611E+02  0.85671730918E+02 0.  0.
          5    1    3    3  502    0  0.51182036831E+02  0.91989490956E+01 -0.70992260387E+02  0.88126117545E+02  0.47000000000E+01 0. -1.
         -5    1    4    4    0  503 -0.49068720537E+02 -0.25607133725E+02 -0.11413306397E+02  0.56708184556E+02  0.47000000000E+01 0.  1.
          5    1    4    4  503    0  0.12629711336E+02  0.30287593429E+02  0.15508267254E+02  0.36598419055E+02  0.47000000000E+01 0. -1.
         -5    1    3    3    0  502 -0.14743027631E+02 -0.13879408800E+02  0.12701607288E+02  0.24360124795E+02  0.47000000000E+01 0.  1.
<mgrwt>
<rscale>  0 0.95448879E+02</rscale>
<asrwt>0</asrwt>
<pdfrwt beam="1">  1        2 0.11661320E-01 0.96204753E+02</pdfrwt>
<pdfrwt beam="2">  1       -2 0.19999118E-01 0.96204753E+02</pdfrwt>
<totfact> 0.10116349E+04</totfact>
</mgrwt>
</event>
<event>
 8    1  0.3177960E-004  0.1724572E+03  0.7546771E-02  0.1177064E+00
         -2   -1    0    0    0  501 -0.00000000000E+00  0.00000000000E+00  0.70264201476E+02  0.70264201476E+02  0.00000000000E+00 0.  1.
          2   -1    0    0  501    0  0.00000000000E+00 -0.00000000000E+00 -0.41664822833E+03  0.41664822833E+03  0.00000000000E+00 0. -1.
         23    2    1    2    0    0 -0.50201895616E+02  0.12690583472E+03 -0.20694731695E+03  0.26513756004E+03  0.94050053392E+02 0.  0.
         23    2    1    2    0    0  0.50201895616E+02 -0.12690583472E+03 -0.13943670991E+03  0.22177486977E+03  0.10543327549E+03 0.  0.
          5    1    3    3  502    0 -0.65568241551E+02  0.10024796770E+03 -0.10780197781E+03  0.16122098421E+03  0.47000000000E+01 0. -1.
         -5    1    3    3    0  502  0.15366345935E+02  0.26657867025E+02 -0.99145339132E+02  0.10391657583E+03  0.47000000000E+01 0.  1.
          5    1    4    4  503    0 -0.39550473467E+01 -0.25763533712E+02 -0.95046751086E+02  0.98668013869E+02  0.47000000000E+01 0. -1.
         -5    1    4    4    0  503  0.54156942962E+02 -0.10114230101E+03 -0.44389958822E+02  0.12310685590E+03  0.47000000000E+01 0.  1.
<mgrwt>
<rscale>  0 0.17075359E+03</rscale>
<asrwt>0</asrwt>
<pdfrwt beam="1">  1        2 0.64099729E-01 0.17245723E+03</pdfrwt>
<pdfrwt beam="2">  1       -2 0.10809877E-01 0.17245723E+03</pdfrwt>
<totfact> 0.43613846E+03</totfact>
</mgrwt>
</event>
<event>
 8    1  0.3177960E-004  0.1068218E+03  0.7546771E-02  0.1267568E+00
         -2   -1    0    0    0  501 -0.00000000000E+00  0.00000000000E+00  0.85858884769E+02  0.85858884769E+02  0.00000000000E+00 0.  1.
          2   -1    0    0  501    0  0.00000000000E+00 -0.00000000000E+00 -0.17555215516E+03  0.17555215516E+03  0.00000000000E+00 0. -1.
         23    2    1    2    0    0 -0.54739720995E+02 -0.34762543250E+01 -0.11083369086E+03  0.15251744474E+03  0.89268933692E+02 0.  0.
         23    2    1    2    0    0  0.54739720995E+02  0.34762543250E+01  0.21140420465E+02  0.10889359519E+03  0.91664476746E+02 0.  0.
          5    1    3    3  502    0  0.41132886206E+01  0.32576598902E+02 -0.52132767469E+02  0.61790528265E+02  0.47000000000E+01 0. -1.
         -5    1    3    3    0  502 -0.58853009616E+02 -0.36052853227E+02 -0.58700923391E+02  0.90726916478E+02  0.47000000000E+01 0.  1.
          5    1    4    4  503    0 -0.23646583317E+02 -0.19532959529E+01 -0.71929439140E+01  0.25234989792E+02  0.47000000000E+01 0. -1.
         -5    1    4    4    0  503  0.78386304313E+02  0.54295502779E+01  0.28333364379E+02  0.83658605397E+02  0.47000000000E+01 0.  1.
<mgrwt>
<rscale>  0 0.10630598E+03</rscale>
<asrwt>0</asrwt>
<pdfrwt beam="1">  1        2 0.27008024E-01 0.10682180E+03</pdfrwt>
<pdfrwt beam="2">  1       -2 0.13209059E-01 0.10682180E+03</pdfrwt>
<totfact> 0.77452487E+03</totfact>
</mgrwt>
</event>
<event>
 8    1  0.3177960E-004  0.1734543E+03  0.7546771E-02  0.1180275E+00
         -2   -1    0    0    0  501 -0.00000000000E+00  0.00000000000E+00  0.75599629797E+02  0.75599629797E+02  0.00000000000E+00 0.  1.
          2   -1    0    0  501    0  0.00000000000E+00 -0.00000000000E+00 -0.56232711965E+03  0.56232711965E+03  0.00000000000E+00 0. -1.
         23    2    1    2    0    0  0.10968733947E+03 -0.50081983747E+02 -0.44961919335E+03  0.48191681596E+03  0.12468713224E+03 0.  0.
         23    2    1    2    0    0 -0.10968733947E+03  0.50081983747E+02 -0.37108296508E+02  0.15600993349E+03  0.91774485232E+02 0.  0.
          5    1    4    4  502    0 -0.55218774085E+02  0.33876677831E+02 -0.65556933690E+02  0.92285122675E+02  0.47000000000E+01 0. -1.
         -5    1    4    4    0  502 -0.54468565390E+02  0.16205305916E+02  0.28448637182E+02  0.63724810811E+02  0.47000000000E+01 0.  1.
          5    1    3    3  503    0 -0.78230172831E+01  0.25335893856E+02 -0.33567605092E+02  0.43034651486E+02  0.47000000000E+01 0.  1.
         -5    1    3    3    0  503  0.11751035676E+03 -0.75417877602E+02 -0.41605158826E+03  0.43888216448E+03  0.47000000000E+01 0.  1.
<mgrwt>
<rscale>  0 0.16769311E+03</rscale>
<asrwt>0</asrwt>
<pdfrwt beam="1">  1        2 0.86511863E-01 0.17345431E+03</pdfrwt>
<pdfrwt beam="2">  1       -2 0.11630712E-01 0.17345431E+03</pdfrwt>
<totfact> 0.27877306E+03</totfact>
</mgrwt>
</event>
<event>
 8    1  0.3177960E-004  0.1262001E+03  0.7546771E-02  0.1237819E+00
         -1   -1    0    0    0  501 -0.00000000000E+00  0.00000000000E+00  0.38990708578E+02  0.38990708578E+02  0.00000000000E+00 0.  1.
          1   -1    0    0  501    0  0.00000000000E+00 -0.00000000000E+00 -0.47614434172E+03  0.47614434172E+03  0.00000000000E+00 0. -1.
         23    2    1    2    0    0  0.26497031716E+02  0.61974021822E+02 -0.10657842775E+03  0.16518299602E+03  0.10669390256E+03 0.  0.
         23    2    1    2    0    0 -0.26497031716E+02 -0.61974021822E+02 -0.33057520540E+03  0.34995205428E+03  0.92970972890E+02 0.  0.
          5    1    3    3  502    0 -0.22065759706E+02 -0.76685020613E+01  0.55427424114E+01  0.24464579880E+02  0.47000000000E+01 0. -1.
         -5    1    3    3    0  502  0.48562791422E+02  0.69642523883E+02 -0.11212117016E+03  0.14071841614E+03  0.47000000000E+01 0.  1.
          5    1    4    4  503    0  0.30843992697E+00 -0.80369222867E+02 -0.20755376236E+03  0.22262066703E+03  0.47000000000E+01 0. -1.
         -5    1    4    4    0  503 -0.26805471643E+02  0.18395201046E+02 -0.12302144304E+03  0.12733138725E+03  0.47000000000E+01 0.  1.
<mgrwt>
<rscale>  0 0.12325678E+03</rscale>
<asrwt>0</asrwt>
<pdfrwt beam="1">  1        1 0.73252973E-01 0.12620008E+03</pdfrwt>
<pdfrwt beam="2">  1       -1 0.59985707E-02 0.12620008E+03</pdfrwt>
<totfact> 0.61573959E+03</totfact>
</mgrwt>
</event>
<event>
 8    1  0.3177960E-004  0.1282875E+03  0.7546771E-02  0.1240326E+00
          1   -1    0    0  501    0  0.00000000000E+00  0.00000000000E+00  0.94833357118E+03  0.94833357118E+03  0.00000000000E+00 0. -1.
         -1   -1    0    0    0  501 -0.00000000000E+00 -0.00000000000E+00 -0.14381127141E+02  0.14381127141E+02  0.00000000000E+00 0.  1.
         23    2    1    2    0    0 -0.15626559305E+02 -0.80710795344E+02  0.36623574490E+03  0.38068382911E+03  0.63506968583E+02 0.  0.
         23    2    1    2    0    0  0.15626559305E+02  0.80710795344E+02  0.56771669914E+03  0.58203086922E+03  0.98484823191E+02 0.  0.
          5    1    3    3  502    0  0.15725122928E+02 -0.51169824933E+02  0.26771052683E+03  0.27305063020E+03  0.47000000000E+01 0. -1.
         -5    1    3    3    0  502 -0.31351682232E+02 -0.29540970410E+02  0.98525218071E+02  0.10763319891E+03  0.47000000000E+01 0.  1.
          5    1    4    4  503    0  0.50988863230E+02  0.59060271903E+02  0.45846816616E+03  0.46508400238E+03  0.47000000000E+01 0. -1.
         -5    1    4    4    0  503 -0.35362303925E+02  0.21650523440E+02  0.10924853299E+03  0.11694686684E+03  0.47000000000E+01 0.  1.
<mgrwt>
<rscale>  0 0.12169529E+03</rscale>
<asrwt>0</asrwt>
<pdfrwt beam="1">  1        1 0.14589742E+00 0.12828750E+03</pdfrwt>
<pdfrwt beam="2">  1       -1 0.22124818E-02 0.12828750E+03</pdfrwt>
<totfact> 0.99400169E+03</totfact>
</mgrwt>
</event>
<event>
 8    1  0.3177960E-004  0.9962162E+02  0.7546771E-02  0.1282988E+00
          3   -1    0    0  501    0  0.00000000000E+00  0.00000000000E+00  0.53434101988E+03  0.53434101988E+03  0.00000000000E+00 0. -1.
         -3   -1    0    0    0  501 -0.00000000000E+00 -0.00000000000E+00 -0.18122813084E+02  0.18122813084E+02  0.00000000000E+00 0.  1.
         23    2    1    2    0    0  0.38097922342E+02 -0.63720378494E+01  0.29167070717E+03  0.30821464539E+03  0.91828163756E+02 0.  0.
         23    2    1    2    0    0 -0.38097922342E+02  0.63720378494E+01  0.22454749962E+03  0.24424918757E+03  0.88000178916E+02 0.  0.
          5    1    4    4  502    0 -0.52454105005E+02 -0.17421016367E+02  0.19766497467E+03  0.20530089419E+03  0.47000000000E+01 0. -1.
         -5    1    4    4    0  502  0.14356182663E+02  0.23793054216E+02  0.26882524950E+02  0.38948293381E+02  0.47000000000E+01 0.  1.
          5    1    3    3  503    0 -0.21256968952E+02 -0.86125107913E+01  0.22299577851E+02  0.32332572485E+02  0.47000000000E+01 0. -1.
         -5    1    3    3    0  503  0.59354891295E+02  0.22404729419E+01  0.26937112932E+03  0.27588207291E+03  0.47000000000E+01 0.  1.
<mgrwt>
<rscale>  0 0.98730465E+02</rscale>
<asrwt>0</asrwt>
<pdfrwt beam="1">  1        3 0.82206299E-01 0.99621615E+02</pdfrwt>
<pdfrwt beam="2">  1       -3 0.27881255E-02 0.99621615E+02</pdfrwt>
<totfact> 0.17435988E+03</totfact>
</mgrwt>
</event>
<event>
 8    1  0.3177960E-004  0.1599056E+03  0.7546771E-02  0.1189268E+00
         -2   -1    0    0    0  501 -0.00000000000E+00  0.00000000000E+00  0.18771459666E+02  0.18771459666E+02  0.00000000000E+00 0.  1.
          2   -1    0    0  501    0  0.00000000000E+00 -0.00000000000E+00 -0.13535296164E+04  0.13535296164E+04  0.00000000000E+00 0. -1.
         23    2    1    2    0    0 -0.11074389280E+03 -0.67812738085E+02 -0.62797964314E+03  0.64801869894E+03  0.93311439531E+02 0.  0.
         23    2    1    2    0    0  0.11074389280E+03  0.67812738085E+02 -0.70677851360E+03  0.72428237713E+03  0.90478269711E+02 0.  0.
          5    1    3    3  502    0 -0.35868555888E+01 -0.50343198977E+02 -0.17565493390E+03  0.18282245217E+03  0.47000000000E+01 0. -1.
         -5    1    3    3    0  502 -0.10715703721E+03 -0.17469539108E+02 -0.45232470924E+03  0.46519624677E+03  0.47000000000E+01 0.  1.
          5    1    4    4  503    0  0.96575498114E+02  0.85945046200E+02 -0.51188951816E+03  0.52798328250E+03  0.47000000000E+01 0. -1.
         -5    1    4    4    0  503  0.14168394686E+02 -0.18132308115E+02 -0.19488899544E+03  0.19629909463E+03  0.47000000000E+01 0.  1.
<mgrwt>
<rscale>  0 0.15949489E+03</rscale>
<asrwt>0</asrwt>
<pdfrwt beam="1">  1        2 0.20823533E+00 0.15990560E+03</pdfrwt>
<pdfrwt beam="2">  1       -2 0.28879168E-02 0.15990560E+03</pdfrwt>
<totfact> 0.72245074E+03</totfact>
</mgrwt>
</event>
<event>
 8    1  0.3177960E-004  0.9879679E+02  0.7546771E-02  0.1284290E+00
         -3   -1    0    0    0  501 -0.00000000000E+00  0.00000000000E+00  0.18431023721E+03  0.18431023721E+03  0.00000000000E+00 0.  1.
          3   -1    0    0  501    0  0.00000000000E+00 -0.00000000000E+00 -0.51561626607E+02  0.51561626607E+02  0.00000000000E+00 0. -1.
         23    2    1    2    0    0  0.33987159572E+02 -0.13683847107E+02  0.67794497336E+02  0.11763547920E+03  0.88879904418E+02 0.  0.
         23    2    1    2    0    0 -0.33987159572E+02  0.13683847107E+02  0.64954113267E+02  0.11823638462E+03  0.91752008864E+02 0.  0.
          5    1    4    4  502    0 -0.27863969398E+02 -0.35582711799E+02  0.15511393327E+02  0.48012743022E+02  0.47000000000E+01 0. -1.
         -5    1    4    4    0  502 -0.61231901738E+01  0.49266558906E+02  0.49442719939E+02  0.70223641599E+02  0.47000000000E+01 0.  1.
          5    1    3    3  503    0  0.76315225404E+01 -0.49563584461E+02  0.44303498651E+02  0.67079646940E+02  0.47000000000E+01 0. -1.
         -5    1    3    3    0  503  0.26355637031E+02  0.35879737354E+02  0.23490998685E+02  0.50555832256E+02  0.47000000000E+01 0.  1.
<mgrwt>
<rscale>  0 0.98124610E+02</rscale>
<asrwt>0</asrwt>
<pdfrwt beam="1">  1        3 0.79325580E-02 0.98796791E+02</pdfrwt>
<pdfrwt beam="2">  1       -3 0.28355421E-01 0.98796791E+02</pdfrwt>
<totfact> 0.27720100E+03</totfact>
</mgrwt>
</event>
<event>
 8    1  0.3177960E-004  0.1054338E+03  0.7546771E-02  0.1269880E+00
          2   -1    0    0  501    0  0.00000000000E+00  0.00000000000E+00  0.12059301344E+03  0.12059301344E+03  0.00000000000E+00 0. -1.
         -2   -1    0    0    0  501 -0.00000000000E+00 -0.00000000000E+00 -0.10629418484E+03  0.10629418484E+03  0.00000000000E+00 0.  1.
         23    2    1    2    0    0 -0.48976337274E+02  0.12227541018E+02 -0.35708761004E+02  0.11131666136E+03  0.92563973073E+02 0.  0.
         23    2    1    2    0    0  0.48976337274E+02 -0.12227541018E+02  0.50007589601E+02  0.11557053692E+03  0.91146012605E+02 0.  0.
          5    1    3    3  502    0 -0.16562012218E+01  0.27394517496E+02  0.21657947569E+02  0.35275477095E+02  0.47000000000E+01 0. -1.
         -5    1    3    3    0  502 -0.47320136052E+02 -0.15166976478E+02 -0.57366708573E+02  0.76041184262E+02  0.47000000000E+01 0.  1.
          5    1    4    4  503    0  0.50301460721E+02 -0.42072011864E+02  0.53984486411E+02  0.85068830402E+02  0.47000000000E+01 0. -1.
         -5    1    4    4    0  503 -0.13251234471E+01  0.29844470845E+02 -0.39768968096E+01  0.30501706517E+02  0.47000000000E+01 0.  1.
<mgrwt>
<rscale>  0 0.10512174E+03</rscale>
<asrwt>0</asrwt>
<pdfrwt beam="1">  1        2 0.18552771E-01 0.10543379E+03</pdfrwt>
<pdfrwt beam="2">  1       -2 0.16352951E-01 0.10543379E+03</pdfrwt>
<totfact> 0.82990630E+03</totfact>
</mgrwt>
</event>
<event>
 8    1  0.3177960E-004  0.1019671E+03  0.7546771E-02  0.1276690E+00
          1   -1    0    0  501    0  0.00000000000E+00  0.00000000000E+00  0.53232783758E+03  0.53232783758E+03  0.00000000000E+00 0. -1.
         -1   -1    0    0    0  501 -0.00000000000E+00 -0.00000000000E+00 -0.31088769594E+02  0.31088769594E+02  0.00000000000E+00 0.  1.
         23    2    1    2    0    0  0.98369534817E+01 -0.42027109085E+02  0.42297691904E+03  0.43487769203E+03  0.91356934235E+02 0.  0.
         23    2    1    2    0    0 -0.98369534817E+01  0.42027109085E+02  0.78262148948E+02  0.12853891515E+03  0.92380978545E+02 0.  0.
          5    1    4    4  502    0 -0.30187812166E+02 -0.35495590719E+01  0.71646968643E+02  0.77969747266E+02  0.47000000000E+01 0. -1.
         -5    1    3    3    0  503  0.20537539893E+02  0.21010799498E+02  0.22035275029E+03  0.22235257768E+03  0.47000000000E+01 0.  1.
          5    1    3    3  503    0 -0.10700586411E+02 -0.63037908583E+02  0.20262416875E+03  0.21252511435E+03  0.47000000000E+01 0. -1.
         -5    1    4    4    0  502  0.20350858685E+02  0.45576668157E+02  0.66151803047E+01  0.50569167879E+02  0.47000000000E+01 0.  1.
<mgrwt>
<rscale>  0 0.10173459E+03</rscale>
<asrwt>0</asrwt>
<pdfrwt beam="1">  1        1 0.81896584E-01 0.10196710E+03</pdfrwt>
<pdfrwt beam="2">  1       -1 0.47828880E-02 0.10196710E+03</pdfrwt>
<totfact> 0.73415005E+03</totfact>
</mgrwt>
</event>
<event>
 8    1  0.3177960E-004  0.1441836E+03  0.7546771E-02  0.1207895E+00
          1   -1    0    0  501    0  0.00000000000E+00  0.00000000000E+00  0.37354278902E+03  0.37354278902E+03  0.00000000000E+00 0. -1.
         -1   -1    0    0    0  501 -0.00000000000E+00 -0.00000000000E+00 -0.55570818705E+02  0.55570818705E+02  0.00000000000E+00 0.  1.
         23    2    1    2    0    0  0.97380263444E+01  0.11127020896E+03  0.16296649942E+03  0.21741663874E+03  0.90752555390E+02 0.  0.
         23    2    1    2    0    0 -0.97380263444E+01 -0.11127020896E+03  0.15500547090E+03  0.21169696898E+03  0.91175775900E+02 0.  0.
          5    1    4    4  502    0 -0.43749966871E+02 -0.64450076025E+02  0.53029812265E+02  0.94351061943E+02  0.47000000000E+01 0. -1.
         -5    1    3    3    0  503  0.30480318877E+02  0.11455633464E+03  0.11681075886E+03  0.16649038120E+03  0.47000000000E+01 0.  1.
          5    1    3    3  503    0 -0.20742292533E+02 -0.32861256790E+01  0.46155740551E+02  0.50926257543E+02  0.47000000000E+01 0. -1.
         -5    1    4    4    0  502  0.34011940527E+02 -0.46820132931E+02  0.10197565863E+03  0.11734590704E+03  0.47000000000E+01 0.  1.
<mgrwt>
<rscale>  0 0.14411674E+03</rscale>
<asrwt>0</asrwt>
<pdfrwt beam="1">  1        1 0.57468120E-01 0.14418360E+03</pdfrwt>
<pdfrwt beam="2">  1       -1 0.85493569E-02 0.14418360E+03</pdfrwt>
<totfact> 0.49606634E+03</totfact>
</mgrwt>
</event>
<event>
 8    1  0.3177960E-004  0.1035359E+03  0.7546771E-02  0.1274303E+00
          2   -1    0    0  501    0  0.00000000000E+00  0.00000000000E+00  0.40113016839E+03  0.40113016839E+03  0.00000000000E+00 0. -1.
         -2   -1    0    0    0  501 -0.00000000000E+00 -0.00000000000E+00 -0.89499443212E+02  0.89499443212E+02  0.00000000000E+00 0.  1.
         23    2    1    2    0    0 -0.40045235359E+02 -0.26820232658E+02 -0.50123765138E+02  0.11503079296E+03  0.91633758753E+02 0.  0.
         23    2    1    2    0    0  0.40045235359E+02  0.26820232658E+02  0.36175449031E+03  0.37559881864E+03  0.88798736164E+02 0.  0.
          5    1    3    3  502    0 -0.66055658524E+02 -0.27970416188E+01 -0.22917934490E+02  0.70131984045E+02  0.47000000000E+01 0. -1.
         -5    1    4    4    0  503 -0.24455279384E+02  0.79269235821E+01  0.47615321564E+02  0.54315795629E+02  0.47000000000E+01 0.  1.
          5    1    4    4  503    0  0.64500514742E+02  0.18893309076E+02  0.31413916875E+03  0.32128302301E+03  0.47000000000E+01 0. -1.
         -5    1    3    3    0  502  0.26010423165E+02 -0.24023191040E+02 -0.27205830648E+02  0.44898808917E+02  0.47000000000E+01 0.  1.
<mgrwt>
<rscale>  0 0.10290508E+03</rscale>
<asrwt>0</asrwt>
<pdfrwt beam="1">  1        2 0.61712333E-01 0.10353594E+03</pdfrwt>
<pdfrwt beam="2">  1       -2 0.13769145E-01 0.10353594E+03</pdfrwt>
<totfact> 0.30122637E+03</totfact>
</mgrwt>
</event>
<event>
 8    1  0.3177960E-004  0.1561340E+03  0.7546771E-02  0.1195032E+00
         -1   -1    0    0    0  501 -0.00000000000E+00  0.00000000000E+00  0.54087774621E+03  0.54087774621E+03  0.00000000000E+00 0.  1.
          1   -1    0    0  501    0  0.00000000000E+00 -0.00000000000E+00 -0.43267248060E+02  0.43267248060E+02  0.00000000000E+00 0. -1.
         23    2    1    2    0    0  0.61078018811E+02  0.10519246615E+03  0.24950106709E+03  0.29099637437E+03  0.87362051836E+02 0.  0.
         23    2    1    2    0    0 -0.61078018811E+02 -0.10519246615E+03  0.24810943106E+03  0.29314861990E+03  0.97886895192E+02 0.  0.
          5    1    3    3  502    0  0.20590075675E+02  0.48628108302E+02  0.30496390977E+02  0.61161785421E+02  0.47000000000E+01 0. -1.
         -5    1    4    4    0  503 -0.27819824162E+02 -0.90734017677E+02  0.23635132164E+03  0.25473641636E+03  0.47000000000E+01 0.  1.
          5    1    4    4  503    0 -0.33258194649E+02 -0.14458448476E+02  0.11758109426E+02  0.38412203542E+02  0.47000000000E+01 0. -1.
         -5    1    3    3    0  502  0.40487943137E+02  0.56564357851E+02  0.21900467611E+03  0.22983458895E+03  0.47000000000E+01 0.  1.
<mgrwt>
<rscale>  0 0.15451554E+03</rscale>
<asrwt>0</asrwt>
<pdfrwt beam="1">  1        1 0.66565001E-02 0.15613399E+03</pdfrwt>
<pdfrwt beam="2">  1       -1 0.83211956E-01 0.15613399E+03</pdfrwt>
<totfact> 0.16485468E+03</totfact>
</mgrwt>
</event>
<event>
 8    1  0.3177960E-004  0.1083900E+03  0.7546771E-02  0.1263633E+00
         -1   -1    0    0    0  501 -0.00000000000E+00  0.00000000000E+00  0.84232444695E+02  0.84232444695E+02  0.00000000000E+00 0.  1.
          1   -1    0    0  501    0  0.00000000000E+00 -0.00000000000E+00 -0.18784449274E+03  0.18784449274E+03  0.00000000000E+00 0. -1.
         23    2    1    2    0    0 -0.53589288662E+02 -0.24438881825E+02  0.17307520294E+02  0.10976307498E+03  0.90990722423E+02 0.  0.
         23    2    1    2    0    0  0.53589288662E+02  0.24438881825E+02 -0.12091956833E+03  0.16231386245E+03  0.90858005325E+02 0.  0.
          5    1    3    3  502    0 -0.67209728104E+02  0.11486769818E+02  0.27263302024E+01  0.68400411614E+02  0.47000000000E+01 0. -1.
         -5    1    3    3    0  502  0.13620439442E+02 -0.35925651643E+02  0.14581190091E+02  0.41362663370E+02  0.47000000000E+01 0.  1.
          5    1    4    4  503    0  0.76032191464E+02  0.21292976384E+02 -0.67084632178E+02  0.10371462219E+03  0.47000000000E+01 0. -1.
         -5    1    4    4    0  503 -0.22442902802E+02  0.31459054411E+01 -0.53834936156E+02  0.58599240252E+02  0.47000000000E+01 0.  1.
<mgrwt>
<rscale>  0 0.10836210E+03</rscale>
<asrwt>0</asrwt>
<pdfrwt beam="1">  1        1 0.28899153E-01 0.10838996E+03</pdfrwt>
<pdfrwt beam="2">  1       -1 0.12958838E-01 0.10838996E+03</pdfrwt>
<totfact> 0.60422873E+03</totfact>
</mgrwt>
</event>
<event>
 8    1  0.3177960E-004  0.1146972E+03  0.7546771E-02  0.1253500E+00
         -1   -1    0    0    0  501 -0.00000000000E+00  0.00000000000E+00  0.39675148411E+02  0.39675148411E+02  0.00000000000E+00 0.  1.
          1   -1    0    0  501    0  0.00000000000E+00 -0.00000000000E+00 -0.45159893508E+03  0.45159893508E+03  0.00000000000E+00 0. -1.
         23    2    1    2    0    0  0.33018269554E+02  0.60391130150E+02 -0.33926605757E+03  0.35812972704E+03  0.91750470562E+02 0.  0.
         23    2    1    2    0    0 -0.33018269554E+02 -0.60391130150E+02 -0.72657729103E+02  0.13314435645E+03  0.87812182133E+02 0.  0.
          5    1    3    3  502    0 -0.31479880064E+02  0.12518310099E+02 -0.97219031677E+02  0.10305979360E+03  0.47000000000E+01 0. -1.
         -5    1    3    3    0  502  0.64498149618E+02  0.47872820051E+02 -0.24204702589E+03  0.25506993344E+03  0.47000000000E+01 0.  1.
          5    1    4    4  503    0 -0.52443813469E+02 -0.70909226030E+02 -0.51735603286E+02  0.10235787490E+03  0.47000000000E+01 0. -1.
         -5    1    4    4    0  503  0.19425543915E+02  0.10518095880E+02 -0.20922125816E+02  0.30786481547E+02  0.47000000000E+01 0.  1.
<mgrwt>
<rscale>  0 0.11390773E+03</rscale>
<asrwt>0</asrwt>
<pdfrwt beam="1">  1        1 0.69476764E-01 0.11469718E+03</pdfrwt>
<pdfrwt beam="2">  1       -1 0.61038686E-02 0.11469718E+03</pdfrwt>
<totfact> 0.63834444E+03</totfact>
</mgrwt>
</event>
<event>
 8    1  0.3177960E-004  0.1032104E+03  0.7546771E-02  0.1275362E+00
         -1   -1    0    0    0  501 -0.00000000000E+00  0.00000000000E+00  0.35082148393E+03  0.35082148393E+03  0.00000000000E+00 0.  1.
          1   -1    0    0  501    0  0.00000000000E+00 -0.00000000000E+00 -0.30609957275E+02  0.30609957275E+02  0.00000000000E+00 0. -1.
         23    2    1    2    0    0 -0.33469723525E+02  0.36755692686E+02  0.19537810208E+03  0.21945683775E+03  0.86703503532E+02 0.  0.
         23    2    1    2    0    0  0.33469723525E+02 -0.36755692686E+02  0.12483342457E+03  0.16197460345E+03  0.90449902906E+02 0.  0.
          5    1    4    4  502    0  0.16509885702E+02 -0.20119743021E+02 -0.74626844058E+01  0.27480211856E+02  0.47000000000E+01 0. -1.
         -5    1    4    4    0  502  0.16959837822E+02 -0.16635949666E+02  0.13229610898E+03  0.13449439160E+03  0.47000000000E+01 0.  1.
          5    1    3    3  503    0  0.86341729642E+01  0.47848128888E+02  0.61148096034E+02  0.78263478261E+02  0.47000000000E+01 0. -1.
         -5    1    3    3    0  503 -0.42103896489E+02 -0.11092436202E+02  0.13423000605E+03  0.14119335949E+03  0.47000000000E+01 0.  1.
<mgrwt>
<rscale>  0 0.10238380E+03</rscale>
<asrwt>0</asrwt>
<pdfrwt beam="1">  1        1 0.47092245E-02 0.10321041E+03</pdfrwt>
<pdfrwt beam="2">  1       -1 0.53972533E-01 0.10321041E+03</pdfrwt>
<totfact> 0.59916874E+03</totfact>
</mgrwt>
</event>
<event>
 8    1  0.3177960E-004  0.1057170E+03  0.7546771E-02  0.1270255E+00
          1   -1    0    0  501    0  0.00000000000E+00  0.00000000000E+00  0.96780761747E+03  0.96780761747E+03  0.00000000000E+00 0. -1.
         -1   -1    0    0    0  501 -0.00000000000E+00 -0.00000000000E+00 -0.11602043083E+02  0.11602043083E+02  0.00000000000E+00 0.  1.
         23    2    1    2    0    0  0.38153680724E+02  0.21069445021E+02  0.39508943784E+03  0.40898869303E+03  0.96314392840E+02 0.  0.
         23    2    1    2    0    0 -0.38153680724E+02 -0.21069445021E+02  0.56111613654E+03  0.57042096752E+03  0.92893146296E+02 0.  0.
          5    1    4    4  502    0 -0.49561518737E+02 -0.49500710173E+02  0.42986631530E+03  0.43556148070E+03  0.47000000000E+01 0. -1.
         -5    1    4    4    0  502  0.11407838013E+02  0.28431265152E+02  0.13124982125E+03  0.13485948681E+03  0.47000000000E+01 0.  1.
          5    1    3    3  503    0 -0.22467716666E+02  0.28255339503E+02  0.23095597315E+03  0.23380742938E+03  0.47000000000E+01 0. -1.
         -5    1    3    3    0  503  0.60621397390E+02 -0.71858944818E+01  0.16413346469E+03  0.17518126365E+03  0.47000000000E+01 0.  1.
<mgrwt>
<rscale>  0 0.10493149E+03</rscale>
<asrwt>0</asrwt>
<pdfrwt beam="1">  1        1 0.14889342E+00 0.10571701E+03</pdfrwt>
<pdfrwt beam="2">  1       -1 0.17849305E-02 0.10571701E+03</pdfrwt>
<totfact> 0.12923221E+04</totfact>
</mgrwt>
</event>
<event>
 8    1  0.3177960E-004  0.9249205E+02  0.7546771E-02  0.1298523E+00
         -1   -1    0    0    0  501 -0.00000000000E+00  0.00000000000E+00  0.97138380501E+01  0.97138380501E+01  0.00000000000E+00 0.  1.
          1   -1    0    0  501    0  0.00000000000E+00 -0.00000000000E+00 -0.11269471078E+04  0.11269471078E+04  0.00000000000E+00 0. -1.
         23    2    1    2    0    0 -0.48038797687E+01  0.11223128328E+02 -0.83139668559E+03  0.83623236642E+03  0.88966768966E+02 0.  0.
         23    2    1    2    0    0  0.48038797687E+01 -0.11223128328E+02 -0.28583658417E+03  0.30042857944E+03  0.91682837107E+02 0.  0.
          5    1    4    4  502    0 -0.36297716947E+02  0.27473531963E+01 -0.20770956395E+03  0.21092753534E+03  0.47000000000E+01 0. -1.
         -5    1    4    4    0  502  0.41101596716E+02 -0.13970481524E+02 -0.78127020220E+02  0.89501044101E+02  0.47000000000E+01 0.  1.
          5    1    3    3  503    0 -0.44471204628E+02 -0.80624979189E+01 -0.42457112510E+03  0.42699581050E+03  0.47000000000E+01 0. -1.
         -5    1    3    3    0  503  0.39667324860E+02  0.19285626247E+02 -0.40682556049E+03  0.40923655593E+03  0.47000000000E+01 0.  1.
<mgrwt>
<rscale>  0 0.91811678E+02</rscale>
<asrwt>0</asrwt>
<pdfrwt beam="1">  1        1 0.17337647E+00 0.92492046E+02</pdfrwt>
<pdfrwt beam="2">  1       -1 0.14944367E-02 0.92492046E+02</pdfrwt>
<totfact> 0.12710841E+04</totfact>
</mgrwt>
</event>
<event>
 8    1  0.3177960E-004  0.1184794E+03  0.7546771E-02  0.1248851E+00
          2   -1    0    0  501    0  0.00000000000E+00  0.00000000000E+00  0.10305369042E+04  0.10305369042E+04  0.00000000000E+00 0. -1.
         -2   -1    0    0    0  501 -0.00000000000E+00 -0.00000000000E+00 -0.14557058568E+02  0.14557058568E+02  0.00000000000E+00 0.  1.
         23    2    1    2    0    0  0.60530069507E+02  0.22477455930E+02  0.70484487812E+03  0.71473328602E+03  0.99339028558E+02 0.  0.
         23    2    1    2    0    0 -0.60530069507E+02 -0.22477455930E+02  0.31113496749E+03  0.33036067672E+03  0.90355317451E+02 0.  0.
          5    1    3    3  502    0  0.74891507616E+02  0.43115968049E+02  0.62305619644E+03  0.62903802631E+03  0.47000000000E+01 0. -1.
         -5    1    4    4    0  503 -0.46343153490E+02 -0.40893662958E+02  0.29555249668E+03  0.30198236345E+03  0.47000000000E+01 0. -1.
          5    1    4    4  503    0 -0.14186916017E+02  0.18416207028E+02  0.15582470810E+02  0.28378313268E+02  0.47000000000E+01 0.  1.
         -5    1    3    3    0  502 -0.14361438108E+02 -0.20638512119E+02  0.81788681672E+02  0.85695259709E+02  0.47000000000E+01 0.  1.
<mgrwt>
<rscale>  0 0.11657801E+03</rscale>
<asrwt>0</asrwt>
<pdfrwt beam="1">  1        2 0.15854408E+00 0.11847940E+03</pdfrwt>
<pdfrwt beam="2">  1       -2 0.22395483E-02 0.11847940E+03</pdfrwt>
<totfact> 0.15613657E+04</totfact>
</mgrwt>
</event>
<event>
 8    1  0.3177960E-004  0.9846189E+02  0.7546771E-02  0.1283925E+00
         -1   -1    0    0    0  501 -0.00000000000E+00  0.00000000000E+00  0.23794391156E+02  0.23794391156E+02  0.00000000000E+00 0.  1.
          1   -1    0    0  501    0  0.00000000000E+00 -0.00000000000E+00 -0.58839211202E+03  0.58839211202E+03  0.00000000000E+00 0. -1.
         23    2    1    2    0    0 -0.26172453880E+02  0.21571969073E+02 -0.11059335698E+03  0.14762788800E+03  0.91721074548E+02 0.  0.
         23    2    1    2    0    0  0.26172453880E+02 -0.21571969073E+02 -0.45400436388E+03  0.46455861517E+03  0.92435909218E+02 0.  0.
          5    1    3    3  502    0 -0.48722633964E+02 -0.84059213187E+01 -0.28534161875E+02  0.57278643206E+02  0.47000000000E+01 0. -1.
         -5    1    4    4    0  503  0.37508637394E+01  0.27330003673E+02 -0.52996138888E+02  0.59930616688E+02  0.47000000000E+01 0.  1.
          5    1    4    4  503    0  0.22421590140E+02 -0.48901972746E+02 -0.40100822499E+03  0.40462799848E+03  0.47000000000E+01 0. -1.
         -5    1    3    3    0  502  0.22550180084E+02  0.29977890392E+02 -0.82059195103E+02  0.90349244796E+02  0.47000000000E+01 0.  1.
<mgrwt>
<rscale>  0 0.98293770E+02</rscale>
<asrwt>0</asrwt>
<pdfrwt beam="1">  1        1 0.90521862E-01 0.98461894E+02</pdfrwt>
<pdfrwt beam="2">  1       -1 0.36606756E-02 0.98461894E+02</pdfrwt>
<totfact> 0.94753141E+03</totfact>
</mgrwt>
</event>
<event>
 8    1  0.3177960E-004  0.1115142E+03  0.7546771E-02  0.1258722E+00
         -2   -1    0    0    0  501 -0.00000000000E+00  0.00000000000E+00  0.24855915522E+02  0.24855915522E+02  0.00000000000E+00 0.  1.
          2   -1    0    0  501    0  0.00000000000E+00 -0.00000000000E+00 -0.54637765265E+03  0.54637765265E+03  0.00000000000E+00 0. -1.
         23    2    1    2    0    0  0.62538720803E+02 -0.16394758103E+02 -0.34933357784E+03  0.36608927847E+03  0.88360237181E+02 0.  0.
         23    2    1    2    0    0 -0.62538720803E+02  0.16394758103E+02 -0.17218815928E+03  0.20514428969E+03  0.90859989563E+02 0.  0.
          5    1    4    4  502    0 -0.60784157527E+02 -0.14777532924E+02 -0.15899965483E+03  0.17092708832E+03  0.47000000000E+01 0. -1.
         -5    1    4    4    0  502 -0.17545632760E+01  0.31172291027E+02 -0.13188504457E+02  0.34217201376E+02  0.47000000000E+01 0.  1.
          5    1    3    3  503    0  0.22407041341E+02 -0.50043492834E+02 -0.21221215837E+03  0.21923165109E+03  0.47000000000E+01 0. -1.
         -5    1    3    3    0  503  0.40131679462E+02  0.33648734731E+02 -0.13712141947E+03  0.14685762739E+03  0.47000000000E+01 0.  1.
<mgrwt>
<rscale>  0 0.11100392E+03</rscale>
<asrwt>0</asrwt>
<pdfrwt beam="1">  1        2 0.84058096E-01 0.11151420E+03</pdfrwt>
<pdfrwt beam="2">  1       -2 0.38239872E-02 0.11151420E+03</pdfrwt>
<totfact> 0.15409207E+04</totfact>
</mgrwt>
</event>
<event>
 8    1  0.3177960E-004  0.9636994E+02  0.7546771E-02  0.1288267E+00
          2   -1    0    0  501    0  0.00000000000E+00  0.00000000000E+00  0.55443333593E+03  0.55443333593E+03  0.00000000000E+00 0. -1.
         -2   -1    0    0    0  501 -0.00000000000E+00 -0.00000000000E+00 -0.28955164368E+02  0.28955164368E+02  0.00000000000E+00 0.  1.
         23    2    1    2    0    0  0.20145623879E+02  0.21347849754E+02  0.73215301715E+02  0.12102746135E+03  0.91791007971E+02 0.  0.
         23    2    1    2    0    0 -0.20145623879E+02 -0.21347849754E+02  0.45226286984E+03  0.46236103895E+03  0.91512021321E+02 0.  0.
          5    1    4    4  502    0 -0.18595687818E+02 -0.43510745703E+02  0.42123772666E+03  0.42391307712E+03  0.47000000000E+01 0. -1.
         -5    1    4    4    0  502 -0.15499360607E+01  0.22162895949E+02  0.31025143187E+02  0.38447961824E+02  0.47000000000E+01 0.  1.
          5    1    3    3  503    0  0.29108420607E+02 -0.31027324939E+02  0.36703237457E+02  0.56384507472E+02  0.47000000000E+01 0. -1.
         -5    1    3    3    0  503 -0.89627967277E+01  0.52375174693E+02  0.36512064258E+02  0.64642953875E+02  0.47000000000E+01 0.  1.
<mgrwt>
<rscale>  0 0.96303451E+02</rscale>
<asrwt>0</asrwt>
<pdfrwt beam="1">  1        2 0.85297429E-01 0.96369943E+02</pdfrwt>
<pdfrwt beam="2">  1       -2 0.44546411E-02 0.96369943E+02</pdfrwt>
<totfact> 0.11954521E+04</totfact>
</mgrwt>
</event>
<event>
 8    1  0.3177960E-004  0.1729135E+03  0.7546771E-02  0.1175361E+00
          1   -1    0    0  501    0  0.00000000000E+00  0.00000000000E+00  0.28241802165E+02  0.28241802165E+02  0.00000000000E+00 0. -1.
         -1   -1    0    0    0  501 -0.00000000000E+00 -0.00000000000E+00 -0.11678586130E+04  0.11678586130E+04  0.00000000000E+00 0.  1.
         23    2    1    2    0    0  0.62358550910E+02 -0.13087798387E+03 -0.75971199491E+03  0.77869561967E+03  0.90481585646E+02 0.  0.
         23    2    1    2    0    0 -0.62358550910E+02  0.13087798387E+03 -0.37990481588E+03  0.41740479546E+03  0.94241490893E+02 0.  0.
          5    1    3    3  502    0  0.42551348904E+01 -0.24174020115E+02 -0.30570871236E+02  0.39486169599E+02  0.47000000000E+01 0. -1.
         -5    1    4    4    0  503 -0.35065022622E+02  0.37527523484E+02 -0.24883687469E+03  0.25412546317E+03  0.47000000000E+01 0.  1.
          5    1    4    4  503    0 -0.27293528288E+02  0.93350460389E+02 -0.13106794120E+03  0.16327933229E+03  0.47000000000E+01 0. -1.
         -5    1    3    3    0  502  0.58103416019E+02 -0.10670396376E+03 -0.72914112367E+03  0.73920945007E+03  0.47000000000E+01 0.  1.
<mgrwt>
<rscale>  0 0.17240628E+03</rscale>
<asrwt>0</asrwt>
<pdfrwt beam="1">  1        1 0.43448937E-02 0.17291355E+03</pdfrwt>
<pdfrwt beam="2">  1       -1 0.17967051E+00 0.17291355E+03</pdfrwt>
<totfact> 0.46455116E+02</totfact>
</mgrwt>
</event>
<event>
 8    1  0.3177960E-004  0.1419121E+03  0.7546771E-02  0.1211133E+00
          3   -1    0    0  501    0  0.00000000000E+00  0.00000000000E+00  0.38543365275E+02  0.38543365275E+02  0.00000000000E+00 0. -1.
         -3   -1    0    0    0  501 -0.00000000000E+00 -0.00000000000E+00 -0.69554071714E+03  0.69554071714E+03  0.00000000000E+00 0.  1.
         23    2    1    2    0    0  0.10511206322E+03  0.25752841600E+02 -0.14428849811E+03  0.20238134755E+03  0.91800242177E+02 0.  0.
         23    2    1    2    0    0 -0.10511206322E+03 -0.25752841600E+02 -0.51270885375E+03  0.53170273486E+03  0.90142525254E+02 0.  0.
          5    1    3    3  502    0  0.78818481367E+02  0.52569243863E+02 -0.66414574073E+02  0.11579664958E+03  0.47000000000E+01 0. -1.
         -5    1    4    4    0  503 -0.48364407723E+02  0.27936679797E+02 -0.13877645489E+03  0.14966819449E+03  0.47000000000E+01 0.  1.
          5    1    4    4  503    0 -0.56747655500E+02 -0.53689521397E+02 -0.37393239887E+03  0.38203454037E+03  0.47000000000E+01 0. -1.
         -5    1    3    3    0  502  0.26293581855E+02 -0.26816402263E+02 -0.77873924036E+02  0.86584697966E+02  0.47000000000E+01 0.  1.
<mgrwt>
<rscale>  0 0.14164466E+03</rscale>
<asrwt>0</asrwt>
<pdfrwt beam="1">  1        3 0.59297483E-02 0.14191208E+03</pdfrwt>
<pdfrwt beam="2">  1       -3 0.10700627E+00 0.14191208E+03</pdfrwt>
<totfact> 0.31459275E+02</totfact>
</mgrwt>
</event>
<event>
 8    1  0.3177960E-004  0.1175632E+03  0.7546771E-02  0.1247272E+00
         -1   -1    0    0    0  501 -0.00000000000E+00  0.00000000000E+00  0.14894861067E+02  0.14894861067E+02  0.00000000000E+00 0.  1.
          1   -1    0    0  501    0  0.00000000000E+00 -0.00000000000E+00 -0.92748544306E+03  0.92748544306E+03  0.00000000000E+00 0. -1.
         23    2    1    2    0    0 -0.72672473951E+02  0.97400849630E+01 -0.43826323092E+03  0.45375739613E+03  0.91896448477E+02 0.  0.
         23    2    1    2    0    0  0.72672473951E+02 -0.97400849630E+01 -0.47432735108E+03  0.48862290800E+03  0.91595592234E+02 0.  0.
          5    1    3    3  502    0  0.31243269706E+01 -0.20775870012E+02 -0.27525431907E+02  0.34944779230E+02  0.47000000000E+01 0. -1.
         -5    1    3    3    0  502 -0.75796800922E+02  0.30515954975E+02 -0.41073779901E+03  0.41881261690E+03  0.47000000000E+01 0.  1.
          5    1    4    4  503    0  0.61181806962E+02  0.34863781110E+02 -0.30705413338E+03  0.31506035543E+03  0.47000000000E+01 0. -1.
         -5    1    4    4    0  503  0.11490666989E+02 -0.44603866073E+02 -0.16727321770E+03  0.17356255257E+03  0.47000000000E+01 0.  1.
<mgrwt>
<rscale>  0 0.11750444E+03</rscale>
<asrwt>0</asrwt>
<pdfrwt beam="1">  1        1 0.14269006E+00 0.11756324E+03</pdfrwt>
<pdfrwt beam="2">  1       -1 0.22915173E-02 0.11756324E+03</pdfrwt>
<totfact> 0.97435785E+03</totfact>
</mgrwt>
</event>
<event>
 8    1  0.3177960E-004  0.1021649E+03  0.7546771E-02  0.1280959E+00
         -1   -1    0    0    0  501 -0.00000000000E+00  0.00000000000E+00  0.98754414248E+02  0.98754414248E+02  0.00000000000E+00 0.  1.
          1   -1    0    0  501    0  0.00000000000E+00 -0.00000000000E+00 -0.10374682071E+03  0.10374682071E+03  0.00000000000E+00 0. -1.
         23    2    1    2    0    0  0.15405246717E+02  0.41065499743E+02 -0.30190423591E+02  0.10653225630E+03  0.92271138821E+02 0.  0.
         23    2    1    2    0    0 -0.15405246717E+02 -0.41065499743E+02  0.25198017128E+02  0.95968978663E+02  0.81556164101E+02 0.  0.
          5    1    3    3  502    0 -0.17900365507E+02  0.24944494261E+02 -0.53989910815E+02  0.62286847320E+02  0.47000000000E+01 0. -1.
         -5    1    3    3    0  502  0.33305612224E+02  0.16121005482E+02  0.23799487224E+02  0.44245408976E+02  0.47000000000E+01 0.  1.
          5    1    4    4  503    0 -0.45529613017E+02 -0.66534694795E+01  0.83302898360E+01  0.46996787617E+02  0.47000000000E+01 0. -1.
         -5    1    4    4    0  503  0.30124366300E+02 -0.34412030263E+02  0.16867727292E+02  0.48972191046E+02  0.47000000000E+01 0.  1.
<mgrwt>
<rscale>  0 0.99685297E+02</rscale>
<asrwt>0</asrwt>
<pdfrwt beam="1">  1        1 0.15961049E-01 0.10216487E+03</pdfrwt>
<pdfrwt beam="2">  1       -1 0.15192987E-01 0.10216487E+03</pdfrwt>
<totfact> 0.99102424E+03</totfact>
</mgrwt>
</event>
<event>
 8    1  0.3177960E-004  0.9714731E+02  0.7546771E-02  0.1287709E+00
          1   -1    0    0  501    0  0.00000000000E+00  0.00000000000E+00  0.19981850630E+03  0.19981850630E+03  0.00000000000E+00 0. -1.
         -1   -1    0    0    0  501 -0.00000000000E+00 -0.00000000000E+00 -0.74918432513E+02  0.74918432513E+02  0.00000000000E+00 0.  1.
         23    2    1    2    0    0 -0.31754508439E+02 -0.88493231516E+01 -0.22276991033E+02  0.99668773336E+02  0.91383481671E+02 0.  0.
         23    2    1    2    0    0  0.31754508439E+02  0.88493231516E+01  0.14717706482E+03  0.17506816548E+03  0.88888215351E+02 0.  0.
          5    1    3    3  502    0  0.63917421474E+01  0.30376254503E+02  0.13448088904E+02  0.34154242789E+02  0.47000000000E+01 0. -1.
         -5    1    4    4    0  503 -0.18424507390E+02  0.31976957007E+02  0.77929175076E+02  0.86354123121E+02  0.47000000000E+01 0.  1.
          5    1    4    4  503    0  0.50179015829E+02 -0.23127633855E+02  0.69247889745E+02  0.88714042358E+02  0.47000000000E+01 0. -1.
         -5    1    3    3    0  502 -0.38146250587E+02 -0.39225577655E+02 -0.35725079937E+02  0.65514530547E+02  0.47000000000E+01 0.  1.
<mgrwt>
<rscale>  0 0.96556076E+02</rscale>
<asrwt>0</asrwt>
<pdfrwt beam="1">  1        1 0.30741309E-01 0.97147311E+02</pdfrwt>
<pdfrwt beam="2">  1       -1 0.11525913E-01 0.97147311E+02</pdfrwt>
<totfact> 0.66464447E+03</totfact>
</mgrwt>
</event>
<event>
 8    1  0.3177960E-004  0.2409175E+03  0.7546771E-02  0.1119403E+00
          1   -1    0    0  501    0  0.00000000000E+00  0.00000000000E+00  0.11058128274E+03  0.11058128274E+03  0.00000000000E+00 0. -1.
         -1   -1    0    0    0  501 -0.00000000000E+00 -0.00000000000E+00 -0.62319381296E+03  0.62319381296E+03  0.00000000000E+00 0.  1.
         23    2    1    2    0    0 -0.17292816870E+02 -0.22267759029E+03 -0.40473829540E+03  0.47101416363E+03  0.90315579176E+02 0.  0.
         23    2    1    2    0    0  0.17292816870E+02  0.22267759029E+03 -0.10787423482E+03  0.26276093208E+03  0.86730076412E+02 0.  0.
          5    1    4    4  502    0 -0.87525542076E+01  0.20898262984E+03 -0.88183141460E+02  0.22704339501E+03  0.47000000000E+01 0. -1.
         -5    1    3    3    0  503 -0.28610536965E+01 -0.17972608783E+03 -0.37698508130E+03  0.41767151422E+03  0.47000000000E+01 0.  1.
          5    1    3    3  503    0 -0.14431763173E+02 -0.42951502468E+02 -0.27753214102E+02  0.53342649405E+02  0.47000000000E+01 0. -1.
         -5    1    4    4    0  502  0.26045371077E+02  0.13694960451E+02 -0.19691093360E+02  0.35717537066E+02  0.47000000000E+01 0.  1.
<mgrwt>
<rscale>  0 0.24058658E+03</rscale>
<asrwt>0</asrwt>
<pdfrwt beam="1">  1        1 0.17012505E-01 0.24091753E+03</pdfrwt>
<pdfrwt beam="2">  1       -1 0.95875971E-01 0.24091753E+03</pdfrwt>
<totfact> 0.35070406E+02</totfact>
</mgrwt>
</event>
<event>
 8    1  0.3177960E-004  0.9366327E+02  0.7546771E-02  0.1295177E+00
         -2   -1    0    0    0  501 -0.00000000000E+00  0.00000000000E+00  0.46273008387E+03  0.46273008387E+03  0.00000000000E+00 0.  1.
          2   -1    0    0  501    0  0.00000000000E+00 -0.00000000000E+00 -0.21542897191E+02  0.21542897191E+02  0.00000000000E+00 0. -1.
         23    2    1    2    0    0  0.18203225002E+02  0.21533791475E+00  0.12976740463E+03  0.15907290638E+03  0.90184291695E+02 0.  0.
         23    2    1    2    0    0 -0.18203225002E+02 -0.21533791475E+00  0.31141978205E+03  0.32520007468E+03  0.91877114402E+02 0.  0.
          5    1    3    3  502    0  0.89347036153E+00 -0.33739285011E+02  0.11141890544E+03  0.11651351909E+03  0.47000000000E+01 0. -1.
         -5    1    3    3    0  502  0.17309754640E+02  0.33954622926E+02  0.18348499196E+02  0.42559387290E+02  0.47000000000E+01 0.  1.
          5    1    4    4  503    0  0.26169414589E+02 -0.29945040099E+02  0.13315650862E+03  0.13904779565E+03  0.47000000000E+01 0. -1.
         -5    1    4    4    0  503 -0.44372639591E+02  0.29729702184E+02  0.17826327342E+03  0.18615227903E+03  0.47000000000E+01 0.  1.
<mgrwt>
<rscale>  0 0.93245494E+02</rscale>
<asrwt>0</asrwt>
<pdfrwt beam="1">  1        2 0.33142922E-02 0.93663269E+02</pdfrwt>
<pdfrwt beam="2">  1       -2 0.71189236E-01 0.93663269E+02</pdfrwt>
<totfact> 0.46110395E+03</totfact>
</mgrwt>
</event>
<event>
 8    1  0.3177960E-004  0.1358668E+03  0.7546771E-02  0.1224984E+00
          1   -1    0    0  501    0  0.00000000000E+00  0.00000000000E+00  0.34859044712E+03  0.34859044712E+03  0.00000000000E+00 0. -1.
         -1   -1    0    0    0  501 -0.00000000000E+00 -0.00000000000E+00 -0.47053621963E+02  0.47053621963E+02  0.00000000000E+00 0.  1.
         23    2    1    2    0    0 -0.44064197009E+02 -0.64894849344E+02  0.17118090035E+03  0.21854674274E+03  0.11093594182E+03 0.  0.
         23    2    1    2    0    0  0.44064197009E+02  0.64894849344E+02  0.13035592481E+03  0.17709732635E+03  0.90652087328E+02 0.  0.
          5    1    4    4  502    0  0.24982884274E+02  0.86392986414E+02  0.10631970602E+03  0.13933363735E+03  0.47000000000E+01 0. -1.
         -5    1    3    3    0  503  0.94248166683E+01 -0.30031460183E+02 -0.39615283603E+01  0.32070227266E+02  0.47000000000E+01 0.  1.
          5    1    3    3  503    0 -0.53489013677E+02 -0.34863389161E+02  0.17514242871E+03  0.18647651547E+03  0.47000000000E+01 0. -1.
         -5    1    4    4    0  502  0.19081312735E+02 -0.21498137070E+02  0.24036218789E+02  0.37763689000E+02  0.47000000000E+01 0.  1.
<mgrwt>
<rscale>  0 0.13168006E+03</rscale>
<asrwt>0</asrwt>
<pdfrwt beam="1">  1        1 0.53629298E-01 0.13586677E+03</pdfrwt>
<pdfrwt beam="2">  1       -1 0.72390190E-02 0.13586677E+03</pdfrwt>
<totfact> 0.69279294E+03</totfact>
</mgrwt>
</event>
<event>
 8    1  0.3177960E-004  0.1136560E+03  0.7546771E-02  0.1256915E+00
          2   -1    0    0  501    0  0.00000000000E+00  0.00000000000E+00  0.51222834334E+02  0.51222834334E+02  0.00000000000E+00 0.  1.
         -2   -1    0    0    0  501 -0.00000000000E+00 -0.00000000000E+00 -0.37853812996E+03  0.37853812996E+03  0.00000000000E+00 0. -1.
         23    2    1    2    0    0 -0.16254088659E+02 -0.65485060454E+02 -0.29734422357E+02  0.11121415913E+03  0.83258421661E+02 0.  0.
         23    2    1    2    0    0  0.16254088659E+02  0.65485060454E+02 -0.29758087327E+03  0.31854680516E+03  0.91461480435E+02 0.  0.
          5    1    3    3  502    0 -0.46926350800E+02 -0.53981102447E+02 -0.30997567387E+02  0.78095973038E+02  0.47000000000E+01 0. -1.
         -5    1    3    3    0  502  0.30672262142E+02 -0.11503958007E+02  0.12631450301E+01  0.33118186093E+02  0.47000000000E+01 0.  1.
          5    1    4    4  503    0 -0.16316990933E+02  0.76891948189E+02 -0.21182326906E+03  0.22598628986E+03  0.47000000000E+01 0. -1.
         -5    1    4    4    0  503  0.32571079592E+02 -0.11406887735E+02 -0.85757604212E+02  0.92560515306E+02  0.47000000000E+01 0.  1.
<mgrwt>
<rscale>  0 0.11199745E+03</rscale>
<asrwt>0</asrwt>
<pdfrwt beam="1">  1        2 0.78804363E-02 0.11365602E+03</pdfrwt>
<pdfrwt beam="2">  1       -2 0.58236634E-01 0.11365602E+03</pdfrwt>
<totfact> 0.23218633E+03</totfact>
</mgrwt>
</event>
<event>
 8    1  0.3177960E-004  0.9602099E+02  0.7546771E-02  0.1289326E+00
         -1   -1    0    0    0  501 -0.00000000000E+00  0.00000000000E+00  0.37964640885E+02  0.37964640885E+02  0.00000000000E+00 0.  1.
          1   -1    0    0  501    0  0.00000000000E+00 -0.00000000000E+00 -0.25216111339E+03  0.25216111339E+03  0.00000000000E+00 0. -1.
         23    2    1    2    0    0 -0.23997025189E+02 -0.15480122413E+02 -0.13734236452E+03  0.16713557157E+03  0.90861888522E+02 0.  0.
         23    2    1    2    0    0  0.23997025189E+02  0.15480122413E+02 -0.76854107988E+02  0.12299018270E+03  0.91676276751E+02 0.  0.
          5    1    3    3  502    0 -0.16309902531E+01  0.25625446625E+02 -0.10930920141E+03  0.11238289531E+03  0.47000000000E+01 0. -1.
         -5    1    4    4    0  503  0.38084972688E+02 -0.25669754113E+02 -0.17763306991E+02  0.49467428639E+02  0.47000000000E+01 0.  1.
          5    1    4    4  503    0 -0.14087947499E+02  0.41149876525E+02 -0.59090800997E+02  0.73522754064E+02  0.47000000000E+01 0. -1.
         -5    1    3    3    0  502 -0.22366034936E+02 -0.41105569037E+02 -0.28033163106E+02  0.54752676267E+02  0.47000000000E+01 0.  1.
<mgrwt>
<rscale>  0 0.95826093E+02</rscale>
<asrwt>0</asrwt>
<pdfrwt beam="1">  1        1 0.38794017E-01 0.96020993E+02</pdfrwt>
<pdfrwt beam="2">  1       -1 0.58407140E-02 0.96020993E+02</pdfrwt>
<totfact> 0.13818522E+04</totfact>
</mgrwt>
</event>
<event>
 8    1  0.3177960E-004  0.9414652E+02  0.7546771E-02  0.1293630E+00
         -2   -1    0    0    0  501 -0.00000000000E+00  0.00000000000E+00  0.20788316788E+03  0.20788316788E+03  0.00000000000E+00 0.  1.
          2   -1    0    0  501    0  0.00000000000E+00 -0.00000000000E+00 -0.42296478309E+02  0.42296478309E+02  0.00000000000E+00 0. -1.
         23    2    1    2    0    0  0.11888141715E+02  0.28115992893E+01  0.88257495268E+02  0.12904631804E+03  0.93350595738E+02 0.  0.
         23    2    1    2    0    0 -0.11888141715E+02 -0.28115992893E+01  0.77329194299E+02  0.12113332814E+03  0.92435090157E+02 0.  0.
          5    1    4    4  502    0 -0.35185946784E+02 -0.34138001906E+02  0.23761068829E+02  0.54682103262E+02  0.47000000000E+01 0. -1.
         -5    1    3    3    0  503  0.47651372623E+02  0.16250471203E+02  0.70234324660E+02  0.86542945914E+02  0.47000000000E+01 0.  1.
          5    1    3    3  503    0 -0.35763230908E+02 -0.13438871914E+02  0.18023170608E+02  0.42503372126E+02  0.47000000000E+01 0. -1.
         -5    1    4    4    0  502  0.23297805069E+02  0.31326402617E+02  0.53568125470E+02  0.66451224882E+02  0.47000000000E+01 0.  1.
<mgrwt>
<rscale>  0 0.93918770E+02</rscale>
<asrwt>0</asrwt>
<pdfrwt beam="1">  1        2 0.65071506E-02 0.94146517E+02</pdfrwt>
<pdfrwt beam="2">  1       -2 0.31982025E-01 0.94146517E+02</pdfrwt>
<totfact> 0.91560646E+03</totfact>
</mgrwt>
</event>
<event>
 8    1  0.3177960E-004  0.9605325E+02  0.7546771E-02  0.1289095E+00
          1   -1    0    0  501    0  0.00000000000E+00  0.00000000000E+00  0.32172155097E+03  0.32172155097E+03  0.00000000000E+00 0. -1.
         -1   -1    0    0    0  501 -0.00000000000E+00 -0.00000000000E+00 -0.49924159567E+02  0.49924159567E+02  0.00000000000E+00 0.  1.
         23    2    1    2    0    0  0.10216582775E+02  0.69260935633E+01  0.25773897077E+03  0.27505563793E+03  0.95256902976E+02 0.  0.
         23    2    1    2    0    0 -0.10216582775E+02 -0.69260935633E+01  0.14058420626E+02  0.96590072607E+02  0.94761034187E+02 0.  0.
          5    1    4    4  502    0  0.72602521373E+01 -0.46265274756E+02 -0.83995528933E+01  0.47810348233E+02  0.47000000000E+01 0. -1.
         -5    1    3    3    0  503 -0.39313704333E+02  0.17703121430E+02  0.92707324034E+02  0.10235089539E+03  0.47000000000E+01 0.  1.
          5    1    3    3  503    0  0.49530287108E+02 -0.10777027867E+02  0.16503164674E+03  0.17270474254E+03  0.47000000000E+01 0. -1.
         -5    1    4    4    0  502 -0.17476834913E+02  0.39339181192E+02  0.22457973519E+02  0.48779724374E+02  0.47000000000E+01 0.  1.
<mgrwt>
<rscale>  0 0.95930080E+02</rscale>
<asrwt>0</asrwt>
<pdfrwt beam="1">  1        1 0.49495622E-01 0.96053250E+02</pdfrwt>
<pdfrwt beam="2">  1       -1 0.76806401E-02 0.96053250E+02</pdfrwt>
<totfact> 0.68353623E+03</totfact>
</mgrwt>
</event>
<event>
 8    1  0.3177960E-004  0.9398285E+02  0.7546771E-02  0.1296459E+00
          1   -1    0    0  501    0  0.00000000000E+00  0.00000000000E+00  0.90599812115E+02  0.90599812115E+02  0.00000000000E+00 0. -1.
         -1   -1    0    0    0  501 -0.00000000000E+00 -0.00000000000E+00 -0.14678083454E+03  0.14678083454E+03  0.00000000000E+00 0.  1.
         23    2    1    2    0    0 -0.24352582278E+02 -0.62022036612E+01  0.44678704245E+02  0.99520354457E+02  0.85302982037E+02 0.  0.
         23    2    1    2    0    0  0.24352582278E+02  0.62022036612E+01 -0.10085972667E+03  0.13786029220E+03  0.90560808891E+02 0.  0.
          5    1    4    4  502    0  0.33268856009E+02  0.43716978512E+02 -0.58903213328E+02  0.80682523081E+02  0.47000000000E+01 0. -1.
         -5    1    3    3    0  503 -0.29233065161E+02 -0.29225277213E+02 -0.73281364219E+01  0.42243111987E+02  0.47000000000E+01 0.  1.
          5    1    3    3  503    0  0.48804828831E+01  0.23023073552E+02  0.52006840667E+02  0.57277242471E+02  0.47000000000E+01 0. -1.
         -5    1    4    4    0  502 -0.89162737312E+01 -0.37514774850E+02 -0.41956513341E+02  0.57177769116E+02  0.47000000000E+01 0.  1.
<mgrwt>
<rscale>  0 0.92692708E+02</rscale>
<asrwt>0</asrwt>
<pdfrwt beam="1">  1        1 0.13938433E-01 0.93982848E+02</pdfrwt>
<pdfrwt beam="2">  1       -1 0.22581667E-01 0.93982848E+02</pdfrwt>
<totfact> 0.62560091E+03</totfact>
</mgrwt>
</event>
<event>
 8    1  0.3177960E-004  0.1408551E+03  0.7546771E-02  0.1212378E+00
         -2   -1    0    0    0  501 -0.00000000000E+00  0.00000000000E+00  0.98158566059E+02  0.98158566059E+02  0.00000000000E+00 0.  1.
          2   -1    0    0  501    0  0.00000000000E+00 -0.00000000000E+00 -0.51797209566E+03  0.51797209566E+03  0.00000000000E+00 0. -1.
         23    2    1    2    0    0 -0.10269922100E+03  0.28257205162E+02 -0.45061848174E+03  0.47194642845E+03  0.91273301695E+02 0.  0.
         23    2    1    2    0    0  0.10269922100E+03 -0.28257205162E+02  0.30804952142E+02  0.14418423327E+03  0.92165874429E+02 0.  0.
          5    1    4    4  502    0  0.50728175441E+02  0.20447976207E+02 -0.17933552197E+02  0.57750929075E+02  0.47000000000E+01 0. -1.
         -5    1    4    4    0  502  0.51971045558E+02 -0.48705181370E+02  0.48738504338E+02  0.86433304194E+02  0.47000000000E+01 0.  1.
          5    1    3    3  503    0 -0.58827574492E+02  0.10789958878E+02 -0.39182483070E+03  0.39639108805E+03  0.47000000000E+01 0. -1.
         -5    1    3    3    0  503 -0.43871646508E+02  0.17467246285E+02 -0.58793651043E+02  0.75555340401E+02  0.47000000000E+01 0.  1.
<mgrwt>
<rscale>  0 0.14070923E+03</rscale>
<asrwt>0</asrwt>
<pdfrwt beam="1">  1        2 0.79688015E-01 0.14085506E+03</pdfrwt>
<pdfrwt beam="2">  1       -2 0.15101318E-01 0.14085506E+03</pdfrwt>
<totfact> 0.19905865E+03</totfact>
</mgrwt>
</event>
<event>
 8    1  0.3177960E-004  0.1083451E+03  0.7546771E-02  0.1264570E+00
         -1   -1    0    0    0  501 -0.00000000000E+00  0.00000000000E+00  0.12502166760E+02  0.12502166760E+02  0.00000000000E+00 0.  1.
          1   -1    0    0  501    0  0.00000000000E+00 -0.00000000000E+00 -0.11663240857E+04  0.11663240857E+04  0.00000000000E+00 0. -1.
         23    2    1    2    0    0 -0.45504843177E+02  0.35249645509E+02 -0.31149374718E+03  0.32979846178E+03  0.91790209708E+02 0.  0.
         23    2    1    2    0    0  0.45504843177E+02 -0.35249645509E+02 -0.84232817179E+03  0.84902779071E+03  0.89544470224E+02 0.  0.
          5    1    4    4  502    0  0.64045960137E+02 -0.50503693510E+02 -0.67320673192E+03  0.67814592970E+03  0.47000000000E+01 0. -1.
         -5    1    3    3    0  503  0.22967244106E+02 -0.34072862864E+00 -0.31137250388E+02  0.38977285174E+02  0.47000000000E+01 0.  1.
          5    1    3    3  503    0 -0.68472087283E+02  0.35590374138E+02 -0.28035649679E+03  0.29082117660E+03  0.47000000000E+01 0. -1.
         -5    1    4    4    0  502 -0.18541116960E+02  0.15254048001E+02 -0.16912143988E+03  0.17088186102E+03  0.47000000000E+01 0.  1.
<mgrwt>
<rscale>  0 0.10786803E+03</rscale>
<asrwt>0</asrwt>
<pdfrwt beam="1">  1        1 0.17943448E+00 0.10834515E+03</pdfrwt>
<pdfrwt beam="2">  1       -1 0.19234102E-02 0.10834515E+03</pdfrwt>
<totfact> 0.84182631E+03</totfact>
</mgrwt>
</event>
<event>
 8    1  0.3177960E-004  0.9255099E+02  0.7546771E-02  0.1302034E+00
         -1   -1    0    0    0  501 -0.00000000000E+00  0.00000000000E+00  0.16776427585E+03  0.16776427585E+03  0.00000000000E+00 0.  1.
          1   -1    0    0  501    0  0.00000000000E+00 -0.00000000000E+00 -0.16626500321E+03  0.16626500321E+03  0.00000000000E+00 0. -1.
         23    2    1    2    0    0  0.11348998375E+02 -0.11712443892E+02  0.14246778133E+03  0.16539415341E+03  0.82414659848E+02 0.  0.
         23    2    1    2    0    0 -0.11348998375E+02  0.11712443892E+02 -0.14096850868E+03  0.16863512565E+03  0.91102711582E+02 0.  0.
          5    1    4    4  502    0  0.85246059258E+01  0.44403252088E+02 -0.11055565993E+03  0.11953644484E+03  0.47000000000E+01 0. -1.
         -5    1    4    4    0  502 -0.19873604301E+02 -0.32690808196E+02 -0.30412848752E+02  0.49098680813E+02  0.47000000000E+01 0.  1.
          5    1    3    3  503    0 -0.33388239787E+02  0.83389632003E+01  0.56772686145E+02  0.66554795135E+02  0.47000000000E+01 0. -1.
         -5    1    3    3    0  503  0.44737238162E+02 -0.20051407092E+02  0.85695095187E+02  0.98839358273E+02  0.47000000000E+01 0.  1.
<mgrwt>
<rscale>  0 0.90338361E+02</rscale>
<asrwt>0</asrwt>
<pdfrwt beam="1">  1        1 0.25579231E-01 0.92550987E+02</pdfrwt>
<pdfrwt beam="2">  1       -1 0.25809889E-01 0.92550987E+02</pdfrwt>
<totfact> 0.23400154E+03</totfact>
</mgrwt>
</event>
<event>
 8    1  0.3177960E-004  0.1070414E+03  0.7546771E-02  0.1266215E+00
         -2   -1    0    0    0  501 -0.00000000000E+00  0.00000000000E+00  0.11016101072E+03  0.11016101072E+03  0.00000000000E+00 0.  1.
          2   -1    0    0  501    0  0.00000000000E+00 -0.00000000000E+00 -0.14407728453E+03  0.14407728453E+03  0.00000000000E+00 0. -1.
         23    2    1    2    0    0 -0.85832327582E+00 -0.53553491383E+02  0.50196933401E+02  0.11810270288E+03  0.92519204200E+02 0.  0.
         23    2    1    2    0    0  0.85832327582E+00  0.53553491383E+02 -0.84113207216E+02  0.13613559237E+03  0.92677692695E+02 0.  0.
          5    1    3    3  502    0  0.24125356803E+02  0.18285990526E+02  0.16260029276E+02  0.34682687936E+02  0.47000000000E+01 0. -1.
         -5    1    4    4    0  503 -0.26608349839E+02 -0.97826842874E+01 -0.20735166324E+01  0.28811363457E+02  0.47000000000E+01 0.  1.
          5    1    4    4  503    0  0.27466673114E+02  0.63336175670E+02 -0.82039690584E+02  0.10732422891E+03  0.47000000000E+01 0. -1.
         -5    1    3    3    0  502 -0.24983680079E+02 -0.71839481908E+02  0.33936904125E+02  0.83420014941E+02  0.47000000000E+01 0.  1.
<mgrwt>
<rscale>  0 0.10700712E+03</rscale>
<asrwt>0</asrwt>
<pdfrwt beam="1">  1        2 0.22165736E-01 0.10704143E+03</pdfrwt>
<pdfrwt beam="2">  1       -2 0.16947848E-01 0.10704143E+03</pdfrwt>
<totfact> 0.64191094E+03</totfact>
</mgrwt>
</event>
<event>
 8    1  0.3747295E-004  0.1059030E+03  0.7546771E-02  0.1273341E+00
          2   -1    0    0  501    0  0.00000000000E+00  0.00000000000E+00  0.65838629906E+03  0.65838629906E+03  0.00000000000E+00 0. -1.
         -2   -1    0    0    0  501 -0.00000000000E+00 -0.00000000000E+00 -0.35555142874E+02  0.35555142874E+02  0.00000000000E+00 0.  1.
         23    2    1    2    0    0 -0.22470870993E+02 -0.17355998714E+02  0.56529608858E+03  0.57341867129E+03  0.91886528275E+02 0.  0.
         23    2    1    2    0    0  0.22470870993E+02  0.17355998714E+02  0.57535067601E+02  0.12052277064E+03  0.10202589625E+03 0.  0.
          5    1    4    4  502    0  0.36240407259E+02 -0.27826960493E+02  0.56801469590E+02  0.73049324406E+02  0.47000000000E+01 0. -1.
         -5    1    4    4    0  502 -0.13769536267E+02  0.45182959207E+02  0.73359801102E+00  0.47473446238E+02  0.47000000000E+01 0.  1.
          5    1    3    3  503    0 -0.39688282261E+02 -0.46662769549E+02  0.33629157743E+03  0.34185770265E+03  0.47000000000E+01 0. -1.
         -5    1    3    3    0  503  0.17217411269E+02  0.29306770835E+02  0.22900451116E+03  0.23156096864E+03  0.47000000000E+01 0.  1.
<mgrwt>
<rscale>  0 0.10338201E+03</rscale>
<asrwt>0</asrwt>
<pdfrwt beam="1">  1        2 0.10129019E+00 0.10590304E+03</pdfrwt>
<pdfrwt beam="2">  1       -2 0.54700225E-02 0.10590304E+03</pdfrwt>
<totfact> 0.73049337E+03</totfact>
</mgrwt>
</event>
<event>
 8    1  0.3177960E-004  0.9875493E+02  0.7546771E-02  0.1285098E+00
          1   -1    0    0  501    0  0.00000000000E+00  0.00000000000E+00  0.42186216436E+02  0.42186216436E+02  0.00000000000E+00 0. -1.
         -1   -1    0    0    0  501 -0.00000000000E+00 -0.00000000000E+00 -0.38812066258E+03  0.38812066258E+03  0.00000000000E+00 0.  1.
         23    2    1    2    0    0 -0.52595782234E+01 -0.35035136312E+02 -0.34251552505E+02  0.10452610203E+03  0.92181414707E+02 0.  0.
         23    2    1    2    0    0  0.52595782234E+01  0.35035136312E+02 -0.31168289364E+03  0.32578077698E+03  0.87930452781E+02 0.  0.
          5    1    3    3  502    0 -0.35335432699E+01  0.23308554208E+02  0.14721646063E+02  0.28188499252E+02  0.47000000000E+01 0. -1.
         -5    1    4    4    0  503 -0.32430378318E+02 -0.20758630822E+01 -0.58461072855E+02  0.67050918598E+02  0.47000000000E+01 0.  1.
          5    1    4    4  503    0  0.37689956541E+02  0.37110999394E+02 -0.25322182078E+03  0.25872985839E+03  0.47000000000E+01 0. -1.
         -5    1    3    3    0  502 -0.17260349535E+01 -0.58343690520E+02 -0.48973198568E+02  0.76337602779E+02  0.47000000000E+01 0.  1.
<mgrwt>
<rscale>  0 0.97750790E+02</rscale>
<asrwt>0</asrwt>
<pdfrwt beam="1">  1        1 0.64901871E-02 0.98754935E+02</pdfrwt>
<pdfrwt beam="2">  1       -1 0.59710871E-01 0.98754935E+02</pdfrwt>
<totfact> 0.32093259E+03</totfact>
</mgrwt>
</event>
<event>
 8    1  0.3177960E-004  0.1335674E+03  0.7546771E-02  0.1231383E+00
         -2   -1    0    0    0  501 -0.00000000000E+00  0.00000000000E+00  0.41218073366E+02  0.41218073366E+02  0.00000000000E+00 0.  1.
          2   -1    0    0  501    0  0.00000000000E+00 -0.00000000000E+00 -0.85833949414E+03  0.85833949414E+03  0.00000000000E+00 0. -1.
         23    2    1    2    0    0  0.26185003007E+02 -0.56441453374E+02 -0.50707845459E+02  0.12159226789E+03  0.91335108138E+02 0.  0.
         23    2    1    2    0    0 -0.26185003007E+02  0.56441453374E+02 -0.76641357531E+03  0.77796529961E+03  0.11819029966E+03 0.  0.
          5    1    4    4  502    0 -0.59915364265E+02  0.72903833826E+02 -0.59246588267E+03  0.59995227476E+03  0.47000000000E+01 0. -1.
         -5    1    4    4    0  502  0.33730361258E+02 -0.16462380452E+02 -0.17394769265E+03  0.17801302485E+03  0.47000000000E+01 0.  1.
          5    1    3    3  503    0  0.18453260840E+02  0.22952129822E+02 -0.20387694179E+02  0.36125768821E+02  0.47000000000E+01 0. -1.
         -5    1    3    3    0  503  0.77317421666E+01 -0.79393583197E+02 -0.30320151280E+02  0.85466499071E+02  0.47000000000E+01 0.  1.
<mgrwt>
<rscale>  0 0.12738837E+03</rscale>
<asrwt>0</asrwt>
<pdfrwt beam="1">  1        2 0.13205224E+00 0.13356736E+03</pdfrwt>
<pdfrwt beam="2">  1       -2 0.63412415E-02 0.13356736E+03</pdfrwt>
<totfact> 0.42883684E+03</totfact>
</mgrwt>
</event>
<event>
 8    1  0.3177960E-004  0.1121332E+03  0.7546771E-02  0.1259271E+00
         -1   -1    0    0    0  501 -0.00000000000E+00  0.00000000000E+00  0.29162504799E+02  0.29162504799E+02  0.00000000000E+00 0.  1.
          1   -1    0    0  501    0  0.00000000000E+00 -0.00000000000E+00 -0.41769227720E+03  0.41769227720E+03  0.00000000000E+00 0. -1.
         23    2    1    2    0    0 -0.56797660705E+02 -0.11209658008E+02 -0.22970086557E+03  0.25560973666E+03  0.96032385885E+02 0.  0.
         23    2    1    2    0    0  0.56797660705E+02  0.11209658008E+02 -0.15882890684E+03  0.19124504534E+03  0.89422676245E+02 0.  0.
          5    1    4    4  502    0  0.75439720198E+02  0.16033712068E+01 -0.15006769339E+03  0.16803608179E+03  0.47000000000E+01 0. -1.
         -5    1    4    4    0  502 -0.18642059493E+02  0.96062868013E+01 -0.87612134463E+01  0.23208963555E+02  0.47000000000E+01 0.  1.
          5    1    3    3  503    0 -0.37900383785E+00 -0.45333066331E+02 -0.82631861051E+02  0.94368135553E+02  0.47000000000E+01 0. -1.
         -5    1    3    3    0  503 -0.56418656867E+02  0.34123408323E+02 -0.14706900452E+03  0.16124160111E+03  0.47000000000E+01 0.  1.
<mgrwt>
<rscale>  0 0.11070462E+03</rscale>
<asrwt>0</asrwt>
<pdfrwt beam="1">  1        1 0.64260342E-01 0.11213318E+03</pdfrwt>
<pdfrwt beam="2">  1       -1 0.44865398E-02 0.11213318E+03</pdfrwt>
<totfact> 0.11077467E+04</totfact>
</mgrwt>
</event>
<event>
 8    1  0.3177960E-004  0.1122046E+03  0.7546771E-02  0.1261385E+00
          1   -1    0    0  501    0  0.00000000000E+00  0.00000000000E+00  0.15516725037E+03  0.15516725037E+03  0.00000000000E+00 0. -1.
         -1   -1    0    0    0  501 -0.00000000000E+00 -0.00000000000E+00 -0.76068019008E+02  0.76068019008E+02  0.00000000000E+00 0.  1.
         23    2    1    2    0    0  0.41833251591E+02  0.51978277427E+02  0.21996397349E+02  0.11434038496E+03  0.90211528499E+02 0.  0.
         23    2    1    2    0    0 -0.41833251591E+02 -0.51978277427E+02  0.57102834017E+02  0.11689488442E+03  0.77148675217E+02 0.  0.
          5    1    4    4  502    0 -0.63645683788E+02 -0.41555420283E+02  0.35040572003E+02  0.83830529677E+02  0.47000000000E+01 0. -1.
         -5    1    3    3    0  503  0.55206405963E+02  0.86666354965E+00 -0.34322670664E+01  0.55519085207E+02  0.47000000000E+01 0.  1.
          5    1    3    3  503    0 -0.13373154372E+02  0.51111613877E+02  0.25428664416E+02  0.58821299756E+02  0.47000000000E+01 0. -1.
         -5    1    4    4    0  502  0.21812432196E+02 -0.10422857144E+02  0.22062262014E+02  0.33064354742E+02  0.47000000000E+01 0.  1.
<mgrwt>
<rscale>  0 0.10956113E+03</rscale>
<asrwt>0</asrwt>
<pdfrwt beam="1">  1        1 0.23871885E-01 0.11220464E+03</pdfrwt>
<pdfrwt beam="2">  1       -1 0.11702772E-01 0.11220464E+03</pdfrwt>
<totfact> 0.89876395E+03</totfact>
</mgrwt>
</event>
<event>
 8    1  0.3177960E-004  0.2496165E+03  0.7546771E-02  0.1113682E+00
         -2   -1    0    0    0  501 -0.00000000000E+00  0.00000000000E+00  0.73339983432E+02  0.73339983432E+02  0.00000000000E+00 0.  1.
          2   -1    0    0  501    0  0.00000000000E+00 -0.00000000000E+00 -0.92948171140E+03  0.92948171140E+03  0.00000000000E+00 0. -1.
         23    2    1    2    0    0 -0.21565975558E+03  0.85762520120E+02 -0.57836513583E+03  0.62993223512E+03  0.91891514627E+02 0.  0.
         23    2    1    2    0    0  0.21565975558E+03 -0.85762520120E+02 -0.27777659214E+03  0.37288945972E+03  0.89567706211E+02 0.  0.
          5    1    4    4  502    0  0.14476361391E+02 -0.26180423091E+02 -0.75751239451E+02  0.81580143851E+02  0.47000000000E+01 0. -1.
         -5    1    4    4    0  502  0.20118339419E+03 -0.59582097029E+02 -0.20202535269E+03  0.29130931587E+03  0.47000000000E+01 0.  1.
          5    1    3    3  503    0 -0.16348787281E+03  0.31267984653E+02 -0.46276597772E+03  0.49181339099E+03  0.47000000000E+01 0. -1.
         -5    1    3    3    0  503 -0.52171882764E+02  0.54494535467E+02 -0.11559915811E+03  0.13811884413E+03  0.47000000000E+01 0.  1.
<mgrwt>
<rscale>  0 0.24940470E+03</rscale>
<asrwt>0</asrwt>
<pdfrwt beam="1">  1        2 0.14299718E+00 0.24961649E+03</pdfrwt>
<pdfrwt beam="2">  1       -2 0.11283075E-01 0.24961649E+03</pdfrwt>
<totfact> 0.15882458E+03</totfact>
</mgrwt>
</event>
<event>
 8    1  0.3177960E-004  0.1061949E+03  0.7546771E-02  0.1268307E+00
         -1   -1    0    0    0  501 -0.00000000000E+00  0.00000000000E+00  0.30626180829E+02  0.30626180829E+02  0.00000000000E+00 0.  1.
          1   -1    0    0  501    0  0.00000000000E+00 -0.00000000000E+00 -0.36591214574E+03  0.36591214574E+03  0.00000000000E+00 0. -1.
         23    2    1    2    0    0  0.22408702355E+02 -0.52282992890E+02 -0.18076331622E+03  0.20964909637E+03  0.89675558721E+02 0.  0.
         23    2    1    2    0    0 -0.22408702355E+02  0.52282992890E+02 -0.15452264869E+03  0.18688923020E+03  0.88400645462E+02 0.  0.
          5    1    3    3  502    0 -0.16599386402E+02 -0.16776130812E+02 -0.14199092932E+03  0.14401559708E+03  0.47000000000E+01 0. -1.
         -5    1    4    4    0  503  0.11864962985E+02  0.24190645965E+02 -0.13701716844E+01  0.27384887607E+02  0.47000000000E+01 0.  1.
          5    1    4    4  503    0 -0.34273665340E+02  0.28092346926E+02 -0.15315247700E+03  0.15950434259E+03  0.47000000000E+01 0. -1.
         -5    1    3    3    0  502  0.39008088757E+02 -0.35506862078E+02 -0.38772386902E+02  0.65633499291E+02  0.47000000000E+01 0.  1.
<mgrwt>
<rscale>  0 0.10592533E+03</rscale>
<asrwt>0</asrwt>
<pdfrwt beam="1">  1        1 0.56294179E-01 0.10619495E+03</pdfrwt>
<pdfrwt beam="2">  1       -1 0.47117199E-02 0.10619495E+03</pdfrwt>
<totfact> 0.12107377E+04</totfact>
</mgrwt>
</event>
<event>
 8    1  0.3177960E-004  0.1021766E+03  0.7546771E-02  0.1276822E+00
          4   -1    0    0  501    0  0.00000000000E+00  0.00000000000E+00  0.25911121526E+02  0.25911121526E+02  0.00000000000E+00 0. -1.
         -4   -1    0    0    0  501 -0.00000000000E+00 -0.00000000000E+00 -0.59629290038E+03  0.59629290038E+03  0.00000000000E+00 0.  1.
         23    2    1    2    0    0  0.88281867639E+01  0.45369724268E+02 -0.46404792523E+03  0.47473554227E+03  0.88865119309E+02 0.  0.
         23    2    1    2    0    0 -0.88281867639E+01 -0.45369724268E+02 -0.10633385363E+03  0.14746847963E+03  0.91124723847E+02 0.  0.
          5    1    3    3  502    0  0.48452242106E+02  0.21529900317E+02 -0.22497718472E+03  0.23118819178E+03  0.47000000000E+01 0.  1.
         -5    1    3    3    0  502 -0.39624055342E+02  0.23839823951E+02 -0.23907074050E+03  0.24354735050E+03  0.47000000000E+01 0. -1.
          5    1    4    4  503    0 -0.46561324275E+02 -0.59529058025E+01 -0.54191043486E+02  0.71848125931E+02  0.47000000000E+01 0. -1.
         -5    1    4    4    0  503  0.37733137512E+02 -0.39416818466E+02 -0.52142810145E+02  0.75620353703E+02  0.47000000000E+01 0.  1.
<mgrwt>
<rscale>  0 0.10167039E+03</rscale>
<asrwt>0</asrwt>
<pdfrwt beam="1">  1        4 0.39863271E-02 0.10217663E+03</pdfrwt>
<pdfrwt beam="2">  1       -4 0.91737354E-01 0.10217663E+03</pdfrwt>
<totfact> 0.56119566E+02</totfact>
</mgrwt>
</event>
<event>
 8    1  0.3177960E-004  0.1106110E+03  0.7546771E-02  0.1261734E+00
          2   -1    0    0  501    0  0.00000000000E+00  0.00000000000E+00  0.58824768828E+03  0.58824768828E+03  0.00000000000E+00 0. -1.
         -2   -1    0    0    0  501 -0.00000000000E+00 -0.00000000000E+00 -0.20257866172E+02  0.20257866172E+02  0.00000000000E+00 0.  1.
         23    2    1    2    0    0 -0.57328548346E+02 -0.22925440036E+02  0.23693175446E+03  0.25945795376E+03  0.85846579686E+02 0.  0.
         23    2    1    2    0    0  0.57328548346E+02  0.22925440036E+02  0.33105806765E+03  0.34904760069E+03  0.91774970088E+02 0.  0.
          5    1    3    3  502    0 -0.17205314597E+02 -0.45683571793E+02  0.65250218844E+02  0.81625318629E+02  0.47000000000E+01 0. -1.
         -5    1    3    3    0  502 -0.40123233748E+02  0.22758131757E+02  0.17168153562E+03  0.17783263514E+03  0.47000000000E+01 0.  1.
          5    1    4    4  503    0  0.24731821769E+02 -0.24509095310E+02  0.22988492622E+03  0.23255435508E+03  0.47000000000E+01 0. -1.
         -5    1    4    4    0  503  0.32596726576E+02  0.47434535346E+02  0.10117314143E+03  0.11649324561E+03  0.47000000000E+01 0.  1.
<mgrwt>
<rscale>  0 0.10937358E+03</rscale>
<asrwt>0</asrwt>
<pdfrwt beam="1">  1        2 0.90499631E-01 0.11061096E+03</pdfrwt>
<pdfrwt beam="2">  1       -2 0.31165952E-02 0.11061096E+03</pdfrwt>
<totfact> 0.19155786E+04</totfact>
</mgrwt>
</event>
<event>
 8    1  0.3177960E-004  0.1040073E+03  0.7546771E-02  0.1277014E+00
         -1   -1    0    0    0  501 -0.00000000000E+00  0.00000000000E+00  0.18992151089E+03  0.18992151089E+03  0.00000000000E+00 0.  1.
          1   -1    0    0  501    0  0.00000000000E+00 -0.00000000000E+00 -0.57125600379E+02  0.57125600379E+02  0.00000000000E+00 0. -1.
         23    2    1    2    0    0 -0.21094687577E+02 -0.19296498354E+02  0.32049651535E+02  0.10883336845E+03  0.10000090615E+03 0.  0.
         23    2    1    2    0    0  0.21094687577E+02  0.19296498354E+02  0.10074625898E+03  0.13821374282E+03  0.90199164708E+02 0.  0.
          5    1    4    4  502    0  0.18309600753E+02 -0.24713237854E+02  0.86037540439E+02  0.91490622305E+02  0.47000000000E+01 0. -1.
         -5    1    4    4    0  502  0.27850868245E+01  0.44009736208E+02  0.14708718537E+02  0.46723120516E+02  0.47000000000E+01 0.  1.
          5    1    3    3  503    0 -0.74438212348E+01  0.34412787276E+02 -0.12414734613E+02  0.37627995405E+02  0.47000000000E+01 0. -1.
         -5    1    3    3    0  503 -0.13650866342E+02 -0.53709285630E+02  0.44464386147E+02  0.71205373043E+02  0.47000000000E+01 0.  1.
<mgrwt>
<rscale>  0 0.10157700E+03</rscale>
<asrwt>0</asrwt>
<pdfrwt beam="1">  1        1 0.87885540E-02 0.10400732E+03</pdfrwt>
<pdfrwt beam="2">  1       -1 0.29218694E-01 0.10400732E+03</pdfrwt>
<totfact> 0.75593972E+03</totfact>
</mgrwt>
</event>
<event>
 8    1  0.3177960E-004  0.9623310E+02  0.7546771E-02  0.1293413E+00
          3   -1    0    0  501    0  0.00000000000E+00  0.00000000000E+00  0.16734032609E+03  0.16734032609E+03  0.00000000000E+00 0. -1.
         -3   -1    0    0    0  501 -0.00000000000E+00 -0.00000000000E+00 -0.56363104103E+02  0.56363104103E+02  0.00000000000E+00 0.  1.
         23    2    1    2    0    0 -0.38444648093E+02  0.79162201401E+01  0.93787636036E+02  0.13437608012E+03  0.87864399655E+02 0.  0.
         23    2    1    2    0    0  0.38444648093E+02 -0.79162201401E+01  0.17189585954E+02  0.89327350077E+02  0.78378798780E+02 0.  0.
          5    1    3    3  502    0 -0.61319285943E+02  0.23272476203E+02  0.50761519408E+02  0.83069156910E+02  0.47000000000E+01 0. -1.
         -5    1    4    4    0  503  0.81666390733E+01 -0.40401843389E+02  0.16553760600E+02  0.44666765419E+02  0.47000000000E+01 0.  1.
          5    1    4    4  503    0  0.30278009019E+02  0.32485623249E+02  0.63582535363E+00  0.44660584657E+02  0.47000000000E+01 0. -1.
         -5    1    3    3    0  502  0.22874637851E+02 -0.15356256063E+02  0.43026116628E+02  0.51306923209E+02  0.47000000000E+01 0.  1.
<mgrwt>
<rscale>  0 0.94013677E+02</rscale>
<asrwt>0</asrwt>
<pdfrwt beam="1">  1        3 0.25744665E-01 0.96233104E+02</pdfrwt>
<pdfrwt beam="2">  1       -3 0.86712469E-02 0.96233104E+02</pdfrwt>
<totfact> 0.28437429E+03</totfact>
</mgrwt>
</event>
<event>
 8    1  0.3177960E-004  0.9695118E+02  0.7546771E-02  0.1287760E+00
         -2   -1    0    0    0  501 -0.00000000000E+00  0.00000000000E+00  0.16842027785E+02  0.16842027785E+02  0.00000000000E+00 0.  1.
          2   -1    0    0  501    0  0.00000000000E+00 -0.00000000000E+00 -0.73941229626E+03  0.73941229626E+03  0.00000000000E+00 0. -1.
         23    2    1    2    0    0  0.29346204869E+02  0.79333664492E+01 -0.17150882465E+03  0.19701474178E+03  0.92061900390E+02 0.  0.
         23    2    1    2    0    0 -0.29346204869E+02 -0.79333664492E+01 -0.55106144382E+03  0.55923958226E+03  0.90310893342E+02 0.  0.
          5    1    3    3  502    0 -0.11884007650E+02 -0.30751209038E+02 -0.31047726687E+02  0.45529307348E+02  0.47000000000E+01 0. -1.
         -5    1    4    4    0  503  0.22931319281E+02 -0.29610063635E+02 -0.25536393104E+03  0.25813839031E+03  0.47000000000E+01 0.  1.
          5    1    4    4  503    0 -0.52277524151E+02  0.21676697186E+02 -0.29569751278E+03  0.30110119196E+03  0.47000000000E+01 0. -1.
         -5    1    3    3    0  502  0.41230212519E+02  0.38684575487E+02 -0.14046109797E+03  0.15148543444E+03  0.47000000000E+01 0.  1.
<mgrwt>
<rscale>  0 0.96533206E+02</rscale>
<asrwt>0</asrwt>
<pdfrwt beam="1">  1        2 0.11375571E+00 0.96951181E+02</pdfrwt>
<pdfrwt beam="2">  1       -2 0.25910819E-02 0.96951181E+02</pdfrwt>
<totfact> 0.19025642E+04</totfact>
</mgrwt>
</event>
<event>
 8    1  0.3177960E-004  0.8884274E+02  0.7546771E-02  0.1306226E+00
          3   -1    0    0  501    0  0.00000000000E+00  0.00000000000E+00  0.32711445630E+03  0.32711445630E+03  0.00000000000E+00 0. -1.
         -3   -1    0    0    0  501 -0.00000000000E+00 -0.00000000000E+00 -0.28848809053E+02  0.28848809053E+02  0.00000000000E+00 0.  1.
         23    2    1    2    0    0 -0.11578112879E+02 -0.19122139467E+02  0.22230683593E+03  0.23907539536E+03  0.85070596853E+02 0.  0.
         23    2    1    2    0    0  0.11578112879E+02  0.19122139467E+02  0.75958811313E+02  0.11688786999E+03  0.85984441728E+02 0.  0.
          5    1    4    4  502    0  0.19314938274E+02 -0.30620679416E+02  0.43571967367E+02  0.56844517666E+02  0.47000000000E+01 0. -1.
         -5    1    4    4    0  502 -0.77368253955E+01  0.49742818883E+02  0.32386843945E+02  0.60043352325E+02  0.47000000000E+01 0.  1.
          5    1    3    3  503    0  0.77049892189E+01 -0.41585985467E+02  0.19119119361E+03  0.19586965962E+03  0.47000000000E+01 0. -1.
         -5    1    3    3    0  503 -0.19283102098E+02  0.22463846000E+02  0.31115642322E+02  0.43205735739E+02  0.47000000000E+01 0.  1.
<mgrwt>
<rscale>  0 0.88620878E+02</rscale>
<asrwt>0</asrwt>
<pdfrwt beam="1">  1        3 0.50325298E-01 0.88842744E+02</pdfrwt>
<pdfrwt beam="2">  1       -3 0.44382785E-02 0.88842744E+02</pdfrwt>
<totfact> 0.22939531E+03</totfact>
</mgrwt>
</event>
<event>
 8    1  0.3177960E-004  0.9488517E+02  0.7546771E-02  0.1292751E+00
          2   -1    0    0  501    0  0.00000000000E+00  0.00000000000E+00  0.76467123467E+02  0.76467123467E+02  0.00000000000E+00 0. -1.
         -2   -1    0    0    0  501 -0.00000000000E+00 -0.00000000000E+00 -0.11769222890E+03  0.11769222890E+03  0.00000000000E+00 0.  1.
         23    2    1    2    0    0 -0.50315472106E+01 -0.20038594390E+02 -0.35320578586E+02  0.99090643039E+02  0.90247163578E+02 0.  0.
         23    2    1    2    0    0  0.50315472106E+01  0.20038594390E+02 -0.59045268484E+01  0.95068709328E+02  0.92608500277E+02 0.  0.
          5    1    4    4  502    0  0.21953529331E+02  0.45722348649E+02  0.19860059239E+02  0.54671771227E+02  0.47000000000E+01 0. -1.
         -5    1    3    3    0  503  0.10317704157E+02 -0.39004140716E+02 -0.54309130806E+02  0.67818505593E+02  0.47000000000E+01 0.  1.
          5    1    3    3  503    0 -0.15349251368E+02  0.18965546326E+02  0.18988552220E+02  0.31272137446E+02  0.47000000000E+01 0. -1.
         -5    1    4    4    0  502 -0.16921982121E+02 -0.25683754259E+02 -0.25764586087E+02  0.40396938102E+02  0.47000000000E+01 0.  1.
<mgrwt>
<rscale>  0 0.94304043E+02</rscale>
<asrwt>0</asrwt>
<pdfrwt beam="1">  1        2 0.11764173E-01 0.94885173E+02</pdfrwt>
<pdfrwt beam="2">  1       -2 0.18106497E-01 0.94885173E+02</pdfrwt>
<totfact> 0.11799914E+04</totfact>
</mgrwt>
</event>
<event>
 8    1  0.3177960E-004  0.9867190E+02  0.7546771E-02  0.1284898E+00
         -3   -1    0    0    0  501 -0.00000000000E+00  0.00000000000E+00  0.37246464599E+02  0.37246464599E+02  0.00000000000E+00 0.  1.
          3   -1    0    0  501    0  0.00000000000E+00 -0.00000000000E+00 -0.41070049933E+03  0.41070049933E+03  0.00000000000E+00 0. -1.
         23    2    1    2    0    0 -0.22884274378E+02  0.26152444528E+02 -0.45925052404E+02  0.10587770534E+03  0.88844457800E+02 0.  0.
         23    2    1    2    0    0  0.22884274378E+02 -0.26152444528E+02 -0.32752898233E+03  0.34206925859E+03  0.92349894626E+02 0.  0.
          5    1    4    4  502    0 -0.15057363687E+02  0.18991105969E+02 -0.19964196429E+03  0.20116259646E+03  0.47000000000E+01 0. -1.
         -5    1    4    4    0  502  0.37941638065E+02 -0.45143550497E+02 -0.12788701804E+03  0.14090666213E+03  0.47000000000E+01 0.  1.
          5    1    3    3  503    0  0.51962263060E+01 -0.21903294150E+02  0.11548105201E+02  0.25733320738E+02  0.47000000000E+01 0. -1.
         -5    1    3    3    0  503 -0.28080500684E+02  0.48055738679E+02 -0.57473157606E+02  0.80144384605E+02  0.47000000000E+01 0.  1.
<mgrwt>
<rscale>  0 0.97843306E+02</rscale>
<asrwt>0</asrwt>
<pdfrwt beam="1">  1        3 0.63184690E-01 0.98671898E+02</pdfrwt>
<pdfrwt beam="2">  1       -3 0.57302255E-02 0.98671898E+02</pdfrwt>
<totfact> 0.99027791E+02</totfact>
</mgrwt>
</event>
<event>
 8    1  0.3177960E-004  0.9476121E+02  0.7546771E-02  0.1294287E+00
         -1   -1    0    0    0  501 -0.00000000000E+00  0.00000000000E+00  0.16404571386E+03  0.16404571386E+03  0.00000000000E+00 0.  1.
          1   -1    0    0  501    0  0.00000000000E+00 -0.00000000000E+00 -0.52210082629E+02  0.52210082629E+02  0.00000000000E+00 0. -1.
         23    2    1    2    0    0  0.14086664731E+02 -0.39675787811E+01  0.53614424744E+02  0.10503800705E+03  0.89130806008E+02 0.  0.
         23    2    1    2    0    0 -0.14086664731E+02  0.39675787811E+01  0.58221206490E+02  0.11121778944E+03  0.93624313076E+02 0.  0.
          5    1    4    4  502    0 -0.59316841499E+01 -0.42797447324E+02  0.12696587647E+02  0.45278026814E+02  0.47000000000E+01 0. -1.
         -5    1    4    4    0  502 -0.81549805814E+01  0.46765026105E+02  0.45524618843E+02  0.65939762630E+02  0.47000000000E+01 0.  1.
          5    1    3    3  503    0 -0.35667437275E+02 -0.96936527232E+01  0.10299275845E+02  0.38656151746E+02  0.47000000000E+01 0. -1.
         -5    1    3    3    0  503  0.49754102007E+02  0.57260739421E+01  0.43315148899E+02  0.66381855303E+02  0.47000000000E+01 0.  1.
<mgrwt>
<rscale>  0 0.93631956E+02</rscale>
<asrwt>0</asrwt>
<pdfrwt beam="1">  1        1 0.80323204E-02 0.94761215E+02</pdfrwt>
<pdfrwt beam="2">  1       -1 0.25237802E-01 0.94761215E+02</pdfrwt>
<totfact> 0.10746162E+04</totfact>
</mgrwt>
</event>
<event>
 8    1  0.3177960E-004  0.1125077E+03  0.7546771E-02  0.1262068E+00
         -1   -1    0    0    0  501 -0.00000000000E+00  0.00000000000E+00  0.16588821904E+02  0.16588821904E+02  0.00000000000E+00 0.  1.
          1   -1    0    0  501    0  0.00000000000E+00 -0.00000000000E+00 -0.68998029772E+03  0.68998029772E+03  0.00000000000E+00 0. -1.
         23    2    1    2    0    0  0.43196490795E+02 -0.29656582580E+02 -0.36038981584E+03  0.37396119701E+03  0.84974748035E+02 0.  0.
         23    2    1    2    0    0 -0.43196490795E+02  0.29656582580E+02 -0.31300165997E+03  0.33260792261E+03  0.99561746305E+02 0.  0.
          5    1    3    3  502    0  0.10511008959E+02  0.27178629151E+02 -0.17000909450E+03  0.17255243089E+03  0.47000000000E+01 0. -1.
         -5    1    4    4    0  503  0.25893481559E+02 -0.35779638857E+01 -0.33537877427E+02  0.42780292602E+02  0.47000000000E+01 0.  1.
          5    1    4    4  503    0 -0.69089972355E+02  0.33234546465E+02 -0.27946378255E+03  0.28982763000E+03  0.47000000000E+01 0. -1.
         -5    1    3    3    0  502  0.32685481836E+02 -0.56835211731E+02 -0.19038072134E+03  0.20140876612E+03  0.47000000000E+01 0.  1.
<mgrwt>
<rscale>  0 0.10919500E+03</rscale>
<asrwt>0</asrwt>
<pdfrwt beam="1">  1        1 0.10615083E+00 0.11250774E+03</pdfrwt>
<pdfrwt beam="2">  1       -1 0.25521262E-02 0.11250774E+03</pdfrwt>
<totfact> 0.12964898E+04</totfact>
</mgrwt>
</event>
<event>
 8    1  0.3177960E-004  0.1259240E+03  0.7546771E-02  0.1234882E+00
         -1   -1    0    0    0  501 -0.00000000000E+00  0.00000000000E+00  0.73917496418E+02  0.73917496418E+02  0.00000000000E+00 0.  1.
          1   -1    0    0  501    0  0.00000000000E+00 -0.00000000000E+00 -0.32335270621E+03  0.32335270621E+03  0.00000000000E+00 0. -1.
         23    2    1    2    0    0 -0.17417289068E+02 -0.80030852240E+02 -0.24380373134E+03  0.27440320583E+03  0.95648108657E+02 0.  0.
         23    2    1    2    0    0  0.17417289068E+02  0.80030852240E+02 -0.56314784560E+01  0.12286699679E+03  0.91412723857E+02 0.  0.
          5    1    4    4  502    0  0.11173885580E+02  0.10024875539E+03 -0.29074152593E+01  0.10102084805E+03  0.47000000000E+01 0. -1.
         -5    1    3    3    0  503  0.91076346834E+01 -0.70496076311E+02 -0.75934166933E+02  0.10411884312E+03  0.47000000000E+01 0.  1.
          5    1    3    3  503    0 -0.26524923751E+02 -0.95347759296E+01 -0.16786956440E+03  0.17028436271E+03  0.47000000000E+01 0. -1.
         -5    1    4    4    0  502  0.62434034883E+01 -0.20217903150E+02 -0.27240631967E+01  0.21846148750E+02  0.47000000000E+01 0.  1.
<mgrwt>
<rscale>  0 0.12511982E+03</rscale>
<asrwt>0</asrwt>
<pdfrwt beam="1">  1        1 0.49746570E-01 0.12592402E+03</pdfrwt>
<pdfrwt beam="2">  1       -1 0.11371923E-01 0.12592402E+03</pdfrwt>
<totfact> 0.38162510E+03</totfact>
</mgrwt>
</event>
<event>
 8    1  0.3177960E-004  0.1484537E+03  0.7546771E-02  0.1202447E+00
          2   -1    0    0  501    0  0.00000000000E+00  0.00000000000E+00  0.35842893619E+03  0.35842893619E+03  0.00000000000E+00 0. -1.
         -2   -1    0    0    0  501 -0.00000000000E+00 -0.00000000000E+00 -0.67163190068E+02  0.67163190068E+02  0.00000000000E+00 0.  1.
         23    2    1    2    0    0  0.47018709096E+02 -0.10680829997E+03  0.83415541715E+02  0.17028403429E+03  0.91759074693E+02 0.  0.
         23    2    1    2    0    0 -0.47018709096E+02  0.10680829997E+03  0.20785020441E+03  0.25530809196E+03  0.91442563410E+02 0.  0.
          5    1    3    3  502    0  0.62477857093E+02 -0.81198655635E+02  0.93076697652E+02  0.13849933556E+03  0.47000000000E+01 0. -1.
         -5    1    3    3    0  502 -0.15459147998E+02 -0.25609644333E+02 -0.96611559377E+01  0.31784698736E+02  0.47000000000E+01 0.  1.
          5    1    4    4  503    0  0.30309159082E+01  0.96830634522E+02  0.13421164553E+03  0.16559050103E+03  0.47000000000E+01 0. -1.
         -5    1    4    4    0  503 -0.50049625004E+02  0.99776654465E+01  0.73638558872E+02  0.89717590937E+02  0.47000000000E+01 0.  1.
<mgrwt>
<rscale>  0 0.14840481E+03</rscale>
<asrwt>0</asrwt>
<pdfrwt beam="1">  1        2 0.55142912E-01 0.14845370E+03</pdfrwt>
<pdfrwt beam="2">  1       -2 0.10332799E-01 0.14845370E+03</pdfrwt>
<totfact> 0.54641974E+03</totfact>
</mgrwt>
</event>
<event>
 8    1  0.3177960E-004  0.1021540E+03  0.7546771E-02  0.1280970E+00
         -1   -1    0    0    0  501 -0.00000000000E+00  0.00000000000E+00  0.19881953793E+03  0.19881953793E+03  0.00000000000E+00 0.  1.
          1   -1    0    0  501    0  0.00000000000E+00 -0.00000000000E+00 -0.30106715006E+03  0.30106715006E+03  0.00000000000E+00 0. -1.
         23    2    1    2    0    0 -0.56265594383E+01  0.19269715360E+02  0.17772638537E+03  0.20499296564E+03  0.10016220745E+03 0.  0.
         23    2    1    2    0    0  0.56265594383E+01 -0.19269715360E+02 -0.27997399750E+03  0.29489372236E+03  0.90409557635E+02 0.  0.
          5    1    3    3  502    0 -0.31733873835E+02  0.99307270837E+01  0.10163189608E+02  0.35086158410E+02  0.47000000000E+01 0. -1.
         -5    1    3    3    0  502  0.26107314397E+02  0.93389882768E+01  0.16756319576E+03  0.16990680722E+03  0.47000000000E+01 0.  1.
          5    1    4    4  503    0  0.17165193257E+02 -0.44109422926E+02 -0.80567023887E+02  0.93559715628E+02  0.47000000000E+01 0. -1.
         -5    1    4    4    0  503 -0.11538633818E+02  0.24839707566E+02 -0.19940697361E+03  0.20133400674E+03  0.47000000000E+01 0.  1.
<mgrwt>
<rscale>  0 0.99679936E+02</rscale>
<asrwt>0</asrwt>
<pdfrwt beam="1">  1        1 0.46318023E-01 0.10215404E+03</pdfrwt>
<pdfrwt beam="2">  1       -1 0.30587621E-01 0.10215404E+03</pdfrwt>
<totfact> 0.85558836E+02</totfact>
</mgrwt>
</event>
<event>
 8    1  0.3177960E-004  0.1074437E+03  0.7546771E-02  0.1267016E+00
          1   -1    0    0  501    0  0.00000000000E+00  0.00000000000E+00  0.51742956632E+03  0.51742956632E+03  0.00000000000E+00 0. -1.
         -1   -1    0    0    0  501 -0.00000000000E+00 -0.00000000000E+00 -0.32444010401E+02  0.32444010401E+02  0.00000000000E+00 0.  1.
         23    2    1    2    0    0  0.45160859940E+02 -0.28387481207E+02  0.40388229187E+03  0.41792947720E+03  0.93267303288E+02 0.  0.
         23    2    1    2    0    0 -0.45160859940E+02  0.28387481207E+02  0.81103264048E+02  0.13194409953E+03  0.89365281852E+02 0.  0.
          5    1    3    3  502    0  0.53643868616E+02  0.19899848093E+02  0.19204531795E+03  0.20044241752E+03  0.47000000000E+01 0. -1.
         -5    1    3    3    0  502 -0.84830086753E+01 -0.48287329300E+02  0.21183697393E+03  0.21748705968E+03  0.47000000000E+01 0.  1.
          5    1    4    4  503    0  0.15428230710E+02 -0.14009565927E+02  0.44358689588E+02  0.49234963006E+02  0.47000000000E+01 0. -1.
         -5    1    4    4    0  503 -0.60589090650E+02  0.42397047134E+02  0.36744574460E+02  0.82709136519E+02  0.47000000000E+01 0.  1.
<mgrwt>
<rscale>  0 0.10659129E+03</rscale>
<asrwt>0</asrwt>
<pdfrwt beam="1">  1        1 0.79604543E-01 0.10744367E+03</pdfrwt>
<pdfrwt beam="2">  1       -1 0.49913866E-02 0.10744367E+03</pdfrwt>
<totfact> 0.71815524E+03</totfact>
</mgrwt>
</event>
<event>
 8    1  0.3177960E-004  0.9394304E+02  0.7546771E-02  0.1295355E+00
         -3   -1    0    0    0  501 -0.00000000000E+00  0.00000000000E+00  0.15827276203E+02  0.15827276203E+02  0.00000000000E+00 0.  1.
          3   -1    0    0  501    0  0.00000000000E+00 -0.00000000000E+00 -0.60593834489E+03  0.60593834489E+03  0.00000000000E+00 0. -1.
         23    2    1    2    0    0 -0.15316447817E+02 -0.18973017195E+02 -0.18784091567E+03  0.20867172133E+03  0.87550606671E+02 0.  0.
         23    2    1    2    0    0  0.15316447817E+02  0.18973017195E+02 -0.40227015302E+03  0.41309389976E+03  0.90723343500E+02 0.  0.
          5    1    3    3  502    0 -0.46486491525E+02 -0.83560779197E+00 -0.61740604587E+02  0.77431804767E+02  0.47000000000E+01 0. -1.
         -5    1    4    4    0  503  0.24568924784E+02  0.45376993423E+02 -0.13977223388E+03  0.14906733700E+03  0.47000000000E+01 0.  1.
          5    1    4    4  503    0 -0.92524769672E+01 -0.26403976228E+02 -0.26249791914E+03  0.26402656276E+03  0.47000000000E+01 0. -1.
         -5    1    3    3    0  502  0.31170043708E+02 -0.18137409403E+02 -0.12610031108E+03  0.13123991656E+03  0.47000000000E+01 0.  1.
<mgrwt>
<rscale>  0 0.93168442E+02</rscale>
<asrwt>0</asrwt>
<pdfrwt beam="1">  1        3 0.93221267E-01 0.93943036E+02</pdfrwt>
<pdfrwt beam="2">  1       -3 0.24349660E-02 0.93943036E+02</pdfrwt>
<totfact> 0.16098972E+03</totfact>
</mgrwt>
</event>
<event>
 8    1  0.3177960E-004  0.1006791E+03  0.7546771E-02  0.1279799E+00
         -2   -1    0    0    0  501 -0.00000000000E+00  0.00000000000E+00  0.13551768780E+02  0.13551768780E+02  0.00000000000E+00 0.  1.
          2   -1    0    0  501    0  0.00000000000E+00 -0.00000000000E+00 -0.75056990253E+03  0.75056990253E+03  0.00000000000E+00 0. -1.
         23    2    1    2    0    0  0.11994342830E+02 -0.39953635625E+02 -0.42678630793E+03  0.43850067358E+03  0.91630403466E+02 0.  0.
         23    2    1    2    0    0 -0.11994342830E+02  0.39953635625E+02 -0.31023182582E+03  0.32562099772E+03  0.89694432085E+02 0.  0.
          5    1    3    3  502    0  0.74421545665E+01  0.25544227635E+02 -0.21580162177E+03  0.21748637472E+03  0.47000000000E+01 0. -1.
         -5    1    3    3    0  502  0.45521882633E+01 -0.65497863259E+02 -0.21098468616E+03  0.22101429887E+03  0.47000000000E+01 0.  1.
          5    1    4    4  503    0 -0.40263596270E+02  0.44795752844E+02 -0.26542454636E+03  0.27221332897E+03  0.47000000000E+01 0. -1.
         -5    1    4    4    0  503  0.28269253440E+02 -0.48421172196E+01 -0.44807279459E+02  0.53407668754E+02  0.47000000000E+01 0.  1.
<mgrwt>
<rscale>  0 0.10023654E+03</rscale>
<asrwt>0</asrwt>
<pdfrwt beam="1">  1        2 0.11547236E+00 0.10067913E+03</pdfrwt>
<pdfrwt beam="2">  1       -2 0.20848862E-02 0.10067913E+03</pdfrwt>
<totfact> 0.25677102E+04</totfact>
</mgrwt>
</event>
<event>
 8    1  0.3177960E-004  0.9472987E+02  0.7546771E-02  0.1293400E+00
          1   -1    0    0  501    0  0.00000000000E+00  0.00000000000E+00  0.31566933567E+03  0.31566933567E+03  0.00000000000E+00 0. -1.
         -1   -1    0    0    0  501 -0.00000000000E+00 -0.00000000000E+00 -0.41413380609E+02  0.41413380609E+02  0.00000000000E+00 0.  1.
         23    2    1    2    0    0 -0.74447368368E+01  0.19118065452E+02  0.24164454174E+03  0.25954928810E+03  0.92481478488E+02 0.  0.
         23    2    1    2    0    0  0.74447368368E+01 -0.19118065452E+02  0.32611413313E+02  0.97533428178E+02  0.89601008927E+02 0.  0.
          5    1    3    3  502    0  0.46077345936E+01  0.54993216552E+02  0.12222999600E+03  0.13419294693E+03  0.47000000000E+01 0. -1.
         -5    1    4    4    0  503  0.11816175433E+02 -0.50853435141E+02  0.37954846219E+02  0.64717495463E+02  0.47000000000E+01 0.  1.
          5    1    4    4  503    0 -0.43714385963E+01  0.31735369690E+02 -0.53434329061E+01  0.32815932715E+02  0.47000000000E+01 0. -1.
         -5    1    3    3    0  502 -0.12052471430E+02 -0.35875151101E+02  0.11941454575E+03  0.12535634116E+03  0.47000000000E+01 0.  1.
<mgrwt>
<rscale>  0 0.94019422E+02</rscale>
<asrwt>0</asrwt>
<pdfrwt beam="1">  1        1 0.48564512E-01 0.94729871E+02</pdfrwt>
<pdfrwt beam="2">  1       -1 0.63712895E-02 0.94729871E+02</pdfrwt>
<totfact> 0.92248219E+03</totfact>
</mgrwt>
</event>
<event>
 8    1  0.3177960E-004  0.1006803E+03  0.7546771E-02  0.1279569E+00
         -1   -1    0    0    0  501 -0.00000000000E+00  0.00000000000E+00  0.56329440190E+02  0.56329440190E+02  0.00000000000E+00 0.  1.
          1   -1    0    0  501    0  0.00000000000E+00 -0.00000000000E+00 -0.18473739805E+03  0.18473739805E+03  0.00000000000E+00 0. -1.
         23    2    1    2    0    0 -0.21417985992E+02 -0.35648689166E+02 -0.88333465009E+02  0.13393776162E+03  0.91689496589E+02 0.  0.
         23    2    1    2    0    0  0.21417985992E+02  0.35648689166E+02 -0.40074492847E+02  0.10712907661E+03  0.90228127078E+02 0.  0.
          5    1    4    4  502    0  0.19082128102E+02 -0.26084449197E+02 -0.30025054171E+02  0.44363498293E+02  0.47000000000E+01 0. -1.
         -5    1    4    4    0  502  0.23358578893E+01  0.61733138363E+02 -0.10049438675E+02  0.62765578321E+02  0.47000000000E+01 0.  1.
          5    1    3    3  503    0 -0.46725906027E+02 -0.39090382946E+02 -0.89004326642E+02  0.10795938354E+03  0.47000000000E+01 0. -1.
         -5    1    3    3    0  503  0.25307920035E+02  0.34416937802E+01  0.67086163254E+00  0.25978378085E+02  0.47000000000E+01 0.  1.
<mgrwt>
<rscale>  0 0.10034638E+03</rscale>
<asrwt>0</asrwt>
<pdfrwt beam="1">  1        1 0.28421138E-01 0.10068030E+03</pdfrwt>
<pdfrwt beam="2">  1       -1 0.86660679E-02 0.10068030E+03</pdfrwt>
<totfact> 0.11306583E+04</totfact>
</mgrwt>
</event>
<event>
 8    1  0.3177960E-004  0.1407992E+03  0.7546771E-02  0.1212398E+00
          1   -1    0    0  501    0  0.00000000000E+00  0.00000000000E+00  0.55082776968E+03  0.55082776968E+03  0.00000000000E+00 0. -1.
         -1   -1    0    0    0  501 -0.00000000000E+00 -0.00000000000E+00 -0.40474357160E+02  0.40474357160E+02  0.00000000000E+00 0.  1.
         23    2    1    2    0    0 -0.66542242065E+02 -0.81676661999E+02  0.35441669532E+03  0.38120528833E+03  0.92775701770E+02 0.  0.
         23    2    1    2    0    0  0.66542242065E+02  0.81676661999E+02  0.15593671720E+03  0.21009683850E+03  0.93410249352E+02 0.  0.
          5    1    4    4  502    0  0.31180417769E+02  0.94370835886E+02  0.90529684441E+02  0.13452058163E+03  0.47000000000E+01 0. -1.
         -5    1    3    3    0  503 -0.26582567483E+02 -0.68708819510E+02  0.10573080343E+03  0.12895203591E+03  0.47000000000E+01 0.  1.
          5    1    3    3  503    0 -0.39959674582E+02 -0.12967842488E+02  0.24868589189E+03  0.25225325242E+03  0.47000000000E+01 0. -1.
         -5    1    4    4    0  502  0.35361824296E+02 -0.12694173888E+02  0.65407032757E+02  0.75576256869E+02  0.47000000000E+01 0.  1.
<mgrwt>
<rscale>  0 0.14069406E+03</rscale>
<asrwt>0</asrwt>
<pdfrwt beam="1">  1        1 0.84742728E-01 0.14079923E+03</pdfrwt>
<pdfrwt beam="2">  1       -1 0.62268246E-02 0.14079923E+03</pdfrwt>
<totfact> 0.48408501E+03</totfact>
</mgrwt>
</event>
<event>
 8    1  0.3177960E-004  0.9776541E+02  0.7546771E-02  0.1286536E+00
         -3   -1    0    0    0  501 -0.00000000000E+00  0.00000000000E+00  0.11166367070E+03  0.11166367070E+03  0.00000000000E+00 0.  1.
          3   -1    0    0  501    0  0.00000000000E+00 -0.00000000000E+00 -0.86391153387E+02  0.86391153387E+02  0.00000000000E+00 0. -1.
         23    2    1    2    0    0 -0.19816620963E+02 -0.27161058538E+02  0.31275034267E+02  0.10010531646E+03  0.88952375167E+02 0.  0.
         23    2    1    2    0    0  0.19816620963E+02  0.27161058538E+02 -0.60025169556E+01  0.97949507626E+02  0.91802256329E+02 0.  0.
          5    1    3    3  502    0  0.77842352297E+00 -0.25345901897E+02 -0.27453298042E+02  0.37666885451E+02  0.47000000000E+01 0. -1.
         -5    1    3    3    0  502 -0.20595044486E+02 -0.18151566408E+01  0.58728332309E+02  0.62438431009E+02  0.47000000000E+01 0.  1.
          5    1    4    4  503    0  0.32721578850E+02 -0.26005208916E+02 -0.87834691880E+01  0.42967568516E+02  0.47000000000E+01 0. -1.
         -5    1    4    4    0  503 -0.12904957887E+02  0.53166267453E+02  0.27809522323E+01  0.54981939110E+02  0.47000000000E+01 0.  1.
<mgrwt>
<rscale>  0 0.97090709E+02</rscale>
<asrwt>0</asrwt>
<pdfrwt beam="1">  1        3 0.13290947E-01 0.97765412E+02</pdfrwt>
<pdfrwt beam="2">  1       -3 0.17179026E-01 0.97765412E+02</pdfrwt>
<totfact> 0.28718045E+03</totfact>
</mgrwt>
</event>
<event>
 8    1  0.3177960E-004  0.1114729E+03  0.7546771E-02  0.1258156E+00
          1   -1    0    0  501    0  0.00000000000E+00  0.00000000000E+00  0.77476496224E+03  0.77476496224E+03  0.00000000000E+00 0. -1.
         -1   -1    0    0    0  501 -0.00000000000E+00 -0.00000000000E+00 -0.16393048875E+02  0.16393048875E+02  0.00000000000E+00 0.  1.
         23    2    1    2    0    0  0.63554430771E+02 -0.31851661114E+01  0.44335420511E+03  0.45699880802E+03  0.90750473209E+02 0.  0.
         23    2    1    2    0    0 -0.63554430771E+02  0.31851661114E+01  0.31501770826E+03  0.33415920310E+03  0.91525436609E+02 0.  0.
          5    1    4    4  502    0 -0.39453204148E+02  0.42549679107E+02  0.23057110597E+03  0.23780697092E+03  0.47000000000E+01 0. -1.
         -5    1    3    3    0  503  0.83201432576E+02  0.13735449301E+02  0.34220307368E+03  0.35247152308E+03  0.47000000000E+01 0.  1.
          5    1    3    3  503    0 -0.19647001805E+02 -0.16920615412E+02  0.10115113144E+03  0.10452728494E+03  0.47000000000E+01 0. -1.
         -5    1    4    4    0  502 -0.24101226623E+02 -0.39364512996E+02  0.84446602288E+02  0.96352232180E+02  0.47000000000E+01 0.  1.
<mgrwt>
<rscale>  0 0.11131375E+03</rscale>
<asrwt>0</asrwt>
<pdfrwt beam="1">  1        1 0.11919458E+00 0.11147294E+03</pdfrwt>
<pdfrwt beam="2">  1       -1 0.25220081E-02 0.11147294E+03</pdfrwt>
<totfact> 0.11151851E+04</totfact>
</mgrwt>
</event>
<event>
 8    1  0.3177960E-004  0.1083916E+03  0.7546771E-02  0.1265799E+00
         -2   -1    0    0    0  501 -0.00000000000E+00  0.00000000000E+00  0.32161322835E+02  0.32161322835E+02  0.00000000000E+00 0.  1.
          2   -1    0    0  501    0  0.00000000000E+00 -0.00000000000E+00 -0.36607050864E+03  0.36607050864E+03  0.00000000000E+00 0. -1.
         23    2    1    2    0    0  0.55200386847E-01  0.48028481358E+02 -0.21214509351E+03  0.23823158149E+03  0.97169993579E+02 0.  0.
         23    2    1    2    0    0 -0.55200386847E-01 -0.48028481358E+02 -0.12176409230E+03  0.16000024999E+03  0.92015475620E+02 0.  0.
          5    1    3    3  502    0  0.22788313466E+02  0.41922538258E+02 -0.20851332765E+03  0.21395491173E+03  0.47000000000E+01 0. -1.
         -5    1    4    4    0  503 -0.28944541546E+02  0.63266940801E+01 -0.80069515966E+02  0.85504566722E+02  0.47000000000E+01 0.  1.
          5    1    4    4  503    0  0.28889341159E+02 -0.54355175438E+02 -0.41694576336E+02  0.74495683266E+02  0.47000000000E+01 0. -1.
         -5    1    3    3    0  502 -0.22733113079E+02  0.61059430994E+01 -0.36317658523E+01  0.24276669759E+02  0.47000000000E+01 0.  1.
<mgrwt>
<rscale>  0 0.10722396E+03</rscale>
<asrwt>0</asrwt>
<pdfrwt beam="1">  1        2 0.56318535E-01 0.10839163E+03</pdfrwt>
<pdfrwt beam="2">  1       -2 0.49478962E-02 0.10839163E+03</pdfrwt>
<totfact> 0.16131501E+04</totfact>
</mgrwt>
</event>
<event>
 8    1  0.3177960E-004  0.1057444E+03  0.7546771E-02  0.1269496E+00
          1   -1    0    0  501    0  0.00000000000E+00  0.00000000000E+00  0.68774517136E+02  0.68774517136E+02  0.00000000000E+00 0. -1.
         -1   -1    0    0    0  501 -0.00000000000E+00 -0.00000000000E+00 -0.16078965580E+03  0.16078965580E+03  0.00000000000E+00 0.  1.
         23    2    1    2    0    0 -0.47397454057E+02  0.21320876562E+02 -0.54491754551E+02  0.11895896566E+03  0.92091181817E+02 0.  0.
         23    2    1    2    0    0  0.47397454057E+02 -0.21320876562E+02 -0.37523384117E+02  0.11060520728E+03  0.90135504065E+02 0.  0.
          5    1    3    3  502    0 -0.38737854080E+01 -0.33967612955E+02 -0.11541797738E+02  0.36388295347E+02  0.47000000000E+01 0. -1.
         -5    1    3    3    0  502 -0.43523668649E+02  0.55288489517E+02 -0.42949956813E+02  0.82570670313E+02  0.47000000000E+01 0.  1.
          5    1    4    4  503    0  0.21384124300E+02 -0.36443688044E+02  0.18869600331E+02  0.46514244990E+02  0.47000000000E+01 0. -1.
         -5    1    4    4    0  503  0.26013329757E+02  0.15122811482E+02 -0.56392984448E+02  0.64090962289E+02  0.47000000000E+01 0.  1.
<mgrwt>
<rscale>  0 0.10531716E+03</rscale>
<asrwt>0</asrwt>
<pdfrwt beam="1">  1        1 0.10580695E-01 0.10574443E+03</pdfrwt>
<pdfrwt beam="2">  1       -1 0.24736870E-01 0.10574443E+03</pdfrwt>
<totfact> 0.77961749E+03</totfact>
</mgrwt>
</event>
<event>
 8    1  0.3177960E-004  0.1043658E+03  0.7546771E-02  0.1274092E+00
         -1   -1    0    0    0  501 -0.00000000000E+00  0.00000000000E+00  0.53206345803E+02  0.53206345803E+02  0.00000000000E+00 0.  1.
          1   -1    0    0  501    0  0.00000000000E+00 -0.00000000000E+00 -0.19543236580E+03  0.19543236580E+03  0.00000000000E+00 0. -1.
         23    2    1    2    0    0 -0.28775684639E+02  0.41764380424E+02 -0.78242127643E+02  0.12622075225E+03  0.85073757776E+02 0.  0.
         23    2    1    2    0    0  0.28775684639E+02 -0.41764380424E+02 -0.63983892352E+02  0.12241795935E+03  0.91213566931E+02 0.  0.
          5    1    3    3  502    0 -0.65441402823E+01  0.62920549102E+02 -0.33429357882E+02  0.71703788183E+02  0.47000000000E+01 0. -1.
         -5    1    3    3    0  502 -0.22231544356E+02 -0.21156168678E+02 -0.44812769761E+02  0.54516964069E+02  0.47000000000E+01 0.  1.
          5    1    4    4  503    0 -0.14946819779E+02 -0.14915332885E+02 -0.67395454095E+02  0.70782143293E+02  0.47000000000E+01 0. -1.
         -5    1    4    4    0  503  0.43722504418E+02 -0.26849047539E+02  0.34115617427E+01  0.51635816057E+02  0.47000000000E+01 0.  1.
<mgrwt>
<rscale>  0 0.10300929E+03</rscale>
<asrwt>0</asrwt>
<pdfrwt beam="1">  1        1 0.30066517E-01 0.10436579E+03</pdfrwt>
<pdfrwt beam="2">  1       -1 0.81855918E-02 0.10436579E+03</pdfrwt>
<totfact> 0.11528375E+04</totfact>
</mgrwt>
</event>
<event>
 8    1  0.3177960E-004  0.1452736E+03  0.7546771E-02  0.1206611E+00
          1   -1    0    0  501    0  0.00000000000E+00  0.00000000000E+00  0.38603242892E+03  0.38603242892E+03  0.00000000000E+00 0. -1.
         -1   -1    0    0    0  501 -0.00000000000E+00 -0.00000000000E+00 -0.55488339744E+02  0.55488339744E+02  0.00000000000E+00 0.  1.
         23    2    1    2    0    0 -0.11228926028E+03 -0.50469627266E+01  0.19614294085E+03  0.24408293283E+03  0.92033010643E+02 0.  0.
         23    2    1    2    0    0  0.11228926028E+03  0.50469627266E+01  0.13440114832E+03  0.19743783583E+03  0.91014727041E+02 0.  0.
          5    1    4    4  502    0  0.37786988287E+02  0.22663061015E+02  0.19179955354E+01  0.44353573985E+02  0.47000000000E+01 0. -1.
         -5    1    4    4    0  502  0.74502271995E+02 -0.17616098289E+02  0.13248315279E+03  0.15308426184E+03  0.47000000000E+01 0.  1.
          5    1    3    3  503    0 -0.58411330269E+02 -0.34082566101E+02  0.15770341634E+03  0.17165652432E+03  0.47000000000E+01 0. -1.
         -5    1    3    3    0  503 -0.53877930013E+02  0.29035603374E+02  0.38439524508E+02  0.72426408514E+02  0.47000000000E+01 0.  1.
<mgrwt>
<rscale>  0 0.14511262E+03</rscale>
<asrwt>0</asrwt>
<pdfrwt beam="1">  1        1 0.59389603E-01 0.14527362E+03</pdfrwt>
<pdfrwt beam="2">  1       -1 0.85366679E-02 0.14527362E+03</pdfrwt>
<totfact> 0.47724269E+03</totfact>
</mgrwt>
</event>
<event>
 8    1  0.3177960E-004  0.1397773E+03  0.7546771E-02  0.1216635E+00
         -2   -1    0    0    0  501 -0.00000000000E+00  0.00000000000E+00  0.89162571870E+02  0.89162571870E+02  0.00000000000E+00 0.  1.
          2   -1    0    0  501    0  0.00000000000E+00 -0.00000000000E+00 -0.24421007052E+03  0.24421007052E+03  0.00000000000E+00 0. -1.
         23    2    1    2    0    0 -0.16880718292E+02 -0.10405172242E+03 -0.13544140690E+02  0.14043201472E+03  0.91793177422E+02 0.  0.
         23    2    1    2    0    0  0.16880718292E+02  0.10405172242E+03 -0.14150335796E+03  0.19294062767E+03  0.78045921765E+02 0.  0.
          5    1    3    3  502    0 -0.50939569715E+02 -0.35047361798E+02 -0.12881037769E+02  0.63333786132E+02  0.47000000000E+01 0. -1.
         -5    1    3    3    0  502  0.34058851424E+02 -0.69004360624E+02 -0.66310292083E+00  0.77098228585E+02  0.47000000000E+01 0.  1.
          5    1    4    4  503    0  0.46392311122E+02  0.74704469603E+02 -0.83182221605E+02  0.12113784009E+03  0.47000000000E+01 0.  1.
         -5    1    4    4    0  503 -0.29511592830E+02  0.29347252819E+02 -0.58321136355E+02  0.71802787586E+02  0.47000000000E+01 0. -1.
<mgrwt>
<rscale>  0 0.13757127E+03</rscale>
<asrwt>0</asrwt>
<pdfrwt beam="1">  1        2 0.37570780E-01 0.13977735E+03</pdfrwt>
<pdfrwt beam="2">  1       -2 0.13717319E-01 0.13977735E+03</pdfrwt>
<totfact> 0.52065279E+03</totfact>
</mgrwt>
</event>
<event>
 8    1  0.3177960E-004  0.1147998E+03  0.7546771E-02  0.1256698E+00
          1   -1    0    0  501    0  0.00000000000E+00  0.00000000000E+00  0.77787410803E+03  0.77787410803E+03  0.00000000000E+00 0. -1.
         -1   -1    0    0    0  501 -0.00000000000E+00 -0.00000000000E+00 -0.15478374816E+02  0.15478374816E+02  0.00000000000E+00 0.  1.
         23    2    1    2    0    0  0.45804703165E+02  0.17584639238E+01  0.34568971124E+03  0.36112232601E+03  0.93844524927E+02 0.  0.
         23    2    1    2    0    0 -0.45804703165E+02 -0.17584639238E+01  0.41670602198E+03  0.43223015684E+03  0.10525130261E+03 0.  0.
          5    1    3    3  502    0  0.23287425598E+02  0.36855403344E+02  0.27831562136E+03  0.28174864692E+03  0.47000000000E+01 0. -1.
         -5    1    4    4    0  503 -0.55751007789E+01 -0.50048634102E+02  0.15506884666E+03  0.16310850600E+03  0.47000000000E+01 0.  1.
          5    1    4    4  503    0 -0.40229602386E+02  0.48290170178E+02  0.26163717531E+03  0.26912165084E+03  0.47000000000E+01 0. -1.
         -5    1    3    3    0  502  0.22517277568E+02 -0.35096939420E+02  0.67374089880E+02  0.79373679094E+02  0.47000000000E+01 0.  1.
<mgrwt>
<rscale>  0 0.11211761E+03</rscale>
<asrwt>0</asrwt>
<pdfrwt beam="1">  1        1 0.11967291E+00 0.11479982E+03</pdfrwt>
<pdfrwt beam="2">  1       -1 0.23812890E-02 0.11479982E+03</pdfrwt>
<totfact> 0.12068067E+04</totfact>
</mgrwt>
</event>
<event>
 8    1  0.3177960E-004  0.1097748E+03  0.7546771E-02  0.1261399E+00
         -1   -1    0    0    0  501 -0.00000000000E+00  0.00000000000E+00  0.21555546522E+02  0.21555546522E+02  0.00000000000E+00 0.  1.
          1   -1    0    0  501    0  0.00000000000E+00 -0.00000000000E+00 -0.63058563320E+03  0.63058563320E+03  0.00000000000E+00 0. -1.
         23    2    1    2    0    0 -0.50250007318E+02 -0.29190697928E+02 -0.19237815781E+03  0.22149462696E+03  0.93130843937E+02 0.  0.
         23    2    1    2    0    0  0.50250007318E+02  0.29190697928E+02 -0.41665192887E+03  0.43064655275E+03  0.92089432006E+02 0.  0.
          5    1    4    4  502    0  0.11169145312E+02  0.49709390587E+02 -0.11664098450E+03  0.12736947273E+03  0.47000000000E+01 0.  1.
         -5    1    3    3    0  503 -0.43806190302E+02  0.16750386758E+02 -0.15416134772E+03  0.16120598282E+03  0.47000000000E+01 0.  1.
          5    1    3    3  503    0 -0.64438170161E+01 -0.45941084686E+02 -0.38216810084E+02  0.60288644145E+02  0.47000000000E+01 0. -1.
         -5    1    4    4    0  502  0.39080862006E+02 -0.20518692658E+02 -0.30001094437E+03  0.30327708002E+03  0.47000000000E+01 0. -1.
<mgrwt>
<rscale>  0 0.10955364E+03</rscale>
<asrwt>0</asrwt>
<pdfrwt beam="1">  1        1 0.97013173E-01 0.10977483E+03</pdfrwt>
<pdfrwt beam="2">  1       -1 0.33162380E-02 0.10977483E+03</pdfrwt>
<totfact> 0.10039376E+04</totfact>
</mgrwt>
</event>
<event>
 8    1  0.3177960E-004  0.9470022E+02  0.7546771E-02  0.1292093E+00
          2   -1    0    0  501    0  0.00000000000E+00  0.00000000000E+00  0.53154064832E+03  0.53154064832E+03  0.00000000000E+00 0. -1.
         -2   -1    0    0    0  501 -0.00000000000E+00 -0.00000000000E+00 -0.17456030408E+02  0.17456030408E+02  0.00000000000E+00 0.  1.
         23    2    1    2    0    0 -0.15764996377E+02 -0.13961374968E+02  0.30984053334E+03  0.32386610070E+03  0.91894722267E+02 0.  0.
         23    2    1    2    0    0  0.15764996377E+02  0.13961374968E+02  0.20424408458E+03  0.22513057804E+03  0.92329171876E+02 0.  0.
          5    1    4    4  502    0 -0.35600889323E+02  0.94437818248E+01  0.12558755218E+03  0.13096156535E+03  0.47000000000E+01 0. -1.
         -5    1    4    4    0  502  0.51365885700E+02  0.45175931435E+01  0.78656532401E+02  0.94169012690E+02  0.47000000000E+01 0.  1.
          5    1    3    3  503    0  0.33327346543E+02  0.14245510374E+02  0.99956505990E+02  0.10642856610E+03  0.47000000000E+01 0. -1.
         -5    1    3    3    0  503 -0.49092342920E+02 -0.28206885343E+02  0.20988402735E+03  0.21743753459E+03  0.47000000000E+01 0.  1.
<mgrwt>
<rscale>  0 0.94594158E+02</rscale>
<asrwt>0</asrwt>
<pdfrwt beam="1">  1        2 0.81775472E-01 0.94700217E+02</pdfrwt>
<pdfrwt beam="2">  1       -2 0.26855435E-02 0.94700217E+02</pdfrwt>
<totfact> 0.26225139E+04</totfact>
</mgrwt>
</event>
<event>
 8    1  0.3177960E-004  0.1331787E+03  0.7546771E-02  0.1222950E+00
         -1   -1    0    0    0  501 -0.00000000000E+00  0.00000000000E+00  0.51486877089E+03  0.51486877089E+03  0.00000000000E+00 0.  1.
          1   -1    0    0  501    0  0.00000000000E+00 -0.00000000000E+00 -0.35523459801E+02  0.35523459801E+02  0.00000000000E+00 0. -1.
         23    2    1    2    0    0 -0.66868933716E+01 -0.95185125509E+02  0.18934645644E+03  0.23127483338E+03  0.92363658033E+02 0.  0.
         23    2    1    2    0    0  0.66868933716E+01  0.95185125509E+02  0.28999885465E+03  0.31911739731E+03  0.92906700035E+02 0.  0.
          5    1    4    4  502    0 -0.31612041241E+02  0.62434748797E+02  0.97698788958E+02  0.12026870903E+03  0.47000000000E+01 0. -1.
         -5    1    3    3    0  503 -0.42410184090E+02 -0.30179578253E+02  0.45211876802E+02  0.69105965459E+02  0.47000000000E+01 0.  1.
          5    1    3    3  503    0  0.35723290718E+02 -0.65005547256E+02  0.14413457964E+03  0.16216886792E+03  0.47000000000E+01 0. -1.
         -5    1    4    4    0  502  0.38298934613E+02  0.32750376712E+02  0.19230006569E+03  0.19884868828E+03  0.47000000000E+01 0.  1.
<mgrwt>
<rscale>  0 0.13308408E+03</rscale>
<asrwt>0</asrwt>
<pdfrwt beam="1">  1        1 0.54651481E-02 0.13317874E+03</pdfrwt>
<pdfrwt beam="2">  1       -1 0.79210574E-01 0.13317874E+03</pdfrwt>
<totfact> 0.23691718E+03</totfact>
</mgrwt>
</event>
<event>
 8    1  0.3177960E-004  0.1603294E+03  0.7546771E-02  0.1188373E+00
         -1   -1    0    0    0  501 -0.00000000000E+00  0.00000000000E+00  0.12373698069E+03  0.12373698069E+03  0.00000000000E+00 0.  1.
          1   -1    0    0  501    0  0.00000000000E+00 -0.00000000000E+00 -0.48321329235E+03  0.48321329235E+03  0.00000000000E+00 0. -1.
         23    2    1    2    0    0  0.12919034468E+03 -0.23719985658E+02 -0.40892358686E+03  0.43916903625E+03  0.91641473288E+02 0.  0.
         23    2    1    2    0    0 -0.12919034468E+03  0.23719985658E+02  0.49447275205E+02  0.16778123679E+03  0.91938716091E+02 0.  0.
          5    1    3    3  502    0  0.13189633337E+03  0.38664105978E+01 -0.33879494885E+03  0.36361476765E+03  0.47000000000E+01 0. -1.
         -5    1    4    4    0  503 -0.10037174878E+03 -0.73319203931E+00  0.71909941113E+02  0.12356437656E+03  0.47000000000E+01 0.  1.
          5    1    4    4  503    0 -0.28818595896E+02  0.24453177697E+02 -0.22462665908E+02  0.44216860230E+02  0.47000000000E+01 0. -1.
         -5    1    3    3    0  502 -0.27059886951E+01 -0.27586396256E+02 -0.70128638015E+02  0.75554268596E+02  0.47000000000E+01 0.  1.
<mgrwt>
<rscale>  0 0.16028680E+03</rscale>
<asrwt>0</asrwt>
<pdfrwt beam="1">  1        1 0.74340505E-01 0.16032938E+03</pdfrwt>
<pdfrwt beam="2">  1       -1 0.19036459E-01 0.16032938E+03</pdfrwt>
<totfact> 0.10314906E+03</totfact>
</mgrwt>
</event>
<event>
 8    1  0.3177960E-004  0.1050210E+03  0.7546771E-02  0.1270894E+00
          1   -1    0    0  501    0  0.00000000000E+00  0.00000000000E+00  0.43799058957E+03  0.43799058957E+03  0.00000000000E+00 0. -1.
         -1   -1    0    0    0  501 -0.00000000000E+00 -0.00000000000E+00 -0.27419402602E+02  0.27419402602E+02  0.00000000000E+00 0.  1.
         23    2    1    2    0    0 -0.36828010075E+02 -0.36800515561E+02  0.27588870455E+03  0.29462129421E+03  0.89311530223E+02 0.  0.
         23    2    1    2    0    0  0.36828010075E+02  0.36800515561E+02  0.13468248242E+03  0.17078869797E+03  0.91207609391E+02 0.  0.
          5    1    3    3  502    0 -0.36570888055E+02 -0.59973820880E+01  0.25353401080E+03  0.25627130756E+03  0.47000000000E+01 0. -1.
         -5    1    3    3    0  502 -0.25712201949E+00 -0.30803133473E+02  0.22354693754E+02  0.38349986654E+02  0.47000000000E+01 0.  1.
          5    1    4    4  503    0 -0.20771925032E+02  0.14234358807E+01  0.15454028404E+01  0.21400404416E+02  0.47000000000E+01 0. -1.
         -5    1    4    4    0  503  0.57599935107E+02  0.35377079681E+02  0.13313707958E+03  0.14938829355E+03  0.47000000000E+01 0.  1.
<mgrwt>
<rscale>  0 0.10460796E+03</rscale>
<asrwt>0</asrwt>
<pdfrwt beam="1">  1        1 0.67383162E-01 0.10502099E+03</pdfrwt>
<pdfrwt beam="2">  1       -1 0.42183700E-02 0.10502099E+03</pdfrwt>
<totfact> 0.11358099E+04</totfact>
</mgrwt>
</event>
<event>
 8    1  0.3177960E-004  0.9382309E+02  0.7546771E-02  0.1294264E+00
          3   -1    0    0  501    0  0.00000000000E+00  0.00000000000E+00  0.87483404974E+02  0.87483404974E+02  0.00000000000E+00 0. -1.
         -3   -1    0    0    0  501 -0.00000000000E+00 -0.00000000000E+00 -0.10723206335E+03  0.10723206335E+03  0.00000000000E+00 0.  1.
         23    2    1    2    0    0  0.20270645377E+02  0.81688758597E+01 -0.35385302329E+02  0.99598292734E+02  0.90499009375E+02 0.  0.
         23    2    1    2    0    0 -0.20270645377E+02 -0.81688758597E+01  0.15636643954E+02  0.95117175589E+02  0.91242220825E+02 0.  0.
          5    1    4    4  502    0 -0.51046873476E+02  0.10206909583E+02 -0.65847841159E+01  0.52682195064E+02  0.47000000000E+01 0. -1.
         -5    1    3    3    0  503  0.31023705541E+02  0.40269556059E+02 -0.91981190241E+00  0.51059215668E+02  0.47000000000E+01 0.  1.
          5    1    3    3  503    0 -0.10753060164E+02 -0.32100680199E+02 -0.34465490427E+02  0.48539077067E+02  0.47000000000E+01 0. -1.
         -5    1    4    4    0  502  0.30776228099E+02 -0.18375785442E+02  0.22221428070E+02  0.42434980525E+02  0.47000000000E+01 0.  1.
<mgrwt>
<rscale>  0 0.93641916E+02</rscale>
<asrwt>0</asrwt>
<pdfrwt beam="1">  1        3 0.13458985E-01 0.93823091E+02</pdfrwt>
<pdfrwt beam="2">  1       -3 0.16497240E-01 0.93823091E+02</pdfrwt>
<totfact> 0.29888109E+03</totfact>
</mgrwt>
</event>
<event>
 8    1  0.3177960E-004  0.1322583E+03  0.7546771E-02  0.1224184E+00
          1   -1    0    0  501    0  0.00000000000E+00  0.00000000000E+00  0.11984488595E+04  0.11984488595E+04  0.00000000000E+00 0. -1.
         -1   -1    0    0    0  501 -0.00000000000E+00 -0.00000000000E+00 -0.15503351795E+02  0.15503351795E+02  0.00000000000E+00 0.  1.
         23    2    1    2    0    0 -0.51230911528E+02 -0.81246780074E+02  0.73911021979E+03  0.75083016260E+03  0.90754451723E+02 0.  0.
         23    2    1    2    0    0  0.51230911528E+02  0.81246780074E+02  0.44383528794E+03  0.46312204871E+03  0.90920974576E+02 0.  0.
          5    1    3    3  502    0  0.25871374477E+02 -0.17757273355E+02  0.15348632496E+03  0.15673158815E+03  0.47000000000E+01 0. -1.
         -5    1    4    4    0  503  0.18910708674E+01  0.28323173193E+02  0.25181809566E+02  0.38236001645E+02  0.47000000000E+01 0.  1.
          5    1    4    4  503    0  0.49339840660E+02  0.52923606881E+02  0.41865347837E+03  0.42488604707E+03  0.47000000000E+01 0. -1.
         -5    1    3    3    0  502 -0.77102286005E+02 -0.63489506719E+02  0.58562389483E+03  0.59409857445E+03  0.47000000000E+01 0.  1.
<mgrwt>
<rscale>  0 0.13222973E+03</rscale>
<asrwt>0</asrwt>
<pdfrwt beam="1">  1        1 0.18437667E+00 0.13225834E+03</pdfrwt>
<pdfrwt beam="2">  1       -1 0.23851320E-02 0.13225834E+03</pdfrwt>
<totfact> 0.59272270E+03</totfact>
</mgrwt>
</event>
<event>
 8    1  0.3177960E-004  0.1028632E+03  0.7546771E-02  0.1274619E+00
          3   -1    0    0  501    0  0.00000000000E+00  0.00000000000E+00  0.15029041187E+02  0.15029041187E+02  0.00000000000E+00 0. -1.
         -3   -1    0    0    0  501 -0.00000000000E+00 -0.00000000000E+00 -0.80897152574E+03  0.80897152574E+03  0.00000000000E+00 0.  1.
         23    2    1    2    0    0 -0.62375190811E+01 -0.44463588783E+02 -0.54832057184E+03  0.55788555134E+03  0.92546861180E+02 0.  0.
         23    2    1    2    0    0  0.62375190811E+01  0.44463588783E+02 -0.24562191271E+03  0.26611501559E+03  0.92038905613E+02 0.  0.
          5    1    3    3  502    0  0.39738151303E+02 -0.18732561538E+02 -0.16034970532E+03  0.16632542658E+03  0.47000000000E+01 0. -1.
         -5    1    3    3    0  502 -0.45975670384E+02 -0.25731027245E+02 -0.38797086653E+03  0.39156012476E+03  0.47000000000E+01 0.  1.
          5    1    4    4  503    0  0.27372941129E+02 -0.12592707701E+02 -0.33106545371E+02  0.45010971326E+02  0.47000000000E+01 0. -1.
         -5    1    4    4    0  503 -0.21135422048E+02  0.57056296485E+02 -0.21251536734E+03  0.22110404426E+03  0.47000000000E+01 0.  1.
<mgrwt>
<rscale>  0 0.10274882E+03</rscale>
<asrwt>0</asrwt>
<pdfrwt beam="1">  1        3 0.23121606E-02 0.10286320E+03</pdfrwt>
<pdfrwt beam="2">  1       -3 0.12445714E+00 0.10286320E+03</pdfrwt>
<totfact> 0.91269261E+02</totfact>
</mgrwt>
</event>
<event>
 8    1  0.3177960E-004  0.9363919E+02  0.7546771E-02  0.1295157E+00
         -1   -1    0    0    0  501 -0.00000000000E+00  0.00000000000E+00  0.28579260705E+03  0.28579260705E+03  0.00000000000E+00 0.  1.
          1   -1    0    0  501    0  0.00000000000E+00 -0.00000000000E+00 -0.42693602151E+02  0.42693602151E+02  0.00000000000E+00 0. -1.
         23    2    1    2    0    0  0.22270365313E+02 -0.12451530897E+02  0.33345057985E+02  0.99399152639E+02  0.90095998027E+02 0.  0.
         23    2    1    2    0    0 -0.22270365313E+02  0.12451530897E+02  0.20975394691E+03  0.22908705656E+03  0.88505092768E+02 0.  0.
          5    1    3    3  502    0  0.96095107130E+01  0.23123500886E+02  0.51334164203E+02  0.57309034225E+02  0.47000000000E+01 0.  1.
         -5    1    4    4    0  503 -0.15842946617E+02 -0.30060022488E+02  0.15780488117E+03  0.16149016822E+03  0.47000000000E+01 0.  1.
          5    1    4    4  503    0 -0.64274186956E+01  0.42511553385E+02  0.51949065739E+02  0.67596888342E+02  0.47000000000E+01 0. -1.
         -5    1    3    3    0  502  0.12660854600E+02 -0.35575031784E+02 -0.17989106218E+02  0.42090118414E+02  0.47000000000E+01 0. -1.
<mgrwt>
<rscale>  0 0.93254407E+02</rscale>
<asrwt>0</asrwt>
<pdfrwt beam="1">  1        1 0.65682467E-02 0.93639194E+02</pdfrwt>
<pdfrwt beam="2">  1       -1 0.43968092E-01 0.93639194E+02</pdfrwt>
<totfact> 0.54910927E+03</totfact>
</mgrwt>
</event>
<event>
 8    1  0.3177960E-004  0.9479346E+02  0.7546771E-02  0.1292324E+00
         -2   -1    0    0    0  501 -0.00000000000E+00  0.00000000000E+00  0.14830360503E+02  0.14830360503E+02  0.00000000000E+00 0. -1.
          2   -1    0    0  501    0  0.00000000000E+00 -0.00000000000E+00 -0.92252652769E+03  0.92252652769E+03  0.00000000000E+00 0.  1.
         23    2    1    2    0    0 -0.82225254428E+01 -0.22997461496E+02 -0.73358334335E+03  0.73968258210E+03  0.91593162701E+02 0.  0.
         23    2    1    2    0    0  0.82225254428E+01  0.22997461496E+02 -0.17411282383E+03  0.19767430609E+03  0.90351329302E+02 0.  0.
          5    1    3    3  502    0 -0.48519703887E+02 -0.99812544818E+01 -0.47668689743E+03  0.47927682532E+03  0.47000000000E+01 0. -1.
         -5    1    3    3    0  502  0.40297178444E+02 -0.13016207015E+02 -0.25689644592E+03  0.26040575678E+03  0.47000000000E+01 0.  1.
          5    1    4    4  503    0 -0.29743910384E+02 -0.17676186427E+02 -0.91732863223E+02  0.98153736386E+02  0.47000000000E+01 0. -1.
         -5    1    4    4    0  503  0.37966435827E+02  0.40673647923E+02 -0.82379960608E+02  0.99520569706E+02  0.47000000000E+01 0.  1.
<mgrwt>
<rscale>  0 0.94492189E+02</rscale>
<asrwt>0</asrwt>
<pdfrwt beam="1">  1        2 0.14192720E+00 0.94793463E+02</pdfrwt>
<pdfrwt beam="2">  1       -2 0.22815933E-02 0.94793463E+02</pdfrwt>
<totfact> 0.17341515E+04</totfact>
</mgrwt>
</event>
<event>
 8    1  0.3177960E-004  0.1398914E+03  0.7546771E-02  0.1213644E+00
         -1   -1    0    0    0  501 -0.00000000000E+00  0.00000000000E+00  0.35158771217E+02  0.35158771217E+02  0.00000000000E+00 0.  1.
          1   -1    0    0  501    0  0.00000000000E+00 -0.00000000000E+00 -0.99300172243E+03  0.99300172243E+03  0.00000000000E+00 0. -1.
         23    2    1    2    0    0  0.81960265982E+02  0.66244639238E+02 -0.82097653561E+03  0.83280975473E+03  0.91998794149E+02 0.  0.
         23    2    1    2    0    0 -0.81960265982E+02 -0.66244639238E+02 -0.13686641560E+03  0.19535073891E+03  0.91234083802E+02 0.  0.
          5    1    3    3  502    0  0.31212346253E+02 -0.20884315818E+02 -0.18022431851E+03  0.18415553260E+03  0.47000000000E+01 0. -1.
         -5    1    3    3    0  502  0.50747919729E+02  0.87128955056E+02 -0.64075221710E+03  0.64865422213E+03  0.47000000000E+01 0.  1.
          5    1    4    4  503    0 -0.27224291505E+01 -0.42675549164E+02 -0.91088901153E+02  0.10073674618E+03  0.47000000000E+01 0. -1.
         -5    1    4    4    0  503 -0.79237836831E+02 -0.23569090074E+02 -0.45777514446E+02  0.94613992736E+02  0.47000000000E+01 0.  1.
<mgrwt>
<rscale>  0 0.13976584E+03</rscale>
<asrwt>0</asrwt>
<pdfrwt beam="1">  1        1 0.15276950E+00 0.13989144E+03</pdfrwt>
<pdfrwt beam="2">  1       -1 0.54090415E-02 0.13989144E+03</pdfrwt>
<totfact> 0.25009005E+03</totfact>
</mgrwt>
</event>
<event>
 8    1  0.3177960E-004  0.1348990E+03  0.7546771E-02  0.1220551E+00
          1   -1    0    0  501    0  0.00000000000E+00  0.00000000000E+00  0.44695749281E+03  0.44695749281E+03  0.00000000000E+00 0. -1.
         -1   -1    0    0    0  501 -0.00000000000E+00 -0.00000000000E+00 -0.40630334481E+02  0.40630334481E+02  0.00000000000E+00 0.  1.
         23    2    1    2    0    0  0.55422072281E+02 -0.81365688171E+02  0.21332395457E+03  0.25211387514E+03  0.91445695028E+02 0.  0.
         23    2    1    2    0    0 -0.55422072281E+02  0.81365688171E+02  0.19300320376E+03  0.23547395215E+03  0.92226699881E+02 0.  0.
          5    1    4    4  502    0 -0.89465793106E+01  0.63289518285E+02  0.16734113769E+03  0.17919472863E+03  0.47000000000E+01 0. -1.
         -5    1    4    4    0  502 -0.46475492971E+02  0.18076169886E+02  0.25662066071E+02  0.56279223517E+02  0.47000000000E+01 0.  1.
          5    1    3    3  503    0  0.43234084010E+02 -0.10145207781E+03  0.17336473501E+03  0.20552160825E+03  0.47000000000E+01 0. -1.
         -5    1    3    3    0  503  0.12187988271E+02  0.20086389636E+02  0.39959219562E+02  0.46592266898E+02  0.47000000000E+01 0.  1.
<mgrwt>
<rscale>  0 0.13476564E+03</rscale>
<asrwt>0</asrwt>
<pdfrwt beam="1">  1        1 0.68762688E-01 0.13489902E+03</pdfrwt>
<pdfrwt beam="2">  1       -1 0.62508210E-02 0.13489902E+03</pdfrwt>
<totfact> 0.63061262E+03</totfact>
</mgrwt>
</event>
<event>
 8    1  0.3177960E-004  0.2110316E+03  0.7546771E-02  0.1141941E+00
         -4   -1    0    0    0  501 -0.00000000000E+00  0.00000000000E+00  0.70516032056E+03  0.70516032056E+03  0.00000000000E+00 0.  1.
          4   -1    0    0  501    0  0.00000000000E+00 -0.00000000000E+00 -0.68450772297E+02  0.68450772297E+02  0.00000000000E+00 0. -1.
         23    2    1    2    0    0  0.21226744124E+02  0.18916588479E+03  0.19817828015E+03  0.28949778255E+03  0.91104493564E+02 0.  0.
         23    2    1    2    0    0 -0.21226744124E+02 -0.18916588479E+03  0.43853126811E+03  0.48411331030E+03  0.76300179985E+02 0.  0.
          5    1    3    3  502    0  0.17985630183E+02  0.82733264489E+02  0.29142945377E+02  0.89664247118E+02  0.47000000000E+01 0. -1.
         -5    1    4    4    0  503  0.16458423872E+02 -0.13808262808E+03  0.26558909869E+03  0.29982886992E+03  0.47000000000E+01 0.  1.
          5    1    4    4  503    0 -0.37685167996E+02 -0.51083256704E+02  0.17294216942E+03  0.18428444038E+03  0.47000000000E+01 0. -1.
         -5    1    3    3    0  502  0.32411139410E+01  0.10643262030E+03  0.16903533477E+03  0.19983353543E+03  0.47000000000E+01 0.  1.
<mgrwt>
<rscale>  0 0.20952659E+03</rscale>
<asrwt>0</asrwt>
<pdfrwt beam="1">  1        4 0.10530889E-01 0.21103160E+03</pdfrwt>
<pdfrwt beam="2">  1       -4 0.10848620E+00 0.21103160E+03</pdfrwt>
<totfact> 0.87778389E+01</totfact>
</mgrwt>
</event>
<event>
 8    1  0.3177960E-004  0.1343405E+03  0.7546771E-02  0.1222023E+00
          1   -1    0    0  501    0  0.00000000000E+00  0.00000000000E+00  0.51517150254E+03  0.51517150254E+03  0.00000000000E+00 0. -1.
         -1   -1    0    0    0  501 -0.00000000000E+00 -0.00000000000E+00 -0.53735466622E+02  0.53735466622E+02  0.00000000000E+00 0.  1.
         23    2    1    2    0    0  0.53061075422E+02  0.76394636592E+02  0.58757349780E+02  0.14441020414E+03  0.93542838755E+02 0.  0.
         23    2    1    2    0    0 -0.53061075422E+02 -0.76394636592E+02  0.40267868614E+03  0.42449676502E+03  0.96931733800E+02 0.  0.
          5    1    3    3  502    0  0.26229861944E+02 -0.18969364103E+02  0.15869846026E+02  0.36356353571E+02  0.47000000000E+01 0. -1.
         -5    1    4    4    0  503 -0.40102089105E+01 -0.76058478105E+02  0.16538669223E+03  0.18214231204E+03  0.47000000000E+01 0.  1.
          5    1    4    4  503    0 -0.49050866512E+02 -0.33615848657E+00  0.23729199391E+03  0.24235445298E+03  0.47000000000E+01 0. -1.
         -5    1    3    3    0  502  0.26831213478E+02  0.95364000694E+02  0.42887503754E+02  0.10805385057E+03  0.47000000000E+01 0.  1.
<mgrwt>
<rscale>  0 0.13373030E+03</rscale>
<asrwt>0</asrwt>
<pdfrwt beam="1">  1        1 0.79257151E-01 0.13434053E+03</pdfrwt>
<pdfrwt beam="2">  1       -1 0.82669952E-02 0.13434053E+03</pdfrwt>
<totfact> 0.34483865E+03</totfact>
</mgrwt>
</event>
<event>
 8    1  0.3177960E-004  0.1080567E+03  0.7546771E-02  0.1264549E+00
          1   -1    0    0  501    0  0.00000000000E+00  0.00000000000E+00  0.12678731618E+03  0.12678731618E+03  0.00000000000E+00 0. -1.
         -1   -1    0    0    0  501 -0.00000000000E+00 -0.00000000000E+00 -0.91567988632E+02  0.91567988632E+02  0.00000000000E+00 0.  1.
         23    2    1    2    0    0 -0.23121441952E+02 -0.51831732241E+02  0.20864780756E+02  0.11005261797E+03  0.91951672641E+02 0.  0.
         23    2    1    2    0    0  0.23121441952E+02  0.51831732241E+02  0.14354546788E+02  0.10830268684E+03  0.91116899735E+02 0.  0.
          5    1    4    4  502    0  0.40216214624E+02  0.64176100635E+02  0.30033942443E+02  0.81609089629E+02  0.47000000000E+01 0. -1.
         -5    1    4    4    0  502 -0.17094772671E+02 -0.12344368394E+02 -0.15679395656E+02  0.26693597207E+02  0.47000000000E+01 0.  1.
          5    1    3    3  503    0  0.33018368121E+02 -0.19155744913E+02  0.23141296687E+02  0.44886131588E+02  0.47000000000E+01 0. -1.
         -5    1    3    3    0  503 -0.56139810073E+02 -0.32675987327E+02 -0.22765159313E+01  0.65166486384E+02  0.47000000000E+01 0.  1.
<mgrwt>
<rscale>  0 0.10787885E+03</rscale>
<asrwt>0</asrwt>
<pdfrwt beam="1">  1        1 0.19505741E-01 0.10805665E+03</pdfrwt>
<pdfrwt beam="2">  1       -1 0.14087383E-01 0.10805665E+03</pdfrwt>
<totfact> 0.86787254E+03</totfact>
</mgrwt>
</event>
<event>
 8    1  0.3177960E-004  0.9978121E+02  0.7546771E-02  0.1284810E+00
          1   -1    0    0  501    0  0.00000000000E+00  0.00000000000E+00  0.47849360918E+02  0.47849360918E+02  0.00000000000E+00 0. -1.
         -1   -1    0    0    0  501 -0.00000000000E+00 -0.00000000000E+00 -0.26181246004E+03  0.26181246004E+03  0.00000000000E+00 0.  1.
         23    2    1    2    0    0 -0.37900643163E+02 -0.13589320279E+02 -0.18935473555E+03  0.21403622694E+03  0.91297109427E+02 0.  0.
         23    2    1    2    0    0  0.37900643163E+02  0.13589320279E+02 -0.24608363576E+02  0.95625594022E+02  0.83171835956E+02 0.  0.
          5    1    4    4  502    0  0.39123040995E+02  0.36251287912E+02  0.95088006649E+01  0.54380837636E+02  0.47000000000E+01 0. -1.
         -5    1    3    3    0  503 -0.38862410480E+02  0.23538283430E+02 -0.42176341192E+02  0.62171307622E+02  0.47000000000E+01 0. -1.
          5    1    3    3  503    0  0.96176731658E+00 -0.37127603709E+02 -0.14717839436E+03  0.15186491932E+03  0.47000000000E+01 0.  1.
         -5    1    4    4    0  502 -0.12223978315E+01 -0.22661967633E+02 -0.34117164241E+02  0.41244756386E+02  0.47000000000E+01 0.  1.
<mgrwt>
<rscale>  0 0.97883715E+02</rscale>
<asrwt>0</asrwt>
<pdfrwt beam="1">  1        1 0.73614403E-02 0.99781214E+02</pdfrwt>
<pdfrwt beam="2">  1       -1 0.40278839E-01 0.99781214E+02</pdfrwt>
<totfact> 0.55257937E+03</totfact>
</mgrwt>
</event>
<event>
 8    1  0.3177960E-004  0.9392468E+02  0.7546771E-02  0.1299392E+00
          1   -1    0    0  501    0  0.00000000000E+00  0.00000000000E+00  0.53812486837E+03  0.53812486837E+03  0.00000000000E+00 0. -1.
         -1   -1    0    0    0  501 -0.00000000000E+00 -0.00000000000E+00 -0.20941140277E+02  0.20941140277E+02  0.00000000000E+00 0.  1.
         23    2    1    2    0    0  0.27298770318E+02 -0.78810787530E+00  0.40041072051E+03  0.40920680720E+03  0.79847492061E+02 0.  0.
         23    2    1    2    0    0 -0.27298770318E+02  0.78810787530E+00  0.11677300759E+03  0.14985920144E+03  0.89866573218E+02 0.  0.
          5    1    4    4  502    0 -0.38276354307E+02 -0.31006631034E+02  0.33038385281E+02  0.59498868637E+02  0.47000000000E+01 0.  1.
         -5    1    3    3    0  503 -0.28052181365E+02 -0.40855797635E+01  0.13862344190E+03  0.14157035525E+03  0.47000000000E+01 0.  1.
          5    1    3    3  503    0  0.55350951682E+02  0.32974718882E+01  0.26178727860E+03  0.26763645195E+03  0.47000000000E+01 0. -1.
         -5    1    4    4    0  502  0.10977583989E+02  0.31794738909E+02  0.83734622305E+02  0.90360332808E+02  0.47000000000E+01 0. -1.
<mgrwt>
<rscale>  0 0.91444156E+02</rscale>
<asrwt>0</asrwt>
<pdfrwt beam="1">  1        1 0.82788431E-01 0.93924677E+02</pdfrwt>
<pdfrwt beam="2">  1       -1 0.32217143E-02 0.93924677E+02</pdfrwt>
<totfact> 0.12779701E+04</totfact>
</mgrwt>
</event>
<event>
 8    1  0.3177960E-004  0.8953417E+02  0.7546771E-02  0.1311200E+00
          1   -1    0    0  501    0  0.00000000000E+00  0.00000000000E+00  0.75523812496E+02  0.75523812496E+02  0.00000000000E+00 0. -1.
         -1   -1    0    0    0  501 -0.00000000000E+00 -0.00000000000E+00 -0.18973569626E+03  0.18973569626E+03  0.00000000000E+00 0.  1.
         23    2    1    2    0    0  0.20749386331E+01 -0.67859435561E+01 -0.14963035897E+03  0.16897432432E+03  0.78183908536E+02 0.  0.
         23    2    1    2    0    0 -0.20749386331E+01  0.67859435561E+01  0.35418475203E+02  0.96285184437E+02  0.89252529130E+02 0.  0.
          5    1    4    4  502    0 -0.45212480975E+02  0.66495791625E+01  0.14987321880E+02  0.48322822311E+02  0.47000000000E+01 0. -1.
         -5    1    3    3    0  503  0.16566337297E+02 -0.22230163651E+02 -0.14378238420E+03  0.14650627192E+03  0.47000000000E+01 0.  1.
          5    1    3    3  503    0 -0.14491398664E+02  0.15444220095E+02 -0.58479747718E+01  0.22468052397E+02  0.47000000000E+01 0. -1.
         -5    1    4    4    0  502  0.43137542342E+02  0.13636439358E+00  0.20431153323E+02  0.47962362126E+02  0.47000000000E+01 0.  1.
<mgrwt>
<rscale>  0 0.86639579E+02</rscale>
<asrwt>0</asrwt>
<pdfrwt beam="1">  1        1 0.11619048E-01 0.89534174E+02</pdfrwt>
<pdfrwt beam="2">  1       -1 0.29190107E-01 0.89534174E+02</pdfrwt>
<totfact> 0.51871224E+03</totfact>
</mgrwt>
</event>
<event>
 8    1  0.3177960E-004  0.9828412E+02  0.7546771E-02  0.1284962E+00
          2   -1    0    0  501    0  0.00000000000E+00  0.00000000000E+00  0.77133145095E+02  0.77133145095E+02  0.00000000000E+00 0. -1.
         -2   -1    0    0    0  501 -0.00000000000E+00 -0.00000000000E+00 -0.12348670297E+03  0.12348670297E+03  0.00000000000E+00 0.  1.
         23    2    1    2    0    0  0.36510457578E+02  0.13991367639E+02 -0.30066026136E+02  0.10099529598E+03  0.88132355017E+02 0.  0.
         23    2    1    2    0    0 -0.36510457578E+02 -0.13991367639E+02 -0.16287531738E+02  0.99624552087E+02  0.90172034509E+02 0.  0.
          5    1    3    3  502    0  0.15471620255E+02  0.45221590019E+02  0.62981118388E+01  0.48436757219E+02  0.47000000000E+01 0. -1.
         -5    1    4    4    0  503 -0.53326192057E+02  0.98502081099E+01 -0.34938310057E+02  0.64679864477E+02  0.47000000000E+01 0. -1.
          5    1    4    4  503    0  0.16815734479E+02 -0.23841575749E+02  0.18650778319E+02  0.34944687610E+02  0.47000000000E+01 0.  1.
         -5    1    3    3    0  502  0.21038837323E+02 -0.31230222380E+02 -0.36364137974E+02  0.52558538758E+02  0.47000000000E+01 0.  1.
<mgrwt>
<rscale>  0 0.97813773E+02</rscale>
<asrwt>0</asrwt>
<pdfrwt beam="1">  1        2 0.11866638E-01 0.98284117E+02</pdfrwt>
<pdfrwt beam="2">  1       -2 0.18997954E-01 0.98284117E+02</pdfrwt>
<totfact> 0.10818892E+04</totfact>
</mgrwt>
</event>
<event>
 8    1  0.3177960E-004  0.9291288E+02  0.7546771E-02  0.1296495E+00
          1   -1    0    0  501    0  0.00000000000E+00  0.00000000000E+00  0.10210126340E+04  0.10210126340E+04  0.00000000000E+00 0. -1.
         -1   -1    0    0    0  501 -0.00000000000E+00 -0.00000000000E+00 -0.84353747382E+01  0.84353747382E+01  0.00000000000E+00 0.  1.
         23    2    1    2    0    0 -0.12556996036E+02 -0.13448850687E+02  0.55421723518E+03  0.56195155186E+03  0.91072790324E+02 0.  0.
         23    2    1    2    0    0  0.12556996036E+02  0.13448850687E+02  0.45836002405E+03  0.46749645684E+03  0.90113682529E+02 0.  0.
          5    1    3    3  502    0  0.14694521055E+02  0.34140906750E+02  0.19912583399E+03  0.20261963929E+03  0.47000000000E+01 0. -1.
         -5    1    3    3    0  502 -0.27251517091E+02 -0.47589757438E+02  0.35509140119E+03  0.35933191258E+03  0.47000000000E+01 0.  1.
          5    1    4    4  503    0  0.41070032239E+02  0.70257922150E+01  0.39866832260E+03  0.40086734808E+03  0.47000000000E+01 0. -1.
         -5    1    4    4    0  503 -0.28513036203E+02  0.64230584723E+01  0.59691701441E+02  0.66629108763E+02  0.47000000000E+01 0.  1.
<mgrwt>
<rscale>  0 0.92677002E+02</rscale>
<asrwt>0</asrwt>
<pdfrwt beam="1">  1        1 0.15707877E+00 0.92912878E+02</pdfrwt>
<pdfrwt beam="2">  1       -1 0.12977508E-02 0.92912878E+02</pdfrwt>
<totfact> 0.18426556E+04</totfact>
</mgrwt>
</event>
<event>
 8    1  0.3177960E-004  0.9951675E+02  0.7546771E-02  0.1281753E+00
         -3   -1    0    0    0  501 -0.00000000000E+00  0.00000000000E+00  0.27077289208E+03  0.27077289208E+03  0.00000000000E+00 0.  1.
          3   -1    0    0  501    0  0.00000000000E+00 -0.00000000000E+00 -0.38641101228E+02  0.38641101228E+02  0.00000000000E+00 0. -1.
         23    2    1    2    0    0  0.38180554229E+02  0.32671394811E+01  0.15391142097E+03  0.18283591866E+03  0.90949539447E+02 0.  0.
         23    2    1    2    0    0 -0.38180554229E+02 -0.32671394811E+01  0.78220369881E+02  0.12657807465E+03  0.91843093347E+02 0.  0.
          5    1    3    3  502    0  0.15017726174E+02  0.42364898307E+02  0.40952493266E+02  0.60987813641E+02  0.47000000000E+01 0. -1.
         -5    1    3    3    0  502  0.23162828055E+02 -0.39097758826E+02  0.11295892771E+03  0.12184810502E+03  0.47000000000E+01 0.  1.
          5    1    4    4  503    0 -0.66330987435E+02  0.76965333591E+01  0.64872493338E+02  0.93217846531E+02  0.47000000000E+01 0. -1.
         -5    1    4    4    0  503  0.28150433206E+02 -0.10963672840E+02  0.13347876543E+02  0.33360228117E+02  0.47000000000E+01 0.  1.
<mgrwt>
<rscale>  0 0.99310090E+02</rscale>
<asrwt>0</asrwt>
<pdfrwt beam="1">  1        3 0.59447850E-02 0.99516746E+02</pdfrwt>
<pdfrwt beam="2">  1       -3 0.41657367E-01 0.99516746E+02</pdfrwt>
<totfact> 0.21434052E+03</totfact>
</mgrwt>
</event>
<event>
 8    1  0.3177960E-004  0.9484989E+02  0.7546771E-02  0.1292238E+00
          1   -1    0    0  501    0  0.00000000000E+00  0.00000000000E+00  0.61425237081E+03  0.61425237081E+03  0.00000000000E+00 0. -1.
         -1   -1    0    0    0  501 -0.00000000000E+00 -0.00000000000E+00 -0.36689113506E+02  0.36689113506E+02  0.00000000000E+00 0.  1.
         23    2    1    2    0    0  0.17977389881E+02  0.24427384373E+02  0.34620183221E+02  0.99775735574E+02  0.88525457743E+02 0.  0.
         23    2    1    2    0    0 -0.17977389881E+02 -0.24427384373E+02  0.54294307409E+03  0.55116574875E+03  0.89870001884E+02 0.  0.
          5    1    3    3  502    0 -0.14564433512E+02  0.43338609139E+02  0.40663142441E+02  0.61367246303E+02  0.47000000000E+01 0. -1.
         -5    1    4    4    0  503  0.34239115658E+02 -0.74956468376E+01  0.13653865131E+03  0.14104394728E+03  0.47000000000E+01 0.  1.
          5    1    4    4  503    0 -0.52216505539E+02 -0.16931737536E+02  0.40640442278E+03  0.41012180147E+03  0.47000000000E+01 0. -1.
         -5    1    3    3    0  502  0.32541823394E+02 -0.18911224766E+02 -0.60429592195E+01  0.38408489271E+02  0.47000000000E+01 0.  1.
<mgrwt>
<rscale>  0 0.94530031E+02</rscale>
<asrwt>0</asrwt>
<pdfrwt beam="1">  1        1 0.94500358E-01 0.94849886E+02</pdfrwt>
<pdfrwt beam="2">  1       -1 0.56444794E-02 0.94849886E+02</pdfrwt>
<totfact> 0.47384479E+03</totfact>
</mgrwt>
</event>
<event>
 8    1  0.3177960E-004  0.9394435E+02  0.7546771E-02  0.1294055E+00
          1   -1    0    0  501    0  0.00000000000E+00  0.00000000000E+00  0.95680223149E+03  0.95680223149E+03  0.00000000000E+00 0. -1.
         -1   -1    0    0    0  501 -0.00000000000E+00 -0.00000000000E+00 -0.94419009885E+01  0.94419009885E+01  0.00000000000E+00 0.  1.
         23    2    1    2    0    0 -0.98730745180E+01  0.62416817187E+01  0.55778024721E+03  0.56549710315E+03  0.92367382273E+02 0.  0.
         23    2    1    2    0    0  0.98730745180E+01 -0.62416817187E+01  0.38958008329E+03  0.40074702933E+03  0.93215363665E+02 0.  0.
          5    1    4    4  502    0  0.92796922586E+01  0.42848327207E+02  0.20530656399E+03  0.20998801645E+03  0.47000000000E+01 0. -1.
         -5    1    3    3    0  503  0.19424410083E+02 -0.36158382911E+02  0.25565744426E+03  0.25897404343E+03  0.47000000000E+01 0.  1.
          5    1    3    3  503    0 -0.29297484601E+02  0.42400064629E+02  0.30212280295E+03  0.30652305973E+03  0.47000000000E+01 0. -1.
         -5    1    4    4    0  502  0.59338225939E+00 -0.49090008926E+02  0.18427351930E+03  0.19075901288E+03  0.47000000000E+01 0.  1.
<mgrwt>
<rscale>  0 0.93733301E+02</rscale>
<asrwt>0</asrwt>
<pdfrwt beam="1">  1        1 0.14720027E+00 0.93944346E+02</pdfrwt>
<pdfrwt beam="2">  1       -1 0.14526009E-02 0.93944346E+02</pdfrwt>
<totfact> 0.17495838E+04</totfact>
</mgrwt>
</event>
<event>
 8    1  0.3177960E-004  0.1558959E+03  0.7546771E-02  0.1193742E+00
         -2   -1    0    0    0  501 -0.00000000000E+00  0.00000000000E+00  0.13219939058E+03  0.13219939058E+03  0.00000000000E+00 0.  1.
          2   -1    0    0  501    0  0.00000000000E+00 -0.00000000000E+00 -0.21450242186E+03  0.21450242186E+03  0.00000000000E+00 0. -1.
         23    2    1    2    0    0 -0.65455866461E+02  0.10781474089E+03  0.25671547114E+02  0.15799545941E+03  0.91624494847E+02 0.  0.
         23    2    1    2    0    0  0.65455866461E+02 -0.10781474089E+03 -0.10797457839E+03  0.18870635303E+03  0.89683272070E+02 0.  0.
          5    1    4    4  502    0  0.31402357288E+02 -0.11494964809E+03 -0.77577856246E+02  0.14226715510E+03  0.47000000000E+01 0. -1.
         -5    1    3    3    0  503 -0.75516600727E+02  0.50088621856E+02 -0.65199663947E+01  0.90973770872E+02  0.47000000000E+01 0.  1.
          5    1    3    3  503    0  0.10060734267E+02  0.57726119033E+02  0.32191513509E+02  0.67021688539E+02  0.47000000000E+01 0. -1.
         -5    1    4    4    0  502  0.34053509173E+02  0.71349072026E+01 -0.30396722147E+02  0.46439197937E+02  0.47000000000E+01 0.  1.
<mgrwt>
<rscale>  0 0.15561191E+03</rscale>
<asrwt>0</asrwt>
<pdfrwt beam="1">  1        2 0.33000372E-01 0.15589592E+03</pdfrwt>
<pdfrwt beam="2">  1       -2 0.20338368E-01 0.15589592E+03</pdfrwt>
<totfact> 0.31327071E+03</totfact>
</mgrwt>
</event>
<event>
 8    1  0.3177960E-004  0.1190673E+03  0.7546771E-02  0.1248804E+00
         -1   -1    0    0    0  501 -0.00000000000E+00  0.00000000000E+00  0.29642738776E+03  0.29642738776E+03  0.00000000000E+00 0.  1.
          1   -1    0    0  501    0  0.00000000000E+00 -0.00000000000E+00 -0.12697478072E+03  0.12697478072E+03  0.00000000000E+00 0. -1.
         23    2    1    2    0    0  0.68242499070E+02  0.33670437220E+02  0.25696619889E+03  0.28321132333E+03  0.91576685162E+02 0.  0.
         23    2    1    2    0    0 -0.68242499070E+02 -0.33670437220E+02 -0.87513591854E+02  0.14019084514E+03  0.78766155684E+02 0.  0.
          5    1    4    4  502    0 -0.69434805975E+00 -0.26814989852E+02 -0.61627864916E+02  0.67376624537E+02  0.47000000000E+01 0. -1.
         -5    1    3    3    0  503  0.34612297586E+02 -0.17456765573E+01  0.18141713193E+02  0.39398861512E+02  0.47000000000E+01 0. -1.
          5    1    3    3  503    0  0.33630201484E+02  0.35416113777E+02  0.23882448570E+03  0.24381246182E+03  0.47000000000E+01 0.  1.
         -5    1    4    4    0  502 -0.67548151011E+02 -0.68554473683E+01 -0.25885726938E+02  0.72814220607E+02  0.47000000000E+01 0.  1.
<mgrwt>
<rscale>  0 0.11660542E+03</rscale>
<asrwt>0</asrwt>
<pdfrwt beam="1">  1        1 0.19534582E-01 0.11906732E+03</pdfrwt>
<pdfrwt beam="2">  1       -1 0.45604213E-01 0.11906732E+03</pdfrwt>
<totfact> 0.12567552E+03</totfact>
</mgrwt>
</event>
<event>
 8    1  0.3177960E-004  0.1990930E+03  0.7546771E-02  0.1150648E+00
         -1   -1    0    0    0  501 -0.00000000000E+00  0.00000000000E+00  0.33419846271E+03  0.33419846271E+03  0.00000000000E+00 0.  1.
          1   -1    0    0  501    0  0.00000000000E+00 -0.00000000000E+00 -0.42726179522E+03  0.42726179522E+03  0.00000000000E+00 0. -1.
         23    2    1    2    0    0 -0.74791579846E+02 -0.15963648038E+03 -0.37035965017E+03  0.42048101605E+03  0.92522581590E+02 0.  0.
         23    2    1    2    0    0  0.74791579846E+02  0.15963648038E+03  0.27729631766E+03  0.34097924188E+03  0.91082431470E+02 0.  0.
          5    1    3    3  502    0 -0.21922197203E+02 -0.13951022553E+03 -0.28271157668E+03  0.31605634205E+03  0.47000000000E+01 0. -1.
         -5    1    4    4    0  503  0.79593006060E+02  0.13720726624E+03  0.17585632092E+03  0.23687215145E+03  0.47000000000E+01 0.  1.
          5    1    4    4  503    0 -0.48014262143E+01  0.22429214137E+02  0.10143999673E+03  0.10410709043E+03  0.47000000000E+01 0. -1.
         -5    1    3    3    0  502 -0.52869382643E+02 -0.20126254847E+02 -0.87648073485E+02  0.10442467400E+03  0.47000000000E+01 0.  1.
<mgrwt>
<rscale>  0 0.19892648E+03</rscale>
<asrwt>0</asrwt>
<pdfrwt beam="1">  1        1 0.65732584E-01 0.19909298E+03</pdfrwt>
<pdfrwt beam="2">  1       -1 0.51415148E-01 0.19909298E+03</pdfrwt>
<totfact> 0.22077907E+02</totfact>
</mgrwt>
</event>
<event>
 7    1  0.3177960E-004  0.1602254E+03  0.7546771E-02  0.1198686E+00
          2   -1    0    0  501    0  0.00000000000E+00  0.00000000000E+00  0.53547780810E+03  0.53547780810E+03  0.00000000000E+00 0. -1.
         -2   -1    0    0    0  501 -0.00000000000E+00 -0.00000000000E+00 -0.38781825989E+02  0.38781825989E+02  0.00000000000E+00 0.  1.
         23    2    1    2    0    0  0.42638855401E+02 -0.76540810989E+02  0.22529847299E+03  0.25909491591E+03  0.93242725084E+02 0.  0.
          5    1    3    3  502    0  0.23714927348E+02 -0.49835510157E+02  0.21840288510E+03  0.22531730087E+03  0.47000000000E+01 0. -1.
         -5    1    3    3    0  502  0.18923928054E+02 -0.26705300832E+02  0.68955878950E+01  0.33777615042E+02  0.47000000000E+01 0.  1.
          5    1    1    2  503    0  0.29210540519E+02 -0.15086319848E+02  0.21863993521E+02  0.39761500684E+02  0.47000000000E+01 0. -1.
         -5    1    1    2    0  503 -0.71849395921E+02  0.91627130836E+02  0.24953351559E+03  0.27540321749E+03  0.47000000000E+01 0.  1.
<mgrwt>
<rscale>  0 0.15146324E+03</rscale>
<asrwt>0</asrwt>
<pdfrwt beam="1">  1        2 0.82381196E-01 0.16022544E+03</pdfrwt>
<pdfrwt beam="2">  1       -2 0.59664351E-02 0.16022544E+03</pdfrwt>
<totfact> 0.83055461E+03</totfact>
</mgrwt>
</event>
<event>
 8    1  0.3177960E-004  0.1113028E+03  0.7546771E-02  0.1267138E+00
          1   -1    0    0  501    0  0.00000000000E+00  0.00000000000E+00  0.47038910449E+03  0.47038910449E+03  0.00000000000E+00 0. -1.
         -1   -1    0    0    0  501 -0.00000000000E+00 -0.00000000000E+00 -0.43577419627E+02  0.43577419627E+02  0.00000000000E+00 0.  1.
         23    2    1    2    0    0  0.14262370953E+01 -0.18648652770E+02  0.43600330635E+02  0.11953786424E+03  0.10972012465E+03 0.  0.
         23    2    1    2    0    0 -0.14262370953E+01  0.18648652770E+02  0.38321135423E+03  0.39442865988E+03  0.91505296683E+02 0.  0.
          5    1    3    3  502    0  0.24918044985E+02 -0.64522152851E+01  0.74275633672E+02  0.78749601937E+02  0.47000000000E+01 0. -1.
         -5    1    3    3    0  502 -0.23491807890E+02 -0.12196437485E+02 -0.30675303037E+02  0.40788262303E+02  0.47000000000E+01 0.  1.
          5    1    4    4  503    0 -0.10402818637E+02  0.48902870445E+02  0.31674424434E+03  0.32070035188E+03  0.47000000000E+01 0. -1.
         -5    1    4    4    0  503  0.89765815413E+01 -0.30254217675E+02  0.66467109888E+02  0.73728307997E+02  0.47000000000E+01 0.  1.
<mgrwt>
<rscale>  0 0.10652780E+03</rscale>
<asrwt>0</asrwt>
<pdfrwt beam="1">  1        1 0.72367551E-01 0.11130279E+03</pdfrwt>
<pdfrwt beam="2">  1       -1 0.67042187E-02 0.11130279E+03</pdfrwt>
<totfact> 0.52614649E+03</totfact>
</mgrwt>
</event>
<event>
 8    1  0.3177960E-004  0.9387397E+02  0.7546771E-02  0.1300491E+00
         -1   -1    0    0    0  501 -0.00000000000E+00  0.00000000000E+00  0.24639511886E+03  0.24639511886E+03  0.00000000000E+00 0.  1.
          1   -1    0    0  501    0  0.00000000000E+00 -0.00000000000E+00 -0.36733672557E+02  0.36733672557E+02  0.00000000000E+00 0. -1.
         23    2    1    2    0    0 -0.91224466957E+01 -0.23499125057E+01  0.15159465595E+03  0.17274729583E+03  0.82291842734E+02 0.  0.
         23    2    1    2    0    0  0.91224466957E+01  0.23499125057E+01  0.58066790348E+02  0.11038149558E+03  0.93400114045E+02 0.  0.
          5    1    4    4  502    0  0.22056556297E+02  0.43512017646E+02  0.21050782337E+02  0.53338661329E+02  0.47000000000E+01 0. -1.
         -5    1    3    3    0  503  0.21330773538E+02 -0.26436586587E+02  0.11183902429E+03  0.11697842692E+03  0.47000000000E+01 0.  1.
          5    1    3    3  503    0 -0.30453220233E+02  0.24086674081E+02  0.39755631665E+02  0.55768868914E+02  0.47000000000E+01 0. -1.
         -5    1    4    4    0  502 -0.12934109602E+02 -0.41162105141E+02  0.37016008011E+02  0.57042834255E+02  0.47000000000E+01 0.  1.
<mgrwt>
<rscale>  0 0.90981869E+02</rscale>
<asrwt>0</asrwt>
<pdfrwt beam="1">  1        1 0.56513344E-02 0.93873971E+02</pdfrwt>
<pdfrwt beam="2">  1       -1 0.37906940E-01 0.93873971E+02</pdfrwt>
<totfact> 0.87017891E+03</totfact>
</mgrwt>
</event>
<event>
 8    1  0.3177960E-004  0.9739096E+02  0.7546771E-02  0.1288559E+00
          1   -1    0    0  501    0  0.00000000000E+00  0.00000000000E+00  0.67887563081E+03  0.67887563081E+03  0.00000000000E+00 0. -1.
         -1   -1    0    0    0  501 -0.00000000000E+00 -0.00000000000E+00 -0.14348579156E+02  0.14348579156E+02  0.00000000000E+00 0.  1.
         23    2    1    2    0    0  0.13278981388E+02 -0.71766609764E+01  0.24604959349E+03  0.26462313188E+03  0.96214155186E+02 0.  0.
         23    2    1    2    0    0 -0.13278981388E+02  0.71766609764E+01  0.41847745817E+03  0.42860107809E+03  0.91365558816E+02 0.  0.
          5    1    3    3  502    0 -0.24670392420E+02 -0.38443737853E+02  0.14588405054E+03  0.15294049641E+03  0.47000000000E+01 0. -1.
         -5    1    3    3    0  502  0.37949373808E+02  0.31267076877E+02  0.10016554295E+03  0.11168263546E+03  0.47000000000E+01 0.  1.
          5    1    4    4  503    0 -0.50298524459E+02  0.19350905380E+01  0.17255438225E+03  0.17980764992E+03  0.47000000000E+01 0. -1.
         -5    1    4    4    0  503  0.37019543071E+02  0.52415704384E+01  0.24592307592E+03  0.24879342817E+03  0.47000000000E+01 0.  1.
<mgrwt>
<rscale>  0 0.96171509E+02</rscale>
<asrwt>0</asrwt>
<pdfrwt beam="1">  1        1 0.10444238E+00 0.97390962E+02</pdfrwt>
<pdfrwt beam="2">  1       -1 0.22074742E-02 0.97390962E+02</pdfrwt>
<totfact> 0.16146401E+04</totfact>
</mgrwt>
</event>
<event>
 7    1  0.3177960E-004  0.1642523E+03  0.7546771E-02  0.1195342E+00
          2   -1    0    0  501    0  0.00000000000E+00  0.00000000000E+00  0.65591882443E+03  0.65591882443E+03  0.00000000000E+00 0. -1.
         -2   -1    0    0    0  501 -0.00000000000E+00 -0.00000000000E+00 -0.33968705069E+02  0.33968705069E+02  0.00000000000E+00 0.  1.
         23    2    1    2    0    0  0.80753211320E+02 -0.36604074376E+02  0.34495814849E+03  0.36785743943E+03  0.91989304438E+02 0.  0.
          5    1    1    2  502    0 -0.96906408946E+02 -0.18686972803E+02  0.12441974032E+03  0.15887862294E+03  0.47000000000E+01 0. -1.
         -5    1    1    2    0  502  0.16153197626E+02  0.55291047179E+02  0.15257223055E+03  0.16315146713E+03  0.47000000000E+01 0.  1.
          5    1    3    3  503    0  0.21908161495E+02  0.28898091061E+02  0.14079267846E+03  0.14546386327E+03  0.47000000000E+01 0. -1.
         -5    1    3    3    0  503  0.58845049825E+02 -0.65502165437E+02  0.20416547003E+03  0.22239357616E+03  0.47000000000E+01 0.  1.
<mgrwt>
<rscale>  0 0.15425298E+03</rscale>
<asrwt>0</asrwt>
<pdfrwt beam="1">  1        2 0.10091058E+00 0.16425233E+03</pdfrwt>
<pdfrwt beam="2">  1       -2 0.52259551E-02 0.16425233E+03</pdfrwt>
<totfact> 0.80630820E+03</totfact>
</mgrwt>
</event>
<event>
 8    1  0.3177960E-004  0.1156971E+03  0.7546771E-02  0.1251175E+00
         -1   -1    0    0    0  501 -0.00000000000E+00  0.00000000000E+00  0.96296929061E+02  0.96296929061E+02  0.00000000000E+00 0.  1.
          1   -1    0    0  501    0  0.00000000000E+00 -0.00000000000E+00 -0.18229048178E+03  0.18229048178E+03  0.00000000000E+00 0. -1.
         23    2    1    2    0    0 -0.62615209811E+02 -0.30817029073E+02 -0.11284046903E+03  0.16161307034E+03  0.92279246171E+02 0.  0.
         23    2    1    2    0    0  0.62615209811E+02  0.30817029073E+02  0.26846916313E+02  0.11697434050E+03  0.89954908920E+02 0.  0.
          5    1    4    4  502    0 -0.14933032683E+01  0.26180346438E+02 -0.23239367685E+02  0.35352492199E+02  0.47000000000E+01 0. -1.
         -5    1    4    4    0  502  0.64108513079E+02  0.46366826347E+01  0.50086283998E+02  0.81621848299E+02  0.47000000000E+01 0.  1.
          5    1    3    3  503    0 -0.42644362331E+02 -0.56997547290E+02 -0.40601334376E+02  0.82084227406E+02  0.47000000000E+01 0. -1.
         -5    1    3    3    0  503 -0.19970847480E+02  0.26180518218E+02 -0.72239134654E+02  0.79528842936E+02  0.47000000000E+01 0.  1.
<mgrwt>
<rscale>  0 0.11523298E+03</rscale>
<asrwt>0</asrwt>
<pdfrwt beam="1">  1        1 0.28044689E-01 0.11569707E+03</pdfrwt>
<pdfrwt beam="2">  1       -1 0.14814912E-01 0.11569707E+03</pdfrwt>
<totfact> 0.51185133E+03</totfact>
</mgrwt>
</event>
<event>
 8    1  0.3177960E-004  0.1045307E+03  0.7546771E-02  0.1271871E+00
         -1   -1    0    0    0  501 -0.00000000000E+00  0.00000000000E+00  0.26179676643E+02  0.26179676643E+02  0.00000000000E+00 0.  1.
          1   -1    0    0  501    0  0.00000000000E+00 -0.00000000000E+00 -0.66944674488E+03  0.66944674488E+03  0.00000000000E+00 0. -1.
         23    2    1    2    0    0 -0.41601725304E+02 -0.31950855526E+02 -0.53938547496E+03  0.54942093462E+03  0.90416326407E+02 0.  0.
         23    2    1    2    0    0  0.41601725304E+02  0.31950855526E+02 -0.10388159328E+03  0.14620548691E+03  0.88504792313E+02 0.  0.
          5    1    3    3  502    0 -0.59275237998E+02 -0.43716026989E+02 -0.48907583286E+03  0.49461288412E+03  0.47000000000E+01 0. -1.
         -5    1    4    4    0  503  0.57985552133E+02  0.50948302078E+02 -0.79547242828E+02  0.11094100947E+03  0.47000000000E+01 0.  1.
          5    1    4    4  503    0 -0.16383826829E+02 -0.18997446551E+02 -0.24334350448E+02  0.35264477435E+02  0.47000000000E+01 0. -1.
         -5    1    3    3    0  502  0.17673512694E+02  0.11765171463E+02 -0.50309642102E+02  0.54808050493E+02  0.47000000000E+01 0.  1.
<mgrwt>
<rscale>  0 0.10411603E+03</rscale>
<asrwt>0</asrwt>
<pdfrwt beam="1">  1        1 0.10299181E+00 0.10453073E+03</pdfrwt>
<pdfrwt beam="2">  1       -1 0.40276424E-02 0.10453073E+03</pdfrwt>
<totfact> 0.69433370E+03</totfact>
</mgrwt>
</event>
<event>
 8    1  0.3177960E-004  0.1196999E+03  0.7546771E-02  0.1243935E+00
         -2   -1    0    0    0  501 -0.00000000000E+00  0.00000000000E+00  0.23393013417E+02  0.23393013417E+02  0.00000000000E+00 0.  1.
          2   -1    0    0  501    0  0.00000000000E+00 -0.00000000000E+00 -0.72595669696E+03  0.72595669696E+03  0.00000000000E+00 0. -1.
         23    2    1    2    0    0  0.52291058121E+02  0.55378304113E+02 -0.19942254359E+03  0.23216593022E+03  0.91271884705E+02 0.  0.
         23    2    1    2    0    0 -0.52291058121E+02 -0.55378304113E+02 -0.50314113996E+03  0.51718378016E+03  0.92341455580E+02 0.  0.
          5    1    3    3  502    0  0.12242242241E+02 -0.24873105608E+02 -0.35882162701E+02  0.45586878351E+02  0.47000000000E+01 0. -1.
         -5    1    3    3    0  502  0.40048815880E+02  0.80251409720E+02 -0.16354038089E+03  0.18657905187E+03  0.47000000000E+01 0.  1.
          5    1    4    4  503    0 -0.11343395593E+02 -0.67608257953E+02 -0.39275885898E+03  0.39872441670E+03  0.47000000000E+01 0. -1.
         -5    1    4    4    0  503 -0.40947662528E+02  0.12229953841E+02 -0.11038228097E+03  0.11845936346E+03  0.47000000000E+01 0.  1.
<mgrwt>
<rscale>  0 0.11949353E+03</rscale>
<asrwt>0</asrwt>
<pdfrwt beam="1">  1        2 0.11168563E+00 0.11969986E+03</pdfrwt>
<pdfrwt beam="2">  1       -2 0.35989255E-02 0.11969986E+03</pdfrwt>
<totfact> 0.12233477E+04</totfact>
</mgrwt>
</event>
<event>
 8    1  0.3177960E-004  0.1073839E+03  0.7546771E-02  0.1266531E+00
          3   -1    0    0  501    0  0.00000000000E+00  0.00000000000E+00  0.27804748418E+02  0.27804748418E+02  0.00000000000E+00 0. -1.
         -3   -1    0    0    0  501 -0.00000000000E+00 -0.00000000000E+00 -0.41936245487E+03  0.41936245487E+03  0.00000000000E+00 0.  1.
         23    2    1    2    0    0 -0.13743931706E+02  0.54682774795E+02 -0.23306992897E+03  0.25572613344E+03  0.88854724223E+02 0.  0.
         23    2    1    2    0    0  0.13743931706E+02 -0.54682774795E+02 -0.15848777748E+03  0.19144106984E+03  0.91390404828E+02 0.  0.
          5    1    3    3  502    0  0.26344730652E+02  0.20480615020E+02 -0.27612689096E+02  0.43566627410E+02  0.47000000000E+01 0. -1.
         -5    1    3    3    0  502 -0.40088662358E+02  0.34202159775E+02 -0.20545723988E+03  0.21215950603E+03  0.47000000000E+01 0.  1.
          5    1    4    4  503    0  0.49466937827E+02 -0.14236143548E+02 -0.61358450011E+02  0.80228393408E+02  0.47000000000E+01 0. -1.
         -5    1    4    4    0  503 -0.35723006122E+02 -0.40446631247E+02 -0.97129327465E+02  0.11121267643E+03  0.47000000000E+01 0.  1.
<mgrwt>
<rscale>  0 0.10684244E+03</rscale>
<asrwt>0</asrwt>
<pdfrwt beam="1">  1        3 0.42776533E-02 0.10738393E+03</pdfrwt>
<pdfrwt beam="2">  1       -3 0.64517306E-01 0.10738393E+03</pdfrwt>
<totfact> 0.15235972E+03</totfact>
</mgrwt>
</event>
<event>
 8    1  0.3177960E-004  0.9499310E+02  0.7546771E-02  0.1291404E+00
         -1   -1    0    0    0  501 -0.00000000000E+00  0.00000000000E+00  0.94131634803E+02  0.94131634803E+02  0.00000000000E+00 0.  1.
          1   -1    0    0  501    0  0.00000000000E+00 -0.00000000000E+00 -0.98268512676E+02  0.98268512676E+02  0.00000000000E+00 0. -1.
         23    2    1    2    0    0 -0.20110001515E+02  0.72911238626E+00  0.14133568375E+02  0.95665986699E+02  0.92451498042E+02 0.  0.
         23    2    1    2    0    0  0.20110001515E+02 -0.72911238626E+00 -0.18270446249E+02  0.96734160781E+02  0.92837195617E+02 0.  0.
          5    1    4    4  502    0 -0.34935160094E+01  0.32954894471E+02  0.21130404702E+02  0.39582997948E+02  0.47000000000E+01 0. -1.
         -5    1    3    3    0  503 -0.43177529140E+02 -0.12683178612E+02  0.38360988554E+02  0.59319621418E+02  0.47000000000E+01 0.  1.
          5    1    3    3  503    0  0.23067527626E+02  0.13412290999E+02 -0.24227420179E+02  0.36346365281E+02  0.47000000000E+01 0. -1.
         -5    1    4    4    0  502  0.23603517524E+02 -0.33684006857E+02 -0.39400850951E+02  0.57151162832E+02  0.47000000000E+01 0.  1.
<mgrwt>
<rscale>  0 0.94898730E+02</rscale>
<asrwt>0</asrwt>
<pdfrwt beam="1">  1        1 0.15118233E-01 0.94993098E+02</pdfrwt>
<pdfrwt beam="2">  1       -1 0.14481790E-01 0.94993098E+02</pdfrwt>
<totfact> 0.11366365E+04</totfact>
</mgrwt>
</event>
<event>
 8    1  0.3177960E-004  0.1158676E+03  0.7546771E-02  0.1251464E+00
          4   -1    0    0  501    0  0.00000000000E+00  0.00000000000E+00  0.17431214787E+03  0.17431214787E+03  0.00000000000E+00 0. -1.
         -4   -1    0    0    0  501 -0.00000000000E+00 -0.00000000000E+00 -0.10530986194E+03  0.10530986194E+03  0.00000000000E+00 0.  1.
         23    2    1    2    0    0 -0.34617885813E+02 -0.59419899160E+02  0.10925283280E+03  0.15696227742E+03  0.89285231839E+02 0.  0.
         23    2    1    2    0    0  0.34617885813E+02  0.59419899160E+02 -0.40250546868E+02  0.12265973239E+03  0.93253316255E+02 0.  0.
          5    1    4    4  502    0  0.17897416987E+02 -0.19558007392E+02 -0.31321247957E+02  0.41303072059E+02  0.47000000000E+01 0. -1.
         -5    1    4    4    0  502  0.16720468826E+02  0.78977906552E+02 -0.89292989107E+01  0.81356660331E+02  0.47000000000E+01 0.  1.
          5    1    3    3  503    0 -0.34029025865E+02 -0.10088673098E+02  0.10043516158E+03  0.10662582993E+03  0.47000000000E+01 0. -1.
         -5    1    3    3    0  503 -0.58885994795E+00 -0.49331226062E+02  0.88176712229E+01  0.50336447497E+02  0.47000000000E+01 0.  1.
<mgrwt>
<rscale>  0 0.11506710E+03</rscale>
<asrwt>0</asrwt>
<pdfrwt beam="1">  1        4 0.26817253E-01 0.11586761E+03</pdfrwt>
<pdfrwt beam="2">  1       -4 0.16201517E-01 0.11586761E+03</pdfrwt>
<totfact> 0.69215233E+02</totfact>
</mgrwt>
</event>
<event>
 8    1  0.3177960E-004  0.1201984E+03  0.7546771E-02  0.1246742E+00
          3   -1    0    0  501    0  0.00000000000E+00  0.00000000000E+00  0.40354546751E+02  0.40354546751E+02  0.00000000000E+00 0. -1.
         -3   -1    0    0    0  501 -0.00000000000E+00 -0.00000000000E+00 -0.33582778764E+03  0.33582778764E+03  0.00000000000E+00 0.  1.
         23    2    1    2    0    0  0.68592517331E+02 -0.26760048133E+02 -0.17607176515E+03  0.21318753476E+03  0.95008551654E+02 0.  0.
         23    2    1    2    0    0 -0.68592517331E+02  0.26760048133E+02 -0.11940147574E+03  0.16299479963E+03  0.83003365508E+02 0.  0.
          5    1    4    4  502    0 -0.45543689038E+02  0.54392497006E+01 -0.12269920945E+03  0.13107631001E+03  0.47000000000E+01 0. -1.
         -5    1    4    4    0  502 -0.23048828293E+02  0.21320798433E+02  0.32977337028E+01  0.31918489612E+02  0.47000000000E+01 0.  1.
          5    1    3    3  503    0  0.22255068574E+02  0.23784667216E+02 -0.11536829094E+02  0.34873871270E+02  0.47000000000E+01 0. -1.
         -5    1    3    3    0  503  0.46337448757E+02 -0.50544715350E+02 -0.16453493605E+03  0.17831366349E+03  0.47000000000E+01 0.  1.
<mgrwt>
<rscale>  0 0.11781726E+03</rscale>
<asrwt>0</asrwt>
<pdfrwt beam="1">  1        3 0.62083917E-02 0.12019841E+03</pdfrwt>
<pdfrwt beam="2">  1       -3 0.51665815E-01 0.12019841E+03</pdfrwt>
<totfact> 0.13576610E+03</totfact>
</mgrwt>
</event>
<event>
 8    1  0.3177960E-004  0.1019564E+03  0.7546771E-02  0.1278520E+00
         -2   -1    0    0    0  501 -0.00000000000E+00  0.00000000000E+00  0.44814370270E+02  0.44814370270E+02  0.00000000000E+00 0.  1.
          2   -1    0    0  501    0  0.00000000000E+00 -0.00000000000E+00 -0.36536555041E+03  0.36536555041E+03  0.00000000000E+00 0. -1.
         23    2    1    2    0    0  0.19260990178E+02  0.39972101586E+02 -0.34019912647E+02  0.10748235479E+03  0.91795138690E+02 0.  0.
         23    2    1    2    0    0 -0.19260990178E+02 -0.39972101586E+02 -0.28653126749E+03  0.30269756589E+03  0.86930400300E+02 0.  0.
          5    1    4    4  502    0 -0.13989000905E+02 -0.64588850185E+02 -0.24589762934E+03  0.25466673484E+03  0.47000000000E+01 0. -1.
         -5    1    4    4    0  502 -0.52719892731E+01  0.24616748600E+02 -0.40633638148E+02  0.48030831053E+02  0.47000000000E+01 0.  1.
          5    1    3    3  503    0 -0.32152406501E+02  0.32801887963E+02 -0.18045612068E+01  0.46207007465E+02  0.47000000000E+01 0. -1.
         -5    1    3    3    0  503  0.51413396679E+02  0.71702136225E+01 -0.32215351440E+02  0.61275347326E+02  0.47000000000E+01 0.  1.
<mgrwt>
<rscale>  0 0.10084923E+03</rscale>
<asrwt>0</asrwt>
<pdfrwt beam="1">  1        2 0.56210084E-01 0.10195637E+03</pdfrwt>
<pdfrwt beam="2">  1       -2 0.68945186E-02 0.10195637E+03</pdfrwt>
<totfact> 0.97615620E+03</totfact>
</mgrwt>
</event>
<event>
 8    1  0.3177960E-004  0.9991239E+02  0.7546771E-02  0.1281557E+00
          1   -1    0    0  501    0  0.00000000000E+00  0.00000000000E+00  0.72705903282E+03  0.72705903282E+03  0.00000000000E+00 0. -1.
         -1   -1    0    0    0  501 -0.00000000000E+00 -0.00000000000E+00 -0.13604874735E+02  0.13604874735E+02  0.00000000000E+00 0.  1.
         23    2    1    2    0    0  0.27924815094E+02 -0.25334965291E+02  0.39940533945E+03  0.41171241363E+03  0.92524756638E+02 0.  0.
         23    2    1    2    0    0 -0.27924815094E+02  0.25334965291E+02  0.31404881864E+03  0.32895149393E+03  0.90336975296E+02 0.  0.
          5    1    4    4  502    0 -0.34478416466E+02  0.49229389968E+02  0.13139532713E+03  0.14456526564E+03  0.47000000000E+01 0. -1.
         -5    1    3    3    0  503  0.10286573425E+02 -0.54583058683E+02  0.15165926523E+03  0.16157891762E+03  0.47000000000E+01 0.  1.
          5    1    3    3  503    0  0.17638241668E+02  0.29248093392E+02  0.24774607422E+03  0.25013349601E+03  0.47000000000E+01 0. -1.
         -5    1    4    4    0  502  0.65536013720E+01 -0.23894424677E+02  0.18265349151E+03  0.18438622828E+03  0.47000000000E+01 0.  1.
<mgrwt>
<rscale>  0 0.99402876E+02</rscale>
<asrwt>0</asrwt>
<pdfrwt beam="1">  1        1 0.11185521E+00 0.99912393E+02</pdfrwt>
<pdfrwt beam="2">  1       -1 0.20930582E-02 0.99912393E+02</pdfrwt>
<totfact> 0.15851053E+04</totfact>
</mgrwt>
</event>
<event>
 8    1  0.3177960E-004  0.1371999E+03  0.7546771E-02  0.1217363E+00
          2   -1    0    0  501    0  0.00000000000E+00  0.00000000000E+00  0.64784715049E+03  0.64784715049E+03  0.00000000000E+00 0. -1.
         -2   -1    0    0    0  501 -0.00000000000E+00 -0.00000000000E+00 -0.34001604467E+02  0.34001604467E+02  0.00000000000E+00 0.  1.
         23    2    1    2    0    0  0.80133307932E+02 -0.61327929236E+02  0.17458897996E+03  0.22166386123E+03  0.92038543609E+02 0.  0.
         23    2    1    2    0    0 -0.80133307932E+02  0.61327929236E+02  0.43925656607E+03  0.46018489373E+03  0.92958827638E+02 0.  0.
          5    1    3    3  502    0  0.94621798990E+02 -0.33276076939E+02  0.10598996840E+03  0.14600186828E+03  0.47000000000E+01 0. -1.
         -5    1    4    4    0  503 -0.84613081474E+02  0.98854431667E+01  0.27794168657E+03  0.29074175255E+03  0.47000000000E+01 0.  1.
          5    1    4    4  503    0  0.44797735417E+01  0.51442486070E+02  0.16131487950E+03  0.16944314118E+03  0.47000000000E+01 0. -1.
         -5    1    3    3    0  502 -0.14488491058E+02 -0.28051852298E+02  0.68599011561E+02  0.75661992953E+02  0.47000000000E+01 0.  1.
<mgrwt>
<rscale>  0 0.13704415E+03</rscale>
<asrwt>0</asrwt>
<pdfrwt beam="1">  1        2 0.99668783E-01 0.13719987E+03</pdfrwt>
<pdfrwt beam="2">  1       -2 0.52310166E-02 0.13719987E+03</pdfrwt>
<totfact> 0.80854086E+03</totfact>
</mgrwt>
</event>
<event>
 8    1  0.3177960E-004  0.1105838E+03  0.7546771E-02  0.1259846E+00
         -1   -1    0    0    0  501 -0.00000000000E+00  0.00000000000E+00  0.53389417259E+03  0.53389417259E+03  0.00000000000E+00 0.  1.
          1   -1    0    0  501    0  0.00000000000E+00 -0.00000000000E+00 -0.42607136277E+02  0.42607136277E+02  0.00000000000E+00 0. -1.
         23    2    1    2    0    0  0.55374530164E+02  0.68613869315E+01  0.48387970555E+02  0.12000557022E+03  0.94586066459E+02 0.  0.
         23    2    1    2    0    0 -0.55374530164E+02 -0.68613869315E+01  0.44289906576E+03  0.45649573865E+03  0.95474393065E+02 0.  0.
          5    1    4    4  502    0  0.51075568551E+01 -0.30496454498E+02  0.26893963838E+03  0.27075217444E+03  0.47000000000E+01 0. -1.
         -5    1    4    4    0  502 -0.60482087019E+02  0.23635067566E+02  0.17395942738E+03  0.18574356421E+03  0.47000000000E+01 0.  1.
          5    1    3    3  503    0  0.76482988520E+01 -0.18571779216E+02 -0.22627853279E+02  0.30618902701E+02  0.47000000000E+01 0. -1.
         -5    1    3    3    0  503  0.47726231312E+02  0.25433166147E+02  0.71015823834E+02  0.89386667520E+02  0.47000000000E+01 0.  1.
<mgrwt>
<rscale>  0 0.11039179E+03</rscale>
<asrwt>0</asrwt>
<pdfrwt beam="1">  1        1 0.65549444E-02 0.11058380E+03</pdfrwt>
<pdfrwt beam="2">  1       -1 0.82137560E-01 0.11058380E+03</pdfrwt>
<totfact> 0.17044860E+03</totfact>
</mgrwt>
</event>
<event>
 8    1  0.3177960E-004  0.9834036E+02  0.7546771E-02  0.1284713E+00
          2   -1    0    0  501    0  0.00000000000E+00  0.00000000000E+00  0.26178177689E+02  0.26178177689E+02  0.00000000000E+00 0. -1.
         -2   -1    0    0    0  501 -0.00000000000E+00 -0.00000000000E+00 -0.37134680615E+03  0.37134680615E+03  0.00000000000E+00 0.  1.
         23    2    1    2    0    0  0.16439319010E+02 -0.19177697473E+02 -0.14474016208E+03  0.17498726129E+03  0.95041000661E+02 0.  0.
         23    2    1    2    0    0 -0.16439319010E+02  0.19177697473E+02 -0.20042846638E+03  0.22253772255E+03  0.93345768675E+02 0.  0.
          5    1    4    4  502    0  0.71567029534E+01 -0.32070077529E+02 -0.11770762878E+03  0.12229834072E+03  0.47000000000E+01 0. -1.
         -5    1    4    4    0  502 -0.23596021964E+02  0.51247775002E+02 -0.82720837606E+02  0.10023938183E+03  0.47000000000E+01 0.  1.
          5    1    3    3  503    0 -0.13890284685E+02 -0.38711999270E+02 -0.21817187667E+02  0.46793574066E+02  0.47000000000E+01 0. -1.
         -5    1    3    3    0  503  0.30329603695E+02  0.19534301798E+02 -0.12292297441E+03  0.12819368723E+03  0.47000000000E+01 0.  1.
<mgrwt>
<rscale>  0 0.97928439E+02</rscale>
<asrwt>0</asrwt>
<pdfrwt beam="1">  1        2 0.40274122E-02 0.98340364E+02</pdfrwt>
<pdfrwt beam="2">  1       -2 0.57130274E-01 0.98340364E+02</pdfrwt>
<totfact> 0.56477542E+03</totfact>
</mgrwt>
</event>
<event>
 8    1  0.3177960E-004  0.1727738E+03  0.7546771E-02  0.1175003E+00
         -3   -1    0    0    0  501 -0.00000000000E+00  0.00000000000E+00  0.38612189097E+02  0.38612189097E+02  0.00000000000E+00 0.  1.
          3   -1    0    0  501    0  0.00000000000E+00 -0.00000000000E+00 -0.77745441030E+03  0.77745441030E+03  0.00000000000E+00 0. -1.
         23    2    1    2    0    0  0.22678214489E+02 -0.14355725141E+03 -0.33791142830E+03  0.37951931237E+03  0.93422637738E+02 0.  0.
         23    2    1    2    0    0 -0.22678214489E+02  0.14355725141E+03 -0.40093079290E+03  0.43654728703E+03  0.93300842809E+02 0.  0.
          5    1    3    3  502    0  0.33916480699E+02 -0.11691191534E+03 -0.17041882590E+03  0.20948362664E+03  0.47000000000E+01 0. -1.
         -5    1    3    3    0  502 -0.11238266211E+02 -0.26645336072E+02 -0.16749260240E+03  0.17003568573E+03  0.47000000000E+01 0.  1.
          5    1    4    4  503    0 -0.58170255773E+02  0.92755230854E+02 -0.27743646833E+03  0.29829581872E+03  0.47000000000E+01 0. -1.
         -5    1    4    4    0  503  0.35492041285E+02  0.50802020554E+02 -0.12349432458E+03  0.13825146831E+03  0.47000000000E+01 0.  1.
<mgrwt>
<rscale>  0 0.17275731E+03</rscale>
<asrwt>0</asrwt>
<pdfrwt beam="1">  1        3 0.11960836E+00 0.17277377E+03</pdfrwt>
<pdfrwt beam="2">  1       -3 0.59403373E-02 0.17277377E+03</pdfrwt>
<totfact> 0.24849212E+02</totfact>
</mgrwt>
</event>
<event>
 8    1  0.3177960E-004  0.1078354E+03  0.7546771E-02  0.1265659E+00
          1   -1    0    0  501    0  0.00000000000E+00  0.00000000000E+00  0.10031310979E+04  0.10031310979E+04  0.00000000000E+00 0. -1.
         -1   -1    0    0    0  501 -0.00000000000E+00 -0.00000000000E+00 -0.12443895609E+02  0.12443895609E+02  0.00000000000E+00 0.  1.
         23    2    1    2    0    0  0.43524538216E+02  0.31123258700E+02  0.34120097814E+03  0.35719756830E+03  0.91153456644E+02 0.  0.
         23    2    1    2    0    0 -0.43524538216E+02 -0.31123258700E+02  0.64948622414E+03  0.65837742520E+03  0.93623907216E+02 0.  0.
          5    1    4    4  502    0 -0.38178880966E+02 -0.63741406889E+02  0.44752414447E+03  0.45367449101E+03  0.47000000000E+01 0. -1.
         -5    1    3    3    0  503  0.69146282659E+02  0.68778583197E+01  0.24117134333E+03  0.25102633364E+03  0.47000000000E+01 0.  1.
          5    1    3    3  503    0 -0.25621744443E+02  0.24245400381E+02  0.10002963481E+03  0.10617123465E+03  0.47000000000E+01 0. -1.
         -5    1    4    4    0  502 -0.53456572500E+01  0.32618148188E+02  0.20196207967E+03  0.20470293419E+03  0.47000000000E+01 0.  1.
<mgrwt>
<rscale>  0 0.10729696E+03</rscale>
<asrwt>0</asrwt>
<pdfrwt beam="1">  1        1 0.15432780E+00 0.10783542E+03</pdfrwt>
<pdfrwt beam="2">  1       -1 0.19144463E-02 0.10783542E+03</pdfrwt>
<totfact> 0.11032355E+04</totfact>
</mgrwt>
</event>
<event>
 8    1  0.3177960E-004  0.9315018E+02  0.7546771E-02  0.1300427E+00
          2   -1    0    0  501    0  0.00000000000E+00  0.00000000000E+00  0.13171831852E+03  0.13171831852E+03  0.00000000000E+00 0. -1.
         -2   -1    0    0    0  501 -0.00000000000E+00 -0.00000000000E+00 -0.60714795803E+02  0.60714795803E+02  0.00000000000E+00 0.  1.
         23    2    1    2    0    0  0.15642106977E+02 -0.67279154073E+01  0.43106564937E+02  0.95195284649E+02  0.83150621899E+02 0.  0.
         23    2    1    2    0    0 -0.15642106977E+02  0.67279154073E+01  0.27896957779E+02  0.97237829674E+02  0.91580647027E+02 0.  0.
          5    1    3    3  502    0 -0.32312822289E+02  0.71047978511E+01  0.91514796667E+01  0.34647311828E+02  0.47000000000E+01 0. -1.
         -5    1    4    4    0  503  0.36371977358E+01  0.25139788100E+02 -0.26170380647E+02  0.36772502992E+02  0.47000000000E+01 0.  1.
          5    1    4    4  503    0 -0.19279304713E+02 -0.18411872692E+02  0.54067338426E+02  0.60465326682E+02  0.47000000000E+01 0. -1.
         -5    1    3    3    0  502  0.47954929266E+02 -0.13832713258E+02  0.33955085271E+02  0.60547972821E+02  0.47000000000E+01 0.  1.
<mgrwt>
<rscale>  0 0.91008974E+02</rscale>
<asrwt>0</asrwt>
<pdfrwt beam="1">  1        2 0.20264357E-01 0.93150176E+02</pdfrwt>
<pdfrwt beam="2">  1       -2 0.93407378E-02 0.93150176E+02</pdfrwt>
<totfact> 0.18099561E+04</totfact>
</mgrwt>
</event>
<event>
 8    1  0.3177960E-004  0.1131268E+03  0.7546771E-02  0.1263288E+00
          1   -1    0    0  501    0  0.00000000000E+00  0.00000000000E+00  0.48533644308E+02  0.48533644308E+02  0.00000000000E+00 0. -1.
         -1   -1    0    0    0  501 -0.00000000000E+00 -0.00000000000E+00 -0.23300913656E+03  0.23300913656E+03  0.00000000000E+00 0.  1.
         23    2    1    2    0    0  0.34285150423E+02 -0.50701980930E+01 -0.58915778464E+02  0.11253711546E+03  0.89399971793E+02 0.  0.
         23    2    1    2    0    0 -0.34285150423E+02  0.50701980930E+01 -0.12555971379E+03  0.16900566540E+03  0.10768702226E+03 0.  0.
          5    1    3    3  502    0  0.28014041679E+02  0.40418922889E+02 -0.25848919557E+02  0.55756008654E+02  0.47000000000E+01 0. -1.
         -5    1    3    3    0  502  0.62711087436E+01 -0.45489120982E+02 -0.33066858907E+02  0.56781106810E+02  0.47000000000E+01 0.  1.
          5    1    4    4  503    0  0.20170627752E+02  0.90716784052E+01 -0.10962374514E+03  0.11193125154E+03  0.47000000000E+01 0. -1.
         -5    1    4    4    0  503 -0.54455778174E+02 -0.40014803122E+01 -0.15935968650E+02  0.57074413866E+02  0.47000000000E+01 0.  1.
<mgrwt>
<rscale>  0 0.10854490E+03</rscale>
<asrwt>0</asrwt>
<pdfrwt beam="1">  1        1 0.74667145E-02 0.11312680E+03</pdfrwt>
<pdfrwt beam="2">  1       -1 0.35847560E-01 0.11312680E+03</pdfrwt>
<totfact> 0.66972866E+03</totfact>
</mgrwt>
</event>
<event>
 8    1  0.3177960E-004  0.1000474E+03  0.7546771E-02  0.1280897E+00
          1   -1    0    0  501    0  0.00000000000E+00  0.00000000000E+00  0.16555811868E+02  0.16555811868E+02  0.00000000000E+00 0. -1.
         -1   -1    0    0    0  501 -0.00000000000E+00 -0.00000000000E+00 -0.62913181984E+03  0.62913181984E+03  0.00000000000E+00 0.  1.
         23    2    1    2    0    0 -0.36427335504E+00  0.37400309443E+02 -0.38161447138E+03  0.39451120141E+03  0.92793143248E+02 0.  0.
         23    2    1    2    0    0  0.36427335504E+00 -0.37400309443E+02 -0.23096153659E+03  0.25117643029E+03  0.91364390813E+02 0.  0.
          5    1    3    3  502    0 -0.20436655503E+02 -0.25836586036E+02 -0.14096960282E+03  0.14484372608E+03  0.47000000000E+01 0. -1.
         -5    1    3    3    0  502  0.20072382148E+02  0.63236895479E+02 -0.24064486856E+03  0.24966747533E+03  0.47000000000E+01 0.  1.
          5    1    4    4  503    0 -0.44033954787E+02 -0.29724534696E+02 -0.13013329893E+03  0.14063890865E+03  0.47000000000E+01 0. -1.
         -5    1    4    4    0  503  0.44398228142E+02 -0.76757747477E+01 -0.10082823767E+03  0.11053752164E+03  0.47000000000E+01 0.  1.
<mgrwt>
<rscale>  0 0.99714823E+02</rscale>
<asrwt>0</asrwt>
<pdfrwt beam="1">  1        1 0.25470480E-02 0.10004741E+03</pdfrwt>
<pdfrwt beam="2">  1       -1 0.96789509E-01 0.10004741E+03</pdfrwt>
<totfact> 0.43534696E+03</totfact>
</mgrwt>
</event>
<event>
 8    1  0.3177960E-004  0.1182840E+03  0.7546771E-02  0.1246574E+00
         -1   -1    0    0    0  501 -0.00000000000E+00  0.00000000000E+00  0.13700394856E+02  0.13700394856E+02  0.00000000000E+00 0.  1.
          1   -1    0    0  501    0  0.00000000000E+00 -0.00000000000E+00 -0.11518916414E+04  0.11518916414E+04  0.00000000000E+00 0. -1.
         23    2    1    2    0    0 -0.65107738046E+02  0.32717685415E+02 -0.36667423363E+03  0.38528052975E+03  0.93175256909E+02 0.  0.
         23    2    1    2    0    0  0.65107738046E+02 -0.32717685415E+02 -0.77151701287E+03  0.78031150647E+03  0.91313095919E+02 0.  0.
          5    1    3    3  502    0 -0.20377704177E+02 -0.19109217939E+02 -0.28388372298E+02  0.40104896453E+02  0.47000000000E+01 0. -1.
         -5    1    4    4    0  503 -0.20877834261E+02  0.61784699823E+01 -0.13779000620E+03  0.13957877082E+03  0.47000000000E+01 0.  1.
          5    1    4    4  503    0  0.85985572306E+02 -0.38896155397E+02 -0.63372700667E+03  0.64073273565E+03  0.47000000000E+01 0. -1.
         -5    1    3    3    0  502 -0.44730033868E+02  0.51826903354E+02 -0.33828586133E+03  0.34517563329E+03  0.47000000000E+01 0.  1.
<mgrwt>
<rscale>  0 0.11791694E+03</rscale>
<asrwt>0</asrwt>
<pdfrwt beam="1">  1        1 0.17721406E+00 0.11828395E+03</pdfrwt>
<pdfrwt beam="2">  1       -1 0.21077535E-02 0.11828395E+03</pdfrwt>
<totfact> 0.75871020E+03</totfact>
</mgrwt>
</event>
<event>
 8    1  0.3177960E-004  0.9429266E+02  0.7546771E-02  0.1296492E+00
          2   -1    0    0  501    0  0.00000000000E+00  0.00000000000E+00  0.74285809186E+02  0.74285809186E+02  0.00000000000E+00 0. -1.
         -2   -1    0    0    0  501 -0.00000000000E+00 -0.00000000000E+00 -0.13031424783E+03  0.13031424783E+03  0.00000000000E+00 0.  1.
         23    2    1    2    0    0 -0.15743367242E+02  0.11008871975E+02 -0.67348929994E+02  0.11587486264E+03  0.92314985490E+02 0.  0.
         23    2    1    2    0    0  0.15743367242E+02 -0.11008871975E+02  0.11320491355E+02  0.88725194373E+02  0.85877574009E+02 0.  0.
          5    1    3    3  502    0 -0.10929058595E+02  0.32885643192E+02 -0.81692913769E+02  0.88863558391E+02  0.47000000000E+01 0. -1.
         -5    1    3    3    0  502 -0.48143086469E+01 -0.21876771217E+02  0.14343983775E+02  0.27011304247E+02  0.47000000000E+01 0.  1.
          5    1    4    4  503    0  0.41720741922E+02  0.77343095932E+00  0.32323753396E+02  0.52991825177E+02  0.47000000000E+01 0. -1.
         -5    1    4    4    0  503 -0.25977374680E+02 -0.11782302935E+02 -0.21003262041E+02  0.35733369196E+02  0.47000000000E+01 0.  1.
<mgrwt>
<rscale>  0 0.92678527E+02</rscale>
<asrwt>0</asrwt>
<pdfrwt beam="1">  1        2 0.11428586E-01 0.94292658E+02</pdfrwt>
<pdfrwt beam="2">  1       -2 0.20048346E-01 0.94292658E+02</pdfrwt>
<totfact> 0.10300720E+04</totfact>
</mgrwt>
</event>
<event>
 8    1  0.3177960E-004  0.1681990E+03  0.7546771E-02  0.1179834E+00
         -2   -1    0    0    0  501 -0.00000000000E+00  0.00000000000E+00  0.26846106712E+03  0.26846106712E+03  0.00000000000E+00 0. -1.
          2   -1    0    0  501    0  0.00000000000E+00 -0.00000000000E+00 -0.19054006438E+03  0.19054006438E+03  0.00000000000E+00 0.  1.
         23    2    1    2    0    0 -0.10651527469E+03  0.92290916355E+02 -0.11464554149E+03  0.20355465175E+03  0.91802936125E+02 0.  0.
         23    2    1    2    0    0  0.10651527469E+03 -0.92290916355E+02  0.19256654423E+03  0.25544647976E+03  0.91147754100E+02 0.  0.
          5    1    3    3  502    0 -0.98463737309E+02  0.38882487650E+02 -0.44580325566E+02  0.11496282372E+03  0.47000000000E+01 0. -1.
         -5    1    3    3    0  502 -0.80515373846E+01  0.53408428705E+02 -0.70065215923E+02  0.88591828028E+02  0.47000000000E+01 0.  1.
          5    1    4    4  503    0  0.44072043063E+02 -0.94830207943E+02  0.11082549792E+03  0.15244505340E+03  0.47000000000E+01 0. -1.
         -5    1    4    4    0  503  0.62443231630E+02  0.25392915881E+01  0.81741046316E+02  0.10300142635E+03  0.47000000000E+01 0.  1.
<mgrwt>
<rscale>  0 0.16810973E+03</rscale>
<asrwt>0</asrwt>
<pdfrwt beam="1">  1        2 0.29313856E-01 0.16819898E+03</pdfrwt>
<pdfrwt beam="2">  1       -2 0.41301703E-01 0.16819898E+03</pdfrwt>
<totfact> 0.99911631E+02</totfact>
</mgrwt>
</event>
<event>
 8    1  0.3177960E-004  0.9210662E+02  0.7546771E-02  0.1297931E+00
          1   -1    0    0  501    0  0.00000000000E+00  0.00000000000E+00  0.33542226200E+03  0.33542226200E+03  0.00000000000E+00 0. -1.
         -1   -1    0    0    0  501 -0.00000000000E+00 -0.00000000000E+00 -0.35927201104E+02  0.35927201104E+02  0.00000000000E+00 0.  1.
         23    2    1    2    0    0  0.60765968717E+01  0.51936081397E+01  0.48601299360E+02  0.10414276799E+03  0.91759093444E+02 0.  0.
         23    2    1    2    0    0 -0.60765968717E+01 -0.51936081397E+01  0.25089376154E+03  0.26720669512E+03  0.91585150228E+02 0.  0.
          5    1    4    4  502    0  0.95693638682E+01 -0.33263671254E+02  0.21871596586E+03  0.22148771585E+03  0.47000000000E+01 0. -1.
         -5    1    3    3    0  503  0.37601577347E+02  0.30885065040E+02  0.14869573741E+02  0.51097554587E+02  0.47000000000E+01 0.  1.
          5    1    3    3  503    0 -0.31524980475E+02 -0.25691456900E+02  0.33731725619E+02  0.53045213402E+02  0.47000000000E+01 0. -1.
         -5    1    4    4    0  502 -0.15645960740E+02  0.28070063114E+02  0.32177795680E+02  0.45718979271E+02  0.47000000000E+01 0.  1.
<mgrwt>
<rscale>  0 0.92063270E+02</rscale>
<asrwt>0</asrwt>
<pdfrwt beam="1">  1        1 0.51603423E-01 0.92106622E+02</pdfrwt>
<pdfrwt beam="2">  1       -1 0.55272619E-02 0.92106622E+02</pdfrwt>
<totfact> 0.10533792E+04</totfact>
</mgrwt>
</event>
<event>
 8    1  0.3177960E-004  0.1138478E+03  0.7546771E-02  0.1253815E+00
         -1   -1    0    0    0  501 -0.00000000000E+00  0.00000000000E+00  0.19754192172E+02  0.19754192172E+02  0.00000000000E+00 0.  1.
          1   -1    0    0  501    0  0.00000000000E+00 -0.00000000000E+00 -0.70868904200E+03  0.70868904200E+03  0.00000000000E+00 0. -1.
         23    2    1    2    0    0 -0.59382233228E+02 -0.33435039640E+02 -0.24209465169E+03  0.26732776136E+03  0.90609933886E+02 0.  0.
         23    2    1    2    0    0  0.59382233228E+02  0.33435039640E+02 -0.44684019814E+03  0.46111547281E+03  0.91198492831E+02 0.  0.
          5    1    4    4  502    0  0.38986802018E+02  0.24729292749E+02 -0.43092844329E+03  0.43342002940E+03  0.47000000000E+01 0. -1.
         -5    1    3    3    0  503 -0.66793551101E+02  0.23044472669E+01 -0.98738967128E+02  0.11932377205E+03  0.47000000000E+01 0.  1.
          5    1    3    3  503    0  0.74113178725E+01 -0.35739486907E+02 -0.14335568456E+03  0.14800398932E+03  0.47000000000E+01 0. -1.
         -5    1    4    4    0  502  0.20395431210E+02  0.87057468903E+01 -0.15911754847E+02  0.27695443406E+02  0.47000000000E+01 0.  1.
<mgrwt>
<rscale>  0 0.11372986E+03</rscale>
<asrwt>0</asrwt>
<pdfrwt beam="1">  1        1 0.10902908E+00 0.11384778E+03</pdfrwt>
<pdfrwt beam="2">  1       -1 0.30391067E-02 0.11384778E+03</pdfrwt>
<totfact> 0.97042022E+03</totfact>
</mgrwt>
</event>
<event>
 8    1  0.3965206E-004  0.1097453E+03  0.7546771E-02  0.1262750E+00
         -1   -1    0    0    0  501 -0.00000000000E+00  0.00000000000E+00  0.70303175618E+02  0.70303175618E+02  0.00000000000E+00 0.  1.
          1   -1    0    0  501    0  0.00000000000E+00 -0.00000000000E+00 -0.37923024834E+03  0.37923024834E+03  0.00000000000E+00 0. -1.
         23    2    1    2    0    0 -0.57496456759E+02 -0.18453844804E+02 -0.32197360807E+03  0.33901531425E+03  0.87281109486E+02 0.  0.
         23    2    1    2    0    0  0.57496456759E+02  0.18453844804E+02  0.13046535344E+02  0.11051810971E+03  0.91638712140E+02 0.  0.
          5    1    4    4  502    0  0.22326507189E+02 -0.23364450470E+02 -0.27192919438E+02  0.42496062601E+02  0.47000000000E+01 0. -1.
         -5    1    3    3    0  503  0.19719374825E+02 -0.66248643036E+01 -0.12943534796E+03  0.13118056972E+03  0.47000000000E+01 0.  1.
          5    1    3    3  503    0 -0.77215831583E+02 -0.11828980501E+02 -0.19253826011E+03  0.20783474453E+03  0.47000000000E+01 0. -1.
         -5    1    4    4    0  502  0.35169949569E+02  0.41818295274E+02  0.40239454782E+02  0.68022047114E+02  0.47000000000E+01 0.  1.
<mgrwt>
<rscale>  0 0.10883109E+03</rscale>
<asrwt>0</asrwt>
<pdfrwt beam="1">  1        1 0.58343115E-01 0.10974534E+03</pdfrwt>
<pdfrwt beam="2">  1       -1 0.10815873E-01 0.10974534E+03</pdfrwt>
<totfact> 0.33573708E+03</totfact>
</mgrwt>
</event>
<event>
 8    1  0.3177960E-004  0.1017577E+03  0.7546771E-02  0.1278928E+00
          1   -1    0    0  501    0  0.00000000000E+00  0.00000000000E+00  0.40056420748E+03  0.40056420748E+03  0.00000000000E+00 0. -1.
         -1   -1    0    0    0  501 -0.00000000000E+00 -0.00000000000E+00 -0.72465078160E+02  0.72465078160E+02  0.00000000000E+00 0.  1.
         23    2    1    2    0    0 -0.28174119139E+02 -0.15096617099E+02 -0.26616387476E+02  0.10518108516E+03  0.96607141328E+02 0.  0.
         23    2    1    2    0    0  0.28174119139E+02  0.15096617099E+02  0.35471551679E+03  0.36784820048E+03  0.92019084460E+02 0.  0.
          5    1    4    4  502    0  0.36595045396E+02 -0.19517904572E+02  0.29658980673E+03  0.29951251961E+03  0.47000000000E+01 0. -1.
         -5    1    4    4    0  502 -0.84209262567E+01  0.34614521671E+02  0.58125710059E+02  0.68335680866E+02  0.47000000000E+01 0.  1.
          5    1    3    3  503    0 -0.37023806831E+00 -0.21437579591E+02  0.32592407788E+02  0.39294553571E+02  0.47000000000E+01 0. -1.
         -5    1    3    3    0  503 -0.27803881071E+02  0.63409624919E+01 -0.59208795264E+02  0.65886531587E+02  0.47000000000E+01 0.  1.
<mgrwt>
<rscale>  0 0.10065356E+03</rscale>
<asrwt>0</asrwt>
<pdfrwt beam="1">  1        1 0.61625261E-01 0.10175770E+03</pdfrwt>
<pdfrwt beam="2">  1       -1 0.11148474E-01 0.10175770E+03</pdfrwt>
<totfact> 0.29833260E+03</totfact>
</mgrwt>
</event>
<event>
 8    1  0.3177960E-004  0.1123690E+03  0.7546771E-02  0.1257956E+00
         -2   -1    0    0    0  501 -0.00000000000E+00  0.00000000000E+00  0.31462158090E+02  0.31462158090E+02  0.00000000000E+00 0.  1.
          2   -1    0    0  501    0  0.00000000000E+00 -0.00000000000E+00 -0.39378966681E+03  0.39378966681E+03  0.00000000000E+00 0. -1.
         23    2    1    2    0    0 -0.45018953381E+01  0.62221650665E+02 -0.15260440174E+03  0.18732204360E+03  0.88936177752E+02 0.  0.
         23    2    1    2    0    0  0.45018953381E+01 -0.62221650665E+02 -0.20972310697E+03  0.23792978130E+03  0.93461213116E+02 0.  0.
          5    1    4    4  502    0 -0.41376434527E+01 -0.85698069134E+02 -0.14752301157E+03  0.17072319142E+03  0.47000000000E+01 0. -1.
         -5    1    4    4    0  502  0.86395387909E+01  0.23476418469E+02 -0.62200095401E+02  0.67206589875E+02  0.47000000000E+01 0.  1.
          5    1    3    3  503    0  0.36858885950E+02  0.49681233917E+01 -0.45742786434E+02  0.59141797692E+02  0.47000000000E+01 0. -1.
         -5    1    3    3    0  503 -0.41360781288E+02  0.57253527274E+02 -0.10686161531E+03  0.12818024591E+03  0.47000000000E+01 0.  1.
<mgrwt>
<rscale>  0 0.11142352E+03</rscale>
<asrwt>0</asrwt>
<pdfrwt beam="1">  1        2 0.60583031E-01 0.11236903E+03</pdfrwt>
<pdfrwt beam="2">  1       -2 0.48403316E-02 0.11236903E+03</pdfrwt>
<totfact> 0.15480994E+04</totfact>
</mgrwt>
</event>
<event>
 8    1  0.3177960E-004  0.9709777E+02  0.7546771E-02  0.1287109E+00
         -2   -1    0    0    0  501 -0.00000000000E+00  0.00000000000E+00  0.69921258484E+02  0.69921258484E+02  0.00000000000E+00 0.  1.
          2   -1    0    0  501    0  0.00000000000E+00 -0.00000000000E+00 -0.16391581831E+03  0.16391581831E+03  0.00000000000E+00 0. -1.
         23    2    1    2    0    0 -0.29041476960E+02 -0.19140430185E+02 -0.97693814173E+02  0.13773909667E+03  0.90654365436E+02 0.  0.
         23    2    1    2    0    0  0.29041476960E+02  0.19140430185E+02  0.36992543447E+01  0.96097980125E+02  0.89506278270E+02 0.  0.
          5    1    4    4  502    0 -0.13071158771E+02 -0.28736645184E+02 -0.14863436361E+01  0.31952295464E+02  0.47000000000E+01 0. -1.
         -5    1    4    4    0  502  0.42112635732E+02  0.47877075369E+02  0.51855979808E+01  0.64145684661E+02  0.47000000000E+01 0.  1.
          5    1    3    3  503    0 -0.38352039938E+02  0.22978280675E+02 -0.20992630970E+02  0.49615127786E+02  0.47000000000E+01 0. -1.
         -5    1    3    3    0  503  0.93105629776E+01 -0.42118710860E+02 -0.76701183204E+02  0.88123968886E+02  0.47000000000E+01 0.  1.
<mgrwt>
<rscale>  0 0.96828903E+02</rscale>
<asrwt>0</asrwt>
<pdfrwt beam="1">  1        2 0.25217818E-01 0.97097772E+02</pdfrwt>
<pdfrwt beam="2">  1       -2 0.10757117E-01 0.97097772E+02</pdfrwt>
<totfact> 0.11460309E+04</totfact>
</mgrwt>
</event>
<event>
 8    1  0.3558990E-004  0.2310256E+03  0.7546771E-02  0.1128751E+00
          2   -1    0    0  501    0  0.00000000000E+00  0.00000000000E+00  0.78542914709E+03  0.78542914709E+03  0.00000000000E+00 0. -1.
         -2   -1    0    0    0  501 -0.00000000000E+00 -0.00000000000E+00 -0.87124898543E+02  0.87124898543E+02  0.00000000000E+00 0.  1.
         23    2    1    2    0    0  0.51243357035E+02  0.18717692614E+03  0.56761758364E+03  0.60712638028E+03  0.93550184678E+02 0.  0.
         23    2    1    2    0    0 -0.51243357035E+02 -0.18717692614E+03  0.13068666490E+03  0.26542766535E+03  0.12534655094E+03 0.  0.
          5    1    3    3  502    0 -0.19188187423E+02  0.10513341600E+03  0.26806300139E+03  0.28861927242E+03  0.47000000000E+01 0. -1.
         -5    1    4    4    0  503 -0.12334054387E+02 -0.11198076147E+03  0.38066115050E+01  0.11282021153E+03  0.47000000000E+01 0. -1.
          5    1    4    4  503    0 -0.38909302648E+02 -0.75196164665E+02  0.12688005340E+03  0.15260745383E+03  0.47000000000E+01 0. -1.
         -5    1    3    3    0  502  0.70431544458E+02  0.82043510134E+02  0.29955458226E+03  0.31850710787E+03  0.47000000000E+01 0.  1.
<mgrwt>
<rscale>  0 0.22702556E+03</rscale>
<asrwt>0</asrwt>
<pdfrwt beam="1">  1        2 0.12083525E+00 0.23102563E+03</pdfrwt>
<pdfrwt beam="2">  1       -2 0.13403831E-01 0.23102563E+03</pdfrwt>
<totfact> 0.14969018E+03</totfact>
</mgrwt>
</event>
<event>
 8    1  0.3177960E-004  0.1805135E+03  0.7546771E-02  0.1167311E+00
         -2   -1    0    0    0  501 -0.00000000000E+00  0.00000000000E+00  0.16835337176E+03  0.16835337176E+03  0.00000000000E+00 0.  1.
          2   -1    0    0  501    0  0.00000000000E+00 -0.00000000000E+00 -0.59165627636E+03  0.59165627636E+03  0.00000000000E+00 0. -1.
         23    2    1    2    0    0 -0.15649556009E+03  0.91462328061E+00  0.10007066070E+03  0.20638070018E+03  0.89928635098E+02 0.  0.
         23    2    1    2    0    0  0.15649556009E+03 -0.91462328061E+00 -0.52337356530E+03  0.55362894794E+03  0.89963471930E+02 0.  0.
          5    1    4    4  502    0  0.95850149095E+02  0.11613249275E+02 -0.43503149936E+03  0.44564180019E+03  0.47000000000E+01 0. -1.
         -5    1    3    3    0  503 -0.58929998542E+02 -0.17307314635E+02  0.86356982975E+02  0.10607500354E+03  0.47000000000E+01 0.  1.
          5    1    3    3  503    0 -0.97565561544E+02  0.18221937915E+02  0.13713677727E+02  0.10030569664E+03  0.47000000000E+01 0. -1.
         -5    1    4    4    0  502  0.60645410991E+02 -0.12527872555E+02 -0.88342065935E+02  0.10798714775E+03  0.47000000000E+01 0.  1.
<mgrwt>
<rscale>  0 0.18050916E+03</rscale>
<asrwt>0</asrwt>
<pdfrwt beam="1">  1        2 0.91024041E-01 0.18051350E+03</pdfrwt>
<pdfrwt beam="2">  1       -2 0.25900519E-01 0.18051350E+03</pdfrwt>
<totfact> 0.68811509E+02</totfact>
</mgrwt>
</event>
<event>
 8    1  0.3177960E-004  0.1811981E+03  0.7546771E-02  0.1167474E+00
         -3   -1    0    0    0  501 -0.00000000000E+00  0.00000000000E+00  0.80355445129E+03  0.80355445129E+03  0.00000000000E+00 0.  1.
          3   -1    0    0  501    0  0.00000000000E+00 -0.00000000000E+00 -0.58929989975E+02  0.58929989975E+02  0.00000000000E+00 0. -1.
         23    2    1    2    0    0 -0.87929528117E+02  0.12615151059E+03  0.13092136827E+03  0.22354673297E+03  0.95848482588E+02 0.  0.
         23    2    1    2    0    0  0.87929528117E+02 -0.12615151059E+03  0.61370309305E+03  0.63893770829E+03  0.89241823853E+02 0.  0.
          5    1    3    3  502    0 -0.53002276545E+02  0.12569176928E+03  0.70563908994E+02  0.15365226141E+03  0.47000000000E+01 0. -1.
         -5    1    3    3    0  502 -0.34927251572E+02  0.45974130299E+00  0.60357459272E+02  0.69894471557E+02  0.47000000000E+01 0.  1.
          5    1    4    4  503    0  0.14959604894E+02 -0.83216761910E+02  0.21010265708E+03  0.22652601563E+03  0.47000000000E+01 0. -1.
         -5    1    4    4    0  503  0.72969923223E+02 -0.42934748676E+02  0.40360043596E+03  0.41241169267E+03  0.47000000000E+01 0.  1.
<mgrwt>
<rscale>  0 0.18034041E+03</rscale>
<asrwt>0</asrwt>
<pdfrwt beam="1">  1        3 0.90661529E-02 0.18119806E+03</pdfrwt>
<pdfrwt beam="2">  1       -3 0.12362375E+00 0.18119806E+03</pdfrwt>
<totfact> 0.11568926E+02</totfact>
</mgrwt>
</event>
<event>
 8    1  0.3177960E-004  0.9811045E+02  0.7546771E-02  0.1285117E+00
         -2   -1    0    0    0  501 -0.00000000000E+00  0.00000000000E+00  0.21646834012E+02  0.21646834012E+02  0.00000000000E+00 0.  1.
          2   -1    0    0  501    0  0.00000000000E+00 -0.00000000000E+00 -0.46510947774E+03  0.46510947774E+03  0.00000000000E+00 0. -1.
         23    2    1    2    0    0 -0.33217400474E+02 -0.10941149221E+02 -0.16146400552E+03  0.18817819438E+03  0.90096078277E+02 0.  0.
         23    2    1    2    0    0  0.33217400474E+02  0.10941149221E+02 -0.28199863820E+03  0.29857811737E+03  0.91665455775E+02 0.  0.
          5    1    4    4  502    0  0.31968451584E+02  0.48728748282E+02 -0.19560837661E+03  0.20415974091E+03  0.47000000000E+01 0. -1.
         -5    1    4    4    0  502  0.12489488896E+01 -0.37787599061E+02 -0.86390261589E+02  0.94418376461E+02  0.47000000000E+01 0.  1.
          5    1    3    3  503    0  0.27329972742E+02 -0.12731129171E+02 -0.86264274911E+02  0.91502044709E+02  0.47000000000E+01 0. -1.
         -5    1    3    3    0  503 -0.60547373215E+02  0.17899799494E+01 -0.75199730613E+02  0.96676149674E+02  0.47000000000E+01 0.  1.
<mgrwt>
<rscale>  0 0.97742215E+02</rscale>
<asrwt>0</asrwt>
<pdfrwt beam="1">  1        2 0.71555298E-01 0.98110449E+02</pdfrwt>
<pdfrwt beam="2">  1       -2 0.33302824E-02 0.98110449E+02</pdfrwt>
<totfact> 0.22231470E+04</totfact>
</mgrwt>
</event>
<event>
 8    1  0.3177960E-004  0.1023267E+03  0.7546771E-02  0.1276488E+00
          3   -1    0    0  501    0  0.00000000000E+00  0.00000000000E+00  0.68831896712E+02  0.68831896712E+02  0.00000000000E+00 0. -1.
         -3   -1    0    0    0  501 -0.00000000000E+00 -0.00000000000E+00 -0.18237649583E+03  0.18237649583E+03  0.00000000000E+00 0.  1.
         23    2    1    2    0    0 -0.17391198019E+02 -0.44562740807E+02 -0.11077570984E+03  0.15080458022E+03  0.90457016803E+02 0.  0.
         23    2    1    2    0    0  0.17391198019E+02  0.44562740807E+02 -0.27688892870E+01  0.10040381233E+03  0.88232460836E+02 0.  0.
          5    1    3    3  502    0  0.11222434532E+02  0.21924087187E+02 -0.10832418702E+02  0.27313731542E+02  0.47000000000E+01 0. -1.
         -5    1    3    3    0  502 -0.28613632551E+02 -0.66486827994E+02 -0.99943291134E+02  0.12349084868E+03  0.47000000000E+01 0.  1.
          5    1    4    4  503    0  0.32913956452E+02  0.58190098485E+02  0.19370882923E+02  0.69762003958E+02  0.47000000000E+01 0. -1.
         -5    1    4    4    0  503 -0.15522758433E+02 -0.13627357678E+02 -0.22139772210E+02  0.30641808369E+02  0.47000000000E+01 0.  1.
<mgrwt>
<rscale>  0 0.10183290E+03</rscale>
<asrwt>0</asrwt>
<pdfrwt beam="1">  1        3 0.10589523E-01 0.10232675E+03</pdfrwt>
<pdfrwt beam="2">  1       -3 0.28057922E-01 0.10232675E+03</pdfrwt>
<totfact> 0.17763843E+03</totfact>
</mgrwt>
</event>
<event>
 8    1  0.3177960E-004  0.1262904E+03  0.7546771E-02  0.1233514E+00
          4   -1    0    0  501    0  0.00000000000E+00  0.00000000000E+00  0.15412727769E+03  0.15412727769E+03  0.00000000000E+00 0. -1.
         -4   -1    0    0    0  501 -0.00000000000E+00 -0.00000000000E+00 -0.15723551000E+03  0.15723551000E+03  0.00000000000E+00 0.  1.
         23    2    1    2    0    0 -0.75351579355E+02 -0.37236403926E+02 -0.93382088298E+02  0.15706524729E+03  0.94259573530E+02 0.  0.
         23    2    1    2    0    0  0.75351579355E+02  0.37236403926E+02  0.90273855987E+02  0.15429754040E+03  0.92703568488E+02 0.  0.
          5    1    4    4  502    0  0.60854313076E+02  0.67618378866E+02  0.67708578660E+02  0.11349904936E+03  0.47000000000E+01 0. -1.
         -5    1    4    4    0  502  0.14497266278E+02 -0.30381974939E+02  0.22565277328E+02  0.40798491046E+02  0.47000000000E+01 0.  1.
          5    1    3    3  503    0 -0.20669161913E+02 -0.60994945862E+02 -0.34824408046E+02  0.73365026209E+02  0.47000000000E+01 0. -1.
         -5    1    3    3    0  503 -0.54682417442E+02  0.23758541935E+02 -0.58557680252E+02  0.83700221079E+02  0.47000000000E+01 0.  1.
<mgrwt>
<rscale>  0 0.12600018E+03</rscale>
<asrwt>0</asrwt>
<pdfrwt beam="1">  1        4 0.23711889E-01 0.12629045E+03</pdfrwt>
<pdfrwt beam="2">  1       -4 0.24190078E-01 0.12629045E+03</pdfrwt>
<totfact> 0.43082625E+02</totfact>
</mgrwt>
</event>
<event>
 8    1  0.3177960E-004  0.1004164E+03  0.7546771E-02  0.1282339E+00
          2   -1    0    0  501    0  0.00000000000E+00  0.00000000000E+00  0.91012149882E+02  0.91012149882E+02  0.00000000000E+00 0. -1.
         -2   -1    0    0    0  501 -0.00000000000E+00 -0.00000000000E+00 -0.14234871760E+03  0.14234871760E+03  0.00000000000E+00 0.  1.
         23    2    1    2    0    0  0.29232796381E+02 -0.85500713661E+01  0.34686266339E+02  0.10113612667E+03  0.89987326557E+02 0.  0.
         23    2    1    2    0    0 -0.29232796381E+02  0.85500713661E+01 -0.86022834060E+02  0.13222474081E+03  0.95685913271E+02 0.  0.
          5    1    4    4  502    0  0.38052344388E+01 -0.32142389970E+02 -0.16035138222E+01  0.32745599684E+02  0.47000000000E+01 0. -1.
         -5    1    4    4    0  502 -0.33038030820E+02  0.40692461336E+02 -0.84419320237E+02  0.99479141127E+02  0.47000000000E+01 0.  1.
          5    1    3    3  503    0 -0.26986384648E+01 -0.39111566146E+02  0.40197858972E+02  0.56346740118E+02  0.47000000000E+01 0. -1.
         -5    1    3    3    0  503  0.31931434846E+02  0.30561494780E+02 -0.55115926327E+01  0.44789386554E+02  0.47000000000E+01 0.  1.
<mgrwt>
<rscale>  0 0.99034538E+02</rscale>
<asrwt>0</asrwt>
<pdfrwt beam="1">  1        2 0.14001869E-01 0.10041640E+03</pdfrwt>
<pdfrwt beam="2">  1       -2 0.21899803E-01 0.10041640E+03</pdfrwt>
<totfact> 0.70174662E+03</totfact>
</mgrwt>
</event>
<event>
 8    1  0.3177960E-004  0.1319632E+03  0.7546771E-02  0.1224823E+00
         -2   -1    0    0    0  501 -0.00000000000E+00  0.00000000000E+00  0.32767204986E+03  0.32767204986E+03  0.00000000000E+00 0.  1.
          2   -1    0    0  501    0  0.00000000000E+00 -0.00000000000E+00 -0.16193437432E+03  0.16193437432E+03  0.00000000000E+00 0. -1.
         23    2    1    2    0    0 -0.67969546876E+01  0.94995321867E+02  0.28384531838E+03  0.31302146569E+03  0.91345297916E+02 0.  0.
         23    2    1    2    0    0  0.67969546876E+01 -0.94995321867E+02 -0.11810764284E+03  0.17658495849E+03  0.90346679503E+02 0.  0.
          5    1    4    4  502    0 -0.30046497038E+02 -0.84613579394E+02 -0.98340013234E+02  0.13324825704E+03  0.47000000000E+01 0. -1.
         -5    1    3    3    0  503 -0.31746897022E+02  0.10044783300E+03  0.21570339465E+03  0.24009930672E+03  0.47000000000E+01 0.  1.
          5    1    3    3  503    0  0.24949942335E+02 -0.54525111304E+01  0.68141923724E+02  0.72922158971E+02  0.47000000000E+01 0. -1.
         -5    1    4    4    0  502  0.36843451726E+02 -0.10381742473E+02 -0.19767629606E+02  0.43336701445E+02  0.47000000000E+01 0.  1.
<mgrwt>
<rscale>  0 0.13179050E+03</rscale>
<asrwt>0</asrwt>
<pdfrwt beam="1">  1        2 0.24912981E-01 0.13196315E+03</pdfrwt>
<pdfrwt beam="2">  1       -2 0.50411085E-01 0.13196315E+03</pdfrwt>
<totfact> 0.80592697E+02</totfact>
</mgrwt>
</event>
<event>
 8    1  0.3177960E-004  0.1366689E+03  0.7546771E-02  0.1219103E+00
          1   -1    0    0  501    0  0.00000000000E+00  0.00000000000E+00  0.51289030583E+03  0.51289030583E+03  0.00000000000E+00 0. -1.
         -1   -1    0    0    0  501 -0.00000000000E+00 -0.00000000000E+00 -0.35544432253E+02  0.35544432253E+02  0.00000000000E+00 0.  1.
         23    2    1    2    0    0  0.46588563421E+02 -0.86198582961E+02  0.22590790606E+03  0.26225397996E+03  0.90233464089E+02 0.  0.
         23    2    1    2    0    0 -0.46588563421E+02  0.86198582961E+02  0.25143796752E+03  0.28618075812E+03  0.95276885243E+02 0.  0.
          5    1    3    3  502    0  0.62427344519E+02 -0.31893590053E+02  0.84596120350E+02  0.10996803176E+03  0.47000000000E+01 0. -1.
         -5    1    3    3    0  502 -0.15838781098E+02 -0.54304992908E+02  0.14131178571E+03  0.15228594821E+03  0.47000000000E+01 0.  1.
          5    1    4    4  503    0 -0.10868926632E+02  0.52546834881E+02  0.22268989894E+03  0.22911172932E+03  0.47000000000E+01 0. -1.
         -5    1    4    4    0  503 -0.35719636790E+02  0.33651748080E+02  0.28748068582E+02  0.57069028802E+02  0.47000000000E+01 0.  1.
<mgrwt>
<rscale>  0 0.13579376E+03</rscale>
<asrwt>0</asrwt>
<pdfrwt beam="1">  1        1 0.78906196E-01 0.13666885E+03</pdfrwt>
<pdfrwt beam="2">  1       -1 0.54683746E-02 0.13666885E+03</pdfrwt>
<totfact> 0.64444143E+03</totfact>
</mgrwt>
</event>
<event>
 8    1  0.3177960E-004  0.9790539E+02  0.7546771E-02  0.1289277E+00
          2   -1    0    0  501    0  0.00000000000E+00  0.00000000000E+00  0.13054470225E+03  0.13054470225E+03  0.00000000000E+00 0. -1.
         -2   -1    0    0    0  501 -0.00000000000E+00 -0.00000000000E+00 -0.67901751904E+02  0.67901751904E+02  0.00000000000E+00 0.  1.
         23    2    1    2    0    0  0.10003888884E+02  0.13272948146E+02  0.25709889511E+02  0.10122482031E+03  0.96484283084E+02 0.  0.
         23    2    1    2    0    0 -0.10003888884E+02 -0.13272948146E+02  0.36933060830E+02  0.97221633842E+02  0.88384083179E+02 0.  0.
          5    1    4    4  502    0 -0.17957342455E+02  0.18851301214E+02  0.53672134543E+02  0.59838329956E+02  0.47000000000E+01 0. -1.
         -5    1    4    4    0  502  0.79534535717E+01 -0.32124249360E+02 -0.16739073713E+02  0.37383303886E+02  0.47000000000E+01 0.  1.
          5    1    3    3  503    0 -0.40588552921E+02 -0.96853589934E+01  0.82132752576E+01  0.42787669924E+02  0.47000000000E+01 0. -1.
         -5    1    3    3    0  503  0.50592441805E+02  0.22958307139E+02  0.17496614253E+02  0.58437150383E+02  0.47000000000E+01 0.  1.
<mgrwt>
<rscale>  0 0.95848444E+02</rscale>
<asrwt>0</asrwt>
<pdfrwt beam="1">  1        2 0.20083800E-01 0.97905392E+02</pdfrwt>
<pdfrwt beam="2">  1       -2 0.10446423E-01 0.97905392E+02</pdfrwt>
<totfact> 0.15440201E+04</totfact>
</mgrwt>
</event>
<event>
 8    1  0.3177960E-004  0.9868499E+02  0.7546771E-02  0.1283765E+00
          1   -1    0    0  501    0  0.00000000000E+00  0.00000000000E+00  0.75472920026E+03  0.75472920026E+03  0.00000000000E+00 0. -1.
         -1   -1    0    0    0  501 -0.00000000000E+00 -0.00000000000E+00 -0.16327866484E+02  0.16327866484E+02  0.00000000000E+00 0.  1.
         23    2    1    2    0    0  0.32912669063E+02  0.15634502309E+02  0.18661142411E+03  0.21051194593E+03  0.90353607154E+02 0.  0.
         23    2    1    2    0    0 -0.32912669063E+02 -0.15634502309E+02  0.55178990967E+03  0.56054512081E+03  0.91711758269E+02 0.  0.
          5    1    4    4  502    0  0.63595737277E+01 -0.46301874483E+02  0.21621449725E+03  0.22125800907E+03  0.47000000000E+01 0. -1.
         -5    1    4    4    0  502 -0.39272242791E+02  0.30667372174E+02  0.33557541242E+03  0.33928711174E+03  0.47000000000E+01 0.  1.
          5    1    3    3  503    0 -0.25448448908E+02  0.86156533276E+00  0.10977208287E+03  0.11278460012E+03  0.47000000000E+01 0. -1.
         -5    1    3    3    0  503  0.58361117971E+02  0.14772936976E+02  0.76839341235E+02  0.97727345811E+02  0.47000000000E+01 0.  1.
<mgrwt>
<rscale>  0 0.98368250E+02</rscale>
<asrwt>0</asrwt>
<pdfrwt beam="1">  1        1 0.11611216E+00 0.98684994E+02</pdfrwt>
<pdfrwt beam="2">  1       -1 0.25119800E-02 0.98684994E+02</pdfrwt>
<totfact> 0.11549828E+04</totfact>
</mgrwt>
</event>
<event>
 8    1  0.3177960E-004  0.9372875E+02  0.7546771E-02  0.1295045E+00
          2   -1    0    0  501    0  0.00000000000E+00  0.00000000000E+00  0.44996134314E+03  0.44996134314E+03  0.00000000000E+00 0. -1.
         -2   -1    0    0    0  501 -0.00000000000E+00 -0.00000000000E+00 -0.33665226461E+02  0.33665226461E+02  0.00000000000E+00 0.  1.
         23    2    1    2    0    0  0.16155196349E+02 -0.10177512142E+02  0.48417975551E+02  0.10399595344E+03  0.90034914634E+02 0.  0.
         23    2    1    2    0    0 -0.16155196349E+02  0.10177512142E+02  0.36787814112E+03  0.37963061616E+03  0.91763314482E+02 0.  0.
          5    1    4    4  502    0 -0.66279587399E+01  0.49255563310E+02  0.25153529576E+03  0.25644129029E+03  0.47000000000E+01 0. -1.
         -5    1    4    4    0  502 -0.95272376092E+01 -0.39078051168E+02  0.11634284536E+03  0.12318932586E+03  0.47000000000E+01 0.  1.
          5    1    3    3  503    0 -0.33540744056E+01  0.36709307651E+02  0.35482919366E+02  0.51380450077E+02  0.47000000000E+01 0. -1.
         -5    1    3    3    0  503  0.19509270755E+02 -0.46886819793E+02  0.12935056185E+02  0.52615503363E+02  0.47000000000E+01 0.  1.
<mgrwt>
<rscale>  0 0.93302984E+02</rscale>
<asrwt>0</asrwt>
<pdfrwt beam="1">  1        2 0.69224818E-01 0.93728747E+02</pdfrwt>
<pdfrwt beam="2">  1       -2 0.51792659E-02 0.93728747E+02</pdfrwt>
<totfact> 0.11955935E+04</totfact>
</mgrwt>
</event>
<event>
 8    1  0.3177960E-004  0.9673078E+02  0.7546771E-02  0.1287901E+00
         -2   -1    0    0    0  501 -0.00000000000E+00  0.00000000000E+00  0.12899106483E+02  0.12899106483E+02  0.00000000000E+00 0.  1.
          2   -1    0    0  501    0  0.00000000000E+00 -0.00000000000E+00 -0.73461975120E+03  0.73461975120E+03  0.00000000000E+00 0. -1.
         23    2    1    2    0    0 -0.41445518846E+01  0.28840395288E+02 -0.30205866579E+03  0.31685307086E+03  0.91145407025E+02 0.  0.
         23    2    1    2    0    0  0.41445518846E+01 -0.28840395288E+02 -0.41966197892E+03  0.43066578682E+03  0.92238265784E+02 0.  0.
          5    1    3    3  502    0  0.99488843474E+01 -0.31134783215E+02 -0.12648369103E+03  0.13072325395E+03  0.47000000000E+01 0. -1.
         -5    1    4    4    0  503  0.39207428249E+02  0.10990005447E+02 -0.13591232748E+03  0.14195863274E+03  0.47000000000E+01 0.  1.
          5    1    4    4  503    0 -0.35062876364E+02 -0.39830400735E+02 -0.28374965145E+03  0.28870715408E+03  0.47000000000E+01 0. -1.
         -5    1    3    3    0  502 -0.14093436232E+02  0.59975178503E+02 -0.17557497476E+03  0.18612981691E+03  0.47000000000E+01 0.  1.
<mgrwt>
<rscale>  0 0.96469336E+02</rscale>
<asrwt>0</asrwt>
<pdfrwt beam="1">  1        2 0.11301845E+00 0.96730778E+02</pdfrwt>
<pdfrwt beam="2">  1       -2 0.19844775E-02 0.96730778E+02</pdfrwt>
<totfact> 0.28174890E+04</totfact>
</mgrwt>
</event>
<event>
 8    1  0.3177960E-004  0.9720866E+02  0.7546771E-02  0.1288513E+00
         -1   -1    0    0    0  501 -0.00000000000E+00  0.00000000000E+00  0.26791581591E+02  0.26791581591E+02  0.00000000000E+00 0.  1.
          1   -1    0    0  501    0  0.00000000000E+00 -0.00000000000E+00 -0.58498751073E+03  0.58498751073E+03  0.00000000000E+00 0. -1.
         23    2    1    2    0    0  0.47085610173E+00  0.29969161576E+02 -0.77104168630E+02  0.12096466144E+03  0.88255448246E+02 0.  0.
         23    2    1    2    0    0 -0.47085610173E+00 -0.29969161576E+02 -0.48109176051E+03  0.49081443089E+03  0.92472434732E+02 0.  0.
          5    1    3    3  502    0 -0.19699845331E+02 -0.99716652220E+01 -0.72270854401E+02  0.75714492729E+02  0.47000000000E+01 0. -1.
         -5    1    4    4    0  503 -0.28126694673E+02  0.19159711065E+02 -0.27359378107E+03  0.27574236620E+03  0.47000000000E+01 0.  1.
          5    1    4    4  503    0  0.27655838571E+02 -0.49128872641E+02 -0.20749797945E+03  0.21507206469E+03  0.47000000000E+01 0. -1.
         -5    1    3    3    0  502  0.20170701433E+02  0.39940826798E+02 -0.48333142298E+01  0.45250168708E+02  0.47000000000E+01 0.  1.
<mgrwt>
<rscale>  0 0.96192214E+02</rscale>
<asrwt>0</asrwt>
<pdfrwt beam="1">  1        1 0.89998070E-01 0.97208660E+02</pdfrwt>
<pdfrwt beam="2">  1       -1 0.41217822E-02 0.97208660E+02</pdfrwt>
<totfact> 0.80286589E+03</totfact>
</mgrwt>
</event>
<event>
 8    1  0.3177960E-004  0.1147487E+03  0.7546771E-02  0.1255301E+00
          1   -1    0    0  501    0  0.00000000000E+00  0.00000000000E+00  0.17158559172E+03  0.17158559172E+03  0.00000000000E+00 0. -1.
         -1   -1    0    0    0  501 -0.00000000000E+00 -0.00000000000E+00 -0.74519369561E+02  0.74519369561E+02  0.00000000000E+00 0.  1.
         23    2    1    2    0    0 -0.42171667521E+02  0.32367180523E+02  0.72784816877E+02  0.13588557266E+03  0.10169156983E+03 0.  0.
         23    2    1    2    0    0  0.42171667521E+02 -0.32367180523E+02  0.24281405280E+02  0.11021938862E+03  0.93448611909E+02 0.  0.
          5    1    4    4  502    0 -0.47364002051E+01  0.26356388843E+02 -0.79199324098E+01  0.28317981021E+02  0.47000000000E+01 0. -1.
         -5    1    3    3    0  503  0.16734200717E+02 -0.25537041301E+02  0.28573341375E+02  0.42079683808E+02  0.47000000000E+01 0.  1.
          5    1    3    3  503    0 -0.58905868238E+02  0.57904221825E+02  0.44211475502E+02  0.93805888856E+02  0.47000000000E+01 0. -1.
         -5    1    4    4    0  502  0.46908067726E+02 -0.58723569366E+02  0.32201337690E+02  0.81901407594E+02  0.47000000000E+01 0.  1.
<mgrwt>
<rscale>  0 0.11289495E+03</rscale>
<asrwt>0</asrwt>
<pdfrwt beam="1">  1        1 0.26397783E-01 0.11474868E+03</pdfrwt>
<pdfrwt beam="2">  1       -1 0.11464518E-01 0.11474868E+03</pdfrwt>
<totfact> 0.81956237E+03</totfact>
</mgrwt>
</event>
<event>
 8    1  0.3177960E-004  0.1062249E+03  0.7546771E-02  0.1271845E+00
          3   -1    0    0  501    0  0.00000000000E+00  0.00000000000E+00  0.94456220003E+02  0.94456220003E+02  0.00000000000E+00 0. -1.
         -3   -1    0    0    0  501 -0.00000000000E+00 -0.00000000000E+00 -0.11677823653E+03  0.11677823653E+03  0.00000000000E+00 0.  1.
         23    2    1    2    0    0  0.12692198290E+02  0.33265057564E+02 -0.36086543992E+02  0.11218718176E+03  0.10008031346E+03 0.  0.
         23    2    1    2    0    0 -0.12692198290E+02 -0.33265057564E+02  0.13764527464E+02  0.99047274770E+02  0.91396085643E+02 0.  0.
          5    1    4    4  502    0 -0.45735696034E+02 -0.26236620227E+02  0.30458318304E+02  0.61073016026E+02  0.47000000000E+01 0. -1.
         -5    1    4    4    0  502  0.33043497744E+02 -0.70284373371E+01 -0.16693790840E+02  0.37974258744E+02  0.47000000000E+01 0.  1.
          5    1    3    3  503    0 -0.28594390170E+02 -0.56699700616E+00  0.19535924093E+02  0.34952867765E+02  0.47000000000E+01 0. -1.
         -5    1    3    3    0  503  0.41286588460E+02  0.33832054570E+02 -0.55622468086E+02  0.77234314000E+02  0.47000000000E+01 0.  1.
<mgrwt>
<rscale>  0 0.10412899E+03</rscale>
<asrwt>0</asrwt>
<pdfrwt beam="1">  1        3 0.14531726E-01 0.10622488E+03</pdfrwt>
<pdfrwt beam="2">  1       -3 0.17965883E-01 0.10622488E+03</pdfrwt>
<totfact> 0.23250138E+03</totfact>
</mgrwt>
</event>
<event>
 8    1  0.3177960E-004  0.9352026E+02  0.7546771E-02  0.1307246E+00
         -1   -1    0    0    0  501 -0.00000000000E+00  0.00000000000E+00  0.91688962601E+02  0.91688962601E+02  0.00000000000E+00 0.  1.
          1   -1    0    0  501    0  0.00000000000E+00 -0.00000000000E+00 -0.16138780017E+03  0.16138780017E+03  0.00000000000E+00 0. -1.
         23    2    1    2    0    0 -0.93739268598E+01 -0.12369343920E+01  0.58531599492E+02  0.94366070114E+02  0.73413939673E+02 0.  0.
         23    2    1    2    0    0  0.93739268598E+01  0.12369343920E+01 -0.12823043706E+03  0.15871069266E+03  0.93041057946E+02 0.  0.
          5    1    3    3  502    0  0.31926318200E+02  0.13369389249E+01  0.27690968233E+02  0.42543588484E+02  0.47000000000E+01 0. -1.
         -5    1    3    3    0  502 -0.41300245059E+02 -0.25738733169E+01  0.30840631259E+02  0.51822481630E+02  0.47000000000E+01 0.  1.
          5    1    4    4  503    0  0.30302400775E+02 -0.33673155058E+02 -0.97108645243E+02  0.10725808056E+03  0.47000000000E+01 0. -1.
         -5    1    4    4    0  503 -0.20928473915E+02  0.34910089450E+02 -0.31121791820E+02  0.51452612100E+02  0.47000000000E+01 0.  1.
<mgrwt>
<rscale>  0 0.88209835E+02</rscale>
<asrwt>0</asrwt>
<pdfrwt beam="1">  1        1 0.24828892E-01 0.93520260E+02</pdfrwt>
<pdfrwt beam="2">  1       -1 0.14105994E-01 0.93520260E+02</pdfrwt>
<totfact> 0.63278981E+03</totfact>
</mgrwt>
</event>
<event>
 8    1  0.3177960E-004  0.9388809E+02  0.7546771E-02  0.1294185E+00
          3   -1    0    0  501    0  0.00000000000E+00  0.00000000000E+00  0.28307328370E+03  0.28307328370E+03  0.00000000000E+00 0. -1.
         -3   -1    0    0    0  501 -0.00000000000E+00 -0.00000000000E+00 -0.33822247299E+02  0.33822247299E+02  0.00000000000E+00 0.  1.
         23    2    1    2    0    0  0.18415727820E+02 -0.15082764438E+02  0.77229811077E+02  0.12092034030E+03  0.89948074831E+02 0.  0.
         23    2    1    2    0    0 -0.18415727820E+02  0.15082764438E+02  0.17202122532E+03  0.19597519069E+03  0.90820397443E+02 0.  0.
          5    1    4    4  502    0 -0.50695904060E+02  0.27789392569E+02  0.93928737597E+02  0.11039484940E+03  0.47000000000E+01 0. -1.
         -5    1    3    3    0  503  0.16530166086E+02  0.35790747752E+02  0.47007150032E+02  0.61530367865E+02  0.47000000000E+01 0.  1.
          5    1    3    3  503    0  0.18855617342E+01 -0.50873512190E+02  0.30222661044E+02  0.59389972438E+02  0.47000000000E+01 0. -1.
         -5    1    4    4    0  502  0.32280176240E+02 -0.12706628132E+02  0.78092487724E+02  0.85580341291E+02  0.47000000000E+01 0.  1.
<mgrwt>
<rscale>  0 0.93676486E+02</rscale>
<asrwt>0</asrwt>
<pdfrwt beam="1">  1        3 0.43549734E-01 0.93888090E+02</pdfrwt>
<pdfrwt beam="2">  1       -3 0.52034229E-02 0.93888090E+02</pdfrwt>
<totfact> 0.24004505E+03</totfact>
</mgrwt>
</event>
<event>
 8    1  0.3177960E-004  0.1054284E+03  0.7546771E-02  0.1271468E+00
         -1   -1    0    0    0  501 -0.00000000000E+00  0.00000000000E+00  0.11748509193E+02  0.11748509193E+02  0.00000000000E+00 0.  1.
          1   -1    0    0  501    0  0.00000000000E+00 -0.00000000000E+00 -0.93128535549E+03  0.93128535549E+03  0.00000000000E+00 0. -1.
         23    2    1    2    0    0 -0.40416433692E+02  0.14249076561E+02 -0.39356476421E+03  0.40744126005E+03  0.96325658407E+02 0.  0.
         23    2    1    2    0    0  0.40416433692E+02 -0.14249076561E+02 -0.52597208209E+03  0.53559260464E+03  0.91522034001E+02 0.  0.
          5    1    3    3  502    0  0.18242554240E+02  0.37383685119E+02 -0.14112403776E+03  0.14720195220E+03  0.47000000000E+01 0. -1.
         -5    1    4    4    0  503 -0.25507238236E+02  0.13153786941E+02 -0.17534745267E+03  0.17774268050E+03  0.47000000000E+01 0.  1.
          5    1    4    4  503    0  0.65923671928E+02 -0.27402863502E+02 -0.35062462942E+03  0.35784992414E+03  0.47000000000E+01 0. -1.
         -5    1    3    3    0  502 -0.58658987932E+02 -0.23134608558E+02 -0.25244072645E+03  0.26023930785E+03  0.47000000000E+01 0.  1.
<mgrwt>
<rscale>  0 0.10431854E+03</rscale>
<asrwt>0</asrwt>
<pdfrwt beam="1">  1        1 0.14327469E+00 0.10542844E+03</pdfrwt>
<pdfrwt beam="2">  1       -1 0.18074627E-02 0.10542844E+03</pdfrwt>
<totfact> 0.13507485E+04</totfact>
</mgrwt>
</event>
<event>
 8    1  0.3177960E-004  0.1003274E+03  0.7546771E-02  0.1280245E+00
          3   -1    0    0  501    0  0.00000000000E+00  0.00000000000E+00  0.40738425994E+02  0.40738425994E+02  0.00000000000E+00 0. -1.
         -3   -1    0    0    0  501 -0.00000000000E+00 -0.00000000000E+00 -0.24507735624E+03  0.24507735624E+03  0.00000000000E+00 0.  1.
         23    2    1    2    0    0 -0.80438545190E+01  0.41455137556E+02 -0.92592218012E+02  0.13563952674E+03  0.89674580308E+02 0.  0.
         23    2    1    2    0    0  0.80438545190E+01 -0.41455137556E+02 -0.11174671223E+03  0.15017625549E+03  0.91007406253E+02 0.  0.
          5    1    3    3  502    0  0.18611553763E+02  0.30771221340E+02  0.23444416192E+01  0.36343423102E+02  0.47000000000E+01 0. -1.
         -5    1    4    4    0  503 -0.19776712069E+02  0.21675378356E+02 -0.45980757061E+02  0.54747240908E+02  0.47000000000E+01 0.  1.
          5    1    4    4  503    0  0.27820566588E+02 -0.63130515911E+02 -0.65765955171E+02  0.95429014581E+02  0.47000000000E+01 0. -1.
         -5    1    3    3    0  502 -0.26655408282E+02  0.10683916215E+02 -0.94936659631E+02  0.99296103641E+02  0.47000000000E+01 0.  1.
<mgrwt>
<rscale>  0 0.10002414E+03</rscale>
<asrwt>0</asrwt>
<pdfrwt beam="1">  1        3 0.62674501E-02 0.10032736E+03</pdfrwt>
<pdfrwt beam="2">  1       -3 0.37704209E-01 0.10032736E+03</pdfrwt>
<totfact> 0.23882303E+03</totfact>
</mgrwt>
</event>
<event>
 8    1  0.3177960E-004  0.1315517E+03  0.7546771E-02  0.1226616E+00
         -2   -1    0    0    0  501 -0.00000000000E+00  0.00000000000E+00  0.42930784328E+02  0.42930784328E+02  0.00000000000E+00 0.  1.
          2   -1    0    0  501    0  0.00000000000E+00 -0.00000000000E+00 -0.71005423671E+03  0.71005423671E+03  0.00000000000E+00 0. -1.
         23    2    1    2    0    0 -0.44402882767E+02  0.81265144434E+02 -0.58857168767E+03  0.60309409286E+03  0.93435612148E+02 0.  0.
         23    2    1    2    0    0  0.44402882767E+02 -0.81265144434E+02 -0.78551764714E+02  0.14989092818E+03  0.87870762560E+02 0.  0.
          5    1    4    4  502    0 -0.67169106611E+01 -0.19168444868E+02  0.15551209273E+02  0.26009157567E+02  0.47000000000E+01 0. -1.
         -5    1    4    4    0  502  0.51119793428E+02 -0.62096699566E+02 -0.94102973986E+02  0.12388177061E+03  0.47000000000E+01 0.  1.
          5    1    3    3  503    0 -0.29969540089E+02  0.60916155050E+02 -0.56286820856E+03  0.56696707266E+03  0.47000000000E+01 0. -1.
         -5    1    3    3    0  503 -0.14433342678E+02  0.20348989385E+02 -0.25703479114E+02  0.36127020199E+02  0.47000000000E+01 0.  1.
<mgrwt>
<rscale>  0 0.13056764E+03</rscale>
<asrwt>0</asrwt>
<pdfrwt beam="1">  1        2 0.10923911E+00 0.13155171E+03</pdfrwt>
<pdfrwt beam="2">  1       -2 0.66047363E-02 0.13155171E+03</pdfrwt>
<totfact> 0.50885977E+03</totfact>
</mgrwt>
</event>
<event>
 8    1  0.3177960E-004  0.1208560E+03  0.7546771E-02  0.1242169E+00
         -1   -1    0    0    0  501 -0.00000000000E+00  0.00000000000E+00  0.45108134305E+02  0.45108134305E+02  0.00000000000E+00 0.  1.
          1   -1    0    0  501    0  0.00000000000E+00 -0.00000000000E+00 -0.32478285135E+03  0.32478285135E+03  0.00000000000E+00 0. -1.
         23    2    1    2    0    0  0.57529156037E+02 -0.54785844660E+02 -0.11842033741E+03  0.16837389069E+03  0.89528197708E+02 0.  0.
         23    2    1    2    0    0 -0.57529156037E+02  0.54785844660E+02 -0.16125437963E+03  0.20151709496E+03  0.91077286089E+02 0.  0.
          5    1    3    3  502    0  0.86275123252E+01 -0.44352726524E+02 -0.10788351918E+03  0.11705785762E+03  0.47000000000E+01 0. -1.
         -5    1    4    4    0  503  0.17918511978E+02 -0.10173008436E+02 -0.30499401465E+02  0.37106153962E+02  0.47000000000E+01 0.  1.
          5    1    4    4  503    0 -0.75447668016E+02  0.64958853095E+02 -0.13075497817E+03  0.16441094100E+03  0.47000000000E+01 0. -1.
         -5    1    3    3    0  502  0.48901643712E+02 -0.10433118136E+02 -0.10536818224E+02  0.51316033070E+02  0.47000000000E+01 0.  1.
<mgrwt>
<rscale>  0 0.12056414E+03</rscale>
<asrwt>0</asrwt>
<pdfrwt beam="1">  1        1 0.49966590E-01 0.12085597E+03</pdfrwt>
<pdfrwt beam="2">  1       -1 0.69397133E-02 0.12085597E+03</pdfrwt>
<totfact> 0.79935860E+03</totfact>
</mgrwt>
</event>
<event>
 8    1  0.3177960E-004  0.1375610E+03  0.7546771E-02  0.1225972E+00
         -2   -1    0    0    0  501 -0.00000000000E+00  0.00000000000E+00  0.61148779367E+02  0.61148779367E+02  0.00000000000E+00 0.  1.
          2   -1    0    0  501    0  0.00000000000E+00 -0.00000000000E+00 -0.34448662906E+03  0.34448662906E+03  0.00000000000E+00 0. -1.
         23    2    1    2    0    0  0.74724429554E+02  0.17079090427E+02 -0.25381158801E+03  0.28869247986E+03  0.11422604790E+03 0.  0.
         23    2    1    2    0    0 -0.74724429554E+02 -0.17079090427E+02 -0.29526261681E+02  0.11694292856E+03  0.83237087347E+02 0.  0.
          5    1    4    4  502    0 -0.41754719430E+02 -0.28848921729E+02 -0.53780589503E+02  0.74095605044E+02  0.47000000000E+01 0. -1.
         -5    1    3    3    0  503  0.39990701518E+02  0.51504978984E+02 -0.59949467304E+02  0.88702016314E+02  0.47000000000E+01 0.  1.
          5    1    3    3  503    0  0.34733728036E+02 -0.34425888558E+02 -0.19386212071E+03  0.19999046355E+03  0.47000000000E+01 0. -1.
         -5    1    4    4    0  502 -0.32969710124E+02  0.11769831303E+02  0.24254327822E+02  0.42847323518E+02  0.47000000000E+01 0.  1.
<mgrwt>
<rscale>  0 0.13100535E+03</rscale>
<asrwt>0</asrwt>
<pdfrwt beam="1">  1        2 0.52997942E-01 0.13756099E+03</pdfrwt>
<pdfrwt beam="2">  1       -2 0.94075046E-02 0.13756099E+03</pdfrwt>
<totfact> 0.65757832E+03</totfact>
</mgrwt>
</event>
<event>
 8    1  0.3177960E-004  0.1279227E+03  0.7546771E-02  0.1242235E+00
          2   -1    0    0  501    0  0.00000000000E+00  0.00000000000E+00  0.40614397124E+02  0.40614397124E+02  0.00000000000E+00 0. -1.
         -2   -1    0    0    0  501 -0.00000000000E+00 -0.00000000000E+00 -0.40636816976E+03  0.40636816976E+03  0.00000000000E+00 0.  1.
         23    2    1    2    0    0  0.37886341259E+02 -0.26155886441E+02 -0.30131933843E+03  0.32734929419E+03  0.11935121048E+03 0.  0.
         23    2    1    2    0    0 -0.37886341259E+02  0.26155886441E+02 -0.64434434202E+02  0.11963327269E+03  0.89670610430E+02 0.  0.
          5    1    3    3  502    0  0.37103270730E+02  0.43867266145E+02 -0.12974426719E+03  0.14197413358E+03  0.47000000000E+01 0. -1.
         -5    1    3    3    0  502  0.78307052986E+00 -0.70023152586E+02 -0.17157507125E+03  0.18537516061E+03  0.47000000000E+01 0.  1.
          5    1    4    4  503    0 -0.11422585367E+02  0.41123216825E+02  0.54446133865E+01  0.43281961987E+02  0.47000000000E+01 0. -1.
         -5    1    4    4    0  503 -0.26463755893E+02 -0.14967330384E+02 -0.69879047588E+02  0.76351310707E+02  0.47000000000E+01 0.  1.
<mgrwt>
<rscale>  0 0.12052417E+03</rscale>
<asrwt>0</asrwt>
<pdfrwt beam="1">  1        2 0.62483685E-02 0.12792270E+03</pdfrwt>
<pdfrwt beam="2">  1       -2 0.62518183E-01 0.12792270E+03</pdfrwt>
<totfact> 0.27133484E+03</totfact>
</mgrwt>
</event>
<event>
 8    1  0.3177960E-004  0.1015382E+03  0.7546771E-02  0.1277702E+00
         -1   -1    0    0    0  501 -0.00000000000E+00  0.00000000000E+00  0.41855364246E+02  0.41855364246E+02  0.00000000000E+00 0.  1.
          1   -1    0    0  501    0  0.00000000000E+00 -0.00000000000E+00 -0.25104213113E+03  0.25104213113E+03  0.00000000000E+00 0. -1.
         23    2    1    2    0    0  0.39593255776E+02  0.15740256210E+02 -0.12941038077E+03  0.16376859438E+03  0.90872021467E+02 0.  0.
         23    2    1    2    0    0 -0.39593255776E+02 -0.15740256210E+02 -0.79776386118E+02  0.12912890100E+03  0.92166261305E+02 0.  0.
          5    1    4    4  502    0 -0.73647306252E+01  0.18820573379E+02 -0.78951485513E+02  0.81632593394E+02  0.47000000000E+01 0. -1.
         -5    1    3    3    0  503  0.60508542125E+02 -0.23827958887E+01 -0.47270724448E+02  0.76964750218E+02  0.47000000000E+01 0.  1.
          5    1    3    3  503    0 -0.20915286349E+02  0.18123052099E+02 -0.82139656320E+02  0.86803844160E+02  0.47000000000E+01 0. -1.
         -5    1    4    4    0  502 -0.32228525150E+02 -0.34560829589E+02 -0.82490060490E+00  0.47496307606E+02  0.47000000000E+01 0.  1.
<mgrwt>
<rscale>  0 0.10124357E+03</rscale>
<asrwt>0</asrwt>
<pdfrwt beam="1">  1        1 0.38621866E-01 0.10153818E+03</pdfrwt>
<pdfrwt beam="2">  1       -1 0.64392868E-02 0.10153818E+03</pdfrwt>
<totfact> 0.12090384E+04</totfact>
</mgrwt>
</event>
<event>
 8    1  0.3177960E-004  0.1031593E+03  0.7546771E-02  0.1277466E+00
         -2   -1    0    0    0  501 -0.00000000000E+00  0.00000000000E+00  0.12891092719E+03  0.12891092719E+03  0.00000000000E+00 0.  1.
          2   -1    0    0  501    0  0.00000000000E+00 -0.00000000000E+00 -0.80697666077E+02  0.80697666077E+02  0.00000000000E+00 0. -1.
         23    2    1    2    0    0  0.45804652656E+02 -0.13335934671E+02  0.47245167712E+02  0.11346340755E+03  0.91465434028E+02 0.  0.
         23    2    1    2    0    0 -0.45804652656E+02  0.13335934671E+02  0.96809340218E+00  0.96145185719E+02  0.83468833547E+02 0.  0.
          5    1    4    4  502    0 -0.27745722915E+02 -0.91485777092E+00 -0.40005863965E+02  0.48920560671E+02  0.47000000000E+01 0. -1.
         -5    1    4    4    0  502 -0.18058929742E+02  0.14250792442E+02  0.40973957367E+02  0.47224625048E+02  0.47000000000E+01 0.  1.
          5    1    3    3  503    0  0.17777018794E+02 -0.50709316736E+02  0.13384527319E+02  0.55576008966E+02  0.47000000000E+01 0. -1.
         -5    1    3    3    0  503  0.28027633862E+02  0.37373382065E+02  0.33860640393E+02  0.57887398583E+02  0.47000000000E+01 0.  1.
<mgrwt>
<rscale>  0 0.10135791E+03</rscale>
<asrwt>0</asrwt>
<pdfrwt beam="1">  1        2 0.12415026E-01 0.10315929E+03</pdfrwt>
<pdfrwt beam="2">  1       -2 0.19832450E-01 0.10315929E+03</pdfrwt>
<totfact> 0.95842099E+03</totfact>
</mgrwt>
</event>
<event>
 8    1  0.3177960E-004  0.1207321E+03  0.7546771E-02  0.1241902E+00
         -1   -1    0    0    0  501 -0.00000000000E+00  0.00000000000E+00  0.10612003764E+03  0.10612003764E+03  0.00000000000E+00 0.  1.
          1   -1    0    0  501    0  0.00000000000E+00 -0.00000000000E+00 -0.18309360406E+03  0.18309360406E+03  0.00000000000E+00 0. -1.
         23    2    1    2    0    0 -0.58845251801E+02 -0.53049766188E+02  0.33803668572E+02  0.12537516477E+03  0.91099959278E+02 0.  0.
         23    2    1    2    0    0  0.58845251801E+02  0.53049766188E+02 -0.11077723499E+03  0.16383847693E+03  0.91073648092E+02 0.  0.
          5    1    4    4  502    0  0.26737631612E+02  0.59855858666E+02 -0.11287557145E+03  0.13061626772E+03  0.47000000000E+01 0. -1.
         -5    1    3    3    0  503 -0.22117306246E+02 -0.61523227390E+02  0.51607732680E+02  0.83425001147E+02  0.47000000000E+01 0.  1.
          5    1    3    3  503    0 -0.36727945554E+02  0.84734612011E+01 -0.17804064108E+02  0.41950163625E+02  0.47000000000E+01 0. -1.
         -5    1    4    4    0  502  0.32107620189E+02 -0.68060924773E+01  0.20983364603E+01  0.33222209211E+02  0.47000000000E+01 0.  1.
<mgrwt>
<rscale>  0 0.12072715E+03</rscale>
<asrwt>0</asrwt>
<pdfrwt beam="1">  1        1 0.28168247E-01 0.12073212E+03</pdfrwt>
<pdfrwt beam="2">  1       -1 0.16326160E-01 0.12073212E+03</pdfrwt>
<totfact> 0.43840559E+03</totfact>
</mgrwt>
</event>
<event>
 8    1  0.3177960E-004  0.1168628E+03  0.7546771E-02  0.1249198E+00
          1   -1    0    0  501    0  0.00000000000E+00  0.00000000000E+00  0.71339149201E+03  0.71339149201E+03  0.00000000000E+00 0. -1.
         -1   -1    0    0    0  501 -0.00000000000E+00 -0.00000000000E+00 -0.24223791237E+02  0.24223791237E+02  0.00000000000E+00 0.  1.
         23    2    1    2    0    0  0.47980107123E+02 -0.56255012910E+02  0.52087787354E+03  0.53382644076E+03  0.90499682592E+02 0.  0.
         23    2    1    2    0    0 -0.47980107123E+02  0.56255012910E+02  0.16828982724E+03  0.20378884250E+03  0.87986983225E+02 0.  0.
          5    1    4    4  502    0 -0.35586452673E+02  0.25474397033E+02  0.14429681665E+02  0.46321120787E+02  0.47000000000E+01 0.  1.
         -5    1    4    4    0  502 -0.12393654450E+02  0.30780615877E+02  0.15386014557E+03  0.15746772171E+03  0.47000000000E+01 0. -1.
          5    1    3    3  503    0 -0.18547294074E+02 -0.37652984052E+02  0.12508789441E+03  0.13202583328E+03  0.47000000000E+01 0. -1.
         -5    1    3    3    0  503  0.66527401197E+02 -0.18602028858E+02  0.39578997913E+03  0.40180060747E+03  0.47000000000E+01 0.  1.
<mgrwt>
<rscale>  0 0.11637603E+03</rscale>
<asrwt>0</asrwt>
<pdfrwt beam="1">  1        1 0.10975252E+00 0.11686278E+03</pdfrwt>
<pdfrwt beam="2">  1       -1 0.37267377E-02 0.11686278E+03</pdfrwt>
<totfact> 0.71570383E+03</totfact>
</mgrwt>
</event>
<event>
 8    1  0.3177960E-004  0.1244634E+03  0.7546771E-02  0.1237135E+00
         -1   -1    0    0    0  501 -0.00000000000E+00  0.00000000000E+00  0.23177915605E+03  0.23177915605E+03  0.00000000000E+00 0.  1.
          1   -1    0    0  501    0  0.00000000000E+00 -0.00000000000E+00 -0.37668685052E+03  0.37668685052E+03  0.00000000000E+00 0. -1.
         23    2    1    2    0    0  0.21346799917E+02 -0.77433698845E+02  0.20404105879E+03  0.23900604397E+03  0.95076136853E+02 0.  0.
         23    2    1    2    0    0 -0.21346799917E+02  0.77433698845E+02 -0.34894875327E+03  0.36945996260E+03  0.91015207373E+02 0.  0.
          5    1    4    4  502    0 -0.45698708705E+02  0.40675464831E+02 -0.28570605874E+03  0.29222064851E+03  0.47000000000E+01 0. -1.
         -5    1    4    4    0  502  0.24351908788E+02  0.36758234013E+02 -0.63242694528E+02  0.77239314086E+02  0.47000000000E+01 0.  1.
          5    1    3    3  503    0  0.59038855893E+02 -0.48776535714E+02  0.12006300763E+03  0.14248492111E+03  0.47000000000E+01 0. -1.
         -5    1    3    3    0  503 -0.37692055976E+02 -0.28657163130E+02  0.83978051160E+02  0.96521122865E+02  0.47000000000E+01 0.  1.
<mgrwt>
<rscale>  0 0.12368772E+03</rscale>
<asrwt>0</asrwt>
<pdfrwt beam="1">  1        1 0.57951823E-01 0.12446339E+03</pdfrwt>
<pdfrwt beam="2">  1       -1 0.35658332E-01 0.12446339E+03</pdfrwt>
<totfact> 0.50075470E+02</totfact>
</mgrwt>
</event>
<event>
 8    1  0.3177960E-004  0.1239487E+03  0.7546771E-02  0.1237558E+00
         -2   -1    0    0    0  501 -0.00000000000E+00  0.00000000000E+00  0.16025716810E+02  0.16025716810E+02  0.00000000000E+00 0.  1.
          2   -1    0    0  501    0  0.00000000000E+00 -0.00000000000E+00 -0.97971557998E+03  0.97971557998E+03  0.00000000000E+00 0. -1.
         23    2    1    2    0    0  0.78882678577E+02  0.21239667416E+02 -0.38877580177E+03  0.40805624163E+03  0.93218409366E+02 0.  0.
         23    2    1    2    0    0 -0.78882678577E+02 -0.21239667416E+02 -0.57491406140E+03  0.58768505516E+03  0.90409875594E+02 0.  0.
          5    1    4    4  502    0  0.18535466825E+02 -0.13289909817E+02 -0.87537232124E+02  0.90581688223E+02  0.47000000000E+01 0. -1.
         -5    1    3    3    0  503  0.44914885477E+01 -0.28641722586E+02 -0.15308249783E+03  0.15587451005E+03  0.47000000000E+01 0.  1.
          5    1    3    3  503    0  0.74391190029E+02  0.49881390003E+02 -0.23569330394E+03  0.25218173158E+03  0.47000000000E+01 0. -1.
         -5    1    4    4    0  502 -0.97418145403E+02 -0.79497575995E+01 -0.48737682928E+03  0.49710336694E+03  0.47000000000E+01 0.  1.
<mgrwt>
<rscale>  0 0.12342076E+03</rscale>
<asrwt>0</asrwt>
<pdfrwt beam="1">  1        2 0.15072547E+00 0.12394867E+03</pdfrwt>
<pdfrwt beam="2">  1       -2 0.24654950E-02 0.12394867E+03</pdfrwt>
<totfact> 0.14597625E+04</totfact>
</mgrwt>
</event>
<event>
 8    1  0.3177960E-004  0.1259753E+03  0.7546771E-02  0.1233754E+00
          1   -1    0    0  501    0  0.00000000000E+00  0.00000000000E+00  0.62797489699E+03  0.62797489699E+03  0.00000000000E+00 0. -1.
         -1   -1    0    0    0  501 -0.00000000000E+00 -0.00000000000E+00 -0.30328263628E+02  0.30328263628E+02  0.00000000000E+00 0.  1.
         23    2    1    2    0    0  0.46137369417E+02  0.71761047586E+02  0.16355451324E+03  0.20644574703E+03  0.92690144335E+02 0.  0.
         23    2    1    2    0    0 -0.46137369417E+02 -0.71761047586E+02  0.43409212012E+03  0.45185741359E+03  0.91982871554E+02 0.  0.
          5    1    3    3  502    0 -0.74924098913E+01  0.70893570975E+02  0.10382176756E+03  0.12602810810E+03  0.47000000000E+01 0. -1.
         -5    1    3    3    0  502  0.53629779308E+02  0.86747661069E+00  0.59732745683E+02  0.80417638930E+02  0.47000000000E+01 0.  1.
          5    1    4    4  503    0 -0.65598321282E+02 -0.22685008995E+02  0.29279262626E+03  0.30094411671E+03  0.47000000000E+01 0. -1.
         -5    1    4    4    0  503  0.19460951865E+02 -0.49076038592E+02  0.14129949386E+03  0.15091329688E+03  0.47000000000E+01 0.  1.
<mgrwt>
<rscale>  0 0.12584519E+03</rscale>
<asrwt>0</asrwt>
<pdfrwt beam="1">  1        1 0.96611513E-01 0.12597527E+03</pdfrwt>
<pdfrwt beam="2">  1       -1 0.46658872E-02 0.12597527E+03</pdfrwt>
<totfact> 0.61827664E+03</totfact>
</mgrwt>
</event>
<event>
 8    1  0.3177960E-004  0.9585462E+02  0.7546771E-02  0.1290002E+00
          2   -1    0    0  501    0  0.00000000000E+00  0.00000000000E+00  0.81968688508E+03  0.81968688508E+03  0.00000000000E+00 0.  1.
         -2   -1    0    0    0  501 -0.00000000000E+00 -0.00000000000E+00 -0.11578082483E+02  0.11578082483E+02  0.00000000000E+00 0. -1.
         23    2    1    2    0    0 -0.25852171911E+02 -0.18443648382E+01  0.48967021248E+03  0.49871234864E+03  0.90913988043E+02 0.  0.
         23    2    1    2    0    0  0.25852171911E+02  0.18443648382E+01  0.31843859011E+03  0.33255261891E+03  0.92284192594E+02 0.  0.
          5    1    4    4  502    0  0.51683348829E+02 -0.16386591122E+02  0.12278732823E+03  0.13430750869E+03  0.47000000000E+01 0. -1.
         -5    1    3    3    0  503 -0.24741133106E+02  0.39533864279E+02  0.17017191449E+03  0.17650954810E+03  0.47000000000E+01 0.  1.
          5    1    3    3  503    0 -0.11110388051E+01 -0.41378229117E+02  0.31949829800E+03  0.32220280054E+03  0.47000000000E+01 0. -1.
         -5    1    4    4    0  502 -0.25831176919E+02  0.18230955961E+02  0.19565126188E+03  0.19824511023E+03  0.47000000000E+01 0.  1.
<mgrwt>
<rscale>  0 0.95523299E+02</rscale>
<asrwt>0</asrwt>
<pdfrwt beam="1">  1        2 0.12610563E+00 0.95854623E+02</pdfrwt>
<pdfrwt beam="2">  1       -2 0.17812441E-02 0.95854623E+02</pdfrwt>
<totfact> 0.28788935E+04</totfact>
</mgrwt>
</event>
<event>
 8    1  0.3177960E-004  0.1275724E+03  0.7546771E-02  0.1231234E+00
         -2   -1    0    0    0  501 -0.00000000000E+00  0.00000000000E+00  0.22864336570E+03  0.22864336570E+03  0.00000000000E+00 0.  1.
          2   -1    0    0  501    0  0.00000000000E+00 -0.00000000000E+00 -0.78832782115E+02  0.78832782115E+02  0.00000000000E+00 0. -1.
         23    2    1    2    0    0  0.56819211351E+02 -0.69025036198E+02  0.12331400478E+03  0.17718111524E+03  0.90520303919E+02 0.  0.
         23    2    1    2    0    0 -0.56819211351E+02  0.69025036198E+02  0.26496578803E+02  0.13029503257E+03  0.91004661553E+02 0.  0.
          5    1    4    4  502    0 -0.77433892245E+02  0.41150831214E+02  0.24635658818E+01  0.87849631386E+02  0.47000000000E+01 0. -1.
         -5    1    4    4    0  502  0.20614680894E+02  0.27874204985E+02  0.24033012921E+02  0.42445401188E+02  0.47000000000E+01 0.  1.
          5    1    3    3  503    0 -0.23193300124E+02 -0.40994359698E+01  0.25503652399E+02  0.35032282706E+02  0.47000000000E+01 0. -1.
         -5    1    3    3    0  503  0.80012511475E+02 -0.64925600229E+02  0.97810352380E+02  0.14214883253E+03  0.47000000000E+01 0.  1.
<mgrwt>
<rscale>  0 0.12748608E+03</rscale>
<asrwt>0</asrwt>
<pdfrwt beam="1">  1        2 0.12128120E-01 0.12757244E+03</pdfrwt>
<pdfrwt beam="2">  1       -2 0.35175902E-01 0.12757244E+03</pdfrwt>
<totfact> 0.36595848E+03</totfact>
</mgrwt>
</event>
<event>
 8    1  0.3177960E-004  0.9851193E+02  0.7546771E-02  0.1300665E+00
         -1   -1    0    0    0  501 -0.00000000000E+00  0.00000000000E+00  0.60525811328E+02  0.60525811328E+02  0.00000000000E+00 0.  1.
          1   -1    0    0  501    0  0.00000000000E+00 -0.00000000000E+00 -0.12404641831E+03  0.12404641831E+03  0.00000000000E+00 0. -1.
         23    2    1    2    0    0  0.14992209314E+02  0.28265473542E+01 -0.90785833231E+01  0.72017643866E+02  0.69795162030E+02 0.  0.
         23    2    1    2    0    0 -0.14992209314E+02 -0.28265473542E+01 -0.54442023655E+02  0.11255458577E+03  0.97323404831E+02 0.  0.
          5    1    4    4  502    0 -0.14606618662E+02  0.20227646449E+02 -0.76314895230E+02  0.80427384786E+02  0.47000000000E+01 0. -1.
         -5    1    4    4    0  502 -0.38559065134E+00 -0.23054193803E+02  0.21872871575E+02  0.32127200983E+02  0.47000000000E+01 0.  1.
          5    1    3    3  503    0  0.22075022349E+02  0.30947377762E+02 -0.16517595332E+02  0.41712920752E+02  0.47000000000E+01 0. -1.
         -5    1    3    3    0  503 -0.70828130359E+01 -0.28120830408E+02  0.74390120092E+01  0.30304723114E+02  0.47000000000E+01 0.  1.
<mgrwt>
<rscale>  0 0.90908971E+02</rscale>
<asrwt>0</asrwt>
<pdfrwt beam="1">  1        1 0.19084064E-01 0.98511932E+02</pdfrwt>
<pdfrwt beam="2">  1       -1 0.93116633E-02 0.98511932E+02</pdfrwt>
<totfact> 0.16647684E+04</totfact>
</mgrwt>
</event>
<event>
 8    1  0.3177960E-004  0.9126578E+02  0.7546771E-02  0.1300202E+00
          1   -1    0    0  501    0  0.00000000000E+00  0.00000000000E+00  0.46543905158E+03  0.46543905158E+03  0.00000000000E+00 0. -1.
         -1   -1    0    0    0  501 -0.00000000000E+00 -0.00000000000E+00 -0.52757922750E+02  0.52757922750E+02  0.00000000000E+00 0.  1.
         23    2    1    2    0    0  0.10558596286E+02  0.20445641224E+01 -0.44133820977E+01  0.91372431560E+02  0.90629901852E+02 0.  0.
         23    2    1    2    0    0 -0.10558596286E+02 -0.20445641224E+01  0.41709451093E+03  0.42682454277E+03  0.89976080525E+02 0.  0.
          5    1    3    3  502    0  0.13746564950E+02  0.36489787632E+02  0.24287810878E+02  0.46178570859E+02  0.47000000000E+01 0. -1.
         -5    1    3    3    0  502 -0.31879686646E+01 -0.34445223510E+02 -0.28701192975E+02  0.45193860701E+02  0.47000000000E+01 0.  1.
          5    1    4    4  503    0 -0.30839448349E+02 -0.30185202230E+02  0.11878127704E+03  0.12646461870E+03  0.47000000000E+01 0. -1.
         -5    1    4    4    0  503  0.20280852064E+02  0.28140638108E+02  0.29831323389E+03  0.30035992407E+03  0.47000000000E+01 0.  1.
<mgrwt>
<rscale>  0 0.91103041E+02</rscale>
<asrwt>0</asrwt>
<pdfrwt beam="1">  1        1 0.71606005E-01 0.91265784E+02</pdfrwt>
<pdfrwt beam="2">  1       -1 0.81166038E-02 0.91265784E+02</pdfrwt>
<totfact> 0.39648239E+03</totfact>
</mgrwt>
</event>
<event>
 8    1  0.3177960E-004  0.1356464E+03  0.7546771E-02  0.1220402E+00
         -1   -1    0    0    0  501 -0.00000000000E+00  0.00000000000E+00  0.35120515724E+02  0.35120515724E+02  0.00000000000E+00 0.  1.
          1   -1    0    0  501    0  0.00000000000E+00 -0.00000000000E+00 -0.91249871649E+03  0.91249871649E+03  0.00000000000E+00 0. -1.
         23    2    1    2    0    0 -0.95571733909E+02  0.11962143339E+02 -0.75536126468E+03  0.76744418999E+03  0.95513849070E+02 0.  0.
         23    2    1    2    0    0  0.95571733909E+02 -0.11962143339E+02 -0.12201693608E+03  0.18017504222E+03  0.91092611965E+02 0.  0.
          5    1    3    3  502    0 -0.89758574524E+02  0.43730520678E+02 -0.49059200754E+03  0.50067111761E+03  0.47000000000E+01 0. -1.
         -5    1    3    3    0  502 -0.58131593853E+01 -0.31768377340E+02 -0.26476925714E+03  0.26677307238E+03  0.47000000000E+01 0.  1.
          5    1    4    4  503    0 -0.12605614946E+02 -0.18168481849E+02 -0.11631377465E+02  0.25423890391E+02  0.47000000000E+01 0. -1.
         -5    1    4    4    0  503  0.10817734886E+03  0.62063385109E+01 -0.11038555861E+03  0.15475115183E+03  0.47000000000E+01 0.  1.
<mgrwt>
<rscale>  0 0.13487077E+03</rscale>
<asrwt>0</asrwt>
<pdfrwt beam="1">  1        1 0.14038441E+00 0.13564640E+03</pdfrwt>
<pdfrwt beam="2">  1       -1 0.54031566E-02 0.13564640E+03</pdfrwt>
<totfact> 0.28756419E+03</totfact>
</mgrwt>
</event>
<event>
 8    1  0.3177960E-004  0.1103681E+03  0.7546771E-02  0.1262895E+00
         -2   -1    0    0    0  501 -0.00000000000E+00  0.00000000000E+00  0.66743589304E+02  0.66743589304E+02  0.00000000000E+00 0.  1.
          2   -1    0    0  501    0  0.00000000000E+00 -0.00000000000E+00 -0.25666026883E+03  0.25666026883E+03  0.00000000000E+00 0. -1.
         23    2    1    2    0    0  0.89953254134E+01 -0.45858950034E+02 -0.41083291279E+01  0.11044455761E+03  0.99985812795E+02 0.  0.
         23    2    1    2    0    0 -0.89953254134E+01  0.45858950034E+02 -0.18580835039E+03  0.21295930052E+03  0.92967528868E+02 0.  0.
          5    1    4    4  502    0  0.41517227205E+02  0.13716823915E+02 -0.76482059609E+02  0.88223731814E+02  0.47000000000E+01 0. -1.
         -5    1    4    4    0  502 -0.50512552618E+02  0.32142126118E+02 -0.10932629079E+03  0.12473556871E+03  0.47000000000E+01 0.  1.
          5    1    3    3  503    0  0.67666178520E+01 -0.23901027963E+02 -0.51824236644E+02  0.57661839709E+02  0.47000000000E+01 0. -1.
         -5    1    3    3    0  503  0.22287075614E+01 -0.21957922070E+02  0.47715907517E+02  0.52782717902E+02  0.47000000000E+01 0.  1.
<mgrwt>
<rscale>  0 0.10875415E+03</rscale>
<asrwt>0</asrwt>
<pdfrwt beam="1">  1        2 0.39486194E-01 0.11036812E+03</pdfrwt>
<pdfrwt beam="2">  1       -2 0.10268245E-01 0.11036812E+03</pdfrwt>
<totfact> 0.77085629E+03</totfact>
</mgrwt>
</event>
<event>
 8    1  0.3177960E-004  0.1253657E+03  0.7546771E-02  0.1235072E+00
         -1   -1    0    0    0  501 -0.00000000000E+00  0.00000000000E+00  0.27502459812E+02  0.27502459812E+02  0.00000000000E+00 0.  1.
          1   -1    0    0  501    0  0.00000000000E+00 -0.00000000000E+00 -0.60635919183E+03  0.60635919183E+03  0.00000000000E+00 0. -1.
         23    2    1    2    0    0 -0.42745356085E+02 -0.75129579531E+02 -0.37080900709E+03  0.39096163350E+03  0.88769701678E+02 0.  0.
         23    2    1    2    0    0  0.42745356085E+02  0.75129579531E+02 -0.20804772493E+03  0.24290001815E+03  0.90801672794E+02 0.  0.
          5    1    3    3  502    0 -0.51546471914E+02 -0.46228577327E+02 -0.34193934982E+03  0.34891077525E+03  0.47000000000E+01 0. -1.
         -5    1    4    4    0  503  0.66933324636E+02  0.29763029241E+02 -0.13080174058E+03  0.14999031034E+03  0.47000000000E+01 0.  1.
          5    1    4    4  503    0 -0.24187968551E+02  0.45366550290E+02 -0.77245984348E+02  0.92909707812E+02  0.47000000000E+01 0. -1.
         -5    1    3    3    0  502  0.88011158287E+01 -0.28901002203E+02 -0.28869657272E+02  0.42050858245E+02  0.47000000000E+01 0.  1.
<mgrwt>
<rscale>  0 0.12499815E+03</rscale>
<asrwt>0</asrwt>
<pdfrwt beam="1">  1        1 0.93286026E-01 0.12536572E+03</pdfrwt>
<pdfrwt beam="2">  1       -1 0.42311478E-02 0.12536572E+03</pdfrwt>
<totfact> 0.74873133E+03</totfact>
</mgrwt>
</event>
<event>
 8    1  0.3177960E-004  0.9413333E+02  0.7546771E-02  0.1293193E+00
          1   -1    0    0  501    0  0.00000000000E+00  0.00000000000E+00  0.95428474942E+02  0.95428474942E+02  0.00000000000E+00 0. -1.
         -1   -1    0    0    0  501 -0.00000000000E+00 -0.00000000000E+00 -0.16894237124E+03  0.16894237124E+03  0.00000000000E+00 0.  1.
         23    2    1    2    0    0  0.13239720920E+02  0.16756123581E+02 -0.12550911377E+03  0.15683207609E+03  0.91584412233E+02 0.  0.
         23    2    1    2    0    0 -0.13239720920E+02 -0.16756123581E+02  0.51995217477E+02  0.10753877009E+03  0.91678931842E+02 0.  0.
          5    1    3    3  502    0 -0.17916840662E+02 -0.29995256461E+02 -0.66204748595E+02  0.75005915274E+02  0.47000000000E+01 0. -1.
         -5    1    4    4    0  503 -0.13195012995E+02 -0.39245662335E+02 -0.87628267197E+01  0.42581774413E+02  0.47000000000E+01 0.  1.
          5    1    4    4  503    0 -0.44707925235E-01  0.22489538755E+02  0.60758044197E+02  0.64956995673E+02  0.47000000000E+01 0. -1.
         -5    1    3    3    0  502  0.31156561582E+02  0.46751380041E+02 -0.59304365178E+02  0.81826160820E+02  0.47000000000E+01 0.  1.
<mgrwt>
<rscale>  0 0.94110312E+02</rscale>
<asrwt>0</asrwt>
<pdfrwt beam="1">  1        1 0.14681304E-01 0.94133333E+02</pdfrwt>
<pdfrwt beam="2">  1       -1 0.25991134E-01 0.94133333E+02</pdfrwt>
<totfact> 0.46600497E+03</totfact>
</mgrwt>
</event>
<event>
 8    1  0.3177960E-004  0.1008188E+03  0.7546771E-02  0.1283603E+00
         -4   -1    0    0    0  501 -0.00000000000E+00  0.00000000000E+00  0.10677909396E+03  0.10677909396E+03  0.00000000000E+00 0.  1.
          4   -1    0    0  501    0  0.00000000000E+00 -0.00000000000E+00 -0.97231309420E+02  0.97231309420E+02  0.00000000000E+00 0. -1.
         23    2    1    2    0    0  0.15694399391E+02 -0.60090545418E+01 -0.28512157465E+02  0.10477296262E+03  0.99408287699E+02 0.  0.
         23    2    1    2    0    0 -0.15694399391E+02  0.60090545418E+01  0.38059942005E+02  0.99237440764E+02  0.90094880849E+02 0.  0.
          5    1    3    3  502    0  0.10906402900E+02 -0.31510764049E+02 -0.56843151456E+02  0.66068992293E+02  0.47000000000E+01 0. -1.
         -5    1    4    4    0  503 -0.53061325217E+02  0.78321841427E+01  0.24676195389E+02  0.59227121837E+02  0.47000000000E+01 0.  1.
          5    1    4    4  503    0  0.37366925825E+02 -0.18231296009E+01  0.13383746616E+02  0.40010318927E+02  0.47000000000E+01 0. -1.
         -5    1    3    3    0  502  0.47879964916E+01  0.25501709507E+02  0.28330993991E+02  0.38703970322E+02  0.47000000000E+01 0.  1.
<mgrwt>
<rscale>  0 0.98443692E+02</rscale>
<asrwt>0</asrwt>
<pdfrwt beam="1">  1        4 0.14958663E-01 0.10081880E+03</pdfrwt>
<pdfrwt beam="2">  1       -4 0.16427553E-01 0.10081880E+03</pdfrwt>
<totfact> 0.18615240E+03</totfact>
</mgrwt>
</event>
<event>
 8    1  0.3177960E-004  0.9291576E+02  0.7546771E-02  0.1295985E+00
          1   -1    0    0  501    0  0.00000000000E+00  0.00000000000E+00  0.14819291584E+03  0.14819291584E+03  0.00000000000E+00 0. -1.
         -1   -1    0    0    0  501 -0.00000000000E+00 -0.00000000000E+00 -0.44531941894E+03  0.44531941894E+03  0.00000000000E+00 0.  1.
         23    2    1    2    0    0  0.82392305042E+01 -0.13528177573E+02 -0.42523746485E+03  0.43525382134E+03  0.91477270229E+02 0.  0.
         23    2    1    2    0    0 -0.82392305042E+01  0.13528177573E+02  0.12811096175E+03  0.15825851344E+03  0.91555677309E+02 0.  0.
          5    1    3    3  502    0  0.49257005222E+01  0.28440362440E+02 -0.52320618938E+02  0.59938751300E+02  0.47000000000E+01 0. -1.
         -5    1    4    4    0  503  0.35855949607E+02 -0.50810613136E+00  0.21827215973E+02  0.42242450819E+02  0.47000000000E+01 0.  1.
          5    1    4    4  503    0 -0.44095180112E+02  0.14036283704E+02  0.10628374578E+03  0.11601606262E+03  0.47000000000E+01 0. -1.
         -5    1    3    3    0  502  0.33135299820E+01 -0.41968540013E+02 -0.37291684591E+03  0.37531507004E+03  0.47000000000E+01 0.  1.
<mgrwt>
<rscale>  0 0.92896440E+02</rscale>
<asrwt>0</asrwt>
<pdfrwt beam="1">  1        1 0.22798910E-01 0.92915761E+02</pdfrwt>
<pdfrwt beam="2">  1       -1 0.68510679E-01 0.92915761E+02</pdfrwt>
<totfact> 0.48323352E+02</totfact>
</mgrwt>
</event>
<event>
 8    1  0.3177960E-004  0.1003318E+03  0.7546771E-02  0.1286759E+00
          2   -1    0    0  501    0  0.00000000000E+00  0.00000000000E+00  0.18358031481E+03  0.18358031481E+03  0.00000000000E+00 0. -1.
         -2   -1    0    0    0  501 -0.00000000000E+00 -0.00000000000E+00 -0.86378890321E+02  0.86378890321E+02  0.00000000000E+00 0.  1.
         23    2    1    2    0    0 -0.65958715652E+01  0.38120845361E+01  0.13650589606E+03  0.16220343901E+03  0.87281489761E+02 0.  0.
         23    2    1    2    0    0  0.65958715652E+01 -0.38120845361E+01 -0.39304471573E+02  0.10775576613E+03  0.10004212182E+03 0.  0.
          5    1    3    3  502    0 -0.39345894112E+02 -0.18660593348E+02  0.94744641601E+02  0.10437889748E+03  0.47000000000E+01 0. -1.
         -5    1    3    3    0  502  0.32750022547E+02  0.22472677884E+02  0.41761254463E+02  0.57824541524E+02  0.47000000000E+01 0.  1.
          5    1    4    4  503    0  0.25255939942E+02 -0.46118042888E+02 -0.28688465889E+02  0.60082064356E+02  0.47000000000E+01 0. -1.
         -5    1    4    4    0  503 -0.18660068376E+02  0.42305958352E+02 -0.10616005684E+02  0.47673701771E+02  0.47000000000E+01 0.  1.
<mgrwt>
<rscale>  0 0.96988758E+02</rscale>
<asrwt>0</asrwt>
<pdfrwt beam="1">  1        2 0.28243125E-01 0.10033177E+03</pdfrwt>
<pdfrwt beam="2">  1       -2 0.13289060E-01 0.10033177E+03</pdfrwt>
<totfact> 0.72719982E+03</totfact>
</mgrwt>
</event>
<event>
 8    1  0.3177960E-004  0.1209057E+03  0.7546771E-02  0.1242006E+00
         -1   -1    0    0    0  501 -0.00000000000E+00  0.00000000000E+00  0.11516507205E+03  0.11516507205E+03  0.00000000000E+00 0.  1.
          1   -1    0    0  501    0  0.00000000000E+00 -0.00000000000E+00 -0.12596050982E+03  0.12596050982E+03  0.00000000000E+00 0. -1.
         23    2    1    2    0    0  0.63938683772E+02 -0.39071376329E+02 -0.32490949322E+01  0.11998457460E+03  0.93653690757E+02 0.  0.
         23    2    1    2    0    0 -0.63938683772E+02  0.39071376329E+02 -0.75463428395E+01  0.12114100727E+03  0.94886609279E+02 0.  0.
          5    1    4    4  502    0 -0.20249509304E+02 -0.12588460295E+02  0.33861057661E+02  0.41679409611E+02  0.47000000000E+01 0. -1.
         -5    1    4    4    0  502 -0.43689174468E+02  0.51659836624E+02 -0.41407400500E+02  0.79461597655E+02  0.47000000000E+01 0.  1.
          5    1    3    3  503    0  0.17446298323E+02  0.30691140988E+02  0.32726297370E+01  0.35764781081E+02  0.47000000000E+01 0. -1.
         -5    1    3    3    0  503  0.46492385448E+02 -0.69762517317E+02 -0.65217246693E+01  0.84219793516E+02  0.47000000000E+01 0.  1.
<mgrwt>
<rscale>  0 0.12066372E+03</rscale>
<asrwt>0</asrwt>
<pdfrwt beam="1">  1        1 0.19378540E-01 0.12090573E+03</pdfrwt>
<pdfrwt beam="2">  1       -1 0.17717703E-01 0.12090573E+03</pdfrwt>
<totfact> 0.61632546E+03</totfact>
</mgrwt>
</event>
<event>
 8    1  0.3177960E-004  0.1281418E+03  0.7546771E-02  0.1230557E+00
          3   -1    0    0  501    0  0.00000000000E+00  0.00000000000E+00  0.34252760243E+03  0.34252760243E+03  0.00000000000E+00 0. -1.
         -3   -1    0    0    0  501 -0.00000000000E+00 -0.00000000000E+00 -0.75090525822E+02  0.75090525822E+02  0.00000000000E+00 0.  1.
         23    2    1    2    0    0 -0.25954201407E+02  0.85235488095E+02  0.25972201673E+03  0.28924423836E+03  0.90928512854E+02 0.  0.
         23    2    1    2    0    0  0.25954201407E+02 -0.85235488095E+02  0.77150598827E+01  0.12837388989E+03  0.92095735277E+02 0.  0.
          5    1    4    4  502    0 -0.29923183214E+02 -0.39094570539E+02  0.22390135386E+02  0.54288032769E+02  0.47000000000E+01 0. -1.
         -5    1    4    4    0  502  0.55877384621E+02 -0.46140917556E+02 -0.14675075503E+02  0.74085857126E+02  0.47000000000E+01 0.  1.
          5    1    3    3  503    0  0.17994027269E+02  0.38128299483E+02  0.18797620718E+03  0.19270364995E+03  0.47000000000E+01 0. -1.
         -5    1    3    3    0  503 -0.43948228676E+02  0.47107188612E+02  0.71745809550E+02  0.96540588411E+02  0.47000000000E+01 0.  1.
<mgrwt>
<rscale>  0 0.12793226E+03</rscale>
<asrwt>0</asrwt>
<pdfrwt beam="1">  1        3 0.52696553E-01 0.12814185E+03</pdfrwt>
<pdfrwt beam="2">  1       -3 0.11552389E-01 0.12814185E+03</pdfrwt>
<totfact> 0.47921247E+02</totfact>
</mgrwt>
</event>
<event>
 8    1  0.3177960E-004  0.1084201E+03  0.7546771E-02  0.1264114E+00
         -2   -1    0    0    0  501 -0.00000000000E+00  0.00000000000E+00  0.63172799268E+02  0.63172799268E+02  0.00000000000E+00 0.  1.
          2   -1    0    0  501    0  0.00000000000E+00 -0.00000000000E+00 -0.47766961389E+03  0.47766961389E+03  0.00000000000E+00 0. -1.
         23    2    1    2    0    0 -0.18977769621E+02  0.53941934124E+02 -0.41975948949E+03  0.43353540311E+03  0.92114215685E+02 0.  0.
         23    2    1    2    0    0  0.18977769621E+02 -0.53941934124E+02  0.52626748731E+01  0.10730701005E+03  0.90648831552E+02 0.  0.
          5    1    3    3  502    0  0.35086022248E+02  0.28434508272E+02 -0.13188842932E+03  0.13948547597E+03  0.47000000000E+01 0. -1.
         -5    1    4    4    0  503 -0.25178638324E+02 -0.32250003378E+02  0.31036473179E+02  0.51569169211E+02  0.47000000000E+01 0.  1.
          5    1    4    4  503    0  0.44156407944E+02 -0.21691930746E+02 -0.25773798306E+02  0.55737840837E+02  0.47000000000E+01 0. -1.
         -5    1    3    3    0  502 -0.54063791869E+02  0.25507425852E+02 -0.28787106017E+03  0.29404992714E+03  0.47000000000E+01 0.  1.
<mgrwt>
<rscale>  0 0.10810820E+03</rscale>
<asrwt>0</asrwt>
<pdfrwt beam="1">  1        2 0.73487633E-01 0.10842009E+03</pdfrwt>
<pdfrwt beam="2">  1       -2 0.97188922E-02 0.10842009E+03</pdfrwt>
<totfact> 0.43475326E+03</totfact>
</mgrwt>
</event>
<event>
 8    1  0.3177960E-004  0.1155114E+03  0.7546771E-02  0.1258147E+00
          2   -1    0    0  501    0  0.00000000000E+00  0.00000000000E+00  0.23510805436E+03  0.23510805436E+03  0.00000000000E+00 0. -1.
         -2   -1    0    0    0  501 -0.00000000000E+00 -0.00000000000E+00 -0.55518626320E+02  0.55518626320E+02  0.00000000000E+00 0.  1.
         23    2    1    2    0    0  0.39219844235E+01  0.42287882147E+02  0.35088716830E+02  0.10563118196E+03  0.90128139975E+02 0.  0.
         23    2    1    2    0    0 -0.39219844235E+01 -0.42287882147E+02  0.14450071121E+03  0.18499549872E+03  0.10742081766E+03 0.  0.
          5    1    4    4  502    0 -0.41417492631E+02 -0.54874489786E+02  0.11957108159E+03  0.13800707184E+03  0.47000000000E+01 0. -1.
         -5    1    4    4    0  502  0.37495508207E+02  0.12586607640E+02  0.24929629622E+02  0.46988426880E+02  0.47000000000E+01 0.  1.
          5    1    3    3  503    0  0.61097832729E+00  0.22361195205E+02  0.65187545328E+02  0.69078957804E+02  0.47000000000E+01 0. -1.
         -5    1    3    3    0  503  0.33110060962E+01  0.19926686941E+02 -0.30098828498E+02  0.36552224156E+02  0.47000000000E+01 0.  1.
<mgrwt>
<rscale>  0 0.11131901E+03</rscale>
<asrwt>0</asrwt>
<pdfrwt beam="1">  1        2 0.36170469E-01 0.11551138E+03</pdfrwt>
<pdfrwt beam="2">  1       -2 0.85413272E-02 0.11551138E+03</pdfrwt>
<totfact> 0.11306450E+04</totfact>
</mgrwt>
</event>
<event>
 8    1  0.3177960E-004  0.1222359E+03  0.7546771E-02  0.1242528E+00
         -1   -1    0    0    0  501 -0.00000000000E+00  0.00000000000E+00  0.12545238707E+03  0.12545238707E+03  0.00000000000E+00 0.  1.
          1   -1    0    0  501    0  0.00000000000E+00 -0.00000000000E+00 -0.11926935823E+03  0.11926935823E+03  0.00000000000E+00 0. -1.
         23    2    1    2    0    0  0.53268040718E+02  0.33627421559E+02  0.33350459959E+02  0.12670383019E+03  0.10475361455E+03 0.  0.
         23    2    1    2    0    0 -0.53268040718E+02 -0.33627421559E+02 -0.27167431118E+02  0.11801791512E+03  0.96030574993E+02 0.  0.
          5    1    3    3  502    0  0.33059623263E+02  0.71391955677E+02  0.17073395683E+02  0.80643293992E+02  0.47000000000E+01 0. -1.
         -5    1    3    3    0  502  0.20208417455E+02 -0.37764534118E+02  0.16277064276E+02  0.46060536195E+02  0.47000000000E+01 0.  1.
          5    1    4    4  503    0 -0.69992787952E+02 -0.59803621054E+01  0.70062625739E+01  0.70752616994E+02  0.47000000000E+01 0. -1.
         -5    1    4    4    0  503  0.16724747235E+02 -0.27647059454E+02 -0.34173693692E+02  0.47265298128E+02  0.47000000000E+01 0.  1.
<mgrwt>
<rscale>  0 0.12034561E+03</rscale>
<asrwt>0</asrwt>
<pdfrwt beam="1">  1        1 0.18349132E-01 0.12223587E+03</pdfrwt>
<pdfrwt beam="2">  1       -1 0.19300367E-01 0.12223587E+03</pdfrwt>
<totfact> 0.57706752E+03</totfact>
</mgrwt>
</event>
<event>
 8    1  0.3177960E-004  0.1136632E+03  0.7546771E-02  0.1257369E+00
         -4   -1    0    0    0  501 -0.00000000000E+00  0.00000000000E+00  0.24969200695E+02  0.24969200695E+02  0.00000000000E+00 0.  1.
          4   -1    0    0  501    0  0.00000000000E+00 -0.00000000000E+00 -0.61380772804E+03  0.61380772804E+03  0.00000000000E+00 0. -1.
         23    2    1    2    0    0  0.49075512016E+01  0.52310535892E+02 -0.13969072060E+03  0.17547025653E+03  0.92281294318E+02 0.  0.
         23    2    1    2    0    0 -0.49075512016E+01 -0.52310535892E+02 -0.44914780675E+03  0.46330667221E+03  0.10079109078E+03 0.  0.
          5    1    4    4  502    0  0.22579651479E+01  0.28107288133E+02 -0.69669527052E+02  0.75306381220E+02  0.47000000000E+01 0.  1.
         -5    1    3    3    0  503  0.30818202144E+02 -0.36949974546E+01 -0.12065817300E+02  0.33631659738E+02  0.47000000000E+01 0.  1.
          5    1    3    3  503    0 -0.25910650943E+02  0.56005533347E+02 -0.12762490330E+03  0.14183859679E+03  0.47000000000E+01 0. -1.
         -5    1    4    4    0  502 -0.71655163495E+01 -0.80417824025E+02 -0.37947827970E+03  0.38800029099E+03  0.47000000000E+01 0. -1.
<mgrwt>
<rscale>  0 0.11174697E+03</rscale>
<asrwt>0</asrwt>
<pdfrwt beam="1">  1        4 0.94431944E-01 0.11366319E+03</pdfrwt>
<pdfrwt beam="2">  1       -4 0.38414161E-02 0.11366319E+03</pdfrwt>
<totfact> 0.57029028E+02</totfact>
</mgrwt>
</event>
<event>
 8    1  0.3177960E-004  0.1569104E+03  0.7546771E-02  0.1192534E+00
         -3   -1    0    0    0  501 -0.00000000000E+00  0.00000000000E+00  0.43719653933E+03  0.43719653933E+03  0.00000000000E+00 0.  1.
          3   -1    0    0  501    0  0.00000000000E+00 -0.00000000000E+00 -0.80139407788E+02  0.80139407788E+02  0.00000000000E+00 0. -1.
         23    2    1    2    0    0 -0.12606073835E+03  0.22285327192E+02  0.32108664568E+03  0.35737587103E+03  0.90735514558E+02 0.  0.
         23    2    1    2    0    0  0.12606073835E+03 -0.22285327192E+02  0.35970485865E+02  0.15996007609E+03  0.88912341824E+02 0.  0.
          5    1    4    4  502    0  0.95510976070E+02  0.28991672446E+01 -0.13286902317E+02  0.96588733783E+02  0.47000000000E+01 0. -1.
         -5    1    4    4    0  502  0.30549762276E+02 -0.25184494437E+02  0.49257388183E+02  0.63371342307E+02  0.47000000000E+01 0.  1.
          5    1    3    3  503    0 -0.29710641503E+01 -0.23407753680E+02  0.33963008904E+02  0.41621222091E+02  0.47000000000E+01 0. -1.
         -5    1    3    3    0  503 -0.12308967420E+03  0.45693080872E+02  0.28712363678E+03  0.31575464894E+03  0.47000000000E+01 0.  1.
<mgrwt>
<rscale>  0 0.15664797E+03</rscale>
<asrwt>0</asrwt>
<pdfrwt beam="1">  1        3 0.12329140E-01 0.15691042E+03</pdfrwt>
<pdfrwt beam="2">  1       -3 0.67261005E-01 0.15691042E+03</pdfrwt>
<totfact> 0.26694045E+02</totfact>
</mgrwt>
</event>
<event>
 8    1  0.3177960E-004  0.9685690E+02  0.7546771E-02  0.1288297E+00
          2   -1    0    0  501    0  0.00000000000E+00  0.00000000000E+00  0.39217437767E+03  0.39217437767E+03  0.00000000000E+00 0. -1.
         -2   -1    0    0    0  501 -0.00000000000E+00 -0.00000000000E+00 -0.23373506272E+02  0.23373506272E+02  0.00000000000E+00 0.  1.
         23    2    1    2    0    0  0.25006845815E+02  0.59886607915E+01  0.17935015855E+03  0.20277375168E+03  0.91046738564E+02 0.  0.
         23    2    1    2    0    0 -0.25006845815E+02 -0.59886607915E+01  0.18945071285E+03  0.21277413226E+03  0.93381220625E+02 0.  0.
          5    1    3    3  502    0  0.69474464540E+00  0.38186511778E+02  0.14358927588E+03  0.14865618890E+03  0.47000000000E+01 0. -1.
         -5    1    4    4    0  503 -0.49405147432E+02 -0.32673544707E+02  0.10230633955E+03  0.11830936661E+03  0.47000000000E+01 0.  1.
          5    1    4    4  503    0  0.24398301617E+02  0.26684883916E+02  0.87144373299E+02  0.94464765649E+02  0.47000000000E+01 0. -1.
         -5    1    3    3    0  502  0.24312101169E+02 -0.32197850987E+02  0.35760882667E+02  0.54117562774E+02  0.47000000000E+01 0.  1.
<mgrwt>
<rscale>  0 0.96289767E+02</rscale>
<asrwt>0</asrwt>
<pdfrwt beam="1">  1        2 0.60334515E-01 0.96856898E+02</pdfrwt>
<pdfrwt beam="2">  1       -2 0.35959243E-02 0.96856898E+02</pdfrwt>
<totfact> 0.23784009E+04</totfact>
</mgrwt>
</event>
<event>
 8    1  0.3177960E-004  0.9892437E+02  0.7546771E-02  0.1283262E+00
          2   -1    0    0  501    0  0.00000000000E+00  0.00000000000E+00  0.10933267418E+02  0.10933267418E+02  0.00000000000E+00 0. -1.
         -2   -1    0    0    0  501 -0.00000000000E+00 -0.00000000000E+00 -0.92668283790E+03  0.92668283790E+03  0.00000000000E+00 0.  1.
         23    2    1    2    0    0 -0.82066079572E+01  0.30704091562E+02 -0.35954181312E+03  0.37290259534E+03  0.93679990260E+02 0.  0.
         23    2    1    2    0    0  0.82066079572E+01 -0.30704091562E+02 -0.55620775736E+03  0.56471350997E+03  0.92326536549E+02 0.  0.
          5    1    3    3  502    0 -0.34037763313E+02  0.31170319224E+02 -0.33053660064E+03  0.33377641093E+03  0.47000000000E+01 0. -1.
         -5    1    4    4    0  503 -0.36962527722E+02 -0.35999790087E+02 -0.30895983660E+03  0.31327381629E+03  0.47000000000E+01 0.  1.
          5    1    4    4  503    0  0.45169135680E+02  0.52956985246E+01 -0.24724792076E+03  0.25143969368E+03  0.47000000000E+01 0. -1.
         -5    1    3    3    0  502  0.25831155356E+02 -0.46622766182E+00 -0.29005212487E+02  0.39126184412E+02  0.47000000000E+01 0.  1.
<mgrwt>
<rscale>  0 0.98602616E+02</rscale>
<asrwt>0</asrwt>
<pdfrwt beam="1">  1        2 0.16820418E-02 0.98924366E+02</pdfrwt>
<pdfrwt beam="2">  1       -2 0.14256654E+00 0.98924366E+02</pdfrwt>
<totfact> 0.23393732E+03</totfact>
</mgrwt>
</event>
<event>
 8    1  0.3177960E-004  0.1105308E+03  0.7546771E-02  0.1260026E+00
          1   -1    0    0  501    0  0.00000000000E+00  0.00000000000E+00  0.15802906251E+03  0.15802906251E+03  0.00000000000E+00 0. -1.
         -1   -1    0    0    0  501 -0.00000000000E+00 -0.00000000000E+00 -0.82394554244E+02  0.82394554244E+02  0.00000000000E+00 0.  1.
         23    2    1    2    0    0 -0.60211897993E+02  0.24065127668E+02  0.69406051878E+02  0.12971743279E+03  0.88344831787E+02 0.  0.
         23    2    1    2    0    0  0.60211897993E+02 -0.24065127668E+02  0.62284563891E+01  0.11070618396E+03  0.89512359307E+02 0.  0.
          5    1    3    3  502    0 -0.92871381142E+00  0.39289503899E+02  0.53050503739E+02  0.66188923340E+02  0.47000000000E+01 0. -1.
         -5    1    3    3    0  502 -0.59283184182E+02 -0.15224376231E+02  0.16355548139E+02  0.63528509453E+02  0.47000000000E+01 0.  1.
          5    1    4    4  503    0  0.73341323079E+02  0.95148410402E+01  0.23904710681E+01  0.74143686333E+02  0.47000000000E+01 0. -1.
         -5    1    4    4    0  503 -0.13129425086E+02 -0.33579968709E+02  0.38379853210E+01  0.36562497629E+02  0.47000000000E+01 0.  1.
<mgrwt>
<rscale>  0 0.11029423E+03</rscale>
<asrwt>0</asrwt>
<pdfrwt beam="1">  1        1 0.24312163E-01 0.11053084E+03</pdfrwt>
<pdfrwt beam="2">  1       -1 0.12676085E-01 0.11053084E+03</pdfrwt>
<totfact> 0.77608205E+03</totfact>
</mgrwt>
</event>
<event>
 8    1  0.3177960E-004  0.1710241E+03  0.7546771E-02  0.1176833E+00
         -2   -1    0    0    0  501 -0.00000000000E+00  0.00000000000E+00  0.19270317472E+02  0.19270317472E+02  0.00000000000E+00 0.  1.
          2   -1    0    0  501    0  0.00000000000E+00 -0.00000000000E+00 -0.15161930058E+04  0.15161930058E+04  0.00000000000E+00 0. -1.
         23    2    1    2    0    0 -0.95342458405E+02  0.10840559263E+03 -0.74375519769E+03  0.76312240182E+03  0.91334819121E+02 0.  0.
         23    2    1    2    0    0  0.95342458405E+02 -0.10840559263E+03 -0.75316749065E+03  0.77234092146E+03  0.91691183337E+02 0.  0.
          5    1    4    4  502    0  0.66366694683E+02 -0.72244723342E+02 -0.66878304652E+03  0.67595613136E+03  0.47000000000E+01 0. -1.
         -5    1    4    4    0  502  0.28975763722E+02 -0.36160869292E+02 -0.84384444134E+02  0.96384790102E+02  0.47000000000E+01 0.  1.
          5    1    3    3  503    0 -0.20416019661E+02 -0.12019074979E+02 -0.57824426659E+02  0.62665990302E+02  0.47000000000E+01 0. -1.
         -5    1    3    3    0  503 -0.74926438744E+02  0.12042466761E+03 -0.68593077103E+03  0.70045641152E+03  0.47000000000E+01 0.  1.
<mgrwt>
<rscale>  0 0.17097634E+03</rscale>
<asrwt>0</asrwt>
<pdfrwt beam="1">  1        2 0.23326044E+00 0.17102406E+03</pdfrwt>
<pdfrwt beam="2">  1       -2 0.29646645E-02 0.17102406E+03</pdfrwt>
<totfact> 0.57089419E+03</totfact>
</mgrwt>
</event>
<event>
 8    1  0.3177960E-004  0.1520153E+03  0.7546771E-02  0.1198469E+00
          1   -1    0    0  501    0  0.00000000000E+00  0.00000000000E+00  0.36458927090E+03  0.36458927090E+03  0.00000000000E+00 0. -1.
         -1   -1    0    0    0  501 -0.00000000000E+00 -0.00000000000E+00 -0.80639867390E+02  0.80639867390E+02  0.00000000000E+00 0.  1.
         23    2    1    2    0    0  0.11711160052E+03  0.25673142188E+02  0.24732490802E+03  0.29030718432E+03  0.93458086515E+02 0.  0.
         23    2    1    2    0    0 -0.11711160052E+03 -0.25673142188E+02  0.36624495488E+02  0.15492195397E+03  0.91023189046E+02 0.  0.
          5    1    3    3  502    0  0.69543187518E+02 -0.14246488123E+02  0.19944018775E+03  0.21174913423E+03  0.47000000000E+01 0. -1.
         -5    1    3    3    0  502  0.47568413005E+02  0.39919630311E+02  0.47884720265E+02  0.78558050096E+02  0.47000000000E+01 0.  1.
          5    1    4    4  503    0 -0.45090026098E+02  0.25567428725E+02  0.41064636047E+02  0.66296290988E+02  0.47000000000E+01 0. -1.
         -5    1    4    4    0  503 -0.72021574426E+02 -0.51240570912E+02 -0.44401405588E+01  0.88625662978E+02  0.47000000000E+01 0.  1.
<mgrwt>
<rscale>  0 0.15164275E+03</rscale>
<asrwt>0</asrwt>
<pdfrwt beam="1">  1        1 0.56090656E-01 0.15201530E+03</pdfrwt>
<pdfrwt beam="2">  1       -1 0.12406134E-01 0.15201530E+03</pdfrwt>
<totfact> 0.28976286E+03</totfact>
</mgrwt>
</event>
<event>
 8    1  0.3177960E-004  0.1024729E+03  0.7546771E-02  0.1275981E+00
         -3   -1    0    0    0  501 -0.00000000000E+00  0.00000000000E+00  0.17193536668E+03  0.17193536668E+03  0.00000000000E+00 0.  1.
          3   -1    0    0  501    0  0.00000000000E+00 -0.00000000000E+00 -0.74052460413E+02  0.74052460413E+02  0.00000000000E+00 0. -1.
         23    2    1    2    0    0 -0.18872535369E+01 -0.46003655142E+02 -0.46594050480E+01  0.10102017100E+03  0.89796808859E+02 0.  0.
         23    2    1    2    0    0  0.18872535369E+01  0.46003655142E+02  0.10254231131E+03  0.14496765609E+03  0.91546696775E+02 0.  0.
          5    1    4    4  502    0 -0.29761337970E+02  0.42901732410E+02  0.19523243768E+02  0.55942317871E+02  0.47000000000E+01 0. -1.
         -5    1    3    3    0  503  0.24820988661E+02  0.15927309924E+02 -0.13615776092E+02  0.32821335105E+02  0.47000000000E+01 0.  1.
          5    1    3    3  503    0 -0.26708242198E+02 -0.61930965066E+02  0.89563710436E+01  0.68198835896E+02  0.47000000000E+01 0. -1.
         -5    1    4    4    0  502  0.31648591507E+02  0.31019227324E+01  0.83019067544E+02  0.89025338218E+02  0.47000000000E+01 0.  1.
<mgrwt>
<rscale>  0 0.10208059E+03</rscale>
<asrwt>0</asrwt>
<pdfrwt beam="1">  1        3 0.11392686E-01 0.10247290E+03</pdfrwt>
<pdfrwt beam="2">  1       -3 0.26451595E-01 0.10247290E+03</pdfrwt>
<totfact> 0.17522818E+03</totfact>
</mgrwt>
</event>
<event>
 8    1  0.3177960E-004  0.1174193E+03  0.7546771E-02  0.1247429E+00
         -1   -1    0    0    0  501 -0.00000000000E+00  0.00000000000E+00  0.10417306697E+03  0.10417306697E+03  0.00000000000E+00 0.  1.
          1   -1    0    0  501    0  0.00000000000E+00 -0.00000000000E+00 -0.13237202666E+03  0.13237202666E+03  0.00000000000E+00 0. -1.
         23    2    1    2    0    0  0.26891778517E+02  0.68649224651E+02 -0.16531342927E+02  0.11854754064E+03  0.91347415379E+02 0.  0.
         23    2    1    2    0    0 -0.26891778517E+02 -0.68649224651E+02 -0.11667616760E+02  0.11799755298E+03  0.91386024273E+02 0.  0.
          5    1    3    3  502    0  0.33025977588E+01  0.52630018958E+02 -0.51038166310E+02  0.73537816583E+02  0.47000000000E+01 0. -1.
         -5    1    4    4    0  503  0.30733043246E+01  0.21532530254E+02 -0.30796318432E+01  0.22464843443E+02  0.47000000000E+01 0.  1.
          5    1    4    4  503    0 -0.29965082841E+02 -0.90181754905E+02 -0.85879849168E+01  0.95532709541E+02  0.47000000000E+01 0. -1.
         -5    1    3    3    0  502  0.23589180758E+02  0.16019205692E+02  0.34506823384E+02  0.45009724059E+02  0.47000000000E+01 0.  1.
<mgrwt>
<rscale>  0 0.11741178E+03</rscale>
<asrwt>0</asrwt>
<pdfrwt beam="1">  1        1 0.20364927E-01 0.11741929E+03</pdfrwt>
<pdfrwt beam="2">  1       -1 0.16026626E-01 0.11741929E+03</pdfrwt>
<totfact> 0.67646139E+03</totfact>
</mgrwt>
</event>
<event>
 8    1  0.3177960E-004  0.1661704E+03  0.7546771E-02  0.1181905E+00
          3   -1    0    0  501    0  0.00000000000E+00  0.00000000000E+00  0.32311634485E+03  0.32311634485E+03  0.00000000000E+00 0. -1.
         -3   -1    0    0    0  501 -0.00000000000E+00 -0.00000000000E+00 -0.87694459759E+02  0.87694459759E+02  0.00000000000E+00 0.  1.
         23    2    1    2    0    0 -0.86692350594E+02  0.10900099135E+03  0.15057529524E+03  0.22424437012E+03  0.90641261163E+02 0.  0.
         23    2    1    2    0    0  0.86692350594E+02 -0.10900099135E+03  0.84846589854E+02  0.18656643449E+03  0.90616283867E+02 0.  0.
          5    1    4    4  502    0  0.55257306595E+01 -0.20516251498E+02  0.60047604526E+02  0.63869046369E+02  0.47000000000E+01 0. -1.
         -5    1    3    3    0  503 -0.22185559067E+02  0.86409480177E+02  0.11901798142E+03  0.14881588355E+03  0.47000000000E+01 0.  1.
          5    1    3    3  503    0 -0.64506791527E+02  0.22591511177E+02  0.31557313821E+02  0.75428486568E+02  0.47000000000E+01 0. -1.
         -5    1    4    4    0  502  0.81166619935E+02 -0.88484739857E+02  0.24798985328E+02  0.12269738812E+03  0.47000000000E+01 0.  1.
<mgrwt>
<rscale>  0 0.16616704E+03</rscale>
<asrwt>0</asrwt>
<pdfrwt beam="1">  1        3 0.49710206E-01 0.16617045E+03</pdfrwt>
<pdfrwt beam="2">  1       -3 0.13491456E-01 0.16617045E+03</pdfrwt>
<totfact> 0.42974067E+02</totfact>
</mgrwt>
</event>
<event>
 8    1  0.3177960E-004  0.1013450E+03  0.7546771E-02  0.1277845E+00
         -1   -1    0    0    0  501 -0.00000000000E+00  0.00000000000E+00  0.83229377386E+02  0.83229377386E+02  0.00000000000E+00 0.  1.
          1   -1    0    0  501    0  0.00000000000E+00 -0.00000000000E+00 -0.26965211445E+03  0.26965211445E+03  0.00000000000E+00 0. -1.
         23    2    1    2    0    0  0.42693421860E+02 -0.13417109556E+02  0.37237649028E+02  0.10733153306E+03  0.90170218949E+02 0.  0.
         23    2    1    2    0    0 -0.42693421860E+02  0.13417109556E+02 -0.22366038609E+03  0.24554995877E+03  0.90928910958E+02 0.  0.
          5    1    3    3  502    0  0.33219744848E+02  0.16165384043E+02 -0.19826800434E+02  0.42190794073E+02  0.47000000000E+01 0. -1.
         -5    1    3    3    0  502  0.94736770118E+01 -0.29582493599E+02  0.57064449462E+02  0.65140738989E+02  0.47000000000E+01 0.  1.
          5    1    4    4  503    0 -0.46755420363E+02 -0.30758393569E+02 -0.11156176825E+03  0.12490102579E+03  0.47000000000E+01 0. -1.
         -5    1    4    4    0  503  0.40619985027E+01  0.44175503125E+02 -0.11209861784E+03  0.12064893298E+03  0.47000000000E+01 0.  1.
<mgrwt>
<rscale>  0 0.10117456E+03</rscale>
<asrwt>0</asrwt>
<pdfrwt beam="1">  1        1 0.41484940E-01 0.10134502E+03</pdfrwt>
<pdfrwt beam="2">  1       -1 0.12804520E-01 0.10134502E+03</pdfrwt>
<totfact> 0.39292087E+03</totfact>
</mgrwt>
</event>
<event>
 8    1  0.3177960E-004  0.9627714E+02  0.7546771E-02  0.1288976E+00
          1   -1    0    0  501    0  0.00000000000E+00  0.00000000000E+00  0.73735747584E+03  0.73735747584E+03  0.00000000000E+00 0. -1.
         -1   -1    0    0    0  501 -0.00000000000E+00 -0.00000000000E+00 -0.14675815584E+02  0.14675815584E+02  0.00000000000E+00 0.  1.
         23    2    1    2    0    0 -0.29116790624E+02  0.97580054997E+01  0.21575045203E+03  0.23625737242E+03  0.91248464669E+02 0.  0.
         23    2    1    2    0    0  0.29116790624E+02 -0.97580054997E+01  0.50693120822E+03  0.51577591900E+03  0.90014124346E+02 0.  0.
          5    1    3    3  502    0 -0.46477093392E+02 -0.23322902766E+02  0.16499842410E+03  0.17306255505E+03  0.47000000000E+01 0. -1.
         -5    1    4    4    0  503 -0.31011770640E+02  0.55453385008E+01  0.13749151990E+03  0.14113287619E+03  0.47000000000E+01 0.  1.
          5    1    4    4  503    0  0.60128561264E+02 -0.15303344001E+02  0.36943968833E+03  0.37464304281E+03  0.47000000000E+01 0. -1.
         -5    1    3    3    0  502  0.17360302768E+02  0.33080908266E+02  0.50752027927E+02  0.63194817371E+02  0.47000000000E+01 0.  1.
<mgrwt>
<rscale>  0 0.95983540E+02</rscale>
<asrwt>0</asrwt>
<pdfrwt beam="1">  1        1 0.11343958E+00 0.96277144E+02</pdfrwt>
<pdfrwt beam="2">  1       -1 0.22578184E-02 0.96277144E+02</pdfrwt>
<totfact> 0.13893526E+04</totfact>
</mgrwt>
</event>
<event>
 8    1  0.3177960E-004  0.2306794E+03  0.7546771E-02  0.1126175E+00
          2   -1    0    0  501    0  0.00000000000E+00  0.00000000000E+00  0.35408646548E+03  0.35408646548E+03  0.00000000000E+00 0. -1.
         -2   -1    0    0    0  501 -0.00000000000E+00 -0.00000000000E+00 -0.16228728185E+03  0.16228728185E+03  0.00000000000E+00 0.  1.
         23    2    1    2    0    0 -0.21075697846E+03  0.25274915540E+02  0.25525723250E+02  0.23201508448E+03  0.90122758243E+02 0.  0.
         23    2    1    2    0    0  0.21075697846E+03 -0.25274915540E+02  0.16627346039E+03  0.28435866286E+03  0.90308693869E+02 0.  0.
          5    1    4    4  502    0  0.89046799821E+02 -0.24583412023E+02  0.12551774497E+03  0.15591815484E+03  0.47000000000E+01 0. -1.
         -5    1    4    4    0  502  0.12171017864E+03 -0.69150351661E+00  0.40755715412E+02  0.12844050802E+03  0.47000000000E+01 0.  1.
          5    1    3    3  503    0 -0.70707109050E+02 -0.35819195870E+01  0.50089481917E+02  0.86852585551E+02  0.47000000000E+01 0. -1.
         -5    1    3    3    0  503 -0.14004986941E+03  0.28856835127E+02 -0.24563758668E+02  0.14516249893E+03  0.47000000000E+01 0.  1.
<mgrwt>
<rscale>  0 0.23066122E+03</rscale>
<asrwt>0</asrwt>
<pdfrwt beam="1">  1        2 0.54474841E-01 0.23067940E+03</pdfrwt>
<pdfrwt beam="2">  1       -2 0.24967274E-01 0.23067940E+03</pdfrwt>
<totfact> 0.12969782E+03</totfact>
</mgrwt>
</event>
<event>
 8    1  0.3177960E-004  0.9571752E+02  0.7546771E-02  0.1291770E+00
         -2   -1    0    0    0  501 -0.00000000000E+00  0.00000000000E+00  0.87655380344E+02  0.87655380344E+02  0.00000000000E+00 0.  1.
          2   -1    0    0  501    0  0.00000000000E+00 -0.00000000000E+00 -0.10595223002E+03  0.10595223002E+03  0.00000000000E+00 0. -1.
         23    2    1    2    0    0  0.26149319624E+01 -0.14344209214E+02  0.12938287259E+02  0.96588005683E+02  0.94600472290E+02 0.  0.
         23    2    1    2    0    0 -0.26149319624E+01  0.14344209214E+02 -0.31235136936E+02  0.97019604684E+02  0.90689446500E+02 0.  0.
          5    1    3    3  502    0 -0.32490181508E+02  0.92242836226E+01 -0.22804954820E+02  0.41022618969E+02  0.47000000000E+01 0. -1.
         -5    1    3    3    0  502  0.35105113470E+02 -0.23568492836E+02  0.35743242078E+02  0.55565386713E+02  0.47000000000E+01 0.  1.
          5    1    4    4  503    0 -0.19944983497E+02 -0.28993989901E+02 -0.35131076020E+02  0.49947335458E+02  0.47000000000E+01 0. -1.
         -5    1    4    4    0  503  0.17330051534E+02  0.43338199115E+02  0.38959390833E+01  0.47072269226E+02  0.47000000000E+01 0.  1.
<mgrwt>
<rscale>  0 0.94736683E+02</rscale>
<asrwt>0</asrwt>
<pdfrwt beam="1">  1        2 0.16300343E-01 0.95717520E+02</pdfrwt>
<pdfrwt beam="2">  1       -2 0.13485443E-01 0.95717520E+02</pdfrwt>
<totfact> 0.13029499E+04</totfact>
</mgrwt>
</event>
<event>
 8    1  0.3177960E-004  0.1255343E+03  0.7546771E-02  0.1248349E+00
          2   -1    0    0  501    0  0.00000000000E+00  0.00000000000E+00  0.52736911187E+03  0.52736911187E+03  0.00000000000E+00 0. -1.
         -2   -1    0    0    0  501 -0.00000000000E+00 -0.00000000000E+00 -0.80419215679E+02  0.80419215679E+02  0.00000000000E+00 0.  1.
         23    2    1    2    0    0  0.18729695789E+02 -0.16865346069E+02 -0.41812808168E+02  0.10316189550E+03  0.90878074113E+02 0.  0.
         23    2    1    2    0    0 -0.18729695789E+02  0.16865346069E+02  0.48876270436E+03  0.50462643205E+03  0.12297810108E+03 0.  0.
          5    1    3    3  502    0 -0.23860893555E+02 -0.39017041588E+02 -0.18075605439E+02  0.49401308560E+02  0.47000000000E+01 0. -1.
         -5    1    4    4    0  503  0.49885327751E+02  0.12891092332E+02  0.28148598627E+03  0.28620128695E+03  0.47000000000E+01 0.  1.
          5    1    4    4  503    0 -0.68615023539E+02  0.39742537366E+01  0.20727671809E+03  0.21842514510E+03  0.47000000000E+01 0. -1.
         -5    1    3    3    0  502  0.42590589343E+02  0.22151695519E+02 -0.23737202729E+02  0.53760586943E+02  0.47000000000E+01 0.  1.
<mgrwt>
<rscale>  0 0.11687168E+03</rscale>
<asrwt>0</asrwt>
<pdfrwt beam="1">  1        2 0.81133707E-01 0.12553428E+03</pdfrwt>
<pdfrwt beam="2">  1       -2 0.12372187E-01 0.12553428E+03</pdfrwt>
<totfact> 0.26836277E+03</totfact>
</mgrwt>
</event>
<event>
 8    1  0.3177960E-004  0.1037704E+03  0.7546771E-02  0.1273424E+00
          2   -1    0    0  501    0  0.00000000000E+00  0.00000000000E+00  0.85429196433E+02  0.85429196433E+02  0.00000000000E+00 0. -1.
         -2   -1    0    0    0  501 -0.00000000000E+00 -0.00000000000E+00 -0.14405456598E+03  0.14405456598E+03  0.00000000000E+00 0.  1.
         23    2    1    2    0    0  0.36984058495E+02 -0.29550419223E+02  0.13726712760E+02  0.10298033941E+03  0.90418359877E+02 0.  0.
         23    2    1    2    0    0 -0.36984058495E+02  0.29550419223E+02 -0.72352082309E+02  0.12650342300E+03  0.92343079645E+02 0.  0.
          5    1    3    3  502    0  0.59461462231E+02 -0.14844930350E+02  0.32831422863E+02  0.69685219200E+02  0.47000000000E+01 0. -1.
         -5    1    4    4    0  503 -0.36608110262E+02 -0.18353738725E+02 -0.20112738494E+01  0.41269222002E+02  0.47000000000E+01 0.  1.
          5    1    4    4  503    0 -0.37594823318E+00  0.47904157948E+02 -0.70340808460E+02  0.85234201003E+02  0.47000000000E+01 0. -1.
         -5    1    3    3    0  502 -0.22477403736E+02 -0.14705488873E+02 -0.19104710103E+02  0.33295120210E+02  0.47000000000E+01 0.  1.
<mgrwt>
<rscale>  0 0.10334047E+03</rscale>
<asrwt>0</asrwt>
<pdfrwt beam="1">  1        2 0.13142953E-01 0.10377038E+03</pdfrwt>
<pdfrwt beam="2">  1       -2 0.22162241E-01 0.10377038E+03</pdfrwt>
<totfact> 0.74278301E+03</totfact>
</mgrwt>
</event>
<event>
 8    1  0.3177960E-004  0.1337871E+03  0.7546771E-02  0.1222621E+00
         -1   -1    0    0    0  501 -0.00000000000E+00  0.00000000000E+00  0.16838002141E+03  0.16838002141E+03  0.00000000000E+00 0.  1.
          1   -1    0    0  501    0  0.00000000000E+00 -0.00000000000E+00 -0.15571102556E+03  0.15571102556E+03  0.00000000000E+00 0. -1.
         23    2    1    2    0    0 -0.80145886824E+02 -0.51092471169E+02 -0.86344400492E+02  0.15764992764E+03  0.91456767943E+02 0.  0.
         23    2    1    2    0    0  0.80145886824E+02  0.51092471169E+02  0.99013396341E+02  0.16644111933E+03  0.94155136686E+02 0.  0.
          5    1    4    4  502    0  0.13358358019E+02  0.32497819260E+02 -0.10296951046E+02  0.36914376420E+02  0.47000000000E+01 0. -1.
         -5    1    4    4    0  502  0.66787528805E+02  0.18594651910E+02  0.10931034739E+03  0.12952674291E+03  0.47000000000E+01 0.  1.
          5    1    3    3  503    0 -0.52564251997E+02  0.12748737610E+02 -0.65127342466E+02  0.84789100923E+02  0.47000000000E+01 0. -1.
         -5    1    3    3    0  503 -0.27581634826E+02 -0.63841208779E+02 -0.21217058026E+02  0.72860826714E+02  0.47000000000E+01 0.  1.
<mgrwt>
<rscale>  0 0.13331334E+03</rscale>
<asrwt>0</asrwt>
<pdfrwt beam="1">  1        1 0.23955542E-01 0.13378712E+03</pdfrwt>
<pdfrwt beam="2">  1       -1 0.25904619E-01 0.13378712E+03</pdfrwt>
<totfact> 0.25689837E+03</totfact>
</mgrwt>
</event>
<event>
 8    1  0.3177960E-004  0.9869212E+02  0.7546771E-02  0.1283131E+00
         -1   -1    0    0    0  501 -0.00000000000E+00  0.00000000000E+00  0.92576027249E+01  0.92576027249E+01  0.00000000000E+00 0.  1.
          1   -1    0    0  501    0  0.00000000000E+00 -0.00000000000E+00 -0.10509696143E+04  0.10509696143E+04  0.00000000000E+00 0. -1.
         23    2    1    2    0    0 -0.15471136436E+02 -0.29650342675E+02 -0.51671742576E+03  0.52603675579E+03  0.92732256942E+02 0.  0.
         23    2    1    2    0    0  0.15471136436E+02  0.29650342675E+02 -0.52499458581E+03  0.53419046123E+03  0.92852758994E+02 0.  0.
          5    1    4    4  502    0 -0.27330569183E+02  0.32174074140E+02 -0.39387244532E+03  0.39615618668E+03  0.47000000000E+01 0. -1.
         -5    1    3    3    0  503  0.19750873446E+02  0.25608725232E+02 -0.18779605360E+03  0.19061834004E+03  0.47000000000E+01 0.  1.
          5    1    3    3  503    0 -0.35222009882E+02 -0.55259067907E+02 -0.32892137216E+03  0.33541841576E+03  0.47000000000E+01 0. -1.
         -5    1    4    4    0  502  0.42801705619E+02 -0.25237314653E+01 -0.13112214049E+03  0.13803427455E+03  0.47000000000E+01 0.  1.
<mgrwt>
<rscale>  0 0.98663763E+02</rscale>
<asrwt>0</asrwt>
<pdfrwt beam="1">  1        1 0.16168756E+00 0.98692116E+02</pdfrwt>
<pdfrwt beam="2">  1       -1 0.14242472E-02 0.98692116E+02</pdfrwt>
<totfact> 0.15450290E+04</totfact>
</mgrwt>
</event>
<event>
 8    1  0.3177960E-004  0.1652049E+03  0.7546771E-02  0.1189950E+00
         -1   -1    0    0    0  501 -0.00000000000E+00  0.00000000000E+00  0.50977823321E+03  0.50977823321E+03  0.00000000000E+00 0.  1.
          1   -1    0    0  501    0  0.00000000000E+00 -0.00000000000E+00 -0.64599956789E+02  0.64599956789E+02  0.00000000000E+00 0. -1.
         23    2    1    2    0    0  0.35209060204E+02  0.10243936394E+03  0.38831512537E+03  0.42199680898E+03  0.12473639804E+03 0.  0.
         23    2    1    2    0    0 -0.35209060204E+02 -0.10243936394E+03  0.56863151052E+02  0.15238138102E+03  0.90846937918E+02 0.  0.
          5    1    4    4  502    0 -0.62030557358E+02 -0.78685092978E+02  0.23108363150E+02  0.10293308676E+03  0.47000000000E+01 0. -1.
         -5    1    4    4    0  502  0.26821497154E+02 -0.23754270959E+02  0.33754787902E+02  0.49448294254E+02  0.47000000000E+01 0.  1.
          5    1    3    3  503    0 -0.44766941014E+02  0.57127859581E+02  0.18670445608E+03  0.20037044510E+03  0.47000000000E+01 0.  1.
         -5    1    3    3    0  503  0.79976001219E+02  0.45311504356E+02  0.20161066929E+03  0.22162636388E+03  0.47000000000E+01 0.  1.
<mgrwt>
<rscale>  0 0.15889485E+03</rscale>
<asrwt>0</asrwt>
<pdfrwt beam="1">  1        1 0.99384552E-02 0.16520493E+03</pdfrwt>
<pdfrwt beam="2">  1       -1 0.78427418E-01 0.16520493E+03</pdfrwt>
<totfact> 0.10877681E+03</totfact>
</mgrwt>
</event>
<event>
 8    1  0.3177960E-004  0.1079384E+03  0.7546771E-02  0.1266396E+00
          1   -1    0    0  501    0  0.00000000000E+00  0.00000000000E+00  0.27507374001E+03  0.27507374001E+03  0.00000000000E+00 0. -1.
         -1   -1    0    0    0  501 -0.00000000000E+00 -0.00000000000E+00 -0.14508605679E+03  0.14508605679E+03  0.00000000000E+00 0.  1.
         23    2    1    2    0    0  0.86951514197E+01  0.51200966560E+02 -0.11277153389E+03  0.15610291743E+03  0.94623238897E+02 0.  0.
         23    2    1    2    0    0 -0.86951514197E+01 -0.51200966560E+02  0.24275921711E+03  0.26405687937E+03  0.89982517268E+02 0.  0.
          5    1    4    4  502    0 -0.40565973275E+02 -0.56884103448E+02  0.18281864036E+03  0.19577064304E+03  0.47000000000E+01 0. -1.
         -5    1    3    3    0  503  0.67450220034E+01  0.19487664188E+02 -0.12109075955E+03  0.12292406772E+03  0.47000000000E+01 0.  1.
          5    1    3    3  503    0  0.19501294163E+01  0.31713302372E+02  0.83192256626E+01  0.33178849704E+02  0.47000000000E+01 0. -1.
         -5    1    4    4    0  502  0.31870821855E+02  0.56831368884E+01  0.59940576748E+02  0.68286236326E+02  0.47000000000E+01 0.  1.
<mgrwt>
<rscale>  0 0.10691283E+03</rscale>
<asrwt>0</asrwt>
<pdfrwt beam="1">  1        1 0.42319037E-01 0.10793842E+03</pdfrwt>
<pdfrwt beam="2">  1       -1 0.22320932E-01 0.10793842E+03</pdfrwt>
<totfact> 0.16050178E+03</totfact>
</mgrwt>
</event>
<event>
 8    1  0.3177960E-004  0.1165610E+03  0.7546771E-02  0.1249788E+00
          1   -1    0    0  501    0  0.00000000000E+00  0.00000000000E+00  0.25802660122E+02  0.25802660122E+02  0.00000000000E+00 0. -1.
         -1   -1    0    0    0  501 -0.00000000000E+00 -0.00000000000E+00 -0.52327199120E+03  0.52327199120E+03  0.00000000000E+00 0.  1.
         23    2    1    2    0    0  0.53174574161E+02 -0.46861766264E+02 -0.28072252166E+03  0.30395987391E+03  0.92535994649E+02 0.  0.
         23    2    1    2    0    0 -0.53174574161E+02  0.46861766264E+02 -0.21674680942E+03  0.24511477741E+03  0.89880555395E+02 0.  0.
          5    1    4    4  502    0 -0.17649124439E+02  0.57567032244E+02 -0.64583696590E+02  0.88422840149E+02  0.47000000000E+01 0. -1.
         -5    1    4    4    0  502 -0.35525449721E+02 -0.10705265979E+02 -0.15216311283E+03  0.15669193726E+03  0.47000000000E+01 0.  1.
          5    1    3    3  503    0  0.74096240917E+02 -0.11395460430E+02 -0.18169588253E+03  0.19661025702E+03  0.47000000000E+01 0. -1.
         -5    1    3    3    0  503 -0.20921666756E+02 -0.35466305834E+02 -0.99026639134E+02  0.10734961690E+03  0.47000000000E+01 0.  1.
<mgrwt>
<rscale>  0 0.11603326E+03</rscale>
<asrwt>0</asrwt>
<pdfrwt beam="1">  1        1 0.39696396E-02 0.11656102E+03</pdfrwt>
<pdfrwt beam="2">  1       -1 0.80503391E-01 0.11656102E+03</pdfrwt>
<totfact> 0.35203938E+03</totfact>
</mgrwt>
</event>
<event>
 8    1  0.3177960E-004  0.1299829E+03  0.7546771E-02  0.1235462E+00
         -1   -1    0    0    0  501 -0.00000000000E+00  0.00000000000E+00  0.15448114837E+03  0.15448114837E+03  0.00000000000E+00 0.  1.
          1   -1    0    0  501    0  0.00000000000E+00 -0.00000000000E+00 -0.11722198586E+03  0.11722198586E+03  0.00000000000E+00 0. -1.
         23    2    1    2    0    0 -0.20914215092E+02 -0.58591958746E+02  0.80902209454E+02  0.15310366566E+03  0.11412774825E+03 0.  0.
         23    2    1    2    0    0  0.20914215092E+02  0.58591958746E+02 -0.43643046948E+02  0.11859946857E+03  0.91053261198E+02 0.  0.
          5    1    3    3  502    0  0.11462598677E+02  0.19335418748E+02 -0.13306210787E+02  0.26540437677E+02  0.47000000000E+01 0. -1.
         -5    1    3    3    0  502 -0.32376813769E+02 -0.77927377493E+02  0.94208420241E+02  0.12656322798E+03  0.47000000000E+01 0.  1.
          5    1    4    4  503    0 -0.33387812747E+02  0.18519453471E+02 -0.31820775619E+02  0.49923621242E+02  0.47000000000E+01 0. -1.
         -5    1    4    4    0  503  0.54302027839E+02  0.40072505275E+02 -0.11822271329E+02  0.68675847325E+02  0.47000000000E+01 0.  1.
<mgrwt>
<rscale>  0 0.12474882E+03</rscale>
<asrwt>0</asrwt>
<pdfrwt beam="1">  1        1 0.18034152E-01 0.12998294E+03</pdfrwt>
<pdfrwt beam="2">  1       -1 0.23766331E-01 0.12998294E+03</pdfrwt>
<totfact> 0.42337533E+03</totfact>
</mgrwt>
</event>
<event>
 8    1  0.3177960E-004  0.1020334E+03  0.7546771E-02  0.1278510E+00
         -1   -1    0    0    0  501 -0.00000000000E+00  0.00000000000E+00  0.20004770509E+02  0.20004770509E+02  0.00000000000E+00 0.  1.
          1   -1    0    0  501    0  0.00000000000E+00 -0.00000000000E+00 -0.56803162140E+03  0.56803162140E+03  0.00000000000E+00 0. -1.
         23    2    1    2    0    0  0.41168762706E+02 -0.18726365160E+02 -0.38350500906E+03  0.39684620689E+03  0.91461883761E+02 0.  0.
         23    2    1    2    0    0 -0.41168762706E+02  0.18726365160E+02 -0.16452184183E+03  0.19119018501E+03  0.86259530663E+02 0.  0.
          5    1    3    3  502    0  0.66521729404E+02 -0.25884809118E+02 -0.22499530391E+03  0.23609349971E+03  0.47000000000E+01 0. -1.
         -5    1    3    3    0  502 -0.25352966698E+02  0.71584439583E+01 -0.15850970515E+03  0.16075270718E+03  0.47000000000E+01 0.  1.
          5    1    4    4  503    0  0.48064295662E+01  0.43506966561E+02 -0.62057993724E+02  0.76087071764E+02  0.47000000000E+01 0. -1.
         -5    1    4    4    0  503 -0.45975192273E+02 -0.24780601402E+02 -0.10246384811E+03  0.11510311325E+03  0.47000000000E+01 0.  1.
<mgrwt>
<rscale>  0 0.10085413E+03</rscale>
<asrwt>0</asrwt>
<pdfrwt beam="1">  1        1 0.87389480E-01 0.10203343E+03</pdfrwt>
<pdfrwt beam="2">  1       -1 0.30776570E-02 0.10203343E+03</pdfrwt>
<totfact> 0.12803959E+04</totfact>
</mgrwt>
</event>
<event>
 8    1  0.3177960E-004  0.1022022E+03  0.7546771E-02  0.1277130E+00
          2   -1    0    0  501    0  0.00000000000E+00  0.00000000000E+00  0.74788913504E+02  0.74788913504E+02  0.00000000000E+00 0. -1.
         -2   -1    0    0    0  501 -0.00000000000E+00 -0.00000000000E+00 -0.14106140911E+03  0.14106140911E+03  0.00000000000E+00 0.  1.
         23    2    1    2    0    0 -0.37788385795E+02 -0.18475978693E+02 -0.13123296953E+02  0.10304131459E+03  0.93144874794E+02 0.  0.
         23    2    1    2    0    0  0.37788385795E+02  0.18475978693E+02 -0.53149198648E+02  0.11280900802E+03  0.90176000595E+02 0.  0.
          5    1    3    3  502    0 -0.49878643237E+02 -0.46949102150E+02  0.11063580583E+01  0.68668852269E+02  0.47000000000E+01 0. -1.
         -5    1    3    3    0  502  0.12090257442E+02  0.28473123457E+02 -0.14229655012E+02  0.34372462323E+02  0.47000000000E+01 0.  1.
          5    1    4    4  503    0 -0.27104130291E+02 -0.77217334909E+01 -0.22020221840E+02  0.36072693506E+02  0.47000000000E+01 0. -1.
         -5    1    4    4    0  503  0.64892516086E+02  0.26197712184E+02 -0.31128976808E+02  0.76736314511E+02  0.47000000000E+01 0.  1.
<mgrwt>
<rscale>  0 0.10152086E+03</rscale>
<asrwt>0</asrwt>
<pdfrwt beam="1">  1        2 0.11505987E-01 0.10220221E+03</pdfrwt>
<pdfrwt beam="2">  1       -2 0.21701755E-01 0.10220221E+03</pdfrwt>
<totfact> 0.90049375E+03</totfact>
</mgrwt>
</event>
<event>
 8    1  0.3177960E-004  0.9764833E+02  0.7546771E-02  0.1287631E+00
          1   -1    0    0  501    0  0.00000000000E+00  0.00000000000E+00  0.70255461505E+02  0.70255461505E+02  0.00000000000E+00 0. -1.
         -1   -1    0    0    0  501 -0.00000000000E+00 -0.00000000000E+00 -0.17754216940E+03  0.17754216940E+03  0.00000000000E+00 0.  1.
         23    2    1    2    0    0 -0.20605646773E+02 -0.57164793334E+00  0.96032874371E+01  0.98119413653E+02  0.95447769726E+02 0.  0.
         23    2    1    2    0    0  0.20605646773E+02  0.57164793334E+00 -0.11688999533E+03  0.14967821725E+03  0.91188695849E+02 0.  0.
          5    1    4    4  502    0 -0.35614205459E+02 -0.67415011666E+01 -0.48161294689E+02  0.60460067603E+02  0.47000000000E+01 0. -1.
         -5    1    3    3    0  503  0.35724785692E+02  0.11377005990E+02 -0.60354114241E+01  0.38265033243E+02  0.47000000000E+01 0.  1.
          5    1    3    3  503    0 -0.56330432465E+02 -0.11948653923E+02  0.15638698861E+02  0.59854380410E+02  0.47000000000E+01 0. -1.
         -5    1    4    4    0  502  0.56219852231E+02  0.73131491000E+01 -0.68728700645E+02  0.89218149650E+02  0.47000000000E+01 0.  1.
<mgrwt>
<rscale>  0 0.96591607E+02</rscale>
<asrwt>0</asrwt>
<pdfrwt beam="1">  1        1 0.10808533E-01 0.97648329E+02</pdfrwt>
<pdfrwt beam="2">  1       -1 0.27314180E-01 0.97648329E+02</pdfrwt>
<totfact> 0.64033941E+03</totfact>
</mgrwt>
</event>
<event>
 8    1  0.3177960E-004  0.9404237E+02  0.7546771E-02  0.1299135E+00
          1   -1    0    0  501    0  0.00000000000E+00  0.00000000000E+00  0.51386598019E+02  0.51386598019E+02  0.00000000000E+00 0. -1.
         -1   -1    0    0    0  501 -0.00000000000E+00 -0.00000000000E+00 -0.23000669681E+03  0.23000669681E+03  0.00000000000E+00 0.  1.
         23    2    1    2    0    0 -0.23593438161E+01 -0.74287477526E+01 -0.12289179199E+02  0.94841924543E+02  0.93718802432E+02 0.  0.
         23    2    1    2    0    0  0.23593438161E+01  0.74287477526E+01 -0.16633091959E+03  0.18655137028E+03  0.84111153523E+02 0.  0.
          5    1    4    4  502    0 -0.21172806035E+02  0.13908834119E+02 -0.90343759944E+01  0.27302991257E+02  0.47000000000E+01 0. -1.
         -5    1    4    4    0  502  0.23532149851E+02 -0.64800863665E+01 -0.15729654360E+03  0.15924837903E+03  0.47000000000E+01 0.  1.
          5    1    3    3  503    0 -0.26654174976E+02  0.32622605250E+02  0.87394852922E+01  0.43279880085E+02  0.47000000000E+01 0. -1.
         -5    1    3    3    0  503  0.24294831159E+02 -0.40051353003E+02 -0.21028664491E+02  0.51562044458E+02  0.47000000000E+01 0.  1.
<mgrwt>
<rscale>  0 0.91552509E+02</rscale>
<asrwt>0</asrwt>
<pdfrwt beam="1">  1        1 0.79056307E-02 0.94042367E+02</pdfrwt>
<pdfrwt beam="2">  1       -1 0.35385645E-01 0.94042367E+02</pdfrwt>
<totfact> 0.62506149E+03</totfact>
</mgrwt>
</event>
<event>
 8    1  0.3177960E-004  0.1384780E+03  0.7546771E-02  0.1217951E+00
          1   -1    0    0  501    0  0.00000000000E+00  0.00000000000E+00  0.52210682353E+03  0.52210682353E+03  0.00000000000E+00 0. -1.
         -1   -1    0    0    0  501 -0.00000000000E+00 -0.00000000000E+00 -0.45239887534E+02  0.45239887534E+02  0.00000000000E+00 0.  1.
         23    2    1    2    0    0  0.99248551344E+02  0.30551806099E+02  0.36956761355E+03  0.39216309255E+03  0.80174699062E+02 0.  0.
         23    2    1    2    0    0 -0.99248551344E+02 -0.30551806099E+02  0.10729932244E+03  0.17518361852E+03  0.91610413164E+02 0.  0.
          5    1    4    4  502    0 -0.38374431717E+02 -0.36231557784E+02  0.10034087097E+03  0.11347115570E+03  0.47000000000E+01 0. -1.
         -5    1    4    4    0  502 -0.60874119627E+02  0.56797516845E+01  0.69584514694E+01  0.61712462813E+02  0.47000000000E+01 0.  1.
          5    1    3    3  503    0  0.61850673209E+02  0.82658953298E+01  0.31984171335E+03  0.32590587967E+03  0.47000000000E+01 0. -1.
         -5    1    3    3    0  503  0.37397878134E+02  0.22285910770E+02  0.49725900199E+02  0.66257212878E+02  0.47000000000E+01 0.  1.
<mgrwt>
<rscale>  0 0.13661974E+03</rscale>
<asrwt>0</asrwt>
<pdfrwt beam="1">  1        1 0.80324122E-01 0.13847800E+03</pdfrwt>
<pdfrwt beam="2">  1       -1 0.69599831E-02 0.13847800E+03</pdfrwt>
<totfact> 0.43958850E+03</totfact>
</mgrwt>
</event>
<event>
 8    1  0.3177960E-004  0.1023058E+03  0.7546771E-02  0.1276277E+00
          1   -1    0    0  501    0  0.00000000000E+00  0.00000000000E+00  0.60240764636E+03  0.60240764636E+03  0.00000000000E+00 0. -1.
         -1   -1    0    0    0  501 -0.00000000000E+00 -0.00000000000E+00 -0.27528273392E+02  0.27528273392E+02  0.00000000000E+00 0.  1.
         23    2    1    2    0    0 -0.10951141940E+02 -0.42688599519E+02  0.92527169551E+02  0.13685364524E+03  0.90693985870E+02 0.  0.
         23    2    1    2    0    0  0.10951141940E+02  0.42688599519E+02  0.48235220342E+03  0.49308227451E+03  0.92326795960E+02 0.  0.
          5    1    3    3  502    0 -0.35196267175E+02 -0.26547849892E+02  0.97339154624E+02  0.10696058424E+03  0.47000000000E+01 0. -1.
         -5    1    3    3    0  502  0.24245125235E+02 -0.16140749627E+02 -0.48119850739E+01  0.29893061009E+02  0.47000000000E+01 0.  1.
          5    1    4    4  503    0 -0.22442116005E+02  0.60093920568E+02  0.30971911297E+03  0.31632727798E+03  0.47000000000E+01 0. -1.
         -5    1    4    4    0  503  0.33393257945E+02 -0.17405321049E+02  0.17263309046E+03  0.17675499653E+03  0.47000000000E+01 0.  1.
<mgrwt>
<rscale>  0 0.10193605E+03</rscale>
<asrwt>0</asrwt>
<pdfrwt beam="1">  1        1 0.92678090E-01 0.10230582E+03</pdfrwt>
<pdfrwt beam="2">  1       -1 0.42351194E-02 0.10230582E+03</pdfrwt>
<totfact> 0.74456546E+03</totfact>
</mgrwt>
</event>
<event>
 8    1  0.3177960E-004  0.1108068E+03  0.7546771E-02  0.1259728E+00
         -2   -1    0    0    0  501 -0.00000000000E+00  0.00000000000E+00  0.37504916790E+03  0.37504916790E+03  0.00000000000E+00 0.  1.
          2   -1    0    0  501    0  0.00000000000E+00 -0.00000000000E+00 -0.45659940408E+02  0.45659940408E+02  0.00000000000E+00 0. -1.
         23    2    1    2    0    0 -0.17927743421E+02  0.57364662591E+02  0.51761443225E+02  0.12230042285E+03  0.93091556690E+02 0.  0.
         23    2    1    2    0    0  0.17927743421E+02 -0.57364662591E+02  0.27762778427E+03  0.29840868545E+03  0.91424550642E+02 0.  0.
          5    1    3    3  502    0  0.35247182133E+02  0.33234340312E+02  0.83429747620E+01  0.49381985098E+02  0.47000000000E+01 0. -1.
         -5    1    4    4    0  503 -0.44012963832E+01  0.21691057924E+02  0.10174170287E+03  0.10422733570E+03  0.47000000000E+01 0.  1.
          5    1    4    4  503    0  0.22329039804E+02 -0.79055720514E+02  0.17588608139E+03  0.19418134975E+03  0.47000000000E+01 0. -1.
         -5    1    3    3    0  502 -0.53174925555E+02  0.24130322279E+02  0.43418468463E+02  0.72918437756E+02  0.47000000000E+01 0.  1.
<mgrwt>
<rscale>  0 0.11045595E+03</rscale>
<asrwt>0</asrwt>
<pdfrwt beam="1">  1        2 0.70246065E-02 0.11080680E+03</pdfrwt>
<pdfrwt beam="2">  1       -2 0.57699870E-01 0.11080680E+03</pdfrwt>
<totfact> 0.27292880E+03</totfact>
</mgrwt>
</event>
<event>
 8    1  0.3503272E-004  0.9857442E+02  0.7546771E-02  0.1284018E+00
         -1   -1    0    0    0  501 -0.00000000000E+00  0.00000000000E+00  0.18476613597E+03  0.18476613597E+03  0.00000000000E+00 0.  1.
          1   -1    0    0  501    0  0.00000000000E+00 -0.00000000000E+00 -0.10605401399E+03  0.10605401399E+03  0.00000000000E+00 0. -1.
         23    2    1    2    0    0  0.36842928067E+02  0.10844676399E+02 -0.64418431684E+02  0.11775674605E+03  0.90784957703E+02 0.  0.
         23    2    1    2    0    0 -0.36842928067E+02 -0.10844676399E+02  0.14313055366E+03  0.17306340390E+03  0.89384439488E+02 0.  0.
          5    1    4    4  502    0  0.16878390756E+02  0.19607860139E+02  0.81723017717E+02  0.85849227595E+02  0.47000000000E+01 0. -1.
         -5    1    3    3    0  503 -0.20784554671E+02 -0.17699514447E+02 -0.16196929464E+01  0.27748584284E+02  0.47000000000E+01 0.  1.
          5    1    3    3  503    0  0.57627482737E+02  0.28544190846E+02 -0.62798738737E+02  0.90008161767E+02  0.47000000000E+01 0. -1.
         -5    1    4    4    0  502 -0.53721318822E+02 -0.30452536538E+02  0.61407535947E+02  0.87214176306E+02  0.47000000000E+01 0.  1.
<mgrwt>
<rscale>  0 0.98250753E+02</rscale>
<asrwt>0</asrwt>
<pdfrwt beam="1">  1        1 0.16316002E-01 0.98574423E+02</pdfrwt>
<pdfrwt beam="2">  1       -1 0.28425559E-01 0.98574423E+02</pdfrwt>
<totfact> 0.35251267E+03</totfact>
</mgrwt>
</event>
<event>
 8    1  0.3177960E-004  0.1181567E+03  0.7546771E-02  0.1246651E+00
         -2   -1    0    0    0  501 -0.00000000000E+00  0.00000000000E+00  0.19164341099E+02  0.19164341099E+02  0.00000000000E+00 0.  1.
          2   -1    0    0  501    0  0.00000000000E+00 -0.00000000000E+00 -0.10449782860E+04  0.10449782860E+04  0.00000000000E+00 0. -1.
         23    2    1    2    0    0  0.75995641510E+02 -0.50527665645E+01 -0.21858651221E+03  0.24847749379E+03  0.90333457925E+02 0.  0.
         23    2    1    2    0    0 -0.75995641510E+02  0.50527665645E+01 -0.80722743266E+03  0.81566513328E+03  0.88840382880E+02 0.  0.
          5    1    3    3  502    0  0.15256898871E+02  0.30738115934E+02 -0.13329371375E+03  0.13772040103E+03  0.47000000000E+01 0. -1.
         -5    1    3    3    0  502  0.60738742639E+02 -0.35790882498E+02 -0.85292798462E+02  0.11075709276E+03  0.47000000000E+01 0.  1.
          5    1    4    4  503    0 -0.36789260788E+02  0.44716552835E+02 -0.31970563808E+03  0.32494123288E+03  0.47000000000E+01 0. -1.
         -5    1    4    4    0  503 -0.39206380722E+02 -0.39663786270E+02 -0.48752179458E+03  0.49072390040E+03  0.47000000000E+01 0.  1.
<mgrwt>
<rscale>  0 0.11787127E+03</rscale>
<asrwt>0</asrwt>
<pdfrwt beam="1">  1        2 0.16076589E+00 0.11815668E+03</pdfrwt>
<pdfrwt beam="2">  1       -2 0.29483603E-02 0.11815668E+03</pdfrwt>
<totfact> 0.10256396E+04</totfact>
</mgrwt>
</event>
<event>
 8    1  0.3177960E-004  0.1225100E+03  0.7546771E-02  0.1251419E+00
          1   -1    0    0  501    0  0.00000000000E+00  0.00000000000E+00  0.10261479561E+04  0.10261479561E+04  0.00000000000E+00 0. -1.
         -1   -1    0    0    0  501 -0.00000000000E+00 -0.00000000000E+00 -0.18486450412E+02  0.18486450412E+02  0.00000000000E+00 0.  1.
         23    2    1    2    0    0 -0.26966873481E+02  0.39468701253E+01  0.14674563625E+03  0.17504551821E+03  0.91454150467E+02 0.  0.
         23    2    1    2    0    0  0.26966873481E+02 -0.39468701253E+01  0.86091586945E+03  0.86958888831E+03  0.11943998642E+03 0.  0.
          5    1    3    3  502    0  0.24683536930E+02  0.90379371365E+01  0.10480010841E+03  0.10814857385E+03  0.47000000000E+01 0. -1.
         -5    1    4    4    0  503 -0.44353759563E+02 -0.14786505489E+02  0.24687686469E+03  0.25130891956E+03  0.47000000000E+01 0.  1.
          5    1    4    4  503    0  0.71320633044E+02  0.10839635364E+02  0.61403900476E+03  0.61827996875E+03  0.47000000000E+01 0. -1.
         -5    1    3    3    0  502 -0.51650410411E+02 -0.50910670112E+01  0.41945527840E+02  0.66896944360E+02  0.47000000000E+01 0.  1.
<mgrwt>
<rscale>  0 0.11509289E+03</rscale>
<asrwt>0</asrwt>
<pdfrwt beam="1">  1        1 0.15786887E+00 0.12251000E+03</pdfrwt>
<pdfrwt beam="2">  1       -1 0.28440701E-02 0.12251000E+03</pdfrwt>
<totfact> 0.60455640E+03</totfact>
</mgrwt>
</event>
<event>
 8    1  0.3177960E-004  0.1029655E+03  0.7546771E-02  0.1274676E+00
         -3   -1    0    0    0  501 -0.00000000000E+00  0.00000000000E+00  0.38321981374E+02  0.38321981374E+02  0.00000000000E+00 0.  1.
          3   -1    0    0  501    0  0.00000000000E+00 -0.00000000000E+00 -0.49860142965E+03  0.49860142965E+03  0.00000000000E+00 0. -1.
         23    2    1    2    0    0 -0.19063630007E+02 -0.37603825746E+02 -0.49373132500E+02  0.11331287156E+03  0.92868891176E+02 0.  0.
         23    2    1    2    0    0  0.19063630007E+02  0.37603825746E+02 -0.41090631577E+03  0.42361053946E+03  0.93938379278E+02 0.  0.
          5    1    3    3  502    0  0.36919069141E+02 -0.13595716602E+02 -0.28279681534E+02  0.48679477850E+02  0.47000000000E+01 0. -1.
         -5    1    3    3    0  502 -0.55982699148E+02 -0.24008109144E+02 -0.21093450966E+02  0.64633393708E+02  0.47000000000E+01 0.  1.
          5    1    4    4  503    0 -0.32018613703E+02  0.36813295214E+02 -0.15330658349E+03  0.16095157306E+03  0.47000000000E+01 0. -1.
         -5    1    4    4    0  503  0.51082243710E+02  0.79053053245E+00 -0.25759973228E+03  0.26265896641E+03  0.47000000000E+01 0.  1.
<mgrwt>
<rscale>  0 0.10272091E+03</rscale>
<asrwt>0</asrwt>
<pdfrwt beam="1">  1        3 0.76707907E-01 0.10296547E+03</pdfrwt>
<pdfrwt beam="2">  1       -3 0.58956898E-02 0.10296547E+03</pdfrwt>
<totfact> 0.63470745E+02</totfact>
</mgrwt>
</event>
<event>
 8    1  0.3177960E-004  0.9394416E+02  0.7546771E-02  0.1294498E+00
          1   -1    0    0  501    0  0.00000000000E+00  0.00000000000E+00  0.50671835081E+03  0.50671835081E+03  0.00000000000E+00 0. -1.
         -1   -1    0    0    0  501 -0.00000000000E+00 -0.00000000000E+00 -0.21014778823E+02  0.21014778823E+02  0.00000000000E+00 0.  1.
         23    2    1    2    0    0  0.16627702139E+02  0.10090973581E+02  0.12756256671E+03  0.15747580779E+03  0.90266900829E+02 0.  0.
         23    2    1    2    0    0 -0.16627702139E+02 -0.10090973581E+02  0.35814100527E+03  0.37025732184E+03  0.91908631238E+02 0.  0.
          5    1    3    3  502    0  0.21558545155E+02 -0.33295029964E+02  0.94215143739E+02  0.10233236633E+03  0.47000000000E+01 0. -1.
         -5    1    4    4    0  503  0.32145893375E+02  0.55938173657E+01  0.67757169084E+02  0.75351000099E+02  0.47000000000E+01 0.  1.
          5    1    4    4  503    0 -0.48773595515E+02 -0.15684790946E+02  0.29038383619E+03  0.29490632174E+03  0.47000000000E+01 0. -1.
         -5    1    3    3    0  502 -0.49308430156E+01  0.43386003544E+02  0.33347422976E+02  0.55143441455E+02  0.47000000000E+01 0.  1.
<mgrwt>
<rscale>  0 0.93540176E+02</rscale>
<asrwt>0</asrwt>
<pdfrwt beam="1">  1        1 0.77956660E-01 0.93944157E+02</pdfrwt>
<pdfrwt beam="2">  1       -1 0.32330433E-02 0.93944157E+02</pdfrwt>
<totfact> 0.13747237E+04</totfact>
</mgrwt>
</event>
<event>
 8    1  0.3177960E-004  0.9733504E+02  0.7546771E-02  0.1288476E+00
         -1   -1    0    0    0  501 -0.00000000000E+00  0.00000000000E+00  0.71040340969E+02  0.71040340969E+02  0.00000000000E+00 0.  1.
          1   -1    0    0  501    0  0.00000000000E+00 -0.00000000000E+00 -0.12826837299E+03  0.12826837299E+03  0.00000000000E+00 0. -1.
         23    2    1    2    0    0  0.26346175174E+02 -0.13338828010E+02 -0.19594084098E+02  0.94951520494E+02  0.88089828206E+02 0.  0.
         23    2    1    2    0    0 -0.26346175174E+02  0.13338828010E+02 -0.37633947920E+02  0.10435719346E+03  0.92747315390E+02 0.  0.
          5    1    4    4  502    0  0.32225163987E+02 -0.30634110248E+01 -0.27037644493E+02  0.42437835723E+02  0.47000000000E+01 0. -1.
         -5    1    3    3    0  503 -0.20679033008E+02 -0.27607268720E+02  0.11436550770E+02  0.36642439681E+02  0.47000000000E+01 0.  1.
          5    1    3    3  503    0  0.47025208182E+02  0.14268440709E+02 -0.31030634868E+02  0.58309080812E+02  0.47000000000E+01 0. -1.
         -5    1    4    4    0  502 -0.58571339161E+02  0.16402239035E+02 -0.10596303427E+02  0.61919357739E+02  0.47000000000E+01 0.  1.
<mgrwt>
<rscale>  0 0.96208839E+02</rscale>
<asrwt>0</asrwt>
<pdfrwt beam="1">  1        1 0.19733596E-01 0.97335039E+02</pdfrwt>
<pdfrwt beam="2">  1       -1 0.10929283E-01 0.97335039E+02</pdfrwt>
<totfact> 0.12508444E+04</totfact>
</mgrwt>
</event>
<event>
 8    1  0.3177960E-004  0.1018496E+03  0.7546771E-02  0.1276466E+00
          3   -1    0    0  501    0  0.00000000000E+00  0.00000000000E+00  0.12290501181E+02  0.12290501181E+02  0.00000000000E+00 0. -1.
         -3   -1    0    0    0  501 -0.00000000000E+00 -0.00000000000E+00 -0.10961204550E+04  0.10961204550E+04  0.00000000000E+00 0.  1.
         23    2    1    2    0    0 -0.45055011663E+02 -0.89052356159E+01 -0.27597398824E+03  0.29416001061E+03  0.90880208839E+02 0.  0.
         23    2    1    2    0    0  0.45055011663E+02  0.89052356159E+01 -0.80785596555E+03  0.81425094555E+03  0.90907007142E+02 0.  0.
          5    1    3    3  502    0 -0.60781201365E+02  0.99566319050E+01 -0.25221334648E+03  0.25966738551E+03  0.47000000000E+01 0. -1.
         -5    1    3    3    0  502  0.15726189702E+02 -0.18861867521E+02 -0.23760641762E+02  0.34492625094E+02  0.47000000000E+01 0.  1.
          5    1    4    4  503    0 -0.17501495919E+02  0.30291738901E+02 -0.25301621577E+03  0.25546660691E+03  0.47000000000E+01 0. -1.
         -5    1    4    4    0  503  0.62556507582E+02 -0.21386503285E+02 -0.55483974979E+03  0.55878433864E+03  0.47000000000E+01 0.  1.
<mgrwt>
<rscale>  0 0.10184362E+03</rscale>
<asrwt>0</asrwt>
<pdfrwt beam="1">  1        3 0.18908464E-02 0.10184960E+03</pdfrwt>
<pdfrwt beam="2">  1       -3 0.16863391E+00 0.10184960E+03</pdfrwt>
<totfact> 0.58684914E+02</totfact>
</mgrwt>
</event>
<event>
 8    1  0.3177960E-004  0.1011335E+03  0.7546771E-02  0.1278365E+00
         -1   -1    0    0    0  501 -0.00000000000E+00  0.00000000000E+00  0.11640440884E+03  0.11640440884E+03  0.00000000000E+00 0.  1.
          1   -1    0    0  501    0  0.00000000000E+00 -0.00000000000E+00 -0.16582505948E+03  0.16582505948E+03  0.00000000000E+00 0. -1.
         23    2    1    2    0    0 -0.36085059922E+02  0.83145987268E+01 -0.12186137785E+03  0.15782832302E+03  0.93211158314E+02 0.  0.
         23    2    1    2    0    0  0.36085059922E+02 -0.83145987268E+01  0.72440727207E+02  0.12440114529E+03  0.94110158276E+02 0.  0.
          5    1    3    3  502    0 -0.23829867737E+02  0.49410090627E+02 -0.83966519671E+02  0.10040759970E+03  0.47000000000E+01 0. -1.
         -5    1    4    4    0  503 -0.27056199421E+02  0.48854935156E+01  0.47495364149E+02  0.55079992644E+02  0.47000000000E+01 0.  1.
          5    1    4    4  503    0  0.63141259343E+02 -0.13200092242E+02  0.24945363059E+02  0.69321152651E+02  0.47000000000E+01 0. -1.
         -5    1    3    3    0  502 -0.12255192185E+02 -0.41095491901E+02 -0.37894858180E+02  0.57420723319E+02  0.47000000000E+01 0.  1.
<mgrwt>
<rscale>  0 0.10092385E+03</rscale>
<asrwt>0</asrwt>
<pdfrwt beam="1">  1        1 0.25511548E-01 0.10113351E+03</pdfrwt>
<pdfrwt beam="2">  1       -1 0.17908371E-01 0.10113351E+03</pdfrwt>
<totfact> 0.42392444E+03</totfact>
</mgrwt>
</event>
<event>
 8    1  0.8009331E-004  0.9621520E+02  0.7546771E-02  0.1288679E+00
         -2   -1    0    0    0  501 -0.00000000000E+00  0.00000000000E+00  0.66038367763E+02  0.66038367763E+02  0.00000000000E+00 0.  1.
          2   -1    0    0  501    0  0.00000000000E+00 -0.00000000000E+00 -0.51958361285E+03  0.51958361285E+03  0.00000000000E+00 0. -1.
         23    2    1    2    0    0  0.37014937653E+02  0.63557763477E+01 -0.47704865847E+03  0.48657767492E+03  0.88158435130E+02 0.  0.
         23    2    1    2    0    0 -0.37014937653E+02 -0.63557763477E+01  0.23503413381E+02  0.99044305691E+02  0.88582518291E+02 0.  0.
          5    1    4    4  502    0  0.25510894796E+02 -0.80012375755E+01 -0.87398000813E+01  0.28518409168E+02  0.47000000000E+01 0. -1.
         -5    1    4    4    0  502 -0.62525832448E+02  0.16454612277E+01  0.32243213462E+02  0.70525896523E+02  0.47000000000E+01 0.  1.
          5    1    3    3  503    0  0.64827886918E+02 -0.10150697303E+01 -0.36808484236E+03  0.37378098729E+03  0.47000000000E+01 0. -1.
         -5    1    3    3    0  503 -0.27812949265E+02  0.73708460780E+01 -0.10896381611E+03  0.11279668763E+03  0.47000000000E+01 0.  1.
<mgrwt>
<rscale>  0 0.96117473E+02</rscale>
<asrwt>0</asrwt>
<pdfrwt beam="1">  1        2 0.79935942E-01 0.96215197E+02</pdfrwt>
<pdfrwt beam="2">  1       -2 0.10159749E-01 0.96215197E+02</pdfrwt>
<totfact> 0.36798020E+03</totfact>
</mgrwt>
</event>
<event>
 8    1  0.3177960E-004  0.9542560E+02  0.7546771E-02  0.1290436E+00
         -1   -1    0    0    0  501 -0.00000000000E+00  0.00000000000E+00  0.80489368196E+02  0.80489368196E+02  0.00000000000E+00 0.  1.
          1   -1    0    0  501    0  0.00000000000E+00 -0.00000000000E+00 -0.12439201644E+03  0.12439201644E+03  0.00000000000E+00 0. -1.
         23    2    1    2    0    0  0.26103824075E+02 -0.11272037182E+02 -0.53345731377E+02  0.10898969436E+03  0.90689128161E+02 0.  0.
         23    2    1    2    0    0 -0.26103824075E+02  0.11272037182E+02  0.94430831379E+01  0.95891690273E+02  0.91091031341E+02 0.  0.
          5    1    3    3  502    0  0.18007956977E+02  0.26605455135E+02  0.10535618372E+02  0.34135407013E+02  0.47000000000E+01 0. -1.
         -5    1    4    4    0  503  0.19260906248E+02 -0.26483248796E+02  0.15196194618E+02  0.36405484575E+02  0.47000000000E+01 0.  1.
          5    1    4    4  503    0 -0.45364730323E+02  0.37755285979E+02 -0.57531114804E+01  0.59486205698E+02  0.47000000000E+01 0. -1.
         -5    1    3    3    0  502  0.80958670979E+01 -0.37877492318E+02 -0.63881349749E+02  0.74854287346E+02  0.47000000000E+01 0.  1.
<mgrwt>
<rscale>  0 0.95329559E+02</rscale>
<asrwt>0</asrwt>
<pdfrwt beam="1">  1        1 0.19137233E-01 0.95425596E+02</pdfrwt>
<pdfrwt beam="2">  1       -1 0.12382980E-01 0.95425596E+02</pdfrwt>
<totfact> 0.10725889E+04</totfact>
</mgrwt>
</event>
<event>
 8    1  0.3177960E-004  0.1093009E+03  0.7546771E-02  0.1262859E+00
          1   -1    0    0  501    0  0.00000000000E+00  0.00000000000E+00  0.10754072904E+04  0.10754072904E+04  0.00000000000E+00 0. -1.
         -1   -1    0    0    0  501 -0.00000000000E+00 -0.00000000000E+00 -0.10906736240E+02  0.10906736240E+02  0.00000000000E+00 0.  1.
         23    2    1    2    0    0  0.58654023806E+02  0.12116445559E+02  0.52111213180E+03  0.53245144547E+03  0.91430766729E+02 0.  0.
         23    2    1    2    0    0 -0.58654023806E+02 -0.12116445559E+02  0.54338842239E+03  0.55386258121E+03  0.88913882566E+02 0.  0.
          5    1    4    4  502    0  0.13608104155E+02  0.22655136287E+02  0.13036735959E+03  0.13310211923E+03  0.47000000000E+01 0. -1.
         -5    1    3    3    0  503  0.10052050641E+02  0.43182373536E+02  0.13883620403E+03  0.14581955512E+03  0.47000000000E+01 0.  1.
          5    1    3    3  503    0  0.48601973164E+02 -0.31065927977E+02  0.38227592778E+03  0.38663189035E+03  0.47000000000E+01 0. -1.
         -5    1    4    4    0  502 -0.72262127961E+02 -0.34771581846E+02  0.41302106280E+03  0.42076046197E+03  0.47000000000E+01 0.  1.
<mgrwt>
<rscale>  0 0.10877296E+03</rscale>
<asrwt>0</asrwt>
<pdfrwt beam="1">  1        1 0.16544719E+00 0.10930091E+03</pdfrwt>
<pdfrwt beam="2">  1       -1 0.16779603E-02 0.10930091E+03</pdfrwt>
<totfact> 0.11840819E+04</totfact>
</mgrwt>
</event>
<event>
 8    1  0.3177960E-004  0.2465996E+03  0.7546771E-02  0.1117907E+00
         -1   -1    0    0    0  501 -0.00000000000E+00  0.00000000000E+00  0.43485917962E+03  0.43485917962E+03  0.00000000000E+00 0.  1.
          1   -1    0    0  501    0  0.00000000000E+00 -0.00000000000E+00 -0.23497205243E+03  0.23497205243E+03  0.00000000000E+00 0. -1.
         23    2    1    2    0    0  0.18928057752E+03  0.97355171550E+02  0.32025034654E+03  0.39542516190E+03  0.92171621162E+02 0.  0.
         23    2    1    2    0    0 -0.18928057752E+03 -0.97355171550E+02 -0.12036321936E+03  0.27440607016E+03  0.12452397485E+03 0.  0.
          5    1    4    4  502    0 -0.20572773102E+03 -0.85321252359E+02 -0.96774024842E+02  0.24288045886E+03  0.47000000000E+01 0. -1.
         -5    1    3    3    0  503  0.77504912297E+02 -0.72165939432E+01  0.12424042632E+03  0.14668627813E+03  0.47000000000E+01 0.  1.
          5    1    3    3  503    0  0.11177566522E+03  0.10457176549E+03  0.19600992022E+03  0.24873888377E+03  0.47000000000E+01 0. -1.
         -5    1    4    4    0  502  0.16447153503E+02 -0.12033919190E+02 -0.23589194514E+02  0.31525611291E+02  0.47000000000E+01 0. -1.
<mgrwt>
<rscale>  0 0.24285268E+03</rscale>
<asrwt>0</asrwt>
<pdfrwt beam="1">  1        1 0.36149546E-01 0.24659965E+03</pdfrwt>
<pdfrwt beam="2">  1       -1 0.66901413E-01 0.24659965E+03</pdfrwt>
<totfact> 0.28271389E+02</totfact>
</mgrwt>
</event>
<event>
 8    1  0.3177960E-004  0.1435015E+03  0.7546771E-02  0.1209536E+00
          1   -1    0    0  501    0  0.00000000000E+00  0.00000000000E+00  0.23710060305E+03  0.23710060305E+03  0.00000000000E+00 0. -1.
         -1   -1    0    0    0  501 -0.00000000000E+00 -0.00000000000E+00 -0.11665480032E+03  0.11665480032E+03  0.00000000000E+00 0.  1.
         23    2    1    2    0    0 -0.37504327217E+02 -0.10350027825E+03 -0.31860872058E+02  0.14449479368E+03  0.88004250319E+02 0.  0.
         23    2    1    2    0    0  0.37504327217E+02  0.10350027825E+03  0.15230667479E+03  0.20926060969E+03  0.92053231478E+02 0.  0.
          5    1    4    4  502    0  0.38908239754E+02  0.33238091379E+01  0.22815926768E+02  0.45470378734E+02  0.47000000000E+01 0. -1.
         -5    1    4    4    0  502 -0.14039125367E+01  0.10017646911E+03  0.12949074802E+03  0.16379023096E+03  0.47000000000E+01 0.  1.
          5    1    3    3  503    0  0.14208300840E+01 -0.34668781388E+02  0.28302445066E+02  0.45022900370E+02  0.47000000000E+01 0. -1.
         -5    1    3    3    0  503 -0.38925157301E+02 -0.68831496862E+02 -0.60163317123E+02  0.99471893309E+02  0.47000000000E+01 0.  1.
<mgrwt>
<rscale>  0 0.14285638E+03</rscale>
<asrwt>0</asrwt>
<pdfrwt beam="1">  1        1 0.36477016E-01 0.14350150E+03</pdfrwt>
<pdfrwt beam="2">  1       -1 0.17946892E-01 0.14350150E+03</pdfrwt>
<totfact> 0.27635890E+03</totfact>
</mgrwt>
</event>
<event>
 8    1  0.3177960E-004  0.9037352E+02  0.7546771E-02  0.1307786E+00
          1   -1    0    0  501    0  0.00000000000E+00  0.00000000000E+00  0.71725500336E+03  0.71725500336E+03  0.00000000000E+00 0. -1.
         -1   -1    0    0    0  501 -0.00000000000E+00 -0.00000000000E+00 -0.16787154454E+02  0.16787154454E+02  0.00000000000E+00 0.  1.
         23    2    1    2    0    0 -0.35025432232E+01  0.17540774455E+01  0.59026105748E+03  0.59713942224E+03  0.90288587437E+02 0.  0.
         23    2    1    2    0    0  0.35025432232E+01 -0.17540774455E+01  0.11020679142E+03  0.13690273557E+03  0.81126306055E+02 0.  0.
          5    1    4    4  502    0  0.22275155313E+02  0.31272174924E+02  0.77243010829E+02  0.86386944561E+02  0.47000000000E+01 0. -1.
         -5    1    4    4    0  502 -0.18772612090E+02 -0.33026252369E+02  0.32963780594E+02  0.50515791009E+02  0.47000000000E+01 0.  1.
          5    1    3    3  503    0  0.27715735289E+02  0.31929678464E+02  0.38114754658E+03  0.38351428736E+03  0.47000000000E+01 0. -1.
         -5    1    3    3    0  503 -0.31218278512E+02 -0.30175601019E+02  0.20911351090E+03  0.21362513488E+03  0.47000000000E+01 0.  1.
<mgrwt>
<rscale>  0 0.87992925E+02</rscale>
<asrwt>0</asrwt>
<pdfrwt beam="1">  1        1 0.11034690E+00 0.90373523E+02</pdfrwt>
<pdfrwt beam="2">  1       -1 0.25826397E-02 0.90373523E+02</pdfrwt>
<totfact> 0.11858523E+04</totfact>
</mgrwt>
</event>
<event>
 8    1  0.3177960E-004  0.9836702E+02  0.7546771E-02  0.1283936E+00
         -1   -1    0    0    0  501 -0.00000000000E+00  0.00000000000E+00  0.16363866302E+03  0.16363866302E+03  0.00000000000E+00 0.  1.
          1   -1    0    0  501    0  0.00000000000E+00 -0.00000000000E+00 -0.66687632773E+02  0.66687632773E+02  0.00000000000E+00 0. -1.
         23    2    1    2    0    0  0.21032588635E+02 -0.27195474578E+02  0.87653963255E+02  0.13152089778E+03  0.91829002265E+02 0.  0.
         23    2    1    2    0    0 -0.21032588635E+02  0.27195474578E+02  0.92970669874E+01  0.98805398006E+02  0.92163482999E+02 0.  0.
          5    1    3    3  502    0  0.47596312504E+02 -0.43038523445E+02  0.71927906586E+02  0.96506151152E+02  0.47000000000E+01 0. -1.
         -5    1    4    4    0  503 -0.23485550118E+02  0.58160476745E+02 -0.72204266896E+01  0.63312215892E+02  0.47000000000E+01 0.  1.
          5    1    4    4  503    0  0.24529614838E+01 -0.30965002167E+02  0.16517493677E+02  0.35493182115E+02  0.47000000000E+01 0. -1.
         -5    1    3    3    0  502 -0.26563723870E+02  0.15843048867E+02  0.15726056669E+02  0.35014746630E+02  0.47000000000E+01 0.  1.
<mgrwt>
<rscale>  0 0.98288600E+02</rscale>
<asrwt>0</asrwt>
<pdfrwt beam="1">  1        1 0.10259636E-01 0.98367023E+02</pdfrwt>
<pdfrwt beam="2">  1       -1 0.25175179E-01 0.98367023E+02</pdfrwt>
<totfact> 0.78397579E+03</totfact>
</mgrwt>
</event>
<event>
 8    1  0.3177960E-004  0.9347245E+02  0.7546771E-02  0.1297417E+00
         -2   -1    0    0    0  501 -0.00000000000E+00  0.00000000000E+00  0.19957372132E+02  0.19957372132E+02  0.00000000000E+00 0.  1.
          2   -1    0    0  501    0  0.00000000000E+00 -0.00000000000E+00 -0.45892658818E+03  0.45892658818E+03  0.00000000000E+00 0. -1.
         23    2    1    2    0    0 -0.76324040573E-01 -0.15516148728E+02 -0.15153791526E+03  0.17804729085E+03  0.92175600465E+02 0.  0.
         23    2    1    2    0    0  0.76324040573E-01  0.15516148728E+02 -0.28743130079E+03  0.30083666947E+03  0.87436790445E+02 0.  0.
          5    1    3    3  502    0  0.17374172263E+02 -0.50488562828E+02 -0.96384915688E+02  0.11028643983E+03  0.47000000000E+01 0. -1.
         -5    1    3    3    0  502 -0.17450496304E+02  0.34972414100E+02 -0.55152999568E+02  0.67760851017E+02  0.47000000000E+01 0.  1.
          5    1    4    4  503    0 -0.50853291721E+01 -0.30629676659E+02 -0.51385551310E+02  0.60221279864E+02  0.47000000000E+01 0. -1.
         -5    1    4    4    0  503  0.51616532126E+01  0.46145825387E+02 -0.23604574948E+03  0.24061538960E+03  0.47000000000E+01 0.  1.
<mgrwt>
<rscale>  0 0.92282521E+02</rscale>
<asrwt>0</asrwt>
<pdfrwt beam="1">  1        2 0.70604091E-01 0.93472445E+02</pdfrwt>
<pdfrwt beam="2">  1       -2 0.30703649E-02 0.93472445E+02</pdfrwt>
<totfact> 0.25266608E+04</totfact>
</mgrwt>
</event>
<event>
 8    1  0.3177960E-004  0.1009719E+03  0.7546771E-02  0.1279199E+00
         -1   -1    0    0    0  501 -0.00000000000E+00  0.00000000000E+00  0.12205650257E+03  0.12205650257E+03  0.00000000000E+00 0.  1.
          1   -1    0    0  501    0  0.00000000000E+00 -0.00000000000E+00 -0.82119190107E+02  0.82119190107E+02  0.00000000000E+00 0. -1.
         23    2    1    2    0    0 -0.89870860508E+01 -0.32573660840E+02  0.17441015583E+02  0.10246713029E+03  0.95149948340E+02 0.  0.
         23    2    1    2    0    0  0.89870860508E+01  0.32573660840E+02  0.22496296880E+02  0.10170856239E+03  0.93256298411E+02 0.  0.
          5    1    3    3  502    0 -0.30247566959E+02  0.23618924321E+02  0.16913968130E+02  0.42201199164E+02  0.47000000000E+01 0. -1.
         -5    1    3    3    0  502  0.21260480908E+02 -0.56192585160E+02  0.52704745325E+00  0.60265931126E+02  0.47000000000E+01 0.  1.
          5    1    4    4  503    0 -0.32517108130E+02  0.43420171755E+02  0.35124505706E+01  0.54562816509E+02  0.47000000000E+01 0. -1.
         -5    1    4    4    0  503  0.41504194181E+02 -0.10846510915E+02  0.18983846310E+02  0.47145745878E+02  0.47000000000E+01 0.  1.
<mgrwt>
<rscale>  0 0.10052331E+03</rscale>
<asrwt>0</asrwt>
<pdfrwt beam="1">  1        1 0.12633722E-01 0.10097190E+03</pdfrwt>
<pdfrwt beam="2">  1       -1 0.18777923E-01 0.10097190E+03</pdfrwt>
<totfact> 0.95919959E+03</totfact>
</mgrwt>
</event>
<event>
 8    1  0.3177960E-004  0.9363742E+02  0.7546771E-02  0.1295811E+00
         -1   -1    0    0    0  501 -0.00000000000E+00  0.00000000000E+00  0.50295160686E+02  0.50295160686E+02  0.00000000000E+00 0.  1.
          1   -1    0    0  501    0  0.00000000000E+00 -0.00000000000E+00 -0.17575444122E+03  0.17575444122E+03  0.00000000000E+00 0. -1.
         23    2    1    2    0    0 -0.19242905729E+02 -0.46662135278E+01 -0.84984449115E+02  0.12645284744E+03  0.91519959922E+02 0.  0.
         23    2    1    2    0    0  0.19242905729E+02  0.46662135278E+01 -0.40474831414E+02  0.99596754464E+02  0.88821385669E+02 0.  0.
          5    1    3    3  502    0  0.21607549130E+02  0.29863095683E+02 -0.20149533452E+02  0.42270372148E+02  0.47000000000E+01 0. -1.
         -5    1    3    3    0  502 -0.40850454860E+02 -0.34529309211E+02 -0.64834915663E+02  0.84182475289E+02  0.47000000000E+01 0.  1.
          5    1    4    4  503    0  0.20288889297E+02 -0.27753996464E+02 -0.53961241400E+02  0.64154726420E+02  0.47000000000E+01 0. -1.
         -5    1    4    4    0  503 -0.10459835677E+01  0.32420209992E+02  0.13486409986E+02  0.35442028044E+02  0.47000000000E+01 0.  1.
<mgrwt>
<rscale>  0 0.92971406E+02</rscale>
<asrwt>0</asrwt>
<pdfrwt beam="1">  1        1 0.27039145E-01 0.93637418E+02</pdfrwt>
<pdfrwt beam="2">  1       -1 0.77377171E-02 0.93637418E+02</pdfrwt>
<totfact> 0.14149695E+04</totfact>
</mgrwt>
</event>
<event>
 7    1  0.3177960E-004  0.1519145E+03  0.7546771E-02  0.1215749E+00
          1   -1    0    0  501    0  0.00000000000E+00  0.00000000000E+00  0.64349149371E+02  0.64349149371E+02  0.00000000000E+00 0. -1.
         -1   -1    0    0    0  501 -0.00000000000E+00 -0.00000000000E+00 -0.28776438900E+03  0.28776438900E+03  0.00000000000E+00 0.  1.
         23    2    1    2    0    0  0.20082428077E+02  0.44148226586E+02 -0.34440632100E+02  0.10964822800E+03  0.92109754842E+02 0.  0.
          5    1    3    3  502    0 -0.13173291155E+02 -0.18113699270E+02  0.11180854676E+02  0.25470438009E+02  0.47000000000E+01 0. -1.
         -5    1    1    2    0  503  0.40305063751E+02 -0.11381015605E+02 -0.16381291776E+03  0.16914723677E+03  0.47000000000E+01 0.  1.
          5    1    1    2  503    0 -0.60387491827E+02 -0.32767210981E+02 -0.25161689771E+02  0.73318073603E+02  0.47000000000E+01 0. -1.
         -5    1    3    3    0  502  0.33255719231E+02  0.62261925856E+02 -0.45621486776E+02  0.84177789995E+02  0.47000000000E+01 0.  1.
<mgrwt>
<rscale>  0 0.13821685E+03</rscale>
<asrwt>0</asrwt>
<pdfrwt beam="1">  1        1 0.98998694E-02 0.15191453E+03</pdfrwt>
<pdfrwt beam="2">  1       -1 0.44271443E-01 0.15191453E+03</pdfrwt>
<totfact> 0.32384862E+03</totfact>
</mgrwt>
</event>
<event>
 8    1  0.3177960E-004  0.1081362E+03  0.7546771E-02  0.1265263E+00
          2   -1    0    0  501    0  0.00000000000E+00  0.00000000000E+00  0.24720001201E+02  0.24720001201E+02  0.00000000000E+00 0. -1.
         -2   -1    0    0    0  501 -0.00000000000E+00 -0.00000000000E+00 -0.68138613752E+03  0.68138613752E+03  0.00000000000E+00 0.  1.
         23    2    1    2    0    0 -0.11049309717E+02 -0.55397006624E+02 -0.52598112892E+03  0.53648300314E+03  0.89257767653E+02 0.  0.
         23    2    1    2    0    0  0.11049309717E+02  0.55397006624E+02 -0.13068500740E+03  0.16962313559E+03  0.92209117655E+02 0.  0.
          5    1    3    3  502    0  0.29150867426E+02 -0.12957366364E+02 -0.74095390000E+02  0.80807692914E+02  0.47000000000E+01 0. -1.
         -5    1    3    3    0  502 -0.40200177143E+02 -0.42439640261E+02 -0.45188573892E+03  0.45567531023E+03  0.47000000000E+01 0.  1.
          5    1    4    4  503    0  0.28174573218E+02  0.75396307986E+02 -0.10639960668E+03  0.13349672706E+03  0.47000000000E+01 0. -1.
         -5    1    4    4    0  503 -0.17125263501E+02 -0.19999301362E+02 -0.24285400725E+02  0.36126408530E+02  0.47000000000E+01 0.  1.
<mgrwt>
<rscale>  0 0.10750433E+03</rscale>
<asrwt>0</asrwt>
<pdfrwt beam="1">  1        2 0.38030766E-02 0.10813620E+03</pdfrwt>
<pdfrwt beam="2">  1       -2 0.10482865E+00 0.10813620E+03</pdfrwt>
<totfact> 0.16510341E+03</totfact>
</mgrwt>
</event>
<event>
 8    1  0.3177960E-004  0.9095458E+02  0.7546771E-02  0.1300911E+00
         -1   -1    0    0    0  501 -0.00000000000E+00  0.00000000000E+00  0.24690344723E+02  0.24690344723E+02  0.00000000000E+00 0.  1.
          1   -1    0    0  501    0  0.00000000000E+00 -0.00000000000E+00 -0.47841324865E+03  0.47841324865E+03  0.00000000000E+00 0. -1.
         23    2    1    2    0    0  0.14234617265E+01  0.89137543196E+01 -0.36611888353E+03  0.37724762756E+03  0.90505548783E+02 0.  0.
         23    2    1    2    0    0 -0.14234617265E+01 -0.89137543196E+01 -0.87604020392E+02  0.12585596581E+03  0.89909835290E+02 0.  0.
          5    1    4    4  502    0  0.34564005277E+02  0.12271225881E+02 -0.11164239947E+02  0.38626204823E+02  0.47000000000E+01 0. -1.
         -5    1    4    4    0  502 -0.35987467004E+02 -0.21184980201E+02 -0.76439780445E+02  0.87229760988E+02  0.47000000000E+01 0.  1.
          5    1    3    3  503    0  0.30786201851E+02 -0.17316782381E+02 -0.28210309504E+03  0.28434469822E+03  0.47000000000E+01 0. -1.
         -5    1    3    3    0  503 -0.29362740124E+02  0.26230536701E+02 -0.84015788493E+02  0.92902929337E+02  0.47000000000E+01 0.  1.
<mgrwt>
<rscale>  0 0.90806028E+02</rscale>
<asrwt>0</asrwt>
<pdfrwt beam="1">  1        1 0.73602039E-01 0.90954580E+02</pdfrwt>
<pdfrwt beam="2">  1       -1 0.37985145E-02 0.90954580E+02</pdfrwt>
<totfact> 0.11686539E+04</totfact>
</mgrwt>
</event>
<event>
 7    1  0.3177960E-004  0.1651257E+03  0.7546771E-02  0.1196782E+00
         -2   -1    0    0    0  501 -0.00000000000E+00  0.00000000000E+00  0.48541182447E+03  0.48541182447E+03  0.00000000000E+00 0.  1.
          2   -1    0    0  501    0  0.00000000000E+00 -0.00000000000E+00 -0.52547424935E+02  0.52547424935E+02  0.00000000000E+00 0. -1.
         23    2    1    2    0    0  0.50515719355E+02 -0.56028150422E+02  0.73061279728E+02  0.14207444221E+03  0.95688060864E+02 0.  0.
          5    1    3    3  502    0  0.12968641388E+02  0.25605093675E+02  0.56059379834E+01  0.29619639130E+02  0.47000000000E+01 0. -1.
         -5    1    3    3    0  502  0.37547077967E+02 -0.81633244097E+02  0.67455341745E+02  0.11245480308E+03  0.47000000000E+01 0.  1.
          5    1    1    2  503    0 -0.83986812359E+02  0.39278996656E+02  0.11313819042E+03  0.14635219288E+03  0.47000000000E+01 0. -1.
         -5    1    1    2    0  503  0.33471093004E+02  0.16749153766E+02  0.24666492938E+03  0.24953261432E+03  0.47000000000E+01 0.  1.
<mgrwt>
<rscale>  0 0.15304409E+03</rscale>
<asrwt>0</asrwt>
<pdfrwt beam="1">  1        2 0.80842195E-02 0.16512570E+03</pdfrwt>
<pdfrwt beam="2">  1       -2 0.74678739E-01 0.16512570E+03</pdfrwt>
<totfact> 0.13614456E+03</totfact>
</mgrwt>
</event>
<event>
 8    1  0.3177960E-004  0.1125763E+03  0.7546771E-02  0.1256343E+00
         -1   -1    0    0    0  501 -0.00000000000E+00  0.00000000000E+00  0.68477341617E+03  0.68477341617E+03  0.00000000000E+00 0.  1.
          1   -1    0    0  501    0  0.00000000000E+00 -0.00000000000E+00 -0.19888766815E+02  0.19888766815E+02  0.00000000000E+00 0. -1.
         23    2    1    2    0    0 -0.41927861484E+02  0.55118503313E+02  0.23257587006E+03  0.25793598022E+03  0.87426766945E+02 0.  0.
         23    2    1    2    0    0  0.41927861484E+02 -0.55118503313E+02  0.43230877929E+03  0.44672620277E+03  0.88754856835E+02 0.  0.
          5    1    3    3  502    0 -0.17489381147E+02  0.11488546634E+02  0.15384751204E+01  0.21501675804E+02  0.47000000000E+01 0. -1.
         -5    1    4    4    0  503  0.13476141564E+02  0.22322020973E+02  0.15919615480E+03  0.16138582563E+03  0.47000000000E+01 0.  1.
          5    1    4    4  503    0  0.28451719920E+02 -0.77440524286E+02  0.27311262449E+03  0.28534037714E+03  0.47000000000E+01 0. -1.
         -5    1    3    3    0  502 -0.24438480337E+02  0.43629956678E+02  0.23103739494E+03  0.23643430441E+03  0.47000000000E+01 0.  1.
<mgrwt>
<rscale>  0 0.11231435E+03</rscale>
<asrwt>0</asrwt>
<pdfrwt beam="1">  1        1 0.30598108E-02 0.11257628E+03</pdfrwt>
<pdfrwt beam="2">  1       -1 0.10534974E+00 0.11257628E+03</pdfrwt>
<totfact> 0.28312617E+03</totfact>
</mgrwt>
</event>
<event>
 8    1  0.3177960E-004  0.1085047E+03  0.7546771E-02  0.1264781E+00
          2   -1    0    0  501    0  0.00000000000E+00  0.00000000000E+00  0.25518447160E+03  0.25518447160E+03  0.00000000000E+00 0. -1.
         -2   -1    0    0    0  501 -0.00000000000E+00 -0.00000000000E+00 -0.45540180521E+02  0.45540180521E+02  0.00000000000E+00 0.  1.
         23    2    1    2    0    0 -0.93301986379E-01  0.57326248214E+02  0.12426379800E+03  0.16496897350E+03  0.92124715924E+02 0.  0.
         23    2    1    2    0    0  0.93301986379E-01 -0.57326248214E+02  0.85380493074E+02  0.13575567862E+03  0.88619795981E+02 0.  0.
          5    1    3    3  502    0  0.77362399820E+01 -0.23507721416E+02  0.43932666976E+02  0.50642191924E+02  0.47000000000E+01 0. -1.
         -5    1    4    4    0  503  0.26740413853E+02  0.45854777579E+01  0.86052981899E+00  0.27548264027E+02  0.47000000000E+01 0.  1.
          5    1    4    4  503    0 -0.26647111867E+02 -0.61911725972E+02  0.84519963255E+02  0.10820741459E+03  0.47000000000E+01 0. -1.
         -5    1    3    3    0  502 -0.78295419683E+01  0.80833969630E+02  0.80331131024E+02  0.11432678157E+03  0.47000000000E+01 0.  1.
<mgrwt>
<rscale>  0 0.10775712E+03</rscale>
<asrwt>0</asrwt>
<pdfrwt beam="1">  1        2 0.39259149E-01 0.10850470E+03</pdfrwt>
<pdfrwt beam="2">  1       -2 0.70061818E-02 0.10850470E+03</pdfrwt>
<totfact> 0.13969120E+04</totfact>
</mgrwt>
</event>
<event>
 8    1  0.3177960E-004  0.1029169E+03  0.7546771E-02  0.1276325E+00
         -1   -1    0    0    0  501 -0.00000000000E+00  0.00000000000E+00  0.11251244723E+02  0.11251244723E+02  0.00000000000E+00 0.  1.
          1   -1    0    0  501    0  0.00000000000E+00 -0.00000000000E+00 -0.94521333853E+03  0.94521333853E+03  0.00000000000E+00 0. -1.
         23    2    1    2    0    0 -0.29760023392E+02 -0.31737513273E+02 -0.55618363601E+03  0.56491836098E+03  0.88879631323E+02 0.  0.
         23    2    1    2    0    0  0.29760023392E+02  0.31737513273E+02 -0.37777845779E+03  0.39154622227E+03  0.93268173894E+02 0.  0.
          5    1    4    4  502    0 -0.16756217287E+01 -0.29603512077E+02 -0.16866060526E+03  0.17131160323E+03  0.47000000000E+01 0. -1.
         -5    1    4    4    0  502  0.31435645121E+02  0.61341025350E+02 -0.20911785253E+03  0.22023461904E+03  0.47000000000E+01 0.  1.
          5    1    3    3  503    0 -0.51777692304E+02 -0.59726906482E+01 -0.45725472943E+03  0.46023969846E+03  0.47000000000E+01 0. -1.
         -5    1    3    3    0  503  0.22017668912E+02 -0.25764822625E+02 -0.98928906585E+02  0.10467866252E+03  0.47000000000E+01 0.  1.
<mgrwt>
<rscale>  0 0.10191232E+03</rscale>
<asrwt>0</asrwt>
<pdfrwt beam="1">  1        1 0.14541746E+00 0.10291686E+03</pdfrwt>
<pdfrwt beam="2">  1       -1 0.17309605E-02 0.10291686E+03</pdfrwt>
<totfact> 0.14003816E+04</totfact>
</mgrwt>
</event>
<event>
 7    1  0.3177960E-004  0.1516663E+03  0.7546771E-02  0.1208982E+00
         -2   -1    0    0    0  501 -0.00000000000E+00  0.00000000000E+00  0.31430357500E+02  0.31430357500E+02  0.00000000000E+00 0.  1.
          2   -1    0    0  501    0  0.00000000000E+00 -0.00000000000E+00 -0.65604685468E+03  0.65604685468E+03  0.00000000000E+00 0. -1.
         23    2    1    2    0    0  0.35301808747E+02 -0.70606433623E+02 -0.17244861800E+03  0.21055117347E+03  0.91442794311E+02 0.  0.
          5    1    1    2  502    0 -0.69050074643E+02  0.88269512106E+02 -0.36052597821E+03  0.37757183494E+03  0.47000000000E+01 0. -1.
         -5    1    3    3    0  503 -0.12063388069E+02 -0.72027739895E+02 -0.10499011556E+03  0.12797865061E+03  0.47000000000E+01 0.  1.
          5    1    3    3  503    0  0.47365196816E+02  0.14213062727E+01 -0.67458502433E+02  0.82572522860E+02  0.47000000000E+01 0. -1.
         -5    1    1    2    0  502  0.33748265896E+02 -0.17663078483E+02 -0.91641900970E+02  0.99354203765E+02  0.47000000000E+01 0.  1.
<mgrwt>
<rscale>  0 0.14328008E+03</rscale>
<asrwt>0</asrwt>
<pdfrwt beam="1">  1        2 0.10093028E+00 0.15166626E+03</pdfrwt>
<pdfrwt beam="2">  1       -2 0.48354398E-02 0.15166626E+03</pdfrwt>
<totfact> 0.90213654E+03</totfact>
</mgrwt>
</event>
<event>
 8    1  0.3177960E-004  0.2103909E+03  0.7546771E-02  0.1141304E+00
         -2   -1    0    0    0  501 -0.00000000000E+00  0.00000000000E+00  0.66218082938E+02  0.66218082938E+02  0.00000000000E+00 0.  1.
          2   -1    0    0  501    0  0.00000000000E+00 -0.00000000000E+00 -0.75915669288E+03  0.75915669288E+03  0.00000000000E+00 0. -1.
         23    2    1    2    0    0  0.50507109264E+02  0.18208354357E+03 -0.20306809075E+03  0.29223553244E+03  0.91975931729E+02 0.  0.
         23    2    1    2    0    0 -0.50507109264E+02 -0.18208354357E+03 -0.48987051919E+03  0.53313924338E+03  0.92514551966E+02 0.  0.
          5    1    4    4  502    0 -0.22135431247E+02 -0.16703610914E+03 -0.45632312078E+03  0.48646060439E+03  0.47000000000E+01 0. -1.
         -5    1    3    3    0  503  0.12220194415E+02  0.12789291450E+03 -0.77437520283E+02  0.15008194521E+03  0.47000000000E+01 0.  1.
          5    1    3    3  503    0  0.38286914849E+02  0.54190629069E+02 -0.12563057046E+03  0.14215358723E+03  0.47000000000E+01 0. -1.
         -5    1    4    4    0  502 -0.28371678017E+02 -0.15047434434E+02 -0.33547398417E+02  0.46678638981E+02  0.47000000000E+01 0.  1.
<mgrwt>
<rscale>  0 0.21033179E+03</rscale>
<asrwt>0</asrwt>
<pdfrwt beam="1">  1        2 0.11679333E+00 0.21039089E+03</pdfrwt>
<pdfrwt beam="2">  1       -2 0.10187398E-01 0.21039089E+03</pdfrwt>
<totfact> 0.24274186E+03</totfact>
</mgrwt>
</event>
<event>
 8    1  0.3177960E-004  0.9341008E+02  0.7546771E-02  0.1294849E+00
         -2   -1    0    0    0  501 -0.00000000000E+00  0.00000000000E+00  0.24353814390E+03  0.24353814390E+03  0.00000000000E+00 0.  1.
          2   -1    0    0  501    0  0.00000000000E+00 -0.00000000000E+00 -0.36326046608E+02  0.36326046608E+02  0.00000000000E+00 0. -1.
         23    2    1    2    0    0 -0.10354925879E+02 -0.25333919064E+02  0.86612865101E+02  0.12732036784E+03  0.89216902661E+02 0.  0.
         23    2    1    2    0    0  0.10354925879E+02  0.25333919064E+02  0.12059923219E+03  0.15254382267E+03  0.89310755705E+02 0.  0.
          5    1    3    3  502    0 -0.89803535742E+01  0.31661528937E+02  0.47671691410E+02  0.58118665907E+02  0.47000000000E+01 0. -1.
         -5    1    4    4    0  503 -0.55396137938E+01 -0.23356937640E+02  0.88721590780E+02  0.92031758255E+02  0.47000000000E+01 0.  1.
          5    1    4    4  503    0  0.15894539673E+02  0.48690856703E+02  0.31877641413E+02  0.60512064417E+02  0.47000000000E+01 0. -1.
         -5    1    3    3    0  502 -0.13745723051E+01 -0.56995448000E+02  0.38941173691E+02  0.69201701932E+02  0.47000000000E+01 0.  1.
<mgrwt>
<rscale>  0 0.93387639E+02</rscale>
<asrwt>0</asrwt>
<pdfrwt beam="1">  1        2 0.55886227E-02 0.93410080E+02</pdfrwt>
<pdfrwt beam="2">  1       -2 0.37467406E-01 0.93410080E+02</pdfrwt>
<totfact> 0.83135382E+03</totfact>
</mgrwt>
</event>
<event>
 8    1  0.3177960E-004  0.9598898E+02  0.7546771E-02  0.1289851E+00
         -4   -1    0    0    0  501 -0.00000000000E+00  0.00000000000E+00  0.69284221108E+02  0.69284221108E+02  0.00000000000E+00 0.  1.
          4   -1    0    0  501    0  0.00000000000E+00 -0.00000000000E+00 -0.21927828794E+03  0.21927828794E+03  0.00000000000E+00 0. -1.
         23    2    1    2    0    0 -0.12952966148E+02 -0.15189613695E+02 -0.16701499174E+03  0.19263408632E+03  0.93890255340E+02 0.  0.
         23    2    1    2    0    0  0.12952966148E+02  0.15189613695E+02  0.17020924908E+02  0.95928422734E+02  0.92271592092E+02 0.  0.
          5    1    4    4  502    0  0.35740641934E+02  0.37757534888E+02 -0.10687339463E+02  0.53285402799E+02  0.47000000000E+01 0.  1.
         -5    1    3    3    0  503 -0.41063800328E+02 -0.12709756041E+02 -0.29915209914E+02  0.52581207481E+02  0.47000000000E+01 0.  1.
          5    1    3    3  503    0  0.28110834181E+02 -0.24798576539E+01 -0.13709978183E+03  0.14005287883E+03  0.47000000000E+01 0. -1.
         -5    1    4    4    0  502 -0.22787675786E+02 -0.22567921193E+02  0.27708264371E+02  0.42643019935E+02  0.47000000000E+01 0. -1.
<mgrwt>
<rscale>  0 0.95590839E+02</rscale>
<asrwt>0</asrwt>
<pdfrwt beam="1">  1        4 0.33735120E-01 0.95988977E+02</pdfrwt>
<pdfrwt beam="2">  1       -4 0.10659111E-01 0.95988977E+02</pdfrwt>
<totfact> 0.88353476E+02</totfact>
</mgrwt>
</event>
<event>
 8    1  0.3177960E-004  0.9774888E+02  0.7546771E-02  0.1286631E+00
          1   -1    0    0  501    0  0.00000000000E+00  0.00000000000E+00  0.67543940719E+03  0.67543940719E+03  0.00000000000E+00 0. -1.
         -1   -1    0    0    0  501 -0.00000000000E+00 -0.00000000000E+00 -0.18397017701E+02  0.18397017701E+02  0.00000000000E+00 0.  1.
         23    2    1    2    0    0 -0.14107166592E+02  0.16230258574E+02  0.15766092810E+03  0.18550421107E+03  0.95354132763E+02 0.  0.
         23    2    1    2    0    0  0.14107166592E+02 -0.16230258574E+02  0.49938146139E+03  0.50833221381E+03  0.92506011586E+02 0.  0.
          5    1    3    3  502    0  0.36775496127E+02  0.15101009547E+02  0.10379937207E+03  0.11125141459E+03  0.47000000000E+01 0. -1.
         -5    1    4    4    0  503  0.18699272392E+01 -0.49407479519E+02  0.17242444824E+03  0.17943487959E+03  0.47000000000E+01 0.  1.
          5    1    4    4  503    0  0.12237239353E+02  0.33177220945E+02  0.32695701315E+03  0.32889733423E+03  0.47000000000E+01 0. -1.
         -5    1    3    3    0  502 -0.50882662719E+02  0.11292490268E+01  0.53861556023E+02  0.74252796486E+02  0.47000000000E+01 0.  1.
<mgrwt>
<rscale>  0 0.97047296E+02</rscale>
<asrwt>0</asrwt>
<pdfrwt beam="1">  1        1 0.10391374E+00 0.97748883E+02</pdfrwt>
<pdfrwt beam="2">  1       -1 0.28303109E-02 0.97748883E+02</pdfrwt>
<totfact> 0.11381625E+04</totfact>
</mgrwt>
</event>
<event>
 8    1  0.3177960E-004  0.9726222E+02  0.7546771E-02  0.1288213E+00
         -1   -1    0    0    0  501 -0.00000000000E+00  0.00000000000E+00  0.69412955988E+02  0.69412955988E+02  0.00000000000E+00 0.  1.
          1   -1    0    0  501    0  0.00000000000E+00 -0.00000000000E+00 -0.14311749838E+03  0.14311749838E+03  0.00000000000E+00 0. -1.
         23    2    1    2    0    0  0.13248489064E+02  0.22928237705E+02 -0.66896817958E+02  0.11503028003E+03  0.89752741039E+02 0.  0.
         23    2    1    2    0    0 -0.13248489064E+02 -0.22928237705E+02 -0.68077244361E+01  0.97500174341E+02  0.93587992487E+02 0.  0.
          5    1    4    4  502    0 -0.67938152357E+00 -0.44292933410E+02 -0.37174447746E+02  0.58020298815E+02  0.47000000000E+01 0. -1.
         -5    1    4    4    0  502 -0.12569107540E+02  0.21364695706E+02  0.30366723310E+02  0.39479875526E+02  0.47000000000E+01 0.  1.
          5    1    3    3  503    0 -0.19855057515E+02  0.44211207508E+02 -0.55410306571E+02  0.73764803616E+02  0.47000000000E+01 0. -1.
         -5    1    3    3    0  503  0.33103546579E+02 -0.21282969803E+02 -0.11486511387E+02  0.41265476413E+02  0.47000000000E+01 0.  1.
<mgrwt>
<rscale>  0 0.96327699E+02</rscale>
<asrwt>0</asrwt>
<pdfrwt beam="1">  1        1 0.22018077E-01 0.97262217E+02</pdfrwt>
<pdfrwt beam="2">  1       -1 0.10678916E-01 0.97262217E+02</pdfrwt>
<totfact> 0.11291716E+04</totfact>
</mgrwt>
</event>
<event>
 7    1  0.3177960E-004  0.1891070E+03  0.7546771E-02  0.1173267E+00
          3   -1    0    0  501    0  0.00000000000E+00  0.00000000000E+00  0.43254983645E+02  0.43254983645E+02  0.00000000000E+00 0. -1.
         -3   -1    0    0    0  501 -0.00000000000E+00 -0.00000000000E+00 -0.72281432267E+03  0.72281432267E+03  0.00000000000E+00 0.  1.
         23    2    1    2    0    0 -0.62018863295E+02  0.78080580226E+02 -0.14707414046E+03  0.20100123012E+03  0.93956241442E+02 0.  0.
          5    1    3    3  502    0 -0.14464736075E+02  0.78194797138E+02 -0.53580113680E+02  0.96002986782E+02  0.47000000000E+01 0. -1.
         -5    1    3    3    0  502 -0.47554127221E+02 -0.11421691189E+00 -0.93494026775E+02  0.10499824334E+03  0.47000000000E+01 0.  1.
          5    1    1    2  503    0  0.24026590047E+02  0.17592724500E+02 -0.88929620667E+01  0.31431763536E+02  0.47000000000E+01 0. -1.
         -5    1    1    2    0  503  0.37992273248E+02 -0.95673304725E+02 -0.52359223651E+03  0.53363631266E+03  0.47000000000E+01 0.  1.
<mgrwt>
<rscale>  0 0.17446796E+03</rscale>
<asrwt>0</asrwt>
<pdfrwt beam="1">  1        3 0.66546132E-02 0.18910696E+03</pdfrwt>
<pdfrwt beam="2">  1       -3 0.11120220E+00 0.18910696E+03</pdfrwt>
<totfact> 0.24739470E+02</totfact>
</mgrwt>
</event>
<event>
 8    1  0.3177960E-004  0.9614916E+02  0.7546771E-02  0.1290248E+00
          1   -1    0    0  501    0  0.00000000000E+00  0.00000000000E+00  0.30097788537E+03  0.30097788537E+03  0.00000000000E+00 0. -1.
         -1   -1    0    0    0  501 -0.00000000000E+00 -0.00000000000E+00 -0.55515821619E+02  0.55515821619E+02  0.00000000000E+00 0.  1.
         23    2    1    2    0    0 -0.23385277426E+02  0.10868112306E+02  0.24192423939E+01  0.96179594251E+02  0.92626532652E+02 0.  0.
         23    2    1    2    0    0  0.23385277426E+02 -0.10868112306E+02  0.24304282136E+03  0.26031411274E+03  0.89602662976E+02 0.  0.
          5    1    4    4  502    0  0.44878171849E+02  0.24483479553E+02  0.14384575256E+03  0.15273238559E+03  0.47000000000E+01 0. -1.
         -5    1    3    3    0  503 -0.28659569200E+02  0.49195143445E+02  0.29355143694E+01  0.57203498931E+02  0.47000000000E+01 0.  1.
          5    1    3    3  503    0  0.52742917747E+01 -0.38327031139E+02 -0.51627197552E+00  0.38976095320E+02  0.47000000000E+01 0. -1.
         -5    1    4    4    0  502 -0.21492894423E+02 -0.35351591859E+02  0.99197068794E+02  0.10758172714E+03  0.47000000000E+01 0.  1.
<mgrwt>
<rscale>  0 0.95413371E+02</rscale>
<asrwt>0</asrwt>
<pdfrwt beam="1">  1        1 0.46304289E-01 0.96149163E+02</pdfrwt>
<pdfrwt beam="2">  1       -1 0.85408958E-02 0.96149163E+02</pdfrwt>
<totfact> 0.63285070E+03</totfact>
</mgrwt>
</event>
<event>
 8    1  0.3177960E-004  0.9227050E+02  0.7546771E-02  0.1299014E+00
          3   -1    0    0  501    0  0.00000000000E+00  0.00000000000E+00  0.78274059054E+02  0.78274059054E+02  0.00000000000E+00 0. -1.
         -3   -1    0    0    0  501 -0.00000000000E+00 -0.00000000000E+00 -0.17324617157E+03  0.17324617157E+03  0.00000000000E+00 0.  1.
         23    2    1    2    0    0 -0.47467430138E+00 -0.89307659583E+01 -0.12643792954E+03  0.15652601989E+03  0.91836054893E+02 0.  0.
         23    2    1    2    0    0  0.47467430138E+00  0.89307659583E+01  0.31465817026E+02  0.94994210737E+02  0.89184183217E+02 0.  0.
          5    1    3    3  502    0 -0.24460685933E+02  0.31168098001E+02 -0.32333616890E+02  0.51354924501E+02  0.47000000000E+01 0. -1.
         -5    1    4    4    0  503  0.18676764926E+02  0.18650377629E+02 -0.23778346715E+02  0.35835149034E+02  0.47000000000E+01 0.  1.
          5    1    4    4  503    0 -0.18202090625E+02 -0.97196116703E+01  0.55244163741E+02  0.59159061703E+02  0.47000000000E+01 0. -1.
         -5    1    3    3    0  502  0.23986011631E+02 -0.40098863960E+02 -0.94104312651E+02  0.10517109538E+03  0.47000000000E+01 0.  1.
<mgrwt>
<rscale>  0 0.91603548E+02</rscale>
<asrwt>0</asrwt>
<pdfrwt beam="1">  1        3 0.12042163E-01 0.92270498E+02</pdfrwt>
<pdfrwt beam="2">  1       -3 0.26653257E-01 0.92270498E+02</pdfrwt>
<totfact> 0.15452093E+03</totfact>
</mgrwt>
</event>
<event>
 8    1  0.3177960E-004  0.1023455E+03  0.7546771E-02  0.1276363E+00
          1   -1    0    0  501    0  0.00000000000E+00  0.00000000000E+00  0.16621828280E+03  0.16621828280E+03  0.00000000000E+00 0. -1.
         -1   -1    0    0    0  501 -0.00000000000E+00 -0.00000000000E+00 -0.12694129302E+03  0.12694129302E+03  0.00000000000E+00 0.  1.
         23    2    1    2    0    0  0.53177957978E+01 -0.35837630014E+02 -0.85183439500E+02  0.13315714485E+03  0.95718295960E+02 0.  0.
         23    2    1    2    0    0 -0.53177957978E+01  0.35837630014E+02  0.12446042928E+03  0.16000243097E+03  0.93796400691E+02 0.  0.
          5    1    4    4  502    0  0.33597249935E+02  0.48535049296E+02  0.77386750255E+02  0.97443446821E+02  0.47000000000E+01 0.  1.
         -5    1    4    4    0  502 -0.38915045733E+02 -0.12697419282E+02  0.47073679025E+02  0.62558984149E+02  0.47000000000E+01 0. -1.
          5    1    3    3  503    0 -0.33902382731E+01 -0.64002721823E+02 -0.31128689460E+02  0.71406774355E+02  0.47000000000E+01 0. -1.
         -5    1    3    3    0  503  0.87080340708E+01  0.28165091809E+02 -0.54054750040E+02  0.61750370492E+02  0.47000000000E+01 0.  1.
<mgrwt>
<rscale>  0 0.10189376E+03</rscale>
<asrwt>0</asrwt>
<pdfrwt beam="1">  1        1 0.25572044E-01 0.10234553E+03</pdfrwt>
<pdfrwt beam="2">  1       -1 0.19529430E-01 0.10234553E+03</pdfrwt>
<totfact> 0.36875635E+03</totfact>
</mgrwt>
</event>
<event>
 8    1  0.3177960E-004  0.1038407E+03  0.7546771E-02  0.1272638E+00
         -1   -1    0    0    0  501 -0.00000000000E+00  0.00000000000E+00  0.38334229487E+03  0.38334229487E+03  0.00000000000E+00 0.  1.
          1   -1    0    0  501    0  0.00000000000E+00 -0.00000000000E+00 -0.32602558940E+02  0.32602558940E+02  0.00000000000E+00 0. -1.
         23    2    1    2    0    0  0.47775310608E+02  0.12944252338E+02  0.25309909553E+03  0.27340858031E+03  0.90791330277E+02 0.  0.
         23    2    1    2    0    0 -0.47775310608E+02 -0.12944252338E+02  0.97640640393E+02  0.14253627350E+03  0.91284503803E+02 0.  0.
          5    1    3    3  502    0  0.29407041350E+02 -0.36194170654E+02  0.82741688648E+02  0.95095053029E+02  0.47000000000E+01 0. -1.
         -5    1    3    3    0  502  0.18368269258E+02  0.49138422992E+02  0.17035740688E+03  0.17831352728E+03  0.47000000000E+01 0.  1.
          5    1    4    4  503    0  0.13758994260E+00 -0.41003126187E+02  0.17273017173E+02  0.44740612539E+02  0.47000000000E+01 0. -1.
         -5    1    4    4    0  503 -0.47912900550E+02  0.28058873848E+02  0.80367623220E+02  0.97795660961E+02  0.47000000000E+01 0.  1.
<mgrwt>
<rscale>  0 0.10373223E+03</rscale>
<asrwt>0</asrwt>
<pdfrwt beam="1">  1        1 0.50157786E-02 0.10384072E+03</pdfrwt>
<pdfrwt beam="2">  1       -1 0.58975734E-01 0.10384072E+03</pdfrwt>
<totfact> 0.46664981E+03</totfact>
</mgrwt>
</event>
<event>
 8    1  0.3177960E-004  0.1175949E+03  0.7546771E-02  0.1247763E+00
          2   -1    0    0  501    0  0.00000000000E+00  0.00000000000E+00  0.23715693980E+03  0.23715693980E+03  0.00000000000E+00 0. -1.
         -2   -1    0    0    0  501 -0.00000000000E+00 -0.00000000000E+00 -0.62476516044E+02  0.62476516044E+02  0.00000000000E+00 0.  1.
         23    2    1    2    0    0 -0.14480299146E+02 -0.71188625815E+02  0.44802966975E+02  0.12442866086E+03  0.90541075125E+02 0.  0.
         23    2    1    2    0    0  0.14480299146E+02  0.71188625815E+02  0.12987745678E+03  0.17520479499E+03  0.92471978981E+02 0.  0.
          5    1    4    4  502    0  0.30519504629E+02 -0.49544342842E+00  0.81417584795E+02  0.87078118611E+02  0.47000000000E+01 0. -1.
         -5    1    3    3    0  503 -0.43814817269E+02 -0.18992395861E+02 -0.23934257039E+01  0.48044435676E+02  0.47000000000E+01 0.  1.
          5    1    3    3  503    0  0.29334518123E+02 -0.52196229955E+02  0.47196392678E+02  0.76384225183E+02  0.47000000000E+01 0. -1.
         -5    1    4    4    0  502 -0.16039205482E+02  0.71684069244E+02  0.48459871990E+02  0.88126676376E+02  0.47000000000E+01 0.  1.
<mgrwt>
<rscale>  0 0.11721502E+03</rscale>
<asrwt>0</asrwt>
<pdfrwt beam="1">  1        2 0.36485682E-01 0.11759493E+03</pdfrwt>
<pdfrwt beam="2">  1       -2 0.96117719E-02 0.11759493E+03</pdfrwt>
<totfact> 0.93393405E+03</totfact>
</mgrwt>
</event>
<event>
 8    1  0.3177960E-004  0.1009830E+03  0.7546771E-02  0.1278916E+00
         -1   -1    0    0    0  501 -0.00000000000E+00  0.00000000000E+00  0.25105524224E+02  0.25105524224E+02  0.00000000000E+00 0.  1.
          1   -1    0    0  501    0  0.00000000000E+00 -0.00000000000E+00 -0.40224296352E+03  0.40224296352E+03  0.00000000000E+00 0. -1.
         23    2    1    2    0    0  0.37619695999E+02  0.14997066543E+02 -0.17558067914E+03  0.20190961539E+03  0.91097554109E+02 0.  0.
         23    2    1    2    0    0 -0.37619695999E+02 -0.14997066543E+02 -0.20155676015E+03  0.22543887235E+03  0.92506238030E+02 0.  0.
          5    1    3    3  502    0 -0.27771532651E+02  0.16389453377E+01 -0.83136571839E+02  0.87793642964E+02  0.47000000000E+01 0. -1.
         -5    1    4    4    0  503 -0.11620439682E+02  0.26304536131E+02 -0.15448030237E+02  0.32980219491E+02  0.47000000000E+01 0.  1.
          5    1    4    4  503    0 -0.25999256318E+02 -0.41301602674E+02 -0.18610872991E+03  0.19245865286E+03  0.47000000000E+01 0. -1.
         -5    1    3    3    0  502  0.65391228651E+02  0.13358121205E+02 -0.92444107305E+02  0.11411597242E+03  0.47000000000E+01 0.  1.
<mgrwt>
<rscale>  0 0.10065919E+03</rscale>
<asrwt>0</asrwt>
<pdfrwt beam="1">  1        1 0.61883534E-01 0.10098296E+03</pdfrwt>
<pdfrwt beam="2">  1       -1 0.38623883E-02 0.10098296E+03</pdfrwt>
<totfact> 0.14323993E+04</totfact>
</mgrwt>
</event>
<event>
 8    1  0.3177960E-004  0.1603065E+03  0.7546771E-02  0.1189216E+00
          2   -1    0    0  501    0  0.00000000000E+00  0.00000000000E+00  0.24588228051E+03  0.24588228051E+03  0.00000000000E+00 0. -1.
         -2   -1    0    0    0  501 -0.00000000000E+00 -0.00000000000E+00 -0.15043444226E+03  0.15043444226E+03  0.00000000000E+00 0.  1.
         23    2    1    2    0    0 -0.13078005419E+03 -0.16422869337E+02  0.15921725650E+03  0.22379214871E+03  0.85788448213E+02 0.  0.
         23    2    1    2    0    0  0.13078005419E+03  0.16422869337E+02 -0.63769418246E+02  0.17252457406E+03  0.91241748881E+02 0.  0.
          5    1    3    3  502    0 -0.80485720495E+02 -0.51571896776E+02  0.95109859196E+02  0.13492808105E+03  0.47000000000E+01 0. -1.
         -5    1    4    4    0  503  0.91814932694E+01  0.34137113773E+02 -0.25125507646E+02  0.43623657457E+02  0.47000000000E+01 0.  1.
          5    1    4    4  503    0  0.12159856092E+03 -0.17714244436E+02 -0.38643910601E+02  0.12890091660E+03  0.47000000000E+01 0. -1.
         -5    1    3    3    0  502 -0.50294333695E+02  0.35149027439E+02  0.64107397304E+02  0.88864067658E+02  0.47000000000E+01 0. -1.
<mgrwt>
<rscale>  0 0.15954110E+03</rscale>
<asrwt>0</asrwt>
<pdfrwt beam="1">  1        2 0.37828043E-01 0.16030655E+03</pdfrwt>
<pdfrwt beam="2">  1       -2 0.23143760E-01 0.16030655E+03</pdfrwt>
<totfact> 0.21692297E+03</totfact>
</mgrwt>
</event>
<event>
 8    1  0.3177960E-004  0.1145110E+03  0.7546771E-02  0.1252936E+00
          1   -1    0    0  501    0  0.00000000000E+00  0.00000000000E+00  0.42064779446E+03  0.42064779446E+03  0.00000000000E+00 0. -1.
         -1   -1    0    0    0  501 -0.00000000000E+00 -0.00000000000E+00 -0.33640160632E+02  0.33640160632E+02  0.00000000000E+00 0.  1.
         23    2    1    2    0    0  0.15846251959E+02  0.66871562000E+02  0.12739587246E+03  0.17054328954E+03  0.90179796976E+02 0.  0.
         23    2    1    2    0    0 -0.15846251959E+02 -0.66871562000E+02  0.25961176136E+03  0.28374466555E+03  0.91596173951E+02 0.  0.
          5    1    4    4  502    0  0.10341850655E+02 -0.33688951759E+02  0.20831665131E+02  0.41206159949E+02  0.47000000000E+01 0. -1.
         -5    1    3    3    0  503 -0.11339868450E+02  0.80118916633E+02  0.78349450705E+02  0.11273136141E+03  0.47000000000E+01 0.  1.
          5    1    3    3  503    0  0.27186120409E+02 -0.13247354634E+02  0.49046421758E+02  0.57811928137E+02  0.47000000000E+01 0. -1.
         -5    1    4    4    0  502 -0.26188102614E+02 -0.33182610241E+02  0.23878009623E+03  0.24253850560E+03  0.47000000000E+01 0.  1.
<mgrwt>
<rscale>  0 0.11422751E+03</rscale>
<asrwt>0</asrwt>
<pdfrwt beam="1">  1        1 0.64715041E-01 0.11451100E+03</pdfrwt>
<pdfrwt beam="2">  1       -1 0.51754097E-02 0.11451100E+03</pdfrwt>
<totfact> 0.89137642E+03</totfact>
</mgrwt>
</event>
<event>
 8    1  0.3177960E-004  0.9702679E+02  0.7546771E-02  0.1286994E+00
         -1   -1    0    0    0  501 -0.00000000000E+00  0.00000000000E+00  0.42938944872E+03  0.42938944872E+03  0.00000000000E+00 0.  1.
          1   -1    0    0  501    0  0.00000000000E+00 -0.00000000000E+00 -0.57583325433E+02  0.57583325433E+02  0.00000000000E+00 0. -1.
         23    2    1    2    0    0 -0.19823785868E+02  0.25493236127E+02  0.37807090647E+03  0.39032269683E+03  0.91494861974E+02 0.  0.
         23    2    1    2    0    0  0.19823785868E+02 -0.25493236127E+02 -0.62647831838E+01  0.96650077321E+02  0.90879603672E+02 0.  0.
          5    1    4    4  502    0  0.80902888490E+01 -0.57697312730E+02  0.84430904692E+01  0.59057670514E+02  0.47000000000E+01 0. -1.
         -5    1    4    4    0  502  0.11733497019E+02  0.32204076603E+02 -0.14707873653E+02  0.37592406807E+02  0.47000000000E+01 0.  1.
          5    1    3    3  503    0  0.36024570128E+01 -0.21183249330E+02  0.24664926254E+02  0.33047788667E+02  0.47000000000E+01 0. -1.
         -5    1    3    3    0  503 -0.23426242880E+02  0.46676485457E+02  0.35340598022E+03  0.35727490816E+03  0.47000000000E+01 0.  1.
<mgrwt>
<rscale>  0 0.96881470E+02</rscale>
<asrwt>0</asrwt>
<pdfrwt beam="1">  1        1 0.88589734E-02 0.97026787E+02</pdfrwt>
<pdfrwt beam="2">  1       -1 0.66059913E-01 0.97026787E+02</pdfrwt>
<totfact> 0.17479807E+03</totfact>
</mgrwt>
</event>
<event>
 8    1  0.3177960E-004  0.1048711E+03  0.7546771E-02  0.1272069E+00
          1   -1    0    0  501    0  0.00000000000E+00  0.00000000000E+00  0.25124177074E+03  0.25124177074E+03  0.00000000000E+00 0. -1.
         -1   -1    0    0    0  501 -0.00000000000E+00 -0.00000000000E+00 -0.47856337709E+02  0.47856337709E+02  0.00000000000E+00 0.  1.
         23    2    1    2    0    0  0.89342955572E+01  0.50171453579E+02  0.15081858664E+03  0.18178991604E+03  0.87774319182E+02 0.  0.
         23    2    1    2    0    0 -0.89342955572E+01 -0.50171453579E+02  0.52566846391E+02  0.11730819240E+03  0.91656654283E+02 0.  0.
          5    1    4    4  502    0  0.21924844694E+02 -0.54959369190E+02  0.60490580828E+02  0.84749226814E+02  0.47000000000E+01 0.  1.
         -5    1    3    3    0  503 -0.21865150855E+02  0.16948952212E+02  0.43416826126E+01  0.28395281491E+02  0.47000000000E+01 0.  1.
          5    1    3    3  503    0  0.30799446413E+02  0.33222501366E+02  0.14647690402E+03  0.15339463455E+03  0.47000000000E+01 0. -1.
         -5    1    4    4    0  502 -0.30859140251E+02  0.47879156114E+01 -0.79237344371E+01  0.32558965591E+02  0.47000000000E+01 0. -1.
<mgrwt>
<rscale>  0 0.10401677E+03</rscale>
<asrwt>0</asrwt>
<pdfrwt beam="1">  1        1 0.38652579E-01 0.10487106E+03</pdfrwt>
<pdfrwt beam="2">  1       -1 0.73625137E-02 0.10487106E+03</pdfrwt>
<totfact> 0.99243118E+03</totfact>
</mgrwt>
</event>
<event>
 8    1  0.3177960E-004  0.1588102E+03  0.7546771E-02  0.1190582E+00
          1   -1    0    0  501    0  0.00000000000E+00  0.00000000000E+00  0.10198286980E+03  0.10198286980E+03  0.00000000000E+00 0. -1.
         -1   -1    0    0    0  501 -0.00000000000E+00 -0.00000000000E+00 -0.25848328662E+03  0.25848328662E+03  0.00000000000E+00 0.  1.
         23    2    1    2    0    0 -0.74084015947E+02 -0.10616280769E+03 -0.11987680543E+03  0.19748769624E+03  0.88724058350E+02 0.  0.
         23    2    1    2    0    0  0.74084015947E+02  0.10616280769E+03 -0.36623611388E+02  0.16297846018E+03  0.91987534032E+02 0.  0.
          5    1    3    3  502    0 -0.61764418811E+02 -0.27524694253E+02 -0.22044478531E+02  0.71277635051E+02  0.47000000000E+01 0. -1.
         -5    1    4    4    0  503  0.51168438981E+02  0.74147439845E+02 -0.67544673460E+02  0.11269616185E+03  0.47000000000E+01 0.  1.
          5    1    4    4  503    0  0.22915576965E+02  0.32015367842E+02  0.30921062072E+02  0.50282298330E+02  0.47000000000E+01 0. -1.
         -5    1    3    3    0  502 -0.12319597136E+02 -0.78638113433E+02 -0.97832326902E+02  0.12621006119E+03  0.47000000000E+01 0.  1.
<mgrwt>
<rscale>  0 0.15834122E+03</rscale>
<asrwt>0</asrwt>
<pdfrwt beam="1">  1        1 0.15689672E-01 0.15881023E+03</pdfrwt>
<pdfrwt beam="2">  1       -1 0.39766659E-01 0.15881023E+03</pdfrwt>
<totfact> 0.21434368E+03</totfact>
</mgrwt>
</event>
<event>
 8    1  0.3177960E-004  0.1112954E+03  0.7546771E-02  0.1258593E+00
          1   -1    0    0  501    0  0.00000000000E+00  0.00000000000E+00  0.24635397890E+03  0.24635397890E+03  0.00000000000E+00 0. -1.
         -1   -1    0    0    0  501 -0.00000000000E+00 -0.00000000000E+00 -0.83403290873E+02  0.83403290873E+02  0.00000000000E+00 0.  1.
         23    2    1    2    0    0  0.25415161285E+01  0.63598647105E+02 -0.22857982008E+02  0.11361843494E+03  0.91298489578E+02 0.  0.
         23    2    1    2    0    0 -0.25415161285E+01 -0.63598647105E+02  0.18580867003E+03  0.21613883483E+03  0.90221321452E+02 0.  0.
          5    1    4    4  502    0 -0.45105970058E+02 -0.33630586418E+02  0.11518018437E+03  0.12827365182E+03  0.47000000000E+01 0. -1.
         -5    1    3    3    0  503  0.20097385161E+02  0.15586710067E+02 -0.49448500987E+02  0.55804073963E+02  0.47000000000E+01 0.  1.
          5    1    3    3  503    0 -0.17555869033E+02  0.48011937038E+02  0.26590518979E+02  0.57814360978E+02  0.47000000000E+01 0. -1.
         -5    1    4    4    0  502  0.42564453930E+02 -0.29968060687E+02  0.70628485659E+02  0.87865183014E+02  0.47000000000E+01 0.  1.
<mgrwt>
<rscale>  0 0.11107424E+03</rscale>
<asrwt>0</asrwt>
<pdfrwt beam="1">  1        1 0.37900612E-01 0.11129538E+03</pdfrwt>
<pdfrwt beam="2">  1       -1 0.12831276E-01 0.11129538E+03</pdfrwt>
<totfact> 0.44002977E+03</totfact>
</mgrwt>
</event>
<event>
 8    1  0.3177960E-004  0.1108234E+03  0.7546771E-02  0.1260014E+00
         -1   -1    0    0    0  501 -0.00000000000E+00  0.00000000000E+00  0.69595975393E+02  0.69595975393E+02  0.00000000000E+00 0.  1.
          1   -1    0    0  501    0  0.00000000000E+00 -0.00000000000E+00 -0.19938556783E+03  0.19938556783E+03  0.00000000000E+00 0. -1.
         23    2    1    2    0    0  0.28587835459E+02  0.51425637146E+02 -0.15608313686E+02  0.10986148668E+03  0.91455269433E+02 0.  0.
         23    2    1    2    0    0 -0.28587835459E+02 -0.51425637146E+02 -0.11418127875E+03  0.15912005655E+03  0.93914681949E+02 0.  0.
          5    1    4    4  502    0 -0.87149582952E+01 -0.77179177285E+02 -0.83923158785E+02  0.11444545638E+03  0.47000000000E+01 0. -1.
         -5    1    4    4    0  502 -0.19872877164E+02  0.25753540139E+02 -0.30258119968E+02  0.44674600171E+02  0.47000000000E+01 0.  1.
          5    1    3    3  503    0  0.39705467138E+02 -0.12945238203E+02 -0.14177605070E+02  0.44353103593E+02  0.47000000000E+01 0. -1.
         -5    1    3    3    0  503 -0.11117631680E+02  0.64370875349E+02 -0.14307086158E+01  0.65508383086E+02  0.47000000000E+01 0.  1.
<mgrwt>
<rscale>  0 0.11030064E+03</rscale>
<asrwt>0</asrwt>
<pdfrwt beam="1">  1        1 0.30674702E-01 0.11082341E+03</pdfrwt>
<pdfrwt beam="2">  1       -1 0.10707073E-01 0.11082341E+03</pdfrwt>
<totfact> 0.75326936E+03</totfact>
</mgrwt>
</event>
<event>
 8    1  0.3177960E-004  0.9483637E+02  0.7546771E-02  0.1293894E+00
          2   -1    0    0  501    0  0.00000000000E+00  0.00000000000E+00  0.38638482925E+03  0.38638482925E+03  0.00000000000E+00 0. -1.
         -2   -1    0    0    0  501 -0.00000000000E+00 -0.00000000000E+00 -0.22875457293E+02  0.22875457293E+02  0.00000000000E+00 0.  1.
         23    2    1    2    0    0 -0.15026903897E+02  0.18352242138E+02  0.14514933915E+03  0.17119508273E+03  0.87617424430E+02 0.  0.
         23    2    1    2    0    0  0.15026903897E+02 -0.18352242138E+02  0.21836003281E+03  0.23806520381E+03  0.91822245158E+02 0.  0.
          5    1    4    4  502    0  0.39806071038E+02  0.10410366081E+02  0.17677602545E+03  0.18156197892E+03  0.47000000000E+01 0. -1.
         -5    1    3    3    0  503  0.86208092849E+01 -0.32514943263E+02  0.46005505343E+02  0.57185106540E+02  0.47000000000E+01 0.  1.
          5    1    3    3  503    0 -0.23647713182E+02  0.50867185401E+02  0.99143833807E+02  0.11400997619E+03  0.47000000000E+01 0. -1.
         -5    1    4    4    0  502 -0.24779167141E+02 -0.28762608219E+02  0.41584007356E+02  0.56503224895E+02  0.47000000000E+01 0.  1.
<mgrwt>
<rscale>  0 0.93803343E+02</rscale>
<asrwt>0</asrwt>
<pdfrwt beam="1">  1        2 0.59443815E-01 0.94836371E+02</pdfrwt>
<pdfrwt beam="2">  1       -2 0.35193014E-02 0.94836371E+02</pdfrwt>
<totfact> 0.24878868E+04</totfact>
</mgrwt>
</event>
<event>
 8    1  0.3177960E-004  0.1042718E+03  0.7546771E-02  0.1276186E+00
          1   -1    0    0  501    0  0.00000000000E+00  0.00000000000E+00  0.36422221960E+02  0.36422221960E+02  0.00000000000E+00 0. -1.
         -1   -1    0    0    0  501 -0.00000000000E+00 -0.00000000000E+00 -0.34406862030E+03  0.34406862030E+03  0.00000000000E+00 0.  1.
         23    2    1    2    0    0  0.12700679112E+02  0.20024649952E+02 -0.73267616107E+02  0.12743924422E+03  0.10153976335E+03 0.  0.
         23    2    1    2    0    0 -0.12700679112E+02 -0.20024649952E+02 -0.23437878223E+03  0.25305159804E+03  0.92408894884E+02 0.  0.
          5    1    3    3  502    0 -0.13599384213E+02  0.41009774388E+02  0.33881211377E+01  0.43592593535E+02  0.47000000000E+01 0. -1.
         -5    1    4    4    0  503 -0.24129448122E+02 -0.50104604529E+02 -0.19004111583E+03  0.19806669929E+03  0.47000000000E+01 0.  1.
          5    1    4    4  503    0  0.11428769009E+02  0.30079954576E+02 -0.44337666398E+02  0.54984898745E+02  0.47000000000E+01 0. -1.
         -5    1    3    3    0  502  0.26300063325E+02 -0.20985124435E+02 -0.76655737245E+02  0.83846650685E+02  0.47000000000E+01 0.  1.
<mgrwt>
<rscale>  0 0.10198014E+03</rscale>
<asrwt>0</asrwt>
<pdfrwt beam="1">  1        1 0.56034186E-02 0.10427184E+03</pdfrwt>
<pdfrwt beam="2">  1       -1 0.52933635E-01 0.10427184E+03</pdfrwt>
<totfact> 0.49104917E+03</totfact>
</mgrwt>
</event>
<event>
 8    1  0.3177960E-004  0.9884459E+02  0.7546771E-02  0.1283440E+00
          1   -1    0    0  501    0  0.00000000000E+00  0.00000000000E+00  0.77748161278E+02  0.77748161278E+02  0.00000000000E+00 0. -1.
         -1   -1    0    0    0  501 -0.00000000000E+00 -0.00000000000E+00 -0.14317869557E+03  0.14317869557E+03  0.00000000000E+00 0.  1.
         23    2    1    2    0    0  0.27302512488E+02  0.26023358781E+02 -0.73301073490E+02  0.12305812028E+03  0.91365262559E+02 0.  0.
         23    2    1    2    0    0 -0.27302512488E+02 -0.26023358781E+02  0.78705391937E+01  0.97868736569E+02  0.89965003307E+02 0.  0.
          5    1    3    3  502    0  0.15363582679E+02 -0.29496710324E+02 -0.47609611095E+01  0.33924214705E+02  0.47000000000E+01 0. -1.
         -5    1    3    3    0  502  0.11938929810E+02  0.55520069105E+02 -0.68540112380E+02  0.89133905577E+02  0.47000000000E+01 0.  1.
          5    1    4    4  503    0 -0.12550752383E+02 -0.43173685483E+02  0.38585228439E+02  0.59433983186E+02  0.47000000000E+01 0. -1.
         -5    1    4    4    0  503 -0.14751760105E+02  0.17150326703E+02 -0.30714689246E+02  0.38434753384E+02  0.47000000000E+01 0.  1.
<mgrwt>
<rscale>  0 0.98519785E+02</rscale>
<asrwt>0</asrwt>
<pdfrwt beam="1">  1        1 0.11961256E-01 0.98844593E+02</pdfrwt>
<pdfrwt beam="2">  1       -1 0.22027491E-01 0.98844593E+02</pdfrwt>
<totfact> 0.79680149E+03</totfact>
</mgrwt>
</event>
<event>
 8    1  0.3177960E-004  0.1089574E+03  0.7546771E-02  0.1266655E+00
         -2   -1    0    0    0  501 -0.00000000000E+00  0.00000000000E+00  0.21834939100E+03  0.21834939100E+03  0.00000000000E+00 0.  1.
          2   -1    0    0  501    0  0.00000000000E+00 -0.00000000000E+00 -0.54245034630E+02  0.54245034630E+02  0.00000000000E+00 0. -1.
         23    2    1    2    0    0 -0.44172284963E+02  0.14170239411E+01  0.11602875459E+03  0.15350207653E+03  0.90260827003E+02 0.  0.
         23    2    1    2    0    0  0.44172284963E+02 -0.14170239411E+01  0.48075601776E+02  0.11909234910E+03  0.99591793897E+02 0.  0.
          5    1    3    3  502    0 -0.33456988933E+02 -0.35017056115E+02  0.10151706739E+03  0.11257606006E+03  0.47000000000E+01 0.  1.
         -5    1    3    3    0  502 -0.10715296030E+02  0.36434080056E+02  0.14511687199E+02  0.40926016467E+02  0.47000000000E+01 0. -1.
          5    1    4    4  503    0  0.21911954754E+02 -0.43320098269E+02  0.51945670833E+02  0.71254525425E+02  0.47000000000E+01 0. -1.
         -5    1    4    4    0  503  0.22260330209E+02  0.41903074328E+02 -0.38700690572E+01  0.47837823672E+02  0.47000000000E+01 0.  1.
<mgrwt>
<rscale>  0 0.10677855E+03</rscale>
<asrwt>0</asrwt>
<pdfrwt beam="1">  1        2 0.83453901E-02 0.10895744E+03</pdfrwt>
<pdfrwt beam="2">  1       -2 0.33592214E-01 0.10895744E+03</pdfrwt>
<totfact> 0.62134673E+03</totfact>
</mgrwt>
</event>
<event>
 8    1  0.3177960E-004  0.1029676E+03  0.7546771E-02  0.1276102E+00
         -2   -1    0    0    0  501 -0.00000000000E+00  0.00000000000E+00  0.63593365700E+02  0.63593365700E+02  0.00000000000E+00 0. -1.
          2   -1    0    0  501    0  0.00000000000E+00 -0.00000000000E+00 -0.16602333324E+03  0.16602333324E+03  0.00000000000E+00 0.  1.
         23    2    1    2    0    0  0.28190519867E+02 -0.33590182925E+02 -0.72629118380E+02  0.12600521003E+03  0.93162859119E+02 0.  0.
         23    2    1    2    0    0 -0.28190519867E+02  0.33590182925E+02 -0.29800849159E+02  0.10361148891E+03  0.89018224109E+02 0.  0.
          5    1    4    4  502    0 -0.38990019998E+02  0.56691468238E+02 -0.34730111366E+02  0.77216674792E+02  0.47000000000E+01 0. -1.
         -5    1    4    4    0  502  0.10799500131E+02 -0.23101285314E+02  0.49292622069E+01  0.26394814114E+02  0.47000000000E+01 0.  1.
          5    1    3    3  503    0 -0.32754850379E+02 -0.25375045570E+01 -0.14910945520E+02  0.36383312782E+02  0.47000000000E+01 0. -1.
         -5    1    3    3    0  503  0.60945370246E+02 -0.31052678368E+02 -0.57718172860E+02  0.89621897249E+02  0.47000000000E+01 0.  1.
<mgrwt>
<rscale>  0 0.10202105E+03</rscale>
<asrwt>0</asrwt>
<pdfrwt beam="1">  1        2 0.25542051E-01 0.10296759E+03</pdfrwt>
<pdfrwt beam="2">  1       -2 0.97835948E-02 0.10296759E+03</pdfrwt>
<totfact> 0.13179201E+04</totfact>
</mgrwt>
</event>
<event>
 8    1  0.3177960E-004  0.9167280E+02  0.7546771E-02  0.1302159E+00
         -1   -1    0    0    0  501 -0.00000000000E+00  0.00000000000E+00  0.57147094840E+02  0.57147094840E+02  0.00000000000E+00 0.  1.
          1   -1    0    0  501    0  0.00000000000E+00 -0.00000000000E+00 -0.14080688105E+03  0.14080688105E+03  0.00000000000E+00 0. -1.
         23    2    1    2    0    0  0.12316830147E+02  0.17663586360E+02 -0.27892496576E+02  0.90651168994E+02  0.83522071854E+02 0.  0.
         23    2    1    2    0    0 -0.12316830147E+02 -0.17663586360E+02 -0.55767289638E+02  0.10730280690E+03  0.89107772876E+02 0.  0.
          5    1    4    4  502    0  0.25142447512E+01 -0.43451728065E+02 -0.62629851208E+02  0.76413103332E+02  0.47000000000E+01 0. -1.
         -5    1    4    4    0  502 -0.14831074898E+02  0.25788141704E+02  0.68625615697E+01  0.30889703567E+02  0.47000000000E+01 0.  1.
          5    1    3    3  503    0  0.24877740023E+02  0.47148925958E+02 -0.13423108264E+02  0.55174205958E+02  0.47000000000E+01 0. -1.
         -5    1    3    3    0  503 -0.12560909876E+02 -0.29485339598E+02 -0.14469388312E+02  0.35476963036E+02  0.47000000000E+01 0.  1.
<mgrwt>
<rscale>  0 0.90286824E+02</rscale>
<asrwt>0</asrwt>
<pdfrwt beam="1">  1        1 0.21662597E-01 0.91672797E+02</pdfrwt>
<pdfrwt beam="2">  1       -1 0.87918609E-02 0.91672797E+02</pdfrwt>
<totfact> 0.15364770E+04</totfact>
</mgrwt>
</event>
<event>
 8    1  0.3177960E-004  0.9033080E+02  0.7546771E-02  0.1305598E+00
         -1   -1    0    0    0  501 -0.00000000000E+00  0.00000000000E+00  0.62155042493E+02  0.62155042493E+02  0.00000000000E+00 0.  1.
          1   -1    0    0  501    0  0.00000000000E+00 -0.00000000000E+00 -0.78922002286E+03  0.78922002286E+03  0.00000000000E+00 0. -1.
         23    2    1    2    0    0 -0.80851152265E+01  0.10023501900E+02  0.29344509565E+02  0.89590995353E+02  0.83663651177E+02 0.  0.
         23    2    1    2    0    0  0.80851152265E+01 -0.10023501900E+02 -0.75640948993E+03  0.76178407000E+03  0.89408126973E+02 0.  0.
          5    1    4    4  502    0  0.15037251592E+02 -0.47954511353E+02 -0.37012025938E+03  0.37354631641E+03  0.47000000000E+01 0. -1.
         -5    1    3    3    0  503 -0.10867219014E+02  0.45465365596E+02  0.25685279712E+02  0.53544556322E+02  0.47000000000E+01 0.  1.
          5    1    3    3  503    0  0.27821037871E+01 -0.35441863696E+02  0.36592298527E+01  0.36046439031E+02  0.47000000000E+01 0. -1.
         -5    1    4    4    0  502 -0.69521363660E+01  0.37931009453E+02 -0.38628923055E+03  0.38823775359E+03  0.47000000000E+01 0.  1.
<mgrwt>
<rscale>  0 0.88875547E+02</rscale>
<asrwt>0</asrwt>
<pdfrwt beam="1">  1        1 0.12141847E+00 0.90330797E+02</pdfrwt>
<pdfrwt beam="2">  1       -1 0.95623141E-02 0.90330797E+02</pdfrwt>
<totfact> 0.15172725E+03</totfact>
</mgrwt>
</event>
<event>
 8    1  0.3177960E-004  0.9175394E+02  0.7546771E-02  0.1298826E+00
          1   -1    0    0  501    0  0.00000000000E+00  0.00000000000E+00  0.13428562226E+03  0.13428562226E+03  0.00000000000E+00 0. -1.
         -1   -1    0    0    0  501 -0.00000000000E+00 -0.00000000000E+00 -0.18028785447E+03  0.18028785447E+03  0.00000000000E+00 0.  1.
         23    2    1    2    0    0 -0.56071813717E+01  0.27201101225E+01 -0.15014650511E+03  0.17596238012E+03  0.91542049016E+02 0.  0.
         23    2    1    2    0    0  0.56071813717E+01 -0.27201101225E+01  0.10414427291E+03  0.13861109661E+03  0.91258791580E+02 0.  0.
          5    1    4    4  502    0  0.25422944363E+02 -0.35053552054E+02  0.85801492252E+02  0.96224028623E+02  0.47000000000E+01 0. -1.
         -5    1    4    4    0  502 -0.19815762991E+02  0.32333441932E+02  0.18342780659E+02  0.42387067985E+02  0.47000000000E+01 0.  1.
          5    1    3    3  503    0 -0.10032538018E+02  0.46149991113E+02 -0.69916223332E+02  0.84503501607E+02  0.47000000000E+01 0.  1.
         -5    1    3    3    0  503  0.44253566460E+01 -0.43429880991E+02 -0.80230281783E+02  0.91458878516E+02  0.47000000000E+01 0. -1.
<mgrwt>
<rscale>  0 0.91683212E+02</rscale>
<asrwt>0</asrwt>
<pdfrwt beam="1">  1        1 0.20659327E-01 0.91753944E+02</pdfrwt>
<pdfrwt beam="2">  1       -1 0.27736593E-01 0.91753944E+02</pdfrwt>
<totfact> 0.27124826E+03</totfact>
</mgrwt>
</event>
<event>
 8    1  0.3177960E-004  0.1438662E+03  0.7546771E-02  0.1208318E+00
          2   -1    0    0  501    0  0.00000000000E+00  0.00000000000E+00  0.78585456296E+03  0.78585456296E+03  0.00000000000E+00 0. -1.
         -2   -1    0    0    0  501 -0.00000000000E+00 -0.00000000000E+00 -0.83866995210E+02  0.83866995210E+02  0.00000000000E+00 0.  1.
         23    2    1    2    0    0  0.91687463874E+02 -0.63893571588E+02 -0.92274808819E+01  0.14416180879E+03  0.90600779183E+02 0.  0.
         23    2    1    2    0    0 -0.91687463874E+02  0.63893571588E+02  0.71121504863E+03  0.72555974938E+03  0.90117284669E+02 0.  0.
          5    1    3    3  502    0  0.73899514152E+01 -0.19202000155E+02  0.33436478045E+02  0.39540058876E+02  0.47000000000E+01 0. -1.
         -5    1    4    4    0  503 -0.61552602368E+02 -0.28529905312E+01  0.20684917418E+03  0.21588314726E+03  0.47000000000E+01 0.  1.
          5    1    4    4  503    0 -0.30134861507E+02  0.66746562119E+02  0.50436587445E+03  0.50967660211E+03  0.47000000000E+01 0. -1.
         -5    1    3    3    0  502  0.84297512459E+02 -0.44691571432E+02 -0.42663958927E+02  0.10462174991E+03  0.47000000000E+01 0.  1.
<mgrwt>
<rscale>  0 0.14379013E+03</rscale>
<asrwt>0</asrwt>
<pdfrwt beam="1">  1        2 0.12090070E+00 0.14386619E+03</pdfrwt>
<pdfrwt beam="2">  1       -2 0.12902615E-01 0.14386619E+03</pdfrwt>
<totfact> 0.15835736E+03</totfact>
</mgrwt>
</event>
<event>
 8    1  0.3177960E-004  0.1052554E+03  0.7546771E-02  0.1270915E+00
          2   -1    0    0  501    0  0.00000000000E+00  0.00000000000E+00  0.67807611292E+03  0.67807611292E+03  0.00000000000E+00 0. -1.
         -2   -1    0    0    0  501 -0.00000000000E+00 -0.00000000000E+00 -0.24817507653E+02  0.24817507653E+02  0.00000000000E+00 0.  1.
         23    2    1    2    0    0 -0.48164926170E+02 -0.49099556710E+00  0.11902819125E+03  0.15889117700E+03  0.93587363600E+02 0.  0.
         23    2    1    2    0    0  0.48164926170E+02  0.49099556710E+00  0.53423041402E+03  0.54400244358E+03  0.90644482274E+02 0.  0.
          5    1    3    3  502    0 -0.30926541560E+02  0.25075771618E+02  0.12116592981E+03  0.12762647782E+03  0.47000000000E+01 0. -1.
         -5    1    4    4    0  503  0.19750705893E+01 -0.20574263501E+02  0.27535660128E+02  0.34749155401E+02  0.47000000000E+01 0.  1.
          5    1    4    4  503    0  0.46189855581E+02  0.21065259068E+02  0.50669475389E+03  0.50925328818E+03  0.47000000000E+01 0. -1.
         -5    1    3    3    0  502 -0.17238384610E+02 -0.25566767185E+02 -0.21377385588E+01  0.31264699174E+02  0.47000000000E+01 0.  1.
<mgrwt>
<rscale>  0 0.10459728E+03</rscale>
<asrwt>0</asrwt>
<pdfrwt beam="1">  1        2 0.10431939E+00 0.10525538E+03</pdfrwt>
<pdfrwt beam="2">  1       -2 0.38180786E-02 0.10525538E+03</pdfrwt>
<totfact> 0.12037910E+04</totfact>
</mgrwt>
</event>
<event>
 8    1  0.3177960E-004  0.9632771E+02  0.7546771E-02  0.1288250E+00
         -1   -1    0    0    0  501 -0.00000000000E+00  0.00000000000E+00  0.46750290555E+02  0.46750290555E+02  0.00000000000E+00 0.  1.
          1   -1    0    0  501    0  0.00000000000E+00 -0.00000000000E+00 -0.21659531793E+03  0.21659531793E+03  0.00000000000E+00 0. -1.
         23    2    1    2    0    0  0.32402593090E+02  0.68165818753E+00 -0.12311861607E+03  0.15628308234E+03  0.90641135841E+02 0.  0.
         23    2    1    2    0    0 -0.32402593090E+02 -0.68165818753E+00 -0.46726411307E+02  0.10706252614E+03  0.90711820035E+02 0.  0.
          5    1    4    4  502    0 -0.16912958550E+02 -0.42371237463E+02 -0.41828682435E+02  0.62073332481E+02  0.47000000000E+01 0. -1.
         -5    1    4    4    0  502 -0.15489634540E+02  0.41689579276E+02 -0.48977288716E+01  0.44989193663E+02  0.47000000000E+01 0.  1.
          5    1    3    3  503    0 -0.24718940862E+02  0.25810937750E+00 -0.81917206765E+02  0.85694873954E+02  0.47000000000E+01 0. -1.
         -5    1    3    3    0  503  0.57121533952E+02  0.42354881003E+00 -0.41201409303E+02  0.70588208386E+02  0.47000000000E+01 0.  1.
<mgrwt>
<rscale>  0 0.96311062E+02</rscale>
<asrwt>0</asrwt>
<pdfrwt beam="1">  1        1 0.33322357E-01 0.96327706E+02</pdfrwt>
<pdfrwt beam="2">  1       -1 0.71923523E-02 0.96327706E+02</pdfrwt>
<totfact> 0.12234095E+04</totfact>
</mgrwt>
</event>
<event>
 8    1  0.3177960E-004  0.1687919E+03  0.7546771E-02  0.1179551E+00
         -2   -1    0    0    0  501 -0.00000000000E+00  0.00000000000E+00  0.60019031741E+02  0.60019031741E+02  0.00000000000E+00 0.  1.
          2   -1    0    0  501    0  0.00000000000E+00 -0.00000000000E+00 -0.55301283864E+03  0.55301283864E+03  0.00000000000E+00 0. -1.
         23    2    1    2    0    0 -0.32508966243E+02  0.13653014405E+03 -0.12674683306E+03  0.20976079680E+03  0.90760779319E+02 0.  0.
         23    2    1    2    0    0  0.32508966243E+02 -0.13653014405E+03 -0.36624697384E+03  0.40327107358E+03  0.93773129527E+02 0.  0.
          5    1    4    4  502    0  0.64643995642E+02 -0.10561702512E+03 -0.26522944198E+03  0.29274997705E+03  0.47000000000E+01 0. -1.
         -5    1    4    4    0  502 -0.32135029399E+02 -0.30913118927E+02 -0.10101753185E+03  0.11052109653E+03  0.47000000000E+01 0.  1.
          5    1    3    3  503    0 -0.51452536490E+02  0.37700029987E+02 -0.67046419174E+02  0.92660499115E+02  0.47000000000E+01 0. -1.
         -5    1    3    3    0  503  0.18943570247E+02  0.98830114063E+02 -0.59700413886E+02  0.11710029768E+03  0.47000000000E+01 0.  1.
<mgrwt>
<rscale>  0 0.16837670E+03</rscale>
<asrwt>0</asrwt>
<pdfrwt beam="1">  1        2 0.85078898E-01 0.16879192E+03</pdfrwt>
<pdfrwt beam="2">  1       -2 0.92336972E-02 0.16879192E+03</pdfrwt>
<totfact> 0.40914796E+03</totfact>
</mgrwt>
</event>
<event>
 8    1  0.3177960E-004  0.9586867E+02  0.7546771E-02  0.1290137E+00
          2   -1    0    0  501    0  0.00000000000E+00  0.00000000000E+00  0.24073730711E+03  0.24073730711E+03  0.00000000000E+00 0. -1.
         -2   -1    0    0    0  501 -0.00000000000E+00 -0.00000000000E+00 -0.38986523745E+02  0.38986523745E+02  0.00000000000E+00 0.  1.
         23    2    1    2    0    0 -0.26451134908E+02  0.34507221270E+01  0.12701062982E+03  0.15816358945E+03  0.90401609059E+02 0.  0.
         23    2    1    2    0    0  0.26451134908E+02 -0.34507221270E+01  0.74740153548E+02  0.12156024140E+03  0.92082743859E+02 0.  0.
          5    1    4    4  502    0  0.43495468072E+02  0.28837670957E+02  0.64983502784E+02  0.83477018653E+02  0.47000000000E+01 0. -1.
         -5    1    3    3    0  503 -0.45088896133E+02  0.22414896204E+02  0.33083084918E+02  0.60431917345E+02  0.47000000000E+01 0.  1.
          5    1    3    3  503    0  0.18637761224E+02 -0.18964174077E+02  0.93927544900E+02  0.97731672107E+02  0.47000000000E+01 0. -1.
         -5    1    4    4    0  502 -0.17044333164E+02 -0.32288393084E+02  0.97566507645E+01  0.38083222751E+02  0.47000000000E+01 0.  1.
<mgrwt>
<rscale>  0 0.95462702E+02</rscale>
<asrwt>0</asrwt>
<pdfrwt beam="1">  1        2 0.37036508E-01 0.95868669E+02</pdfrwt>
<pdfrwt beam="2">  1       -2 0.59979268E-02 0.95868669E+02</pdfrwt>
<totfact> 0.18565542E+04</totfact>
</mgrwt>
</event>
<event>
 8    1  0.3177960E-004  0.1150796E+03  0.7546771E-02  0.1252026E+00
         -2   -1    0    0    0  501 -0.00000000000E+00  0.00000000000E+00  0.16038843838E+03  0.16038843838E+03  0.00000000000E+00 0.  1.
          2   -1    0    0  501    0  0.00000000000E+00 -0.00000000000E+00 -0.15652663918E+03  0.15652663918E+03  0.00000000000E+00 0. -1.
         23    2    1    2    0    0 -0.43231216867E+02 -0.54125436554E+02  0.11154217362E+03  0.15931310434E+03  0.90224762262E+02 0.  0.
         23    2    1    2    0    0  0.43231216867E+02  0.54125436554E+02 -0.10768037443E+03  0.15760197322E+03  0.91895690497E+02 0.  0.
          5    1    3    3  502    0 -0.66011991825E+01 -0.24253719620E+02 -0.11037706123E+02  0.27852104095E+02  0.47000000000E+01 0. -1.
         -5    1    3    3    0  502 -0.36630017685E+02 -0.29871716934E+02  0.12257987974E+03  0.13146100025E+03  0.47000000000E+01 0.  1.
          5    1    4    4  503    0  0.69685826616E+02  0.53048120074E+02 -0.88298291034E+02  0.12445439194E+03  0.47000000000E+01 0. -1.
         -5    1    4    4    0  503 -0.26454609749E+02  0.10773164795E+01 -0.19382083393E+02  0.33147581275E+02  0.47000000000E+01 0.  1.
<mgrwt>
<rscale>  0 0.11474571E+03</rscale>
<asrwt>0</asrwt>
<pdfrwt beam="1">  1        2 0.24081021E-01 0.11507962E+03</pdfrwt>
<pdfrwt beam="2">  1       -2 0.24675144E-01 0.11507962E+03</pdfrwt>
<totfact> 0.31189827E+03</totfact>
</mgrwt>
</event>
<event>
 8    1  0.3177960E-004  0.1272279E+03  0.7546771E-02  0.1234529E+00
         -1   -1    0    0    0  501 -0.00000000000E+00  0.00000000000E+00  0.23732262752E+02  0.23732262752E+02  0.00000000000E+00 0.  1.
          1   -1    0    0  501    0  0.00000000000E+00 -0.00000000000E+00 -0.75030565636E+03  0.75030565636E+03  0.00000000000E+00 0. -1.
         23    2    1    2    0    0 -0.78851065478E+02  0.10981216207E+02 -0.51874763160E+03  0.53412174772E+03  0.99241415057E+02 0.  0.
         23    2    1    2    0    0  0.78851065478E+02 -0.10981216207E+02 -0.20782576201E+03  0.23991617139E+03  0.89611072440E+02 0.  0.
          5    1    3    3  502    0 -0.96887844538E+02  0.28548690818E+02 -0.39367193813E+03  0.40645044844E+03  0.47000000000E+01 0. -1.
         -5    1    3    3    0  502  0.18036779061E+02 -0.17567474611E+02 -0.12507569347E+03  0.12767129928E+03  0.47000000000E+01 0.  1.
          5    1    4    4  503    0  0.22333593353E+02  0.97919990493E+01 -0.16254130396E+03  0.16442760757E+03  0.47000000000E+01 0. -1.
         -5    1    4    4    0  503  0.56517472124E+02 -0.20773215257E+02 -0.45284458052E+02  0.75488563826E+02  0.47000000000E+01 0.  1.
<mgrwt>
<rscale>  0 0.12534647E+03</rscale>
<asrwt>0</asrwt>
<pdfrwt beam="1">  1        1 0.11543166E+00 0.12722789E+03</pdfrwt>
<pdfrwt beam="2">  1       -1 0.36511166E-02 0.12722789E+03</pdfrwt>
<totfact> 0.68891812E+03</totfact>
</mgrwt>
</event>
<event>
 8    1  0.3177960E-004  0.1152744E+03  0.7546771E-02  0.1251391E+00
          2   -1    0    0  501    0  0.00000000000E+00  0.00000000000E+00  0.46272261390E+03  0.46272261390E+03  0.00000000000E+00 0. -1.
         -2   -1    0    0    0  501 -0.00000000000E+00 -0.00000000000E+00 -0.29463327908E+02  0.29463327908E+02  0.00000000000E+00 0.  1.
         23    2    1    2    0    0  0.55470436568E+02 -0.42091400103E+02  0.17277225044E+03  0.20733215840E+03  0.91036905089E+02 0.  0.
         23    2    1    2    0    0 -0.55470436568E+02  0.42091400103E+02  0.26048703555E+03  0.28485378341E+03  0.91866897940E+02 0.  0.
          5    1    3    3  502    0  0.21756732011E+02  0.10364350032E+02  0.12822531092E+03  0.13055495203E+03  0.47000000000E+01 0. -1.
         -5    1    4    4    0  503 -0.52449552238E+02  0.80224829886E+01  0.55298321100E+02  0.76780922629E+02  0.47000000000E+01 0.  1.
          5    1    4    4  503    0 -0.30208843298E+01  0.34068917114E+02  0.20518871445E+03  0.20807286078E+03  0.47000000000E+01 0. -1.
         -5    1    3    3    0  502  0.33713704557E+02 -0.52455750135E+02  0.44546939526E+02  0.76777206372E+02  0.47000000000E+01 0.  1.
<mgrwt>
<rscale>  0 0.11510893E+03</rscale>
<asrwt>0</asrwt>
<pdfrwt beam="1">  1        2 0.71188089E-01 0.11527438E+03</pdfrwt>
<pdfrwt beam="2">  1       -2 0.45328200E-02 0.11527438E+03</pdfrwt>
<totfact> 0.14399527E+04</totfact>
</mgrwt>
</event>
<event>
 7    1  0.3177960E-004  0.2471037E+03  0.7546771E-02  0.1129170E+00
          1   -1    0    0  501    0  0.00000000000E+00  0.00000000000E+00  0.27649758887E+03  0.27649758887E+03  0.00000000000E+00 0. -1.
         -1   -1    0    0    0  501 -0.00000000000E+00 -0.00000000000E+00 -0.23792020668E+03  0.23792020668E+03  0.00000000000E+00 0.  1.
         23    2    1    2    0    0 -0.94328911097E+02 -0.11260480007E+03 -0.12817055451E+03  0.21631523543E+03  0.93737962238E+02 0.  0.
          5    1    3    3  502    0 -0.11222203089E+03 -0.99245851614E+02 -0.10055124034E+03  0.18048868445E+03  0.47000000000E+01 0. -1.
         -5    1    1    2    0  503  0.92564510720E+02  0.16591307636E+03  0.14965350406E+03  0.24189584294E+03  0.47000000000E+01 0.  1.
          5    1    1    2  503    0  0.17644003767E+01 -0.53308276288E+02  0.17094432639E+02  0.56206717185E+02  0.47000000000E+01 0. -1.
         -5    1    3    3    0  502  0.17893119790E+02 -0.13358948459E+02 -0.27619314169E+02  0.35826550977E+02  0.47000000000E+01 0.  1.
<mgrwt>
<rscale>  0 0.22644119E+03</rscale>
<asrwt>0</asrwt>
<pdfrwt beam="1">  1        1 0.42538091E-01 0.24710375E+03</pdfrwt>
<pdfrwt beam="2">  1       -1 0.36603109E-01 0.24710375E+03</pdfrwt>
<totfact> 0.70456312E+02</totfact>
</mgrwt>
</event>
<event>
 8    1  0.3177960E-004  0.9477519E+02  0.7546771E-02  0.1291779E+00
          2   -1    0    0  501    0  0.00000000000E+00  0.00000000000E+00  0.78403170164E+02  0.78403170164E+02  0.00000000000E+00 0. -1.
         -2   -1    0    0    0  501 -0.00000000000E+00 -0.00000000000E+00 -0.16179638152E+03  0.16179638152E+03  0.00000000000E+00 0.  1.
         23    2    1    2    0    0 -0.18547551247E+02 -0.19024666728E+02 -0.10675147344E+03  0.14275227904E+03  0.90974647506E+02 0.  0.
         23    2    1    2    0    0  0.18547551247E+02  0.19024666728E+02  0.23358262076E+02  0.97447272648E+02  0.90798749650E+02 0.  0.
          5    1    3    3  502    0 -0.41938443513E+02 -0.23546191894E+02 -0.19375800241E+02  0.52065034639E+02  0.47000000000E+01 0. -1.
         -5    1    3    3    0  502  0.23390892266E+02  0.45215251660E+01 -0.87375673194E+02  0.90687244400E+02  0.47000000000E+01 0.  1.
          5    1    4    4  503    0  0.45235579702E+02  0.49186968839E+01  0.41628686634E+02  0.61850535978E+02  0.47000000000E+01 0. -1.
         -5    1    4    4    0  503 -0.26688028455E+02  0.14105969844E+02 -0.18270424558E+02  0.35596736670E+02  0.47000000000E+01 0.  1.
<mgrwt>
<rscale>  0 0.94732951E+02</rscale>
<asrwt>0</asrwt>
<pdfrwt beam="1">  1        2 0.12062026E-01 0.94775187E+02</pdfrwt>
<pdfrwt beam="2">  1       -2 0.24891751E-01 0.94775187E+02</pdfrwt>
<totfact> 0.66837592E+03</totfact>
</mgrwt>
</event>
<event>
 8    1  0.3177960E-004  0.1063890E+03  0.7546771E-02  0.1269126E+00
          1   -1    0    0  501    0  0.00000000000E+00  0.00000000000E+00  0.11145428059E+04  0.11145428059E+04  0.00000000000E+00 0. -1.
         -1   -1    0    0    0  501 -0.00000000000E+00 -0.00000000000E+00 -0.11381746082E+02  0.11381746082E+02  0.00000000000E+00 0.  1.
         23    2    1    2    0    0 -0.44275599421E+02 -0.17703243791E+02  0.76767780448E+03  0.77501472819E+03  0.95104594416E+02 0.  0.
         23    2    1    2    0    0  0.44275599421E+02  0.17703243791E+02  0.33548325529E+03  0.35090982374E+03  0.91186382059E+02 0.  0.
          5    1    3    3  502    0 -0.60632154538E+02  0.19914385869E+02  0.51942073073E+03  0.52334771084E+03  0.47000000000E+01 0. -1.
         -5    1    3    3    0  502  0.16356555117E+02 -0.37617629660E+02  0.24825707375E+03  0.25166701735E+03  0.47000000000E+01 0.  1.
          5    1    4    4  503    0 -0.22150821169E+02 -0.11148732283E+02  0.46016060706E+02  0.52483530301E+02  0.47000000000E+01 0. -1.
         -5    1    4    4    0  503  0.66426420590E+02  0.28851976074E+02  0.28946719459E+03  0.29842629344E+03  0.47000000000E+01 0.  1.
<mgrwt>
<rscale>  0 0.10550615E+03</rscale>
<asrwt>0</asrwt>
<pdfrwt beam="1">  1        1 0.17146804E+00 0.10638899E+03</pdfrwt>
<pdfrwt beam="2">  1       -1 0.17510387E-02 0.10638899E+03</pdfrwt>
<totfact> 0.10442170E+04</totfact>
</mgrwt>
</event>
<event>
 7    1  0.3177960E-004  0.2853086E+03  0.7546771E-02  0.1094648E+00
         -3   -1    0    0    0  501 -0.00000000000E+00  0.00000000000E+00  0.20688459340E+03  0.20688459340E+03  0.00000000000E+00 0.  1.
          3   -1    0    0  501    0  0.00000000000E+00 -0.00000000000E+00 -0.45296226775E+03  0.45296226775E+03  0.00000000000E+00 0. -1.
         23    2    1    2    0    0 -0.16802295557E+01  0.25298221906E+03  0.15997033261E+02  0.27243992174E+03  0.99823742419E+02 0.  0.
          5    1    3    3  502    0 -0.88496437419E+01  0.15778718070E+03 -0.38074598290E+02  0.16262495387E+03  0.47000000000E+01 0. -1.
         -5    1    1    2    0  503  0.39107581794E+02 -0.12157935465E+02 -0.44634209947E+02  0.60757888756E+02  0.47000000000E+01 0.  1.
          5    1    1    2  503    0 -0.37427352238E+02 -0.24082428360E+03 -0.21744049766E+03  0.32664905065E+03  0.47000000000E+01 0. -1.
         -5    1    3    3    0  502  0.71694141861E+01  0.95195038368E+02  0.54071631551E+02  0.10981496787E+03  0.47000000000E+01 0.  1.
<mgrwt>
<rscale>  0 0.28191379E+03</rscale>
<asrwt>0</asrwt>
<pdfrwt beam="1">  1        3 0.69686502E-01 0.28530858E+03</pdfrwt>
<pdfrwt beam="2">  1       -3 0.31828399E-01 0.28530858E+03</pdfrwt>
<totfact> 0.48348756E+01</totfact>
</mgrwt>
</event>
<event>
 8    1  0.3177960E-004  0.2320713E+03  0.7546771E-02  0.1125216E+00
         -2   -1    0    0    0  501 -0.00000000000E+00  0.00000000000E+00  0.81941115182E+02  0.81941115182E+02  0.00000000000E+00 0.  1.
          2   -1    0    0  501    0  0.00000000000E+00 -0.00000000000E+00 -0.82229387286E+03  0.82229387286E+03  0.00000000000E+00 0. -1.
         23    2    1    2    0    0 -0.11974269037E+03  0.17571705247E+03 -0.16746998486E+03  0.28618750476E+03  0.92963958744E+02 0.  0.
         23    2    1    2    0    0  0.11974269037E+03 -0.17571705247E+03 -0.57288277282E+03  0.61804748328E+03  0.92591715456E+02 0.  0.
          5    1    4    4  502    0  0.32971419687E+02 -0.12227572604E+03 -0.26587144698E+03  0.29453044667E+03  0.47000000000E+01 0. -1.
         -5    1    3    3    0  503 -0.10661791058E+03  0.10631258739E+03 -0.71003257144E+02  0.16653317273E+03  0.47000000000E+01 0.  1.
          5    1    3    3  503    0 -0.13124779791E+02  0.69404465078E+02 -0.96466727714E+02  0.11965433203E+03  0.47000000000E+01 0. -1.
         -5    1    4    4    0  502  0.86771270684E+02 -0.53441326435E+02 -0.30701132583E+03  0.32351703661E+03  0.47000000000E+01 0.  1.
<mgrwt>
<rscale>  0 0.23203408E+03</rscale>
<asrwt>0</asrwt>
<pdfrwt beam="1">  1        2 0.12650675E+00 0.23207131E+03</pdfrwt>
<pdfrwt beam="2">  1       -2 0.12606325E-01 0.23207131E+03</pdfrwt>
<totfact> 0.15604130E+03</totfact>
</mgrwt>
</event>
<event>
 8    1  0.3177960E-004  0.9450700E+02  0.7546771E-02  0.1298341E+00
         -1   -1    0    0    0  501 -0.00000000000E+00  0.00000000000E+00  0.32295752545E+02  0.32295752545E+02  0.00000000000E+00 0.  1.
          1   -1    0    0  501    0  0.00000000000E+00 -0.00000000000E+00 -0.25281486145E+03  0.25281486145E+03  0.00000000000E+00 0. -1.
         23    2    1    2    0    0 -0.18964902741E+02 -0.20352186263E+02 -0.96564060548E+02  0.13511546988E+03  0.90319950127E+02 0.  0.
         23    2    1    2    0    0  0.18964902741E+02  0.20352186263E+02 -0.12395504836E+03  0.14999514411E+03  0.79748418305E+02 0.  0.
          5    1    3    3  502    0  0.12839927793E+02  0.30588387220E+02 -0.42958233005E+02  0.54479472844E+02  0.47000000000E+01 0. -1.
         -5    1    3    3    0  502 -0.31804830534E+02 -0.50940573483E+02 -0.53605827543E+02  0.80635997040E+02  0.47000000000E+01 0.  1.
          5    1    4    4  503    0  0.19484102074E+02 -0.23388069660E+02 -0.18994908395E+02  0.36187409150E+02  0.47000000000E+01 0.  1.
         -5    1    4    4    0  503 -0.51919933380E+00  0.43740255923E+02 -0.10496013996E+03  0.11380773496E+03  0.47000000000E+01 0. -1.
<mgrwt>
<rscale>  0 0.91888729E+02</rscale>
<asrwt>0</asrwt>
<pdfrwt beam="1">  1        1 0.38894593E-01 0.94506997E+02</pdfrwt>
<pdfrwt beam="2">  1       -1 0.49685775E-02 0.94506997E+02</pdfrwt>
<totfact> 0.17442221E+04</totfact>
</mgrwt>
</event>
<event>
 8    1  0.3177960E-004  0.1147564E+03  0.7546771E-02  0.1252092E+00
         -1   -1    0    0    0  501 -0.00000000000E+00  0.00000000000E+00  0.54688220812E+02  0.54688220812E+02  0.00000000000E+00 0.  1.
          1   -1    0    0  501    0  0.00000000000E+00 -0.00000000000E+00 -0.45656933400E+03  0.45656933400E+03  0.00000000000E+00 0. -1.
         23    2    1    2    0    0  0.31653840660E+02 -0.61775605280E+02 -0.25132782215E+02  0.11747629687E+03  0.91382889805E+02 0.  0.
         23    2    1    2    0    0 -0.31653840660E+02  0.61775605280E+02 -0.37674833097E+03  0.39378125793E+03  0.91138264058E+02 0.  0.
          5    1    4    4  502    0 -0.54000691795E+02  0.54654485922E+02 -0.34786023065E+03  0.35627519927E+03  0.47000000000E+01 0. -1.
         -5    1    3    3    0  503 -0.57926628061E+01 -0.19311157371E+02  0.31217587411E+02  0.37458023242E+02  0.47000000000E+01 0.  1.
          5    1    3    3  503    0  0.37446503467E+02 -0.42464447909E+02 -0.56350369626E+02  0.80018273633E+02  0.47000000000E+01 0. -1.
         -5    1    4    4    0  502  0.22346851135E+02  0.71211193582E+01 -0.28888100318E+02  0.37506058665E+02  0.47000000000E+01 0.  1.
<mgrwt>
<rscale>  0 0.11470766E+03</rscale>
<asrwt>0</asrwt>
<pdfrwt beam="1">  1        1 0.70241434E-01 0.11475637E+03</pdfrwt>
<pdfrwt beam="2">  1       -1 0.84135727E-02 0.11475637E+03</pdfrwt>
<totfact> 0.38969366E+03</totfact>
</mgrwt>
</event>
<event>
 8    1  0.3177960E-004  0.9587936E+02  0.7546771E-02  0.1289289E+00
         -1   -1    0    0    0  501 -0.00000000000E+00  0.00000000000E+00  0.11945790463E+02  0.11945790463E+02  0.00000000000E+00 0.  1.
          1   -1    0    0  501    0  0.00000000000E+00 -0.00000000000E+00 -0.76879870642E+03  0.76879870642E+03  0.00000000000E+00 0. -1.
         23    2    1    2    0    0  0.21694660456E+02 -0.52183547072E+01 -0.38784055645E+03  0.39951614363E+03  0.93246781586E+02 0.  0.
         23    2    1    2    0    0 -0.21694660456E+02  0.52183547072E+01 -0.36901235951E+03  0.38122835325E+03  0.93096972751E+02 0.  0.
          5    1    3    3  502    0 -0.35587755961E+02  0.59368826292E+01 -0.17679251404E+03  0.18049769519E+03  0.47000000000E+01 0. -1.
         -5    1    3    3    0  502  0.57282416418E+02 -0.11155237336E+02 -0.21104804241E+03  0.21901844844E+03  0.47000000000E+01 0.  1.
          5    1    4    4  503    0 -0.45350449834E+02 -0.23833289986E+02 -0.27756333697E+03  0.28229095813E+03  0.47000000000E+01 0. -1.
         -5    1    4    4    0  503  0.23655789377E+02  0.29051644693E+02 -0.91449022534E+02  0.98937395119E+02  0.47000000000E+01 0.  1.
<mgrwt>
<rscale>  0 0.95842918E+02</rscale>
<asrwt>0</asrwt>
<pdfrwt beam="1">  1        1 0.11827675E+00 0.95879361E+02</pdfrwt>
<pdfrwt beam="2">  1       -1 0.18378135E-02 0.95879361E+02</pdfrwt>
<totfact> 0.17546437E+04</totfact>
</mgrwt>
</event>
<event>
 8    1  0.3177960E-004  0.9433219E+02  0.7546771E-02  0.1293217E+00
          2   -1    0    0  501    0  0.00000000000E+00  0.00000000000E+00  0.68900789891E+02  0.68900789891E+02  0.00000000000E+00 0. -1.
         -2   -1    0    0    0  501 -0.00000000000E+00 -0.00000000000E+00 -0.17740564460E+03  0.17740564460E+03  0.00000000000E+00 0.  1.
         23    2    1    2    0    0 -0.54194677663E+01  0.72306797385E+01 -0.11912540197E+03  0.15137826611E+03  0.92967008637E+02 0.  0.
         23    2    1    2    0    0  0.54194677663E+01 -0.72306797385E+01  0.10620547260E+02  0.94928168385E+02  0.93898390660E+02 0.  0.
          5    1    4    4  502    0  0.17805682600E+02 -0.48012978214E+02  0.46281749934E+01  0.51631370441E+02  0.47000000000E+01 0. -1.
         -5    1    4    4    0  502 -0.12386214833E+02  0.40782298476E+02  0.59923722669E+01  0.43296797944E+02  0.47000000000E+01 0.  1.
          5    1    3    3  503    0  0.15859245759E+02  0.36291232558E+02 -0.17680364301E+02  0.43626305350E+02  0.47000000000E+01 0. -1.
         -5    1    3    3    0  503 -0.21278713525E+02 -0.29060552820E+02 -0.10144503767E+03  0.10775196076E+03  0.47000000000E+01 0.  1.
<mgrwt>
<rscale>  0 0.94099562E+02</rscale>
<asrwt>0</asrwt>
<pdfrwt beam="1">  1        2 0.10600122E-01 0.94332185E+02</pdfrwt>
<pdfrwt beam="2">  1       -2 0.27293176E-01 0.94332185E+02</pdfrwt>
<totfact> 0.66420191E+03</totfact>
</mgrwt>
</event>
<event>
 8    1  0.3177960E-004  0.9790088E+02  0.7546771E-02  0.1289570E+00
          1   -1    0    0  501    0  0.00000000000E+00  0.00000000000E+00  0.83198776609E+02  0.83198776609E+02  0.00000000000E+00 0. -1.
         -1   -1    0    0    0  501 -0.00000000000E+00 -0.00000000000E+00 -0.19143748287E+03  0.19143748287E+03  0.00000000000E+00 0.  1.
         23    2    1    2    0    0 -0.12494674832E+02 -0.38109333400E+02 -0.14742981371E+03  0.17697494750E+03  0.89309259766E+02 0.  0.
         23    2    1    2    0    0  0.12494674832E+02  0.38109333400E+02  0.39191107450E+02  0.97661311982E+02  0.79958431472E+02 0.  0.
          5    1    3    3  502    0 -0.20767405352E+02  0.16432604609E+02 -0.10160667022E+03  0.10510623698E+03  0.47000000000E+01 0.  1.
         -5    1    4    4    0  503 -0.29434969132E+02 -0.28465861378E-03  0.23221954673E+01  0.29898160473E+02  0.47000000000E+01 0.  1.
          5    1    4    4  503    0  0.41929643965E+02  0.38109618059E+02  0.36868911983E+02  0.67763151508E+02  0.47000000000E+01 0. -1.
         -5    1    3    3    0  502  0.82727305201E+01 -0.54541938009E+02 -0.45823143493E+02  0.71868710519E+02  0.47000000000E+01 0. -1.
<mgrwt>
<rscale>  0 0.95716835E+02</rscale>
<asrwt>0</asrwt>
<pdfrwt beam="1">  1        1 0.12799812E-01 0.97900879E+02</pdfrwt>
<pdfrwt beam="2">  1       -1 0.29451920E-01 0.97900879E+02</pdfrwt>
<totfact> 0.45379319E+03</totfact>
</mgrwt>
</event>
<event>
 8    1  0.3177960E-004  0.1059896E+03  0.7546771E-02  0.1269276E+00
          1   -1    0    0  501    0  0.00000000000E+00  0.00000000000E+00  0.39008871893E+02  0.39008871893E+02  0.00000000000E+00 0. -1.
         -1   -1    0    0    0  501 -0.00000000000E+00 -0.00000000000E+00 -0.28299513908E+03  0.28299513908E+03  0.00000000000E+00 0.  1.
         23    2    1    2    0    0 -0.59637324450E+02 -0.13736581130E+02 -0.11360463056E+03  0.15536987955E+03  0.86536022883E+02 0.  0.
         23    2    1    2    0    0  0.59637324450E+02  0.13736581130E+02 -0.13038163663E+03  0.16663413143E+03  0.83798916815E+02 0.  0.
          5    1    4    4  502    0 -0.27831823674E+01  0.26474431584E+02 -0.82458050537E+02  0.86775928288E+02  0.47000000000E+01 0. -1.
         -5    1    4    4    0  502  0.62420506817E+02 -0.12737850454E+02 -0.47923586091E+02  0.79858203143E+02  0.47000000000E+01 0.  1.
          5    1    3    3  503    0 -0.31430598311E+02  0.45428371793E+01  0.45623265202E+01  0.32425679686E+02  0.47000000000E+01 0. -1.
         -5    1    3    3    0  503 -0.28206726139E+02 -0.18279418309E+02 -0.11816695708E+03  0.12294419986E+03  0.47000000000E+01 0.  1.
<mgrwt>
<rscale>  0 0.10542946E+03</rscale>
<asrwt>0</asrwt>
<pdfrwt beam="1">  1        1 0.60013651E-02 0.10598956E+03</pdfrwt>
<pdfrwt beam="2">  1       -1 0.43537712E-01 0.10598956E+03</pdfrwt>
<totfact> 0.63710099E+03</totfact>
</mgrwt>
</event>
<event>
 8    1  0.3177960E-004  0.1123509E+03  0.7546771E-02  0.1256303E+00
          1   -1    0    0  501    0  0.00000000000E+00  0.00000000000E+00  0.17247601396E+03  0.17247601396E+03  0.00000000000E+00 0. -1.
         -1   -1    0    0    0  501 -0.00000000000E+00 -0.00000000000E+00 -0.14834977825E+03  0.14834977825E+03  0.00000000000E+00 0.  1.
         23    2    1    2    0    0 -0.33730502598E+01  0.65614727273E+02  0.12627310335E+03  0.16898140474E+03  0.91066726175E+02 0.  0.
         23    2    1    2    0    0  0.33730502598E+01 -0.65614727273E+02 -0.10214686764E+03  0.15184438746E+03  0.91137618637E+02 0.  0.
          5    1    4    4  502    0 -0.11342324331E+02 -0.51863354668E+02 -0.61563573230E+01  0.53651156690E+02  0.47000000000E+01 0. -1.
         -5    1    4    4    0  502  0.14715374591E+02 -0.13751372605E+02 -0.95990510318E+02  0.98193230770E+02  0.47000000000E+01 0.  1.
          5    1    3    3  503    0  0.45850555591E+01  0.31027073452E+02  0.12922401601E+03  0.13305877774E+03  0.47000000000E+01 0. -1.
         -5    1    3    3    0  503 -0.79581058189E+01  0.34587653820E+02 -0.29509126580E+01  0.35922626999E+02  0.47000000000E+01 0.  1.
<mgrwt>
<rscale>  0 0.11233657E+03</rscale>
<asrwt>0</asrwt>
<pdfrwt beam="1">  1        1 0.26534771E-01 0.11235095E+03</pdfrwt>
<pdfrwt beam="2">  1       -1 0.22823043E-01 0.11235095E+03</pdfrwt>
<totfact> 0.27571332E+03</totfact>
</mgrwt>
</event>
<event>
 8    1  0.3177960E-004  0.1031065E+03  0.7546771E-02  0.1275423E+00
          1   -1    0    0  501    0  0.00000000000E+00  0.00000000000E+00  0.12684265235E+04  0.12684265235E+04  0.00000000000E+00 0. -1.
         -1   -1    0    0    0  501 -0.00000000000E+00 -0.00000000000E+00 -0.81436353614E+01  0.81436353614E+01  0.00000000000E+00 0.  1.
         23    2    1    2    0    0  0.85801685793E+01 -0.42100518966E+02  0.60908255681E+03  0.61725777260E+03  0.90440719982E+02 0.  0.
         23    2    1    2    0    0 -0.85801685793E+01  0.42100518966E+02  0.65120033134E+03  0.65931238627E+03  0.93727680915E+02 0.  0.
          5    1    4    4  502    0 -0.27073596502E+02 -0.22447820253E+02  0.20091296240E+03  0.20402203979E+03  0.47000000000E+01 0. -1.
         -5    1    4    4    0  502  0.18493427923E+02  0.64548339219E+02  0.45028736894E+03  0.45529034648E+03  0.47000000000E+01 0.  1.
          5    1    3    3  503    0 -0.39665441296E+02 -0.98611592719E+01  0.29064473444E+03  0.29354223095E+03  0.47000000000E+01 0. -1.
         -5    1    3    3    0  503  0.48245609875E+02 -0.32239359694E+02  0.31843782238E+03  0.32371554165E+03  0.47000000000E+01 0.  1.
<mgrwt>
<rscale>  0 0.10235365E+03</rscale>
<asrwt>0</asrwt>
<pdfrwt beam="1">  1        1 0.19514239E+00 0.10310650E+03</pdfrwt>
<pdfrwt beam="2">  1       -1 0.12528680E-02 0.10310650E+03</pdfrwt>
<totfact> 0.13199475E+04</totfact>
</mgrwt>
</event>
<event>
 8    1  0.3177960E-004  0.1050337E+03  0.7546771E-02  0.1270432E+00
         -1   -1    0    0    0  501 -0.00000000000E+00  0.00000000000E+00  0.13632694470E+03  0.13632694470E+03  0.00000000000E+00 0.  1.
          1   -1    0    0  501    0  0.00000000000E+00 -0.00000000000E+00 -0.87875093582E+02  0.87875093582E+02  0.00000000000E+00 0. -1.
         23    2    1    2    0    0  0.21415112713E+01 -0.51776558846E+02 -0.86917572484E+01  0.10462997245E+03  0.90479204099E+02 0.  0.
         23    2    1    2    0    0 -0.21415112713E+01  0.51776558846E+02  0.57143608371E+02  0.11957206584E+03  0.91360214723E+02 0.  0.
          5    1    4    4  502    0 -0.35175300538E+02  0.49071105983E+01 -0.34798005000E+01  0.35994173332E+02  0.47000000000E+01 0. -1.
         -5    1    4    4    0  502  0.33033789266E+02  0.46869448247E+02  0.60623408871E+02  0.83577892504E+02  0.47000000000E+01 0.  1.
          5    1    3    3  503    0 -0.13593590920E+02 -0.28526654630E+02 -0.47045451287E+02  0.56867567429E+02  0.47000000000E+01 0. -1.
         -5    1    3    3    0  503  0.15735102192E+02 -0.23249904215E+02  0.38353694038E+02  0.47762405021E+02  0.47000000000E+01 0.  1.
<mgrwt>
<rscale>  0 0.10484186E+03</rscale>
<asrwt>0</asrwt>
<pdfrwt beam="1">  1        1 0.13519245E-01 0.10503374E+03</pdfrwt>
<pdfrwt beam="2">  1       -1 0.20973376E-01 0.10503374E+03</pdfrwt>
<totfact> 0.73928853E+03</totfact>
</mgrwt>
</event>
<event>
 8    1  0.3177960E-004  0.1034569E+03  0.7546771E-02  0.1273370E+00
         -1   -1    0    0    0  501 -0.00000000000E+00  0.00000000000E+00  0.29237099246E+03  0.29237099246E+03  0.00000000000E+00 0.  1.
          1   -1    0    0  501    0  0.00000000000E+00 -0.00000000000E+00 -0.11890591030E+03  0.11890591030E+03  0.00000000000E+00 0. -1.
         23    2    1    2    0    0 -0.41179213922E+02 -0.16889888959E+02  0.25789631027E+03  0.27774053318E+03  0.92996241407E+02 0.  0.
         23    2    1    2    0    0  0.41179213922E+02  0.16889888959E+02 -0.84431228106E+02  0.13353636957E+03  0.93393435054E+02 0.  0.
          5    1    3    3  502    0 -0.45582461126E+02 -0.37352613411E+02  0.85112804539E+02  0.10363039123E+03  0.47000000000E+01 0. -1.
         -5    1    4    4    0  503 -0.13623048032E+02 -0.24683970405E+02 -0.61796941193E+01  0.29243194970E+02  0.47000000000E+01 0.  1.
          5    1    4    4  503    0  0.54802261954E+02  0.41573859365E+02 -0.78251533986E+02  0.10429317460E+03  0.47000000000E+01 0. -1.
         -5    1    3    3    0  502  0.44032472045E+01  0.20462724452E+02  0.17278350573E+03  0.17411014195E+03  0.47000000000E+01 0.  1.
<mgrwt>
<rscale>  0 0.10336718E+03</rscale>
<asrwt>0</asrwt>
<pdfrwt beam="1">  1        1 0.18293217E-01 0.10345690E+03</pdfrwt>
<pdfrwt beam="2">  1       -1 0.44980153E-01 0.10345690E+03</pdfrwt>
<totfact> 0.13933903E+03</totfact>
</mgrwt>
</event>
<event>
 8    1  0.3177960E-004  0.9529492E+02  0.7546771E-02  0.1290939E+00
         -1   -1    0    0    0  501 -0.00000000000E+00  0.00000000000E+00  0.41868947921E+02  0.41868947921E+02  0.00000000000E+00 0.  1.
          1   -1    0    0  501    0  0.00000000000E+00 -0.00000000000E+00 -0.24664083760E+03  0.24664083760E+03  0.00000000000E+00 0. -1.
         23    2    1    2    0    0  0.29043593842E+02 -0.21186329953E+02 -0.15355354739E+03  0.18032271941E+03  0.87436836055E+02 0.  0.
         23    2    1    2    0    0 -0.29043593842E+02  0.21186329953E+02 -0.51218342290E+02  0.10818706611E+03  0.88253791799E+02 0.  0.
          5    1    3    3  502    0  0.25686187552E+02  0.30528241180E+02 -0.47643119280E+02  0.62319423579E+02  0.47000000000E+01 0. -1.
         -5    1    4    4    0  503 -0.38370286476E+02  0.47260215814E+02 -0.51835405606E+02  0.80092485024E+02  0.47000000000E+01 0.  1.
          5    1    4    4  503    0  0.93266926344E+01 -0.26073885861E+02  0.61706331636E+00  0.28094581088E+02  0.47000000000E+01 0. -1.
         -5    1    3    3    0  502  0.33574062896E+01 -0.51714571133E+02 -0.10591042811E+03  0.11800329583E+03  0.47000000000E+01 0.  1.
<mgrwt>
<rscale>  0 0.95105337E+02</rscale>
<asrwt>0</asrwt>
<pdfrwt beam="1">  1        1 0.37944745E-01 0.95294925E+02</pdfrwt>
<pdfrwt beam="2">  1       -1 0.64413765E-02 0.95294925E+02</pdfrwt>
<totfact> 0.12277823E+04</totfact>
</mgrwt>
</event>
<event>
 8    1  0.3177960E-004  0.1373468E+03  0.7546771E-02  0.1218027E+00
          2   -1    0    0  501    0  0.00000000000E+00  0.00000000000E+00  0.11703371687E+04  0.11703371687E+04  0.00000000000E+00 0. -1.
         -2   -1    0    0    0  501 -0.00000000000E+00 -0.00000000000E+00 -0.21224958813E+02  0.21224958813E+02  0.00000000000E+00 0.  1.
         23    2    1    2    0    0  0.21927360912E+02  0.97221842649E+02  0.26730707806E+03  0.29912477100E+03  0.89942530537E+02 0.  0.
         23    2    1    2    0    0 -0.21927360912E+02 -0.97221842649E+02  0.88180513187E+03  0.89243735655E+03  0.94505285254E+02 0.  0.
          5    1    3    3  502    0  0.51091527326E+02  0.85411694811E+02  0.22597969955E+03  0.24697047674E+03  0.47000000000E+01 0. -1.
         -5    1    3    3    0  502 -0.29164166414E+02  0.11810147838E+02  0.41327378513E+02  0.52154294256E+02  0.47000000000E+01 0.  1.
          5    1    4    4  503    0  0.14967573467E+02 -0.98727340835E+02  0.62309649039E+03  0.63106453111E+03  0.47000000000E+01 0. -1.
         -5    1    4    4    0  503 -0.36894934379E+02  0.15054981857E+01  0.25870864148E+03  0.26137282545E+03  0.47000000000E+01 0.  1.
<mgrwt>
<rscale>  0 0.13656549E+03</rscale>
<asrwt>0</asrwt>
<pdfrwt beam="1">  1        2 0.18005182E+00 0.13734680E+03</pdfrwt>
<pdfrwt beam="2">  1       -2 0.32653792E-02 0.13734680E+03</pdfrwt>
<totfact> 0.75467525E+03</totfact>
</mgrwt>
</event>
<event>
 8    1  0.3177960E-004  0.9356800E+02  0.7546771E-02  0.1294532E+00
          1   -1    0    0  501    0  0.00000000000E+00  0.00000000000E+00  0.20340704362E+02  0.20340704362E+02  0.00000000000E+00 0. -1.
         -1   -1    0    0    0  501 -0.00000000000E+00 -0.00000000000E+00 -0.53785929528E+03  0.53785929528E+03  0.00000000000E+00 0.  1.
         23    2    1    2    0    0 -0.16222381104E+02 -0.12309367329E+02 -0.38414028050E+03  0.39537162990E+03  0.91325157856E+02 0.  0.
         23    2    1    2    0    0  0.16222381104E+02  0.12309367329E+02 -0.13337831043E+03  0.16282836974E+03  0.91151621649E+02 0.  0.
          5    1    4    4  502    0 -0.19887289775E+02 -0.27639599176E+02 -0.79000419278E+02  0.86154558691E+02  0.47000000000E+01 0. -1.
         -5    1    3    3    0  503  0.15148042715E+02 -0.39713338068E+02 -0.27772072601E+03  0.28099377943E+03  0.47000000000E+01 0.  1.
          5    1    3    3  503    0 -0.31370423819E+02  0.27403970739E+02 -0.10641955448E+03  0.11437785047E+03  0.47000000000E+01 0. -1.
         -5    1    4    4    0  502  0.36109670880E+02  0.39948966505E+02 -0.54377891147E+02  0.76673811054E+02  0.47000000000E+01 0.  1.
<mgrwt>
<rscale>  0 0.93525629E+02</rscale>
<asrwt>0</asrwt>
<pdfrwt beam="1">  1        1 0.31293394E-02 0.93568000E+02</pdfrwt>
<pdfrwt beam="2">  1       -1 0.82747576E-01 0.93568000E+02</pdfrwt>
<totfact> 0.45368178E+03</totfact>
</mgrwt>
</event>
<event>
 8    1  0.3177960E-004  0.9191334E+02  0.7546771E-02  0.1298453E+00
         -1   -1    0    0    0  501 -0.00000000000E+00  0.00000000000E+00  0.47399642243E+02  0.47399642243E+02  0.00000000000E+00 0.  1.
          1   -1    0    0  501    0  0.00000000000E+00 -0.00000000000E+00 -0.29134711081E+03  0.29134711081E+03  0.00000000000E+00 0. -1.
         23    2    1    2    0    0  0.81971860616E+01  0.74960484833E-01 -0.16060063829E+02  0.93021843113E+02  0.91257537593E+02 0.  0.
         23    2    1    2    0    0 -0.81971860616E+01 -0.74960484833E-01 -0.22788740474E+03  0.24572490994E+03  0.91547051555E+02 0.  0.
          5    1    4    4  502    0 -0.14790193255E+02 -0.20783901705E+02 -0.22089955356E+03  0.22241722763E+03  0.47000000000E+01 0. -1.
         -5    1    4    4    0  502  0.65930071938E+01  0.20708941221E+02 -0.69878511804E+01  0.23307682306E+02  0.47000000000E+01 0.  1.
          5    1    3    3  503    0  0.36537028950E+02  0.26665077055E+02  0.92507152403E+01  0.46407397592E+02  0.47000000000E+01 0. -1.
         -5    1    3    3    0  503 -0.28339842889E+02 -0.26590116570E+02 -0.25310779069E+02  0.46614445521E+02  0.47000000000E+01 0.  1.
<mgrwt>
<rscale>  0 0.91841166E+02</rscale>
<asrwt>0</asrwt>
<pdfrwt beam="1">  1        1 0.44822633E-01 0.91913340E+02</pdfrwt>
<pdfrwt beam="2">  1       -1 0.72922526E-02 0.91913340E+02</pdfrwt>
<totfact> 0.83089461E+03</totfact>
</mgrwt>
</event>
<event>
 8    1  0.3177960E-004  0.9481670E+02  0.7546771E-02  0.1292789E+00
         -2   -1    0    0    0  501 -0.00000000000E+00  0.00000000000E+00  0.73620732275E+02  0.73620732275E+02  0.00000000000E+00 0.  1.
          2   -1    0    0  501    0  0.00000000000E+00 -0.00000000000E+00 -0.11957591424E+03  0.11957591424E+03  0.00000000000E+00 0. -1.
         23    2    1    2    0    0  0.49735214438E-01 -0.17446706351E+02 -0.19825176585E+02  0.96867149957E+02  0.93197731078E+02 0.  0.
         23    2    1    2    0    0 -0.49735214438E-01  0.17446706351E+02 -0.26130005377E+02  0.96329496554E+02  0.91061543416E+02 0.  0.
          5    1    3    3  502    0  0.23549214925E+02  0.13301449724E+02 -0.43367669161E+02  0.51325810435E+02  0.47000000000E+01 0. -1.
         -5    1    4    4    0  503 -0.40781807360E+02 -0.10625683815E+02 -0.17595971121E+02  0.45910447262E+02  0.47000000000E+01 0.  1.
          5    1    4    4  503    0  0.40732072145E+02  0.28072390166E+02 -0.85340342557E+01  0.50419049293E+02  0.47000000000E+01 0. -1.
         -5    1    3    3    0  502 -0.23499479711E+02 -0.30748156076E+02  0.23542492576E+02  0.45541339522E+02  0.47000000000E+01 0.  1.
<mgrwt>
<rscale>  0 0.94287570E+02</rscale>
<asrwt>0</asrwt>
<pdfrwt beam="1">  1        2 0.18396295E-01 0.94816703E+02</pdfrwt>
<pdfrwt beam="2">  1       -2 0.11326266E-01 0.94816703E+02</pdfrwt>
<totfact> 0.14962274E+04</totfact>
</mgrwt>
</event>
<event>
 8    1  0.3177960E-004  0.1164448E+03  0.7546771E-02  0.1251077E+00
         -3   -1    0    0    0  501 -0.00000000000E+00  0.00000000000E+00  0.22398041484E+03  0.22398041484E+03  0.00000000000E+00 0.  1.
          3   -1    0    0  501    0  0.00000000000E+00 -0.00000000000E+00 -0.58318568746E+02  0.58318568746E+02  0.00000000000E+00 0. -1.
         23    2    1    2    0    0 -0.72877598914E+02 -0.31522409616E+01  0.90995201923E+02  0.14778199690E+03  0.90765140823E+02 0.  0.
         23    2    1    2    0    0  0.72877598914E+02  0.31522409616E+01  0.74666644169E+02  0.13451698668E+03  0.84844745908E+02 0.  0.
          5    1    4    4  502    0  0.78418531453E+02 -0.16130102311E+02  0.30539984393E+02  0.85816239271E+02  0.47000000000E+01 0. -1.
         -5    1    3    3    0  503 -0.83076507890E+02  0.24360773862E+02  0.66391058826E+02  0.10920172232E+03  0.47000000000E+01 0.  1.
          5    1    3    3  503    0  0.10198908976E+02 -0.27513014823E+02  0.24604143096E+02  0.38580274578E+02  0.47000000000E+01 0. -1.
         -5    1    4    4    0  502 -0.55409325395E+01  0.19282343273E+02  0.44126659776E+02  0.48700747412E+02  0.47000000000E+01 0.  1.
<mgrwt>
<rscale>  0 0.11528940E+03</rscale>
<asrwt>0</asrwt>
<pdfrwt beam="1">  1        3 0.89720876E-02 0.11644480E+03</pdfrwt>
<pdfrwt beam="2">  1       -3 0.34458525E-01 0.11644480E+03</pdfrwt>
<totfact> 0.16331350E+03</totfact>
</mgrwt>
</event>
<event>
 8    1  0.3177960E-004  0.9626101E+02  0.7546771E-02  0.1289938E+00
          2   -1    0    0  501    0  0.00000000000E+00  0.00000000000E+00  0.70006361387E+03  0.70006361387E+03  0.00000000000E+00 0. -1.
         -2   -1    0    0    0  501 -0.00000000000E+00 -0.00000000000E+00 -0.19340169407E+02  0.19340169407E+02  0.00000000000E+00 0.  1.
         23    2    1    2    0    0  0.69085030756E+01 -0.24704522434E+02  0.54532242074E+03  0.55327244992E+03  0.89865568703E+02 0.  0.
         23    2    1    2    0    0 -0.69085030756E+01  0.24704522434E+02  0.13540102373E+03  0.16613133336E+03  0.92780072503E+02 0.  0.
          5    1    3    3  502    0 -0.18095795960E+02 -0.52422642665E+02  0.34172344193E+03  0.34622621515E+03  0.47000000000E+01 0. -1.
         -5    1    3    3    0  502  0.25004299036E+02  0.27718120231E+02  0.20359897881E+03  0.20704623477E+03  0.47000000000E+01 0.  1.
          5    1    4    4  503    0  0.26732487710E+02  0.13737671617E+02  0.48705733681E+01  0.30808472951E+02  0.47000000000E+01 0. -1.
         -5    1    4    4    0  503 -0.33640990785E+02  0.10966850816E+02  0.13053045036E+03  0.13532286041E+03  0.47000000000E+01 0.  1.
<mgrwt>
<rscale>  0 0.95551742E+02</rscale>
<asrwt>0</asrwt>
<pdfrwt beam="1">  1        2 0.10770208E+00 0.96261013E+02</pdfrwt>
<pdfrwt beam="2">  1       -2 0.29754112E-02 0.96261013E+02</pdfrwt>
<totfact> 0.16589751E+04</totfact>
</mgrwt>
</event>
<event>
 8    1  0.3177960E-004  0.1127543E+03  0.7546771E-02  0.1260837E+00
          1   -1    0    0  501    0  0.00000000000E+00  0.00000000000E+00  0.77608143431E+03  0.77608143431E+03  0.00000000000E+00 0. -1.
         -1   -1    0    0    0  501 -0.00000000000E+00 -0.00000000000E+00 -0.37031143038E+02  0.37031143038E+02  0.00000000000E+00 0.  1.
         23    2    1    2    0    0 -0.40592988043E+02  0.22154362778E+02  0.62384503430E+02  0.12886178569E+03  0.10283446443E+03 0.  0.
         23    2    1    2    0    0  0.40592988043E+02 -0.22154362778E+02  0.67666578784E+03  0.68425079166E+03  0.90465192109E+02 0.  0.
          5    1    3    3  502    0 -0.64643347005E+02  0.29453008862E+01  0.71371285473E+02  0.96454069377E+02  0.47000000000E+01 0. -1.
         -5    1    3    3    0  502  0.24050358961E+02  0.19209061891E+02 -0.89867820434E+01  0.32407716310E+02  0.47000000000E+01 0.  1.
          5    1    4    4  503    0  0.22482045037E+02 -0.54519044688E+02  0.51134651203E+03  0.51475733501E+03  0.47000000000E+01 0. -1.
         -5    1    4    4    0  503  0.18110943006E+02  0.32364681910E+02  0.16531927581E+03  0.16949345665E+03  0.47000000000E+01 0.  1.
<mgrwt>
<rscale>  0 0.10985587E+03</rscale>
<asrwt>0</asrwt>
<pdfrwt beam="1">  1        1 0.11939713E+00 0.11275431E+03</pdfrwt>
<pdfrwt beam="2">  1       -1 0.56970995E-02 0.11275431E+03</pdfrwt>
<totfact> 0.33893415E+03</totfact>
</mgrwt>
</event>
<event>
 8    1  0.3177960E-004  0.1579085E+03  0.7546771E-02  0.1191104E+00
         -3   -1    0    0    0  501 -0.00000000000E+00  0.00000000000E+00  0.34211737529E+02  0.34211737529E+02  0.00000000000E+00 0.  1.
          3   -1    0    0  501    0  0.00000000000E+00 -0.00000000000E+00 -0.99666542837E+03  0.99666542837E+03  0.00000000000E+00 0. -1.
         23    2    1    2    0    0  0.11338098353E+03 -0.62280427822E+02 -0.74872141781E+03  0.76519203610E+03  0.90559325906E+02 0.  0.
         23    2    1    2    0    0 -0.11338098353E+03  0.62280427822E+02 -0.21373227304E+03  0.26568512980E+03  0.90404671042E+02 0.  0.
          5    1    3    3  502    0  0.54884796259E+02  0.14367138753E+02 -0.37038190143E+03  0.37473136837E+03  0.47000000000E+01 0. -1.
         -5    1    4    4    0  503 -0.81902298498E+02  0.29501858250E+02 -0.61356193404E+02  0.10660684128E+03  0.47000000000E+01 0.  1.
          5    1    4    4  503    0 -0.31478685029E+02  0.32778569573E+02 -0.15237607963E+03  0.15907828852E+03  0.47000000000E+01 0. -1.
         -5    1    3    3    0  502  0.58496187267E+02 -0.76647566576E+02 -0.37833951638E+03  0.39046066773E+03  0.47000000000E+01 0.  1.
<mgrwt>
<rscale>  0 0.15788632E+03</rscale>
<asrwt>0</asrwt>
<pdfrwt beam="1">  1        3 0.15333314E+00 0.15790849E+03</pdfrwt>
<pdfrwt beam="2">  1       -3 0.52633444E-02 0.15790849E+03</pdfrwt>
<totfact> 0.16304934E+02</totfact>
</mgrwt>
</event>
<event>
 8    1  0.3177960E-004  0.1129219E+03  0.7546771E-02  0.1263299E+00
         -3   -1    0    0    0  501 -0.00000000000E+00  0.00000000000E+00  0.17889044514E+03  0.17889044514E+03  0.00000000000E+00 0.  1.
          3   -1    0    0  501    0  0.00000000000E+00 -0.00000000000E+00 -0.33034674971E+03  0.33034674971E+03  0.00000000000E+00 0. -1.
         23    2    1    2    0    0 -0.30538281140E+02 -0.34887748753E+00  0.15506377783E+03  0.18257848318E+03  0.91418920321E+02 0.  0.
         23    2    1    2    0    0  0.30538281140E+02  0.34887748753E+00 -0.30652008240E+03  0.32665871168E+03  0.10871359009E+03 0.  0.
          5    1    3    3  502    0  0.96967975697E+01 -0.25913165329E+02  0.99707776520E+01  0.29782988894E+02  0.47000000000E+01 0. -1.
         -5    1    4    4    0  503  0.17447860440E+02  0.46899840533E+02 -0.76288350394E+02  0.91356583133E+02  0.47000000000E+01 0.  1.
          5    1    4    4  503    0  0.13090420700E+02 -0.46550963046E+02 -0.23023173201E+03  0.23530212855E+03  0.47000000000E+01 0. -1.
         -5    1    3    3    0  502 -0.40235078710E+02  0.25564287841E+02  0.14509300018E+03  0.15279549428E+03  0.47000000000E+01 0.  1.
<mgrwt>
<rscale>  0 0.10853912E+03</rscale>
<asrwt>0</asrwt>
<pdfrwt beam="1">  1        3 0.50822576E-01 0.11292189E+03</pdfrwt>
<pdfrwt beam="2">  1       -3 0.27521607E-01 0.11292189E+03</pdfrwt>
<totfact> 0.11205730E+02</totfact>
</mgrwt>
</event>
<event>
 8    1  0.3177960E-004  0.1554920E+03  0.7546771E-02  0.1194173E+00
         -1   -1    0    0    0  501 -0.00000000000E+00  0.00000000000E+00  0.10679329418E+04  0.10679329418E+04  0.00000000000E+00 0.  1.
          1   -1    0    0  501    0  0.00000000000E+00 -0.00000000000E+00 -0.23137049329E+02  0.23137049329E+02  0.00000000000E+00 0. -1.
         23    2    1    2    0    0  0.40681623304E+02  0.11977509704E+03  0.61482197018E+03  0.63417964856E+03  0.90425125302E+02 0.  0.
         23    2    1    2    0    0 -0.40681623304E+02 -0.11977509704E+03  0.42997392234E+03  0.45689034261E+03  0.88713826081E+02 0.  0.
          5    1    4    4  502    0 -0.54040438688E+02 -0.39319364611E+02  0.25710643958E+03  0.26569191316E+03  0.47000000000E+01 0. -1.
         -5    1    4    4    0  502  0.13358815384E+02 -0.80455732434E+02  0.17286748276E+03  0.19119842945E+03  0.47000000000E+01 0.  1.
          5    1    3    3  503    0 -0.21486221316E+02  0.76092718765E+02  0.29916663614E+03  0.30947459627E+03  0.47000000000E+01 0. -1.
         -5    1    3    3    0  503  0.62167844620E+02  0.43682378279E+02  0.31565533404E+03  0.32470505229E+03  0.47000000000E+01 0.  1.
<mgrwt>
<rscale>  0 0.15524421E+03</rscale>
<asrwt>0</asrwt>
<pdfrwt beam="1">  1        1 0.35595469E-02 0.15549203E+03</pdfrwt>
<pdfrwt beam="2">  1       -1 0.16429734E+00 0.15549203E+03</pdfrwt>
<totfact> 0.78412703E+02</totfact>
</mgrwt>
</event>
<event>
 8    1  0.3177960E-004  0.1122061E+03  0.7546771E-02  0.1257657E+00
         -1   -1    0    0    0  501 -0.00000000000E+00  0.00000000000E+00  0.12023730355E+03  0.12023730355E+03  0.00000000000E+00 0.  1.
          1   -1    0    0  501    0  0.00000000000E+00 -0.00000000000E+00 -0.10245195305E+03  0.10245195305E+03  0.00000000000E+00 0. -1.
         23    2    1    2    0    0  0.18869629250E+02 -0.61821686467E+02  0.73762403928E+01  0.11000140253E+03  0.88701272877E+02 0.  0.
         23    2    1    2    0    0 -0.18869629250E+02  0.61821686467E+02  0.10409110113E+02  0.11268785407E+03  0.91718150092E+02 0.  0.
          5    1    3    3  502    0 -0.24444519995E+02  0.50785723689E+01 -0.11619642427E+02  0.27936222815E+02  0.47000000000E+01 0. -1.
         -5    1    3    3    0  502  0.43314149245E+02 -0.66900258836E+02  0.18995882819E+02  0.82065179712E+02  0.47000000000E+01 0.  1.
          5    1    4    4  503    0  0.74470857802E+01  0.79531159016E+02  0.50516649270E+01  0.80176515636E+02  0.47000000000E+01 0. -1.
         -5    1    4    4    0  503 -0.26316715030E+02 -0.17709472549E+02  0.53574451859E+01  0.32511338436E+02  0.47000000000E+01 0.  1.
<mgrwt>
<rscale>  0 0.11158792E+03</rscale>
<asrwt>0</asrwt>
<pdfrwt beam="1">  1        1 0.15761839E-01 0.11220607E+03</pdfrwt>
<pdfrwt beam="2">  1       -1 0.18498047E-01 0.11220607E+03</pdfrwt>
<totfact> 0.74513676E+03</totfact>
</mgrwt>
</event>
<event>
 8    1  0.3177960E-004  0.1353372E+03  0.7546771E-02  0.1220146E+00
         -1   -1    0    0    0  501 -0.00000000000E+00  0.00000000000E+00  0.11451266745E+04  0.11451266745E+04  0.00000000000E+00 0.  1.
          1   -1    0    0  501    0  0.00000000000E+00 -0.00000000000E+00 -0.16440991739E+02  0.16440991739E+02  0.00000000000E+00 0. -1.
         23    2    1    2    0    0 -0.33445763412E+02  0.91578350741E+02  0.67573054794E+03  0.68915016079E+03  0.93866699524E+02 0.  0.
         23    2    1    2    0    0  0.33445763412E+02 -0.91578350741E+02  0.45295513479E+03  0.47241750542E+03  0.92221103226E+02 0.  0.
          5    1    4    4  502    0 -0.24748871213E+02 -0.53757962893E+02  0.14459243174E+03  0.15630574691E+03  0.47000000000E+01 0. -1.
         -5    1    3    3    0  503  0.98448028758E+01  0.81055959882E+02  0.54149536099E+03  0.54763701916E+03  0.47000000000E+01 0.  1.
          5    1    3    3  503    0 -0.43290566288E+02  0.10522390859E+02  0.13423518695E+03  0.14151314163E+03  0.47000000000E+01 0. -1.
         -5    1    4    4    0  502  0.58194634626E+02 -0.37820387848E+02  0.30836270304E+03  0.31611175850E+03  0.47000000000E+01 0.  1.
<mgrwt>
<rscale>  0 0.13505232E+03</rscale>
<asrwt>0</asrwt>
<pdfrwt beam="1">  1        1 0.25293843E-02 0.13533725E+03</pdfrwt>
<pdfrwt beam="2">  1       -1 0.17617327E+00 0.13533725E+03</pdfrwt>
<totfact> 0.10346830E+03</totfact>
</mgrwt>
</event>
<event>
 8    1  0.3177960E-004  0.1171064E+03  0.7546771E-02  0.1248608E+00
          1   -1    0    0  501    0  0.00000000000E+00  0.00000000000E+00  0.61452850092E+03  0.61452850092E+03  0.00000000000E+00 0. -1.
         -1   -1    0    0    0  501 -0.00000000000E+00 -0.00000000000E+00 -0.73465696913E+02  0.73465696913E+02  0.00000000000E+00 0.  1.
         23    2    1    2    0    0 -0.66347434523E+02  0.14565057926E+02 -0.17855395808E+02  0.11693950781E+03  0.93498183660E+02 0.  0.
         23    2    1    2    0    0  0.66347434523E+02 -0.14565057926E+02  0.55891819981E+03  0.57105469002E+03  0.95392777144E+02 0.  0.
          5    1    4    4  502    0  0.69557424205E+02  0.26979103751E+02  0.33431390367E+03  0.34256967684E+03  0.47000000000E+01 0. -1.
         -5    1    3    3    0  503 -0.59356970048E+01 -0.32793001125E+02 -0.21518502726E+02  0.39946831931E+02  0.47000000000E+01 0.  1.
          5    1    3    3  503    0 -0.60411737518E+02  0.47358059051E+02  0.36631069182E+01  0.76992675881E+02  0.47000000000E+01 0. -1.
         -5    1    4    4    0  502 -0.32099896817E+01 -0.41544161677E+02  0.22460429614E+03  0.22848501318E+03  0.47000000000E+01 0.  1.
<mgrwt>
<rscale>  0 0.11671996E+03</rscale>
<asrwt>0</asrwt>
<pdfrwt beam="1">  1        1 0.94542843E-01 0.11710638E+03</pdfrwt>
<pdfrwt beam="2">  1       -1 0.11302415E-01 0.11710638E+03</pdfrwt>
<totfact> 0.16859621E+03</totfact>
</mgrwt>
</event>
<event>
 8    1  0.3177960E-004  0.9469178E+02  0.7546771E-02  0.1293957E+00
          2   -1    0    0  501    0  0.00000000000E+00  0.00000000000E+00  0.75720126650E+03  0.75720126650E+03  0.00000000000E+00 0. -1.
         -2   -1    0    0    0  501 -0.00000000000E+00 -0.00000000000E+00 -0.21306241545E+02  0.21306241545E+02  0.00000000000E+00 0.  1.
         23    2    1    2    0    0 -0.15072340594E+02  0.58014182227E+01  0.63724042745E+03  0.64423745254E+03  0.93304345956E+02 0.  0.
         23    2    1    2    0    0  0.15072340594E+02 -0.58014182227E+01  0.98654597500E+02  0.13427005550E+03  0.89637527251E+02 0.  0.
          5    1    4    4  502    0  0.23067912088E+02  0.37361415812E+02  0.65773019527E+02  0.79222370940E+02  0.47000000000E+01 0. -1.
         -5    1    4    4    0  502 -0.79955714935E+01 -0.43162834035E+02  0.32881577973E+02  0.55047684560E+02  0.47000000000E+01 0.  1.
          5    1    3    3  503    0  0.39846745674E+01  0.47830141099E+02  0.33805899321E+03  0.34148143861E+03  0.47000000000E+01 0. -1.
         -5    1    3    3    0  503 -0.19057015161E+02 -0.42028722876E+02  0.29918143425E+03  0.30275601393E+03  0.47000000000E+01 0.  1.
<mgrwt>
<rscale>  0 0.93775838E+02</rscale>
<asrwt>0</asrwt>
<pdfrwt beam="1">  1        2 0.11649248E+00 0.94691778E+02</pdfrwt>
<pdfrwt beam="2">  1       -2 0.32778839E-02 0.94691778E+02</pdfrwt>
<totfact> 0.13109793E+04</totfact>
</mgrwt>
</event>
<event>
 8    1  0.3177960E-004  0.2090015E+03  0.7546771E-02  0.1142714E+00
         -1   -1    0    0    0  501 -0.00000000000E+00  0.00000000000E+00  0.50506701050E+02  0.50506701050E+02  0.00000000000E+00 0.  1.
          1   -1    0    0  501    0  0.00000000000E+00 -0.00000000000E+00 -0.12496944605E+04  0.12496944605E+04  0.00000000000E+00 0. -1.
         23    2    1    2    0    0  0.11106026202E+03  0.14958622109E+03 -0.23367969561E+03  0.31233099773E+03  0.90741570777E+02 0.  0.
         23    2    1    2    0    0 -0.11106026202E+03 -0.14958622109E+03 -0.96550806383E+03  0.98787016381E+03  0.94716523809E+02 0.  0.
          5    1    3    3  502    0  0.10774327331E+02  0.81480959083E+02 -0.12365950333E+03  0.14855637175E+03  0.47000000000E+01 0. -1.
         -5    1    3    3    0  502  0.10028593468E+03  0.68105262003E+02 -0.11002019228E+03  0.16377462599E+03  0.47000000000E+01 0.  1.
          5    1    4    4  503    0 -0.12512385913E+03 -0.12729083050E+03 -0.76378729793E+03  0.78438004955E+03  0.47000000000E+01 0. -1.
         -5    1    4    4    0  503  0.14063597114E+02 -0.22295390585E+02 -0.20172076590E+03  0.20349011426E+03  0.47000000000E+01 0.  1.
<mgrwt>
<rscale>  0 0.20855734E+03</rscale>
<asrwt>0</asrwt>
<pdfrwt beam="1">  1        1 0.19226067E+00 0.20900153E+03</pdfrwt>
<pdfrwt beam="2">  1       -1 0.77702624E-02 0.20900153E+03</pdfrwt>
<totfact> 0.95647521E+02</totfact>
</mgrwt>
</event>
<event>
 8    1  0.3177960E-004  0.9082927E+02  0.7546771E-02  0.1302551E+00
          1   -1    0    0  501    0  0.00000000000E+00  0.00000000000E+00  0.38467781742E+03  0.38467781742E+03  0.00000000000E+00 0. -1.
         -1   -1    0    0    0  501 -0.00000000000E+00 -0.00000000000E+00 -0.21977270652E+02  0.21977270652E+02  0.00000000000E+00 0.  1.
         23    2    1    2    0    0  0.74776172748E+01 -0.73248997407E+01  0.13149243291E+03  0.15824585216E+03  0.87418081061E+02 0.  0.
         23    2    1    2    0    0 -0.74776172748E+01  0.73248997407E+01  0.23120811386E+03  0.24840923591E+03  0.90224096876E+02 0.  0.
          5    1    3    3  502    0 -0.15078254931E+02 -0.19672790183E+02  0.12960466783E+03  0.13203723857E+03  0.47000000000E+01 0. -1.
         -5    1    4    4    0  503  0.64180296938E+01  0.27498945809E+02  0.18148621644E+02  0.33894624844E+02  0.47000000000E+01 0.  1.
          5    1    4    4  503    0 -0.13895646969E+02 -0.20174046069E+02  0.21305949222E+03  0.21451461107E+03  0.47000000000E+01 0. -1.
         -5    1    3    3    0  502  0.22555872206E+02  0.12347890443E+02  0.18877650811E+01  0.26208613591E+02  0.47000000000E+01 0.  1.
<mgrwt>
<rscale>  0 0.90124428E+02</rscale>
<asrwt>0</asrwt>
<pdfrwt beam="1">  1        1 0.59181198E-01 0.90829272E+02</pdfrwt>
<pdfrwt beam="2">  1       -1 0.33811188E-02 0.90829272E+02</pdfrwt>
<totfact> 0.18179140E+04</totfact>
</mgrwt>
</event>
<event>
 8    1  0.3177960E-004  0.9095369E+02  0.7546771E-02  0.1313458E+00
          1   -1    0    0  501    0  0.00000000000E+00  0.00000000000E+00  0.21703514022E+03  0.21703514022E+03  0.00000000000E+00 0. -1.
         -1   -1    0    0    0  501 -0.00000000000E+00 -0.00000000000E+00 -0.63049391070E+02  0.63049391070E+02  0.00000000000E+00 0.  1.
         23    2    1    2    0    0  0.21676500087E+02 -0.74425218307E+00 -0.27590010204E+02  0.77002453668E+02  0.68540095131E+02 0.  0.
         23    2    1    2    0    0 -0.21676500087E+02  0.74425218307E+00  0.18157575935E+03  0.20308207762E+03  0.88329775834E+02 0.  0.
          5    1    3    3  502    0 -0.89035499834E+01 -0.26421248458E+02 -0.23167481858E+02  0.36553765716E+02  0.47000000000E+01 0. -1.
         -5    1    3    3    0  502  0.30580050071E+02  0.25676996275E+02 -0.44225283463E+01  0.40448687952E+02  0.47000000000E+01 0.  1.
          5    1    4    4  503    0  0.21689590313E+02  0.17397681580E+02  0.13200853767E+03  0.13498689444E+03  0.47000000000E+01 0. -1.
         -5    1    4    4    0  503 -0.43366090400E+02 -0.16653429397E+02  0.49567221680E+02  0.68095183180E+02  0.47000000000E+01 0.  1.
<mgrwt>
<rscale>  0 0.85759519E+02</rscale>
<asrwt>0</asrwt>
<pdfrwt beam="1">  1        1 0.33390021E-01 0.90953691E+02</pdfrwt>
<pdfrwt beam="2">  1       -1 0.96999064E-02 0.90953691E+02</pdfrwt>
<totfact> 0.77606227E+03</totfact>
</mgrwt>
</event>
<event>
 8    1  0.3177960E-004  0.1114937E+03  0.7546771E-02  0.1258166E+00
         -1   -1    0    0    0  501 -0.00000000000E+00  0.00000000000E+00  0.11850501505E+03  0.11850501505E+03  0.00000000000E+00 0.  1.
          1   -1    0    0  501    0  0.00000000000E+00 -0.00000000000E+00 -0.11573623812E+03  0.11573623812E+03  0.00000000000E+00 0. -1.
         23    2    1    2    0    0 -0.23974945462E+02 -0.58716875097E+02  0.38359708762E+02  0.11790808555E+03  0.91697218881E+02 0.  0.
         23    2    1    2    0    0  0.23974945462E+02  0.58716875097E+02 -0.35590931832E+02  0.11633316763E+03  0.90797698378E+02 0.  0.
          5    1    4    4  502    0  0.55220218122E+02  0.17299297126E+02 -0.12690254140E+02  0.59427861484E+02  0.47000000000E+01 0. -1.
         -5    1    4    4    0  502 -0.31245272660E+02  0.41417577971E+02 -0.22900677692E+02  0.56905306144E+02  0.47000000000E+01 0.  1.
          5    1    3    3  503    0  0.24436178678E+02 -0.49391979989E+02  0.67406536643E-01  0.55306320247E+02  0.47000000000E+01 0. -1.
         -5    1    3    3    0  503 -0.48411124139E+02 -0.93248951072E+01  0.38292302226E+02  0.62601765302E+02  0.47000000000E+01 0.  1.
<mgrwt>
<rscale>  0 0.11130860E+03</rscale>
<asrwt>0</asrwt>
<pdfrwt beam="1">  1        1 0.17805575E-01 0.11149372E+03</pdfrwt>
<pdfrwt beam="2">  1       -1 0.18231541E-01 0.11149372E+03</pdfrwt>
<totfact> 0.65214110E+03</totfact>
</mgrwt>
</event>
<event>
 8    1  0.3177960E-004  0.1009176E+03  0.7546771E-02  0.1279190E+00
         -1   -1    0    0    0  501 -0.00000000000E+00  0.00000000000E+00  0.10120603439E+02  0.10120603439E+02  0.00000000000E+00 0.  1.
          1   -1    0    0  501    0  0.00000000000E+00 -0.00000000000E+00 -0.99468136215E+03  0.99468136215E+03  0.00000000000E+00 0. -1.
         23    2    1    2    0    0 -0.44972124273E+01  0.45524270569E+02 -0.51948510993E+03  0.52890310987E+03  0.88210181138E+02 0.  0.
         23    2    1    2    0    0  0.44972124273E+01 -0.45524270569E+02 -0.46507564878E+03  0.47589885572E+03  0.89953752887E+02 0.  0.
          5    1    4    4  502    0  0.29437348200E+02 -0.57316956765E+02 -0.39815347121E+03  0.40336096444E+03  0.47000000000E+01 0. -1.
         -5    1    3    3    0  503 -0.41032737412E+02  0.35781246106E+02 -0.39367674934E+03  0.39745119963E+03  0.47000000000E+01 0.  1.
          5    1    3    3  503    0  0.36535524985E+02  0.97430244633E+01 -0.12580836059E+03  0.13145191024E+03  0.47000000000E+01 0. -1.
         -5    1    4    4    0  502 -0.24940135773E+02  0.11792686196E+02 -0.66922177574E+02  0.72537891280E+02  0.47000000000E+01 0.  1.
<mgrwt>
<rscale>  0 0.10052759E+03</rscale>
<asrwt>0</asrwt>
<pdfrwt beam="1">  1        1 0.15302791E+00 0.10091760E+03</pdfrwt>
<pdfrwt beam="2">  1       -1 0.15570158E-02 0.10091760E+03</pdfrwt>
<totfact> 0.14959382E+04</totfact>
</mgrwt>
</event>
<event>
 8    1  0.3177960E-004  0.1144077E+03  0.7546771E-02  0.1253240E+00
         -1   -1    0    0    0  501 -0.00000000000E+00  0.00000000000E+00  0.23505547412E+03  0.23505547412E+03  0.00000000000E+00 0.  1.
          1   -1    0    0  501    0  0.00000000000E+00 -0.00000000000E+00 -0.13069244890E+03  0.13069244890E+03  0.00000000000E+00 0. -1.
         23    2    1    2    0    0 -0.67712177692E+02  0.10427577721E+02  0.19148557833E+03  0.22306021436E+03  0.91626738111E+02 0.  0.
         23    2    1    2    0    0  0.67712177692E+02 -0.10427577721E+02 -0.87122553116E+02  0.14268770866E+03  0.89865285610E+02 0.  0.
          5    1    4    4  502    0  0.50952467473E+02  0.34455000140E+02 -0.65307805922E+02  0.89835964349E+02  0.47000000000E+01 0. -1.
         -5    1    3    3    0  503 -0.61152261544E+02 -0.30199508580E+02  0.14787939535E+03  0.16291720284E+03  0.47000000000E+01 0.  1.
          5    1    3    3  503    0 -0.65599161479E+01  0.40627086301E+02  0.43606182979E+02  0.60143011524E+02  0.47000000000E+01 0. -1.
         -5    1    4    4    0  502  0.16759710219E+02 -0.44882577861E+02 -0.21814747193E+02  0.52851744315E+02  0.47000000000E+01 0.  1.
<mgrwt>
<rscale>  0 0.11405467E+03</rscale>
<asrwt>0</asrwt>
<pdfrwt beam="1">  1        1 0.20106531E-01 0.11440775E+03</pdfrwt>
<pdfrwt beam="2">  1       -1 0.36162381E-01 0.11440775E+03</pdfrwt>
<totfact> 0.18163482E+03</totfact>
</mgrwt>
</event>
<event>
 8    1  0.3177960E-004  0.9969830E+02  0.7546771E-02  0.1283868E+00
          1   -1    0    0  501    0  0.00000000000E+00  0.00000000000E+00  0.13037787734E+03  0.13037787734E+03  0.00000000000E+00 0. -1.
         -1   -1    0    0    0  501 -0.00000000000E+00 -0.00000000000E+00 -0.18853153495E+03  0.18853153495E+03  0.00000000000E+00 0.  1.
         23    2    1    2    0    0  0.81327188316E+01  0.36588644322E+02 -0.15402172200E+03  0.18059659033E+03  0.86530732017E+02 0.  0.
         23    2    1    2    0    0 -0.81327188316E+01 -0.36588644322E+02  0.95868064390E+02  0.13831282195E+03  0.92384419346E+02 0.  0.
          5    1    3    3  502    0  0.33931212576E+02 -0.99333247150E+01 -0.34204796112E+02  0.49417165073E+02  0.47000000000E+01 0. -1.
         -5    1    3    3    0  502 -0.25798493744E+02  0.46521969037E+02 -0.11981692588E+03  0.13117942526E+03  0.47000000000E+01 0.  1.
          5    1    4    4  503    0 -0.32064762195E+02 -0.44470628217E+02  0.98210081784E+02  0.11257484583E+03  0.47000000000E+01 0. -1.
         -5    1    4    4    0  503  0.23932043364E+02  0.78819838946E+01 -0.23420173942E+01  0.25737976128E+02  0.47000000000E+01 0.  1.
<mgrwt>
<rscale>  0 0.98320350E+02</rscale>
<asrwt>0</asrwt>
<pdfrwt beam="1">  1        1 0.20058135E-01 0.99698300E+02</pdfrwt>
<pdfrwt beam="2">  1       -1 0.29004852E-01 0.99698300E+02</pdfrwt>
<totfact> 0.26261250E+03</totfact>
</mgrwt>
</event>
<event>
 8    1  0.4925046E-004  0.1071916E+03  0.7546771E-02  0.1273372E+00
          2   -1    0    0  501    0  0.00000000000E+00  0.00000000000E+00  0.63353569611E+03  0.63353569611E+03  0.00000000000E+00 0. -1.
         -2   -1    0    0    0  501 -0.00000000000E+00 -0.00000000000E+00 -0.34365156669E+02  0.34365156669E+02  0.00000000000E+00 0.  1.
         23    2    1    2    0    0 -0.29272327366E+02 -0.18773601749E-01  0.53499803979E+03  0.54296827760E+03  0.87947588924E+02 0.  0.
         23    2    1    2    0    0  0.29272327366E+02  0.18773601749E-01  0.64172499654E+02  0.12493257518E+03  0.10311725912E+03 0.  0.
          5    1    3    3  502    0 -0.57232236669E+02 -0.92440805867E+01  0.26379285294E+03  0.27012911950E+03  0.47000000000E+01 0. -1.
         -5    1    4    4    0  503  0.57415658123E+02 -0.29393412022E+02  0.49367315089E+02  0.81361860027E+02  0.47000000000E+01 0.  1.
          5    1    4    4  503    0 -0.28143330757E+02  0.29412185624E+02  0.14805184564E+02  0.43570715157E+02  0.47000000000E+01 0. -1.
         -5    1    3    3    0  502  0.27959909304E+02  0.92253069850E+01  0.27120518685E+03  0.27283915809E+03  0.47000000000E+01 0.  1.
<mgrwt>
<rscale>  0 0.10336657E+03</rscale>
<asrwt>0</asrwt>
<pdfrwt beam="1">  1        2 0.97467022E-01 0.10719160E+03</pdfrwt>
<pdfrwt beam="2">  1       -2 0.52869476E-02 0.10719160E+03</pdfrwt>
<totfact> 0.80404460E+03</totfact>
</mgrwt>
</event>
<event>
 8    1  0.3177960E-004  0.1109610E+03  0.7546771E-02  0.1259164E+00
         -1   -1    0    0    0  501 -0.00000000000E+00  0.00000000000E+00  0.24575953641E+03  0.24575953641E+03  0.00000000000E+00 0.  1.
          1   -1    0    0  501    0  0.00000000000E+00 -0.00000000000E+00 -0.52032403312E+02  0.52032403312E+02  0.00000000000E+00 0. -1.
         23    2    1    2    0    0 -0.11770695296E+02 -0.62249655216E+02  0.65295044262E+02  0.12806525867E+03  0.90131564007E+02 0.  0.
         23    2    1    2    0    0  0.11770695296E+02  0.62249655216E+02  0.12843208884E+03  0.16972668106E+03  0.91097617843E+02 0.  0.
          5    1    4    4  502    0 -0.14455328762E+02  0.71620787213E+02  0.56603820394E+02  0.92544995401E+02  0.47000000000E+01 0. -1.
         -5    1    4    4    0  502  0.26226024058E+02 -0.93711319970E+01  0.71828268444E+02  0.77181685654E+02  0.47000000000E+01 0.  1.
          5    1    3    3  503    0 -0.14486447432E+02  0.20676295697E+02  0.24485505846E+02  0.35482338698E+02  0.47000000000E+01 0. -1.
         -5    1    3    3    0  503  0.27157521362E+01 -0.82925950913E+02  0.40809538416E+02  0.92582919970E+02  0.47000000000E+01 0.  1.
<mgrwt>
<rscale>  0 0.11076254E+03</rscale>
<asrwt>0</asrwt>
<pdfrwt beam="1">  1        1 0.80049852E-02 0.11096101E+03</pdfrwt>
<pdfrwt beam="2">  1       -1 0.37809159E-01 0.11096101E+03</pdfrwt>
<totfact> 0.55600419E+03</totfact>
</mgrwt>
</event>
<event>
 8    1  0.3177960E-004  0.1034021E+03  0.7546771E-02  0.1273475E+00
          1   -1    0    0  501    0  0.00000000000E+00  0.00000000000E+00  0.42169529973E+03  0.42169529973E+03  0.00000000000E+00 0. -1.
         -1   -1    0    0    0  501 -0.00000000000E+00 -0.00000000000E+00 -0.27291248923E+02  0.27291248923E+02  0.00000000000E+00 0.  1.
         23    2    1    2    0    0  0.48455293859E+02 -0.98001716268E+01  0.13641368423E+03  0.17117442774E+03  0.90818679790E+02 0.  0.
         23    2    1    2    0    0 -0.48455293859E+02  0.98001716268E+01  0.25799036657E+03  0.27781212091E+03  0.90424479073E+02 0.  0.
          5    1    4    4  502    0 -0.31675808887E+02 -0.90583564158E+01  0.24805970781E+03  0.25028207952E+03  0.47000000000E+01 0. -1.
         -5    1    3    3    0  503  0.20067967383E+02  0.29431316507E+02  0.12485346232E+02  0.38038133192E+02  0.47000000000E+01 0.  1.
          5    1    3    3  503    0  0.28387326476E+02 -0.39231488134E+02  0.12392833800E+03  0.13313629455E+03  0.47000000000E+01 0. -1.
         -5    1    4    4    0  502 -0.16779484972E+02  0.18858528043E+02  0.99306587656E+01  0.27530041398E+02  0.47000000000E+01 0.  1.
<mgrwt>
<rscale>  0 0.10331546E+03</rscale>
<asrwt>0</asrwt>
<pdfrwt beam="1">  1        1 0.64876195E-01 0.10340209E+03</pdfrwt>
<pdfrwt beam="2">  1       -1 0.41986540E-02 0.10340209E+03</pdfrwt>
<totfact> 0.11979905E+04</totfact>
</mgrwt>
</event>
<event>
 8    1  0.3177960E-004  0.9664369E+02  0.7546771E-02  0.1287954E+00
          1   -1    0    0  501    0  0.00000000000E+00  0.00000000000E+00  0.79966827141E+02  0.79966827141E+02  0.00000000000E+00 0. -1.
         -1   -1    0    0    0  501 -0.00000000000E+00 -0.00000000000E+00 -0.19789392190E+03  0.19789392190E+03  0.00000000000E+00 0.  1.
         23    2    1    2    0    0  0.14412082725E+02  0.28338371350E+02 -0.14827943949E+03  0.17656283465E+03  0.90426052565E+02 0.  0.
         23    2    1    2    0    0 -0.14412082725E+02 -0.28338371350E+02  0.30352344733E+02  0.10129791440E+03  0.91264621904E+02 0.  0.
          5    1    3    3  502    0 -0.25581818891E+02 -0.18629417751E+02 -0.34502608761E+02  0.47053211100E+02  0.47000000000E+01 0. -1.
         -5    1    4    4    0  503  0.48894612149E+01  0.31022493858E+02  0.20839200369E+02  0.37982419988E+02  0.47000000000E+01 0.  1.
          5    1    4    4  503    0 -0.19301543940E+02 -0.59360865207E+02  0.95131443638E+01  0.63315494409E+02  0.47000000000E+01 0. -1.
         -5    1    3    3    0  502  0.39993901616E+02  0.46967789100E+02 -0.11377683073E+03  0.12950962355E+03  0.47000000000E+01 0.  1.
<mgrwt>
<rscale>  0 0.96445204E+02</rscale>
<asrwt>0</asrwt>
<pdfrwt beam="1">  1        1 0.12302589E-01 0.96643689E+02</pdfrwt>
<pdfrwt beam="2">  1       -1 0.30445219E-01 0.96643689E+02</pdfrwt>
<totfact> 0.45162274E+03</totfact>
</mgrwt>
</event>
<event>
 8    1  0.3177960E-004  0.1098121E+03  0.7546771E-02  0.1263315E+00
          3   -1    0    0  501    0  0.00000000000E+00  0.00000000000E+00  0.19803314888E+03  0.19803314888E+03  0.00000000000E+00 0. -1.
         -3   -1    0    0    0  501 -0.00000000000E+00 -0.00000000000E+00 -0.64224085203E+02  0.64224085203E+02  0.00000000000E+00 0.  1.
         23    2    1    2    0    0  0.40196836445E+02 -0.32022749359E+02  0.27949153065E+02  0.11331308415E+03  0.97043586833E+02 0.  0.
         23    2    1    2    0    0 -0.40196836445E+02  0.32022749359E+02  0.10585991062E+03  0.14894414994E+03  0.91306062169E+02 0.  0.
          5    1    3    3  502    0 -0.25689275924E+01  0.29463687051E+02  0.23626911347E+02  0.38144844782E+02  0.47000000000E+01 0. -1.
         -5    1    4    4    0  503  0.27807059248E+02  0.11022476910E+02  0.16095072523E+02  0.34290944880E+02  0.47000000000E+01 0.  1.
          5    1    4    4  503    0 -0.68003895693E+02  0.21000272450E+02  0.89764838093E+02  0.11465320506E+03  0.47000000000E+01 0. -1.
         -5    1    3    3    0  502  0.42765764037E+02 -0.61486436410E+02  0.43222417174E+01  0.75168239367E+02  0.47000000000E+01 0.  1.
<mgrwt>
<rscale>  0 0.10853087E+03</rscale>
<asrwt>0</asrwt>
<pdfrwt beam="1">  1        3 0.30466638E-01 0.10981211E+03</pdfrwt>
<pdfrwt beam="2">  1       -3 0.98806286E-02 0.10981211E+03</pdfrwt>
<totfact> 0.17354475E+03</totfact>
</mgrwt>
</event>
<event>
 8    1  0.3177960E-004  0.1080954E+03  0.7546771E-02  0.1264980E+00
          1   -1    0    0  501    0  0.00000000000E+00  0.00000000000E+00  0.36263777719E+03  0.36263777719E+03  0.00000000000E+00 0. -1.
         -1   -1    0    0    0  501 -0.00000000000E+00 -0.00000000000E+00 -0.51833145988E+02  0.51833145988E+02  0.00000000000E+00 0.  1.
         23    2    1    2    0    0  0.25367169465E+02  0.49673794105E+02  0.25461984628E+02  0.10933974642E+03  0.90531145901E+02 0.  0.
         23    2    1    2    0    0 -0.25367169465E+02 -0.49673794105E+02  0.28534264657E+03  0.30513117676E+03  0.92593898122E+02 0.  0.
          5    1    3    3  502    0 -0.99614578404E+01 -0.21979957999E+02 -0.21575491389E+01  0.24679834161E+02  0.47000000000E+01 0. -1.
         -5    1    4    4    0  503 -0.38080874978E+02  0.11916593245E+02  0.69642966962E+02  0.80401437058E+02  0.47000000000E+01 0. -1.
          5    1    4    4  503    0  0.12713705513E+02 -0.61590387351E+02  0.21569967961E+03  0.22472973970E+03  0.47000000000E+01 0. -1.
         -5    1    3    3    0  502  0.35328627305E+02  0.71653752104E+02  0.27619533767E+02  0.84659912257E+02  0.47000000000E+01 0.  1.
<mgrwt>
<rscale>  0 0.10765225E+03</rscale>
<asrwt>0</asrwt>
<pdfrwt beam="1">  1        1 0.55790426E-01 0.10809537E+03</pdfrwt>
<pdfrwt beam="2">  1       -1 0.79743304E-02 0.10809537E+03</pdfrwt>
<totfact> 0.56211856E+03</totfact>
</mgrwt>
</event>
<event>
 7    1  0.3177960E-004  0.1500929E+03  0.7546771E-02  0.1206978E+00
         -1   -1    0    0    0  501 -0.00000000000E+00  0.00000000000E+00  0.62837747331E+03  0.62837747331E+03  0.00000000000E+00 0.  1.
          1   -1    0    0  501    0  0.00000000000E+00 -0.00000000000E+00 -0.68657455520E+02  0.68657455520E+02  0.00000000000E+00 0. -1.
         23    2    1    2    0    0  0.41981761547E+02 -0.11053406859E+03  0.31939890627E+02  0.15345371321E+03  0.92453430781E+02 0.  0.
          5    1    1    2  502    0 -0.27805867423E+02  0.17084735043E+02  0.94510833886E+02  0.10009716358E+03  0.47000000000E+01 0. -1.
         -5    1    3    3    0  503  0.49947639243E+02 -0.17417794556E+02  0.27427638742E+02  0.59770491048E+02  0.47000000000E+01 0.  1.
          5    1    3    3  503    0 -0.79658776957E+01 -0.93116274038E+02  0.45122518846E+01  0.93683222165E+02  0.47000000000E+01 0. -1.
         -5    1    1    2    0  502 -0.14175894124E+02  0.93449333551E+02  0.43326929328E+03  0.44348405204E+03  0.47000000000E+01 0.  1.
<mgrwt>
<rscale>  0 0.14482650E+03</rscale>
<asrwt>0</asrwt>
<pdfrwt beam="1">  1        1 0.10562686E-01 0.15009292E+03</pdfrwt>
<pdfrwt beam="2">  1       -1 0.96673453E-01 0.15009292E+03</pdfrwt>
<totfact> 0.64426086E+02</totfact>
</mgrwt>
</event>
<event>
 8    1  0.3177960E-004  0.9520508E+02  0.7546771E-02  0.1293652E+00
         -1   -1    0    0    0  501 -0.00000000000E+00  0.00000000000E+00  0.92965573194E+01  0.92965573194E+01  0.00000000000E+00 0.  1.
          1   -1    0    0  501    0  0.00000000000E+00 -0.00000000000E+00 -0.96083227628E+03  0.96083227628E+03  0.00000000000E+00 0. -1.
         23    2    1    2    0    0  0.60246424798E+01 -0.32178499912E+01 -0.36786155249E+03  0.37874102588E+03  0.89866523290E+02 0.  0.
         23    2    1    2    0    0 -0.60246424798E+01  0.32178499912E+01 -0.58367416647E+03  0.59138780772E+03  0.94959757999E+02 0.  0.
          5    1    4    4  502    0  0.15003002992E+02  0.41237482564E+02 -0.40714474676E+03  0.40952967521E+03  0.47000000000E+01 0. -1.
         -5    1    4    4    0  502 -0.21027645472E+02 -0.38019632573E+02 -0.17652941971E+03  0.18185813251E+03  0.47000000000E+01 0.  1.
          5    1    3    3  503    0  0.44618159858E+02  0.14378387580E+02 -0.20931194125E+03  0.21454858883E+03  0.47000000000E+01 0. -1.
         -5    1    3    3    0  503 -0.38593517378E+02 -0.17596237571E+02 -0.15854961124E+03  0.16419243705E+03  0.47000000000E+01 0.  1.
<mgrwt>
<rscale>  0 0.93909007E+02</rscale>
<asrwt>0</asrwt>
<pdfrwt beam="1">  1        1 0.14782041E+00 0.95205076E+02</pdfrwt>
<pdfrwt beam="2">  1       -1 0.14302390E-02 0.95205076E+02</pdfrwt>
<totfact> 0.17783864E+04</totfact>
</mgrwt>
</event>
<event>
 8    1  0.3177960E-004  0.1191048E+03  0.7546771E-02  0.1245174E+00
          1   -1    0    0  501    0  0.00000000000E+00  0.00000000000E+00  0.54668098211E+03  0.54668098211E+03  0.00000000000E+00 0. -1.
         -1   -1    0    0    0  501 -0.00000000000E+00 -0.00000000000E+00 -0.28347165019E+02  0.28347165019E+02  0.00000000000E+00 0.  1.
         23    2    1    2    0    0 -0.59700244631E+02 -0.46528992505E+02  0.34658279549E+03  0.36602007387E+03  0.90122106009E+02 0.  0.
         23    2    1    2    0    0  0.59700244631E+02  0.46528992505E+02  0.17175102160E+03  0.20900807326E+03  0.91961377304E+02 0.  0.
          5    1    4    4  502    0  0.17551881152E+02  0.45221411581E+02  0.22198002636E+02  0.53552646231E+02  0.47000000000E+01 0.  1.
         -5    1    3    3    0  503  0.20721920928E+02 -0.75530874774E+01  0.12551979854E+03  0.12752943568E+03  0.47000000000E+01 0.  1.
          5    1    3    3  503    0 -0.80422165559E+02 -0.38975905027E+02  0.22106299694E+03  0.23849063819E+03  0.47000000000E+01 0. -1.
         -5    1    4    4    0  502  0.42148363479E+02  0.13075809233E+01  0.14955301897E+03  0.15545542703E+03  0.47000000000E+01 0. -1.
<mgrwt>
<rscale>  0 0.11874967E+03</rscale>
<asrwt>0</asrwt>
<pdfrwt beam="1">  1        1 0.84104758E-01 0.11910483E+03</pdfrwt>
<pdfrwt beam="2">  1       -1 0.43611027E-02 0.11910483E+03</pdfrwt>
<totfact> 0.82028015E+03</totfact>
</mgrwt>
</event>
<event>
 8    1  0.3177960E-004  0.1000199E+03  0.7546771E-02  0.1280379E+00
         -3   -1    0    0    0  501 -0.00000000000E+00  0.00000000000E+00  0.41037899725E+03  0.41037899725E+03  0.00000000000E+00 0.  1.
          3   -1    0    0  501    0  0.00000000000E+00 -0.00000000000E+00 -0.24830155168E+02  0.24830155168E+02  0.00000000000E+00 0. -1.
         23    2    1    2    0    0  0.24888139724E+02 -0.31522152372E+02  0.22374685001E+03  0.24498859393E+03  0.91343815742E+02 0.  0.
         23    2    1    2    0    0 -0.24888139724E+02  0.31522152372E+02  0.16180199207E+03  0.19022055850E+03  0.91601913988E+02 0.  0.
          5    1    4    4  502    0 -0.23964738600E+02  0.62401267040E+02  0.92719820104E+02  0.11439965850E+03  0.47000000000E+01 0. -1.
         -5    1    3    3    0  503  0.46743216665E+02  0.28875263497E+00  0.18189391182E+03  0.18786297357E+03  0.47000000000E+01 0.  1.
          5    1    3    3  503    0 -0.21855076941E+02 -0.31810905007E+02  0.41852938192E+02  0.57125620354E+02  0.47000000000E+01 0. -1.
         -5    1    4    4    0  502 -0.92340112402E+00 -0.30879114669E+02  0.69082171970E+02  0.75820899997E+02  0.47000000000E+01 0.  1.
<mgrwt>
<rscale>  0 0.99960746E+02</rscale>
<asrwt>0</asrwt>
<pdfrwt beam="1">  1        3 0.38200242E-02 0.10001988E+03</pdfrwt>
<pdfrwt beam="2">  1       -3 0.63135225E-01 0.10001988E+03</pdfrwt>
<totfact> 0.18745930E+03</totfact>
</mgrwt>
</event>
<event>
 8    1  0.3177960E-004  0.1205681E+03  0.7546771E-02  0.1242652E+00
          1   -1    0    0  501    0  0.00000000000E+00  0.00000000000E+00  0.35379576241E+03  0.35379576241E+03  0.00000000000E+00 0. -1.
         -1   -1    0    0    0  501 -0.00000000000E+00 -0.00000000000E+00 -0.54914457496E+02  0.54914457496E+02  0.00000000000E+00 0.  1.
         23    2    1    2    0    0  0.70865792349E+02  0.27763933380E+02  0.45960891113E+02  0.12903129281E+03  0.93508686711E+02 0.  0.
         23    2    1    2    0    0 -0.70865792349E+02 -0.27763933380E+02  0.25292041380E+03  0.27967892709E+03  0.91971571813E+02 0.  0.
          5    1    3    3  502    0  0.46085446712E+02  0.65233401939E-01  0.70420728779E+02  0.84291409384E+02  0.47000000000E+01 0. -1.
         -5    1    3    3    0  502  0.24780345637E+02  0.27698699978E+02 -0.24459837667E+02  0.44739883427E+02  0.47000000000E+01 0.  1.
          5    1    4    4  503    0 -0.88255607927E+02 -0.62288368666E+01  0.16361191168E+03  0.18606127588E+03  0.47000000000E+01 0. -1.
         -5    1    4    4    0  503  0.17389815577E+02 -0.21535096513E+02  0.89308502118E+02  0.93617651211E+02  0.47000000000E+01 0.  1.
<mgrwt>
<rscale>  0 0.12026997E+03</rscale>
<asrwt>0</asrwt>
<pdfrwt beam="1">  1        1 0.54430116E-01 0.12056812E+03</pdfrwt>
<pdfrwt beam="2">  1       -1 0.84483783E-02 0.12056812E+03</pdfrwt>
<totfact> 0.53502583E+03</totfact>
</mgrwt>
</event>
<event>
 8    1  0.3177960E-004  0.9395051E+02  0.7546771E-02  0.1295692E+00
          2   -1    0    0  501    0  0.00000000000E+00  0.00000000000E+00  0.85503053273E+03  0.85503053273E+03  0.00000000000E+00 0. -1.
         -2   -1    0    0    0  501 -0.00000000000E+00 -0.00000000000E+00 -0.11895747870E+02  0.11895747870E+02  0.00000000000E+00 0.  1.
         23    2    1    2    0    0 -0.18387595582E+02 -0.12601804619E+02  0.59096571504E+03  0.59782418542E+03  0.87500692357E+02 0.  0.
         23    2    1    2    0    0  0.18387595582E+02  0.12601804619E+02  0.25216906982E+03  0.26910209518E+03  0.91267676140E+02 0.  0.
          5    1    3    3  502    0 -0.29694435203E+02 -0.40843875483E+02  0.47987762671E+03  0.48255010959E+03  0.47000000000E+01 0. -1.
         -5    1    3    3    0  502  0.11306839621E+02  0.28242070864E+02  0.11108808833E+03  0.11527407583E+03  0.47000000000E+01 0.  1.
          5    1    4    4  503    0 -0.22788343581E+02  0.38548657698E+02  0.11760013309E+03  0.12592533072E+03  0.47000000000E+01 0. -1.
         -5    1    4    4    0  503  0.41175939163E+02 -0.25946853080E+02  0.13456893673E+03  0.14317676447E+03  0.47000000000E+01 0.  1.
<mgrwt>
<rscale>  0 0.93023118E+02</rscale>
<asrwt>0</asrwt>
<pdfrwt beam="1">  1        2 0.13154311E+00 0.93950507E+02</pdfrwt>
<pdfrwt beam="2">  1       -2 0.18301157E-02 0.93950507E+02</pdfrwt>
<totfact> 0.26222807E+04</totfact>
</mgrwt>
</event>
<event>
 8    1  0.3177960E-004  0.9861387E+02  0.7546771E-02  0.1286928E+00
         -2   -1    0    0    0  501 -0.00000000000E+00  0.00000000000E+00  0.29240337164E+02  0.29240337164E+02  0.00000000000E+00 0.  1.
          2   -1    0    0  501    0  0.00000000000E+00 -0.00000000000E+00 -0.32265852904E+03  0.32265852904E+03  0.00000000000E+00 0. -1.
         23    2    1    2    0    0 -0.16719011745E+02  0.14760683365E+02 -0.11759976295E+03  0.15347442937E+03  0.96058800210E+02 0.  0.
         23    2    1    2    0    0  0.16719011745E+02 -0.14760683365E+02 -0.17581842892E+03  0.19842443683E+03  0.89234152965E+02 0.  0.
          5    1    4    4  502    0  0.50742575164E+02  0.58066851088E+01 -0.11032586080E+03  0.12166516382E+03  0.47000000000E+01 0. -1.
         -5    1    4    4    0  502 -0.34023563419E+02 -0.20567368473E+02 -0.65492568123E+02  0.76759273010E+02  0.47000000000E+01 0.  1.
          5    1    3    3  503    0  0.32167500271E+01 -0.22323942709E+02  0.51602475764E+01  0.23609829603E+02  0.47000000000E+01 0. -1.
         -5    1    3    3    0  503 -0.19935761772E+02  0.37084626074E+02 -0.12276001053E+03  0.12986459977E+03  0.47000000000E+01 0.  1.
<mgrwt>
<rscale>  0 0.96911584E+02</rscale>
<asrwt>0</asrwt>
<pdfrwt beam="1">  1        2 0.49639777E-01 0.98613874E+02</pdfrwt>
<pdfrwt beam="2">  1       -2 0.44985131E-02 0.98613874E+02</pdfrwt>
<totfact> 0.21027770E+04</totfact>
</mgrwt>
</event>
<event>
 8    1  0.3177960E-004  0.1248587E+03  0.7546771E-02  0.1236124E+00
         -2   -1    0    0    0  501 -0.00000000000E+00  0.00000000000E+00  0.92452590048E+02  0.92452590048E+02  0.00000000000E+00 0.  1.
          2   -1    0    0  501    0  0.00000000000E+00 -0.00000000000E+00 -0.20182918268E+03  0.20182918268E+03  0.00000000000E+00 0. -1.
         23    2    1    2    0    0  0.84115615387E+02  0.18652246725E+02 -0.11725043816E+03  0.17128155188E+03  0.90367924091E+02 0.  0.
         23    2    1    2    0    0 -0.84115615387E+02 -0.18652246725E+02  0.78738455281E+01  0.12300022085E+03  0.87428335375E+02 0.  0.
          5    1    4    4  502    0 -0.61718448146E+02  0.22253661590E+02 -0.19644664919E+02  0.68646887442E+02  0.47000000000E+01 0. -1.
         -5    1    3    3    0  503  0.70734749562E+01  0.41159719850E+02 -0.24952235284E+02  0.48875971926E+02  0.47000000000E+01 0.  1.
          5    1    3    3  503    0  0.77042140430E+02 -0.22507473125E+02 -0.92298202878E+02  0.12240557995E+03  0.47000000000E+01 0. -1.
         -5    1    4    4    0  502 -0.22397167240E+02 -0.40905908315E+02  0.27518510447E+02  0.54353333409E+02  0.47000000000E+01 0.  1.
<mgrwt>
<rscale>  0 0.12432766E+03</rscale>
<asrwt>0</asrwt>
<pdfrwt beam="1">  1        2 0.31050643E-01 0.12485874E+03</pdfrwt>
<pdfrwt beam="2">  1       -2 0.14223475E-01 0.12485874E+03</pdfrwt>
<totfact> 0.59797217E+03</totfact>
</mgrwt>
</event>
<event>
 7    1  0.3177960E-004  0.1537444E+03  0.7546771E-02  0.1233284E+00
         -1   -1    0    0    0  501 -0.00000000000E+00  0.00000000000E+00  0.15717204841E+02  0.15717204841E+02  0.00000000000E+00 0.  1.
          1   -1    0    0  501    0  0.00000000000E+00 -0.00000000000E+00 -0.81849103080E+03  0.81849103080E+03  0.00000000000E+00 0. -1.
         23    2    1    2    0    0 -0.46601083085E+01 -0.32182921401E+01 -0.18794242290E+03  0.20044567052E+03  0.69455298500E+02 0.  0.
          5    1    3    3  502    0  0.13793898089E+02  0.28317766641E+02 -0.70472048048E+02  0.77334126284E+02  0.47000000000E+01 0. -1.
         -5    1    1    2    0  503  0.48586494574E+02 -0.52370824436E+02 -0.42696228742E+03  0.43292289797E+03  0.47000000000E+01 0.  1.
          5    1    1    2  503    0 -0.43926386265E+02  0.55589116576E+02 -0.18786911564E+03  0.20083966715E+03  0.47000000000E+01 0. -1.
         -5    1    3    3    0  502 -0.18454006397E+02 -0.31536058781E+02 -0.11747037486E+03  0.12311154424E+03  0.47000000000E+01 0.  1.
<mgrwt>
<rscale>  0 0.12614950E+03</rscale>
<asrwt>0</asrwt>
<pdfrwt beam="1">  1        1 0.12592170E+00 0.15374438E+03</pdfrwt>
<pdfrwt beam="2">  1       -1 0.24180315E-02 0.15374438E+03</pdfrwt>
<totfact> 0.11149390E+04</totfact>
</mgrwt>
</event>
<event>
 8    1  0.3177960E-004  0.4337270E+03  0.7546771E-02  0.1032890E+00
          2   -1    0    0  501    0  0.00000000000E+00  0.00000000000E+00  0.17409234323E+04  0.17409234323E+04  0.00000000000E+00 0. -1.
         -2   -1    0    0    0  501 -0.00000000000E+00 -0.00000000000E+00 -0.28125932280E+03  0.28125932280E+03  0.00000000000E+00 0.  1.
         23    2    1    2    0    0  0.41811451228E+03  0.52306070633E+02 -0.64240093496E+02  0.43845850225E+03  0.10277839355E+03 0.  0.
         23    2    1    2    0    0 -0.41811451228E+03 -0.52306070633E+02  0.15239042030E+04  0.15837242529E+04  0.91339032072E+02 0.  0.
          5    1    3    3  502    0  0.27071371526E+03  0.22576022403E+02  0.74754740700E+01  0.27179691892E+03  0.47000000000E+01 0. -1.
         -5    1    3    3    0  502  0.14740079701E+03  0.29730048230E+02 -0.71715567566E+02  0.16666158333E+03  0.47000000000E+01 0.  1.
          5    1    4    4  503    0 -0.35909878355E+03 -0.60047303555E+02  0.11877309144E+04  0.12422899943E+04  0.47000000000E+01 0. -1.
         -5    1    4    4    0  503 -0.59015728729E+02  0.77412329222E+01  0.33617328867E+03  0.34143425859E+03  0.47000000000E+01 0.  1.
<mgrwt>
<rscale>  0 0.43308365E+03</rscale>
<asrwt>0</asrwt>
<pdfrwt beam="1">  1        2 0.26783437E+00 0.43372695E+03</pdfrwt>
<pdfrwt beam="2">  1       -2 0.43270666E-01 0.43372695E+03</pdfrwt>
<totfact> 0.50641959E+01</totfact>
</mgrwt>
</event>
<event>
 8    1  0.3177960E-004  0.9877722E+02  0.7546771E-02  0.1283690E+00
         -1   -1    0    0    0  501 -0.00000000000E+00  0.00000000000E+00  0.37382801854E+02  0.37382801854E+02  0.00000000000E+00 0.  1.
          1   -1    0    0  501    0  0.00000000000E+00 -0.00000000000E+00 -0.46938943598E+03  0.46938943598E+03  0.00000000000E+00 0. -1.
         23    2    1    2    0    0 -0.21022724736E+01  0.31913600093E+02 -0.44699676686E+02  0.10706782511E+03  0.91883407961E+02 0.  0.
         23    2    1    2    0    0  0.21022724736E+01 -0.31913600093E+02 -0.38730695744E+03  0.39970441272E+03  0.93456090465E+02 0.  0.
          5    1    3    3  502    0  0.26382104870E+02  0.96670430607E+01 -0.60861262763E+02  0.67198589896E+02  0.47000000000E+01 0. -1.
         -5    1    4    4    0  503  0.15171777084E+02  0.19364308588E+02 -0.32952892045E+02  0.41390123956E+02  0.47000000000E+01 0.  1.
          5    1    4    4  503    0 -0.13069504611E+02 -0.51277908681E+02 -0.35435406540E+03  0.35831428877E+03  0.47000000000E+01 0. -1.
         -5    1    3    3    0  502 -0.28484377344E+02  0.22246557032E+02  0.16161586077E+02  0.39869235219E+02  0.47000000000E+01 0.  1.
<mgrwt>
<rscale>  0 0.98403442E+02</rscale>
<asrwt>0</asrwt>
<pdfrwt beam="1">  1        1 0.72213763E-01 0.98777215E+02</pdfrwt>
<pdfrwt beam="2">  1       -1 0.57512000E-02 0.98777215E+02</pdfrwt>
<totfact> 0.65709284E+03</totfact>
</mgrwt>
</event>
<event>
 8    1  0.3177960E-004  0.9654623E+02  0.7546771E-02  0.1290484E+00
          1   -1    0    0  501    0  0.00000000000E+00  0.00000000000E+00  0.35626649796E+03  0.35626649796E+03  0.00000000000E+00 0. -1.
         -1   -1    0    0    0  501 -0.00000000000E+00 -0.00000000000E+00 -0.33097726054E+02  0.33097726054E+02  0.00000000000E+00 0.  1.
         23    2    1    2    0    0  0.17258818965E+01  0.23612380643E+02  0.61369182178E+02  0.11032981973E+03  0.88577476891E+02 0.  0.
         23    2    1    2    0    0 -0.17258818965E+01 -0.23612380643E+02  0.26179958973E+03  0.27903440428E+03  0.93598346162E+02 0.  0.
          5    1    3    3  502    0  0.12421774631E+02 -0.17640677111E+02  0.63672349892E+02  0.67392522691E+02  0.47000000000E+01 0. -1.
         -5    1    3    3    0  502 -0.10695892735E+02  0.41253057754E+02 -0.23031677136E+01  0.42937297039E+02  0.47000000000E+01 0.  1.
          5    1    4    4  503    0 -0.23594893195E+02 -0.36780494909E+02  0.24310643414E+03  0.24704726696E+03  0.47000000000E+01 0. -1.
         -5    1    4    4    0  503  0.21869011299E+02  0.13168114266E+02  0.18693155588E+02  0.31987137327E+02  0.47000000000E+01 0.  1.
<mgrwt>
<rscale>  0 0.95307774E+02</rscale>
<asrwt>0</asrwt>
<pdfrwt beam="1">  1        1 0.54810228E-01 0.96546225E+02</pdfrwt>
<pdfrwt beam="2">  1       -1 0.50919581E-02 0.96546225E+02</pdfrwt>
<totfact> 0.11076545E+04</totfact>
</mgrwt>
</event>
<event>
 8    1  0.3177960E-004  0.1162169E+03  0.7546771E-02  0.1249928E+00
          1   -1    0    0  501    0  0.00000000000E+00  0.00000000000E+00  0.25497908381E+03  0.25497908381E+03  0.00000000000E+00 0. -1.
         -1   -1    0    0    0  501 -0.00000000000E+00 -0.00000000000E+00 -0.67754928629E+02  0.67754928629E+02  0.00000000000E+00 0.  1.
         23    2    1    2    0    0 -0.68369184416E+02 -0.20653607533E+02  0.16691480697E+02  0.11636596340E+03  0.90341103761E+02 0.  0.
         23    2    1    2    0    0  0.68369184416E+02  0.20653607533E+02  0.17053267448E+03  0.20636804904E+03  0.91681305156E+02 0.  0.
          5    1    3    3  502    0 -0.39601256795E+02  0.74412555464E+01  0.49682708254E+02  0.64141198330E+02  0.47000000000E+01 0. -1.
         -5    1    3    3    0  502 -0.28767927621E+02 -0.28094863079E+02 -0.32991227557E+02  0.52224765071E+02  0.47000000000E+01 0.  1.
          5    1    4    4  503    0  0.85883629605E+02  0.27569491855E+01  0.10317694817E+03  0.13435464725E+03  0.47000000000E+01 0. -1.
         -5    1    4    4    0  503 -0.17514445189E+02  0.17896658347E+02  0.67355726313E+02  0.72013401790E+02  0.47000000000E+01 0.  1.
<mgrwt>
<rscale>  0 0.11595247E+03</rscale>
<asrwt>0</asrwt>
<pdfrwt beam="1">  1        1 0.39227551E-01 0.11621695E+03</pdfrwt>
<pdfrwt beam="2">  1       -1 0.10423835E-01 0.11621695E+03</pdfrwt>
<totfact> 0.58149602E+03</totfact>
</mgrwt>
</event>
<event>
 8    1  0.3177960E-004  0.9605771E+02  0.7546771E-02  0.1291190E+00
          2   -1    0    0  501    0  0.00000000000E+00  0.00000000000E+00  0.26192590760E+03  0.26192590760E+03  0.00000000000E+00 0. -1.
         -2   -1    0    0    0  501 -0.00000000000E+00 -0.00000000000E+00 -0.74988665412E+02  0.74988665412E+02  0.00000000000E+00 0.  1.
         23    2    1    2    0    0 -0.12332714402E+02  0.89342727167E+01 -0.30566118100E+02  0.10080362293E+03  0.94842847635E+02 0.  0.
         23    2    1    2    0    0  0.12332714402E+02 -0.89342727167E+01  0.21750336029E+03  0.23611095008E+03  0.90602162980E+02 0.  0.
          5    1    4    4  502    0 -0.18493976073E+02 -0.21530685777E+02  0.19136855255E+03  0.19351901841E+03  0.47000000000E+01 0. -1.
         -5    1    4    4    0  502  0.30826690475E+02  0.12596413061E+02  0.26134807733E+02  0.42591931664E+02  0.47000000000E+01 0.  1.
          5    1    3    3  503    0  0.40022059824E+02  0.60409287252E+01 -0.17425542588E+01  0.40784612145E+02  0.47000000000E+01 0. -1.
         -5    1    3    3    0  503 -0.52354774226E+02  0.28933439915E+01 -0.28823563841E+02  0.60019010790E+02  0.47000000000E+01 0.  1.
<mgrwt>
<rscale>  0 0.94994020E+02</rscale>
<asrwt>0</asrwt>
<pdfrwt beam="1">  1        2 0.40296293E-01 0.96057706E+02</pdfrwt>
<pdfrwt beam="2">  1       -2 0.11536718E-01 0.96057706E+02</pdfrwt>
<totfact> 0.62185771E+03</totfact>
</mgrwt>
</event>
<event>
 8    1  0.3177960E-004  0.9997929E+02  0.7546771E-02  0.1280647E+00
          1   -1    0    0  501    0  0.00000000000E+00  0.00000000000E+00  0.69165160239E+03  0.69165160239E+03  0.00000000000E+00 0. -1.
         -1   -1    0    0    0  501 -0.00000000000E+00 -0.00000000000E+00 -0.20525083083E+02  0.20525083083E+02  0.00000000000E+00 0.  1.
         23    2    1    2    0    0  0.30256416670E+02 -0.25790815825E+02  0.52990572187E+03  0.53914728969E+03  0.91099445581E+02 0.  0.
         23    2    1    2    0    0 -0.30256416670E+02  0.25790815825E+02  0.14122079744E+03  0.17302939578E+03  0.91734624019E+02 0.  0.
          5    1    4    4  502    0  0.30093698461E+02  0.17239748782E+02  0.75802732764E+02  0.83492418337E+02  0.47000000000E+01 0. -1.
         -5    1    3    3    0  503 -0.25488793633E+02  0.92934295591E+01  0.25219730496E+03  0.25369591456E+03  0.47000000000E+01 0.  1.
          5    1    3    3  503    0  0.55745210303E+02 -0.35084245384E+02  0.27770841691E+03  0.28545137514E+03  0.47000000000E+01 0. -1.
         -5    1    4    4    0  502 -0.60350115131E+02  0.85510670428E+01  0.65418064677E+02  0.89536977445E+02  0.47000000000E+01 0.  1.
<mgrwt>
<rscale>  0 0.99833350E+02</rscale>
<asrwt>0</asrwt>
<pdfrwt beam="1">  1        1 0.10640792E+00 0.99979289E+02</pdfrwt>
<pdfrwt beam="2">  1       -1 0.31577056E-02 0.99979289E+02</pdfrwt>
<totfact> 0.94164619E+03</totfact>
</mgrwt>
</event>
<event>
 8    1  0.3177960E-004  0.9453686E+02  0.7546771E-02  0.1296596E+00
         -1   -1    0    0    0  501 -0.00000000000E+00  0.00000000000E+00  0.23997841358E+03  0.23997841358E+03  0.00000000000E+00 0.  1.
          1   -1    0    0  501    0  0.00000000000E+00 -0.00000000000E+00 -0.35343779338E+02  0.35343779338E+02  0.00000000000E+00 0. -1.
         23    2    1    2    0    0  0.25279308793E+02 -0.97208461787E+00  0.12087737152E+03  0.14901899921E+03  0.83398649731E+02 0.  0.
         23    2    1    2    0    0 -0.25279308793E+02  0.97208461787E+00  0.83757262724E+02  0.12630319371E+03  0.91089128231E+02 0.  0.
          5    1    3    3  502    0  0.20998847695E+02 -0.39926224752E+02  0.81471871656E+02  0.93245969878E+02  0.47000000000E+01 0. -1.
         -5    1    3    3    0  502  0.42804610983E+01  0.38954140134E+02  0.39405499865E+02  0.55773029327E+02  0.47000000000E+01 0.  1.
          5    1    4    4  503    0 -0.18341572172E+02 -0.33022321339E+02  0.28817389197E+01  0.38174355208E+02  0.47000000000E+01 0. -1.
         -5    1    4    4    0  503 -0.69377366211E+01  0.33994405957E+02  0.80875523804E+02  0.88128838506E+02  0.47000000000E+01 0.  1.
<mgrwt>
<rscale>  0 0.92633731E+02</rscale>
<asrwt>0</asrwt>
<pdfrwt beam="1">  1        1 0.54375047E-02 0.94536859E+02</pdfrwt>
<pdfrwt beam="2">  1       -1 0.36919755E-01 0.94536859E+02</pdfrwt>
<totfact> 0.95969951E+03</totfact>
</mgrwt>
</event>
<event>
 8    1  0.3177960E-004  0.9615285E+02  0.7546771E-02  0.1289134E+00
          2   -1    0    0  501    0  0.00000000000E+00  0.00000000000E+00  0.19144900998E+03  0.19144900998E+03  0.00000000000E+00 0. -1.
         -2   -1    0    0    0  501 -0.00000000000E+00 -0.00000000000E+00 -0.47854368015E+02  0.47854368015E+02  0.00000000000E+00 0.  1.
         23    2    1    2    0    0  0.24723580885E+02  0.19548293835E+02  0.75013027145E+02  0.12119830533E+03  0.89825852240E+02 0.  0.
         23    2    1    2    0    0 -0.24723580885E+02 -0.19548293835E+02  0.68581614818E+02  0.11810507266E+03  0.90840404298E+02 0.  0.
          5    1    4    4  502    0  0.17927644361E+02  0.27011784023E+02  0.21159588100E+02  0.38998141969E+02  0.47000000000E+01 0. -1.
         -5    1    3    3    0  503  0.44598945453E+02 -0.10582683412E+02  0.70912039151E+02  0.84567525802E+02  0.47000000000E+01 0. -1.
          5    1    3    3  503    0 -0.19875364567E+02  0.30130977248E+02  0.41009879942E+01  0.36630779532E+02  0.47000000000E+01 0.  1.
         -5    1    4    4    0  502 -0.42651225246E+02 -0.46560077858E+02  0.47422026718E+02  0.79106930690E+02  0.47000000000E+01 0.  1.
<mgrwt>
<rscale>  0 0.95912469E+02</rscale>
<asrwt>0</asrwt>
<pdfrwt beam="1">  1        2 0.29453693E-01 0.96152849E+02</pdfrwt>
<pdfrwt beam="2">  1       -2 0.73622106E-02 0.96152849E+02</pdfrwt>
<totfact> 0.17380871E+04</totfact>
</mgrwt>
</event>
<event>
 8    1  0.3177960E-004  0.1181946E+03  0.7546771E-02  0.1247476E+00
          2   -1    0    0  501    0  0.00000000000E+00  0.00000000000E+00  0.85531582119E+02  0.85531582119E+02  0.00000000000E+00 0. -1.
         -2   -1    0    0    0  501 -0.00000000000E+00 -0.00000000000E+00 -0.17494612545E+03  0.17494612545E+03  0.00000000000E+00 0.  1.
         23    2    1    2    0    0  0.62402940558E+02  0.34709540491E+02 -0.83555329074E+02  0.14213794174E+03  0.90126701234E+02 0.  0.
         23    2    1    2    0    0 -0.62402940558E+02 -0.34709540491E+02 -0.58592142613E+01  0.11833976583E+03  0.94186467146E+02 0.  0.
          5    1    3    3  502    0  0.32161005641E+02  0.13148105614E+01  0.13354801422E+02  0.35163898130E+02  0.47000000000E+01 0. -1.
         -5    1    4    4    0  503 -0.76397908750E+00  0.28921244315E+02  0.12763655292E+01  0.29338390305E+02  0.47000000000E+01 0.  1.
          5    1    4    4  503    0 -0.61638961470E+02 -0.63630784806E+02 -0.71355797905E+01  0.89001375524E+02  0.47000000000E+01 0. -1.
         -5    1    3    3    0  502  0.30241934916E+02  0.33394729930E+02 -0.96910130496E+02  0.10697404361E+03  0.47000000000E+01 0.  1.
<mgrwt>
<rscale>  0 0.11738408E+03</rscale>
<asrwt>0</asrwt>
<pdfrwt beam="1">  1        2 0.13158705E-01 0.11819463E+03</pdfrwt>
<pdfrwt beam="2">  1       -2 0.26914788E-01 0.11819463E+03</pdfrwt>
<totfact> 0.53518179E+03</totfact>
</mgrwt>
</event>
<event>
 8    1  0.3177960E-004  0.1025550E+03  0.7546771E-02  0.1275097E+00
          2   -1    0    0  501    0  0.00000000000E+00  0.00000000000E+00  0.13041247937E+03  0.13041247937E+03  0.00000000000E+00 0. -1.
         -2   -1    0    0    0  501 -0.00000000000E+00 -0.00000000000E+00 -0.86482255902E+02  0.86482255902E+02  0.00000000000E+00 0.  1.
         23    2    1    2    0    0 -0.34558574701E+02 -0.32106150501E+02 -0.65296669582E+01  0.10259806168E+03  0.90876981266E+02 0.  0.
         23    2    1    2    0    0  0.34558574701E+02  0.32106150501E+02  0.50459890428E+02  0.11429667360E+03  0.91062775424E+02 0.  0.
          5    1    4    4  502    0  0.88453220522E+01  0.61774833256E+02  0.35982452572E+02  0.72188618487E+02  0.47000000000E+01 0. -1.
         -5    1    3    3    0  503  0.28226009649E+02 -0.69382617722E+01 -0.16986330686E+02  0.33992242163E+02  0.47000000000E+01 0.  1.
          5    1    3    3  503    0 -0.62784584349E+02 -0.25167888728E+02  0.10456663728E+02  0.68605819515E+02  0.47000000000E+01 0. -1.
         -5    1    4    4    0  502  0.25713252648E+02 -0.29668682755E+02  0.14477437857E+02  0.42108055109E+02  0.47000000000E+01 0.  1.
<mgrwt>
<rscale>  0 0.10251375E+03</rscale>
<asrwt>0</asrwt>
<pdfrwt beam="1">  1        2 0.20063458E-01 0.10255501E+03</pdfrwt>
<pdfrwt beam="2">  1       -2 0.13304962E-01 0.10255501E+03</pdfrwt>
<totfact> 0.10589106E+04</totfact>
</mgrwt>
</event>
<event>
 8    1  0.3177960E-004  0.1104371E+03  0.7546771E-02  0.1263096E+00
         -1   -1    0    0    0  501 -0.00000000000E+00  0.00000000000E+00  0.59252964212E+02  0.59252964212E+02  0.00000000000E+00 0.  1.
          1   -1    0    0  501    0  0.00000000000E+00 -0.00000000000E+00 -0.21067429625E+03  0.21067429625E+03  0.00000000000E+00 0. -1.
         23    2    1    2    0    0 -0.53381318153E+02  0.62192995256E+01 -0.34392252496E+02  0.10901682877E+03  0.88394553612E+02 0.  0.
         23    2    1    2    0    0  0.53381318153E+02 -0.62192995256E+01 -0.11702907954E+03  0.16091043169E+03  0.96478581848E+02 0.  0.
          5    1    3    3  502    0  0.24469814011E+02  0.47078065676E+01 -0.65582725163E+01  0.26192292355E+02  0.47000000000E+01 0. -1.
         -5    1    4    4    0  503 -0.19175322120E+02  0.24362671027E+02 -0.29005409375E+02  0.42715763963E+02  0.47000000000E+01 0.  1.
          5    1    4    4  503    0  0.72556640272E+02 -0.30581970552E+02 -0.88023670166E+02  0.11819466773E+03  0.47000000000E+01 0. -1.
         -5    1    3    3    0  502 -0.77851132164E+02  0.15114929580E+01 -0.27833979980E+02  0.82824536411E+02  0.47000000000E+01 0.  1.
<mgrwt>
<rscale>  0 0.10864723E+03</rscale>
<asrwt>0</asrwt>
<pdfrwt beam="1">  1        1 0.32411430E-01 0.11043714E+03</pdfrwt>
<pdfrwt beam="2">  1       -1 0.91158407E-02 0.11043714E+03</pdfrwt>
<totfact> 0.89810808E+03</totfact>
</mgrwt>
</event>
<event>
 8    1  0.3177960E-004  0.1386106E+03  0.7546771E-02  0.1215968E+00
          1   -1    0    0  501    0  0.00000000000E+00  0.00000000000E+00  0.74537866305E+02  0.74537866305E+02  0.00000000000E+00 0. -1.
         -1   -1    0    0    0  501 -0.00000000000E+00 -0.00000000000E+00 -0.25581202361E+03  0.25581202361E+03  0.00000000000E+00 0.  1.
         23    2    1    2    0    0 -0.58680141544E+02  0.81627260261E+02 -0.10642797797E+03  0.17475643567E+03  0.95428133609E+02 0.  0.
         23    2    1    2    0    0  0.58680141544E+02 -0.81627260261E+02 -0.74846179336E+02  0.15559345424E+03  0.92200888354E+02 0.  0.
          5    1    4    4  502    0  0.45725548414E+02  0.30080452937E+00 -0.35292925969E+01  0.46102734923E+02  0.47000000000E+01 0. -1.
         -5    1    4    4    0  502  0.12954593130E+02 -0.81928064790E+02 -0.71316886739E+02  0.10949071932E+03  0.47000000000E+01 0.  1.
          5    1    3    3  503    0 -0.39132145100E+02  0.98572815985E+02 -0.61466385834E+02  0.12267082546E+03  0.47000000000E+01 0. -1.
         -5    1    3    3    0  503 -0.19547996444E+02 -0.16945555724E+02 -0.44961592134E+02  0.52085610210E+02  0.47000000000E+01 0.  1.
<mgrwt>
<rscale>  0 0.13805685E+03</rscale>
<asrwt>0</asrwt>
<pdfrwt beam="1">  1        1 0.11467364E-01 0.13861060E+03</pdfrwt>
<pdfrwt beam="2">  1       -1 0.39355696E-01 0.13861060E+03</pdfrwt>
<totfact> 0.32670701E+03</totfact>
</mgrwt>
</event>
<event>
 8    1  0.3177960E-004  0.9302894E+02  0.7546771E-02  0.1297569E+00
          3   -1    0    0  501    0  0.00000000000E+00  0.00000000000E+00  0.78821172398E+02  0.78821172398E+02  0.00000000000E+00 0. -1.
         -3   -1    0    0    0  501 -0.00000000000E+00 -0.00000000000E+00 -0.13321215360E+03  0.13321215360E+03  0.00000000000E+00 0.  1.
         23    2    1    2    0    0  0.14435302793E+02  0.81166187515E+01 -0.75441683702E+02  0.11977408139E+03  0.91543025216E+02 0.  0.
         23    2    1    2    0    0 -0.14435302793E+02 -0.81166187515E+01  0.21050702498E+02  0.92259244614E+02  0.88285778438E+02 0.  0.
          5    1    4    4  502    0  0.30742278361E+02  0.18706283760E+02  0.26368006274E+01  0.36387572721E+02  0.47000000000E+01 0. -1.
         -5    1    4    4    0  502 -0.45177581154E+02 -0.26822902512E+02  0.18413901871E+02  0.55871671893E+02  0.47000000000E+01 0.  1.
          5    1    3    3  503    0  0.95532181037E+01  0.44689121349E+02 -0.14132860800E+02  0.48064636662E+02  0.47000000000E+01 0. -1.
         -5    1    3    3    0  503  0.48820846888E+01 -0.36572502597E+02 -0.61308822902E+02  0.71709444725E+02  0.47000000000E+01 0.  1.
<mgrwt>
<rscale>  0 0.92217545E+02</rscale>
<asrwt>0</asrwt>
<pdfrwt beam="1">  1        3 0.12126334E-01 0.93028936E+02</pdfrwt>
<pdfrwt beam="2">  1       -3 0.20494177E-01 0.93028936E+02</pdfrwt>
<totfact> 0.24400847E+03</totfact>
</mgrwt>
</event>
<event>
 8    1  0.3177960E-004  0.9714944E+02  0.7546771E-02  0.1286584E+00
         -3   -1    0    0    0  501 -0.00000000000E+00  0.00000000000E+00  0.57777903941E+03  0.57777903941E+03  0.00000000000E+00 0.  1.
          3   -1    0    0  501    0  0.00000000000E+00 -0.00000000000E+00 -0.24042832217E+02  0.24042832217E+02  0.00000000000E+00 0. -1.
         23    2    1    2    0    0 -0.30743169320E+02  0.17800716734E+02  0.44815768971E+03  0.45856660238E+03  0.90421269627E+02 0.  0.
         23    2    1    2    0    0  0.30743169320E+02 -0.17800716734E+02  0.10557851748E+03  0.14325526924E+03  0.90073530159E+02 0.  0.
          5    1    3    3  502    0  0.22395057620E+02  0.26031190222E+02  0.91438207577E+02  0.97786488203E+02  0.47000000000E+01 0. -1.
         -5    1    3    3    0  502 -0.53138226941E+02 -0.82304734876E+01  0.35671948213E+03  0.36078011418E+03  0.47000000000E+01 0.  1.
          5    1    4    4  503    0  0.51686922591E+02  0.15353066324E+02  0.42428506469E+02  0.68771525893E+02  0.47000000000E+01 0. -1.
         -5    1    4    4    0  503 -0.20943753271E+02 -0.33153783058E+02  0.63150011009E+02  0.74483743344E+02  0.47000000000E+01 0.  1.
<mgrwt>
<rscale>  0 0.97068447E+02</rscale>
<asrwt>0</asrwt>
<pdfrwt beam="1">  1        3 0.36988977E-02 0.97149441E+02</pdfrwt>
<pdfrwt beam="2">  1       -3 0.88889072E-01 0.97149441E+02</pdfrwt>
<totfact> 0.94594954E+02</totfact>
</mgrwt>
</event>
<event>
 8    1  0.3177960E-004  0.9515763E+02  0.7546771E-02  0.1291227E+00
         -2   -1    0    0    0  501 -0.00000000000E+00  0.00000000000E+00  0.11977640446E+02  0.11977640446E+02  0.00000000000E+00 0.  1.
          2   -1    0    0  501    0  0.00000000000E+00 -0.00000000000E+00 -0.79938785715E+03  0.79938785715E+03  0.00000000000E+00 0. -1.
         23    2    1    2    0    0  0.25371102206E+02  0.19723853463E+02 -0.49565212305E+03  0.50470387523E+03  0.89567021628E+02 0.  0.
         23    2    1    2    0    0 -0.25371102206E+02 -0.19723853463E+02 -0.29175809365E+03  0.30666162236E+03  0.88802264602E+02 0.  0.
          5    1    4    4  502    0  0.31748112600E+02 -0.32459646426E+01 -0.70884375623E+02  0.77879160547E+02  0.47000000000E+01 0. -1.
         -5    1    3    3    0  503 -0.92898083313E+01 -0.28170240595E+02 -0.93573747214E+02  0.98275119749E+02  0.47000000000E+01 0.  1.
          5    1    3    3  503    0  0.34660910537E+02  0.47894094059E+02 -0.40207837584E+03  0.40642875548E+03  0.47000000000E+01 0. -1.
         -5    1    4    4    0  502 -0.57119214806E+02 -0.16477888820E+02 -0.22087371803E+03  0.22878246182E+03  0.47000000000E+01 0.  1.
<mgrwt>
<rscale>  0 0.94977250E+02</rscale>
<asrwt>0</asrwt>
<pdfrwt beam="1">  1        2 0.12298275E+00 0.95157630E+02</pdfrwt>
<pdfrwt beam="2">  1       -2 0.18427139E-02 0.95157630E+02</pdfrwt>
<totfact> 0.28259914E+04</totfact>
</mgrwt>
</event>
<event>
 8    1  0.3177960E-004  0.1309308E+03  0.7546771E-02  0.1227830E+00
         -1   -1    0    0    0  501 -0.00000000000E+00  0.00000000000E+00  0.59181554076E+02  0.59181554076E+02  0.00000000000E+00 0.  1.
          1   -1    0    0  501    0  0.00000000000E+00 -0.00000000000E+00 -0.67353647701E+03  0.67353647701E+03  0.00000000000E+00 0. -1.
         23    2    1    2    0    0  0.81401478282E+02  0.29496281319E+02 -0.29268462554E+02  0.13416227776E+03  0.98217323291E+02 0.  0.
         23    2    1    2    0    0 -0.81401478282E+02 -0.29496281319E+02 -0.58508646038E+03  0.59855575333E+03  0.91905345030E+02 0.  0.
          5    1    3    3  502    0  0.14728203027E+02 -0.13830210308E+02 -0.48040126744E+02  0.52327224837E+02  0.47000000000E+01 0. -1.
         -5    1    3    3    0  502  0.66673275255E+02  0.43326491627E+02  0.18771664190E+02  0.81835052920E+02  0.47000000000E+01 0. -1.
          5    1    4    4  503    0 -0.19226191161E+02 -0.54546879544E+02 -0.30973238723E+03  0.31512100881E+03  0.47000000000E+01 0. -1.
         -5    1    4    4    0  503 -0.62175287121E+02  0.25050598225E+02 -0.27535407315E+03  0.28343474452E+03  0.47000000000E+01 0.  1.
<mgrwt>
<rscale>  0 0.12974840E+03</rscale>
<asrwt>0</asrwt>
<pdfrwt beam="1">  1        1 0.10362100E+00 0.13093080E+03</pdfrwt>
<pdfrwt beam="2">  1       -1 0.91048543E-02 0.13093080E+03</pdfrwt>
<totfact> 0.20700564E+03</totfact>
</mgrwt>
</event>
<event>
 8    1  0.3177960E-004  0.1194210E+03  0.7546771E-02  0.1244859E+00
          1   -1    0    0  501    0  0.00000000000E+00  0.00000000000E+00  0.16141044989E+04  0.16141044989E+04  0.00000000000E+00 0. -1.
         -1   -1    0    0    0  501 -0.00000000000E+00 -0.00000000000E+00 -0.87708873519E+01  0.87708873519E+01  0.00000000000E+00 0.  1.
         23    2    1    2    0    0 -0.63742100232E+02  0.39459837470E+02  0.72029995157E+03  0.72982109893E+03  0.90480285710E+02 0.  0.
         23    2    1    2    0    0  0.63742100232E+02 -0.39459837470E+02  0.88503365998E+03  0.89305428732E+03  0.92958306179E+02 0.  0.
          5    1    3    3  502    0 -0.41474642702E+01 -0.26819670335E+02  0.13818256888E+03  0.14090070446E+03  0.47000000000E+01 0. -1.
         -5    1    3    3    0  502 -0.59594635961E+02  0.66279507805E+02  0.58211738269E+03  0.58892039447E+03  0.47000000000E+01 0.  1.
          5    1    4    4  503    0  0.73705569692E+02  0.25604092790E+01  0.47316524507E+03  0.47890135294E+03  0.47000000000E+01 0. -1.
         -5    1    4    4    0  503 -0.99634694600E+01 -0.42020246749E+02  0.41186841491E+03  0.41415293438E+03  0.47000000000E+01 0.  1.
<mgrwt>
<rscale>  0 0.11893845E+03</rscale>
<asrwt>0</asrwt>
<pdfrwt beam="1">  1        1 0.24832353E+00 0.11942102E+03</pdfrwt>
<pdfrwt beam="2">  1       -1 0.13493686E-02 0.11942102E+03</pdfrwt>
<totfact> 0.71392040E+03</totfact>
</mgrwt>
</event>
<event>
 8    1  0.3177960E-004  0.9899732E+02  0.7546771E-02  0.1282758E+00
          1   -1    0    0  501    0  0.00000000000E+00  0.00000000000E+00  0.74071703048E+03  0.74071703048E+03  0.00000000000E+00 0. -1.
         -1   -1    0    0    0  501 -0.00000000000E+00 -0.00000000000E+00 -0.24953915523E+02  0.24953915523E+02  0.00000000000E+00 0.  1.
         23    2    1    2    0    0 -0.36940713795E+02 -0.14945111760E+02  0.93931698915E+02  0.13600851353E+03  0.89928743960E+02 0.  0.
         23    2    1    2    0    0  0.36940713795E+02  0.14945111760E+02  0.62183141604E+03  0.62966243247E+03  0.90622823786E+02 0.  0.
          5    1    3    3  502    0 -0.26441016862E+02  0.36648761992E+02  0.40930233556E+02  0.61152539990E+02  0.47000000000E+01 0. -1.
         -5    1    4    4    0  503 -0.49061313824E+01 -0.33849083767E+02  0.22306831158E+03  0.22572415074E+03  0.47000000000E+01 0.  1.
          5    1    4    4  503    0  0.41846845177E+02  0.48794195527E+02  0.39876310446E+03  0.40393828173E+03  0.47000000000E+01 0. -1.
         -5    1    3    3    0  502 -0.10499696932E+02 -0.51593873751E+02  0.53001465359E+02  0.74855973540E+02  0.47000000000E+01 0.  1.
<mgrwt>
<rscale>  0 0.98838192E+02</rscale>
<asrwt>0</asrwt>
<pdfrwt beam="1">  1        1 0.11395645E+00 0.98997318E+02</pdfrwt>
<pdfrwt beam="2">  1       -1 0.38390645E-02 0.98997318E+02</pdfrwt>
<totfact> 0.64299668E+03</totfact>
</mgrwt>
</event>
<event>
 8    1  0.3177960E-004  0.1226275E+03  0.7546771E-02  0.1239025E+00
          1   -1    0    0  501    0  0.00000000000E+00  0.00000000000E+00  0.31917839186E+03  0.31917839186E+03  0.00000000000E+00 0. -1.
         -1   -1    0    0    0  501 -0.00000000000E+00 -0.00000000000E+00 -0.81299104161E+02  0.81299104161E+02  0.00000000000E+00 0.  1.
         23    2    1    2    0    0 -0.61683509113E+02 -0.54549843681E+02 -0.11411330298E+02  0.12265862167E+03  0.90190788158E+02 0.  0.
         23    2    1    2    0    0  0.61683509113E+02  0.54549843681E+02  0.24929061800E+03  0.27781887435E+03  0.90867893020E+02 0.  0.
          5    1    4    4  502    0  0.79948738629E+02  0.22396613459E+02  0.14620441403E+03  0.16819996963E+03  0.47000000000E+01 0. -1.
         -5    1    4    4    0  502 -0.18265229516E+02  0.32153230222E+02  0.10308620397E+03  0.10961890472E+03  0.47000000000E+01 0.  1.
          5    1    3    3  503    0 -0.42719074666E+02 -0.63177349836E+02  0.25042745238E+02  0.80408494338E+02  0.47000000000E+01 0. -1.
         -5    1    3    3    0  503 -0.18964434447E+02  0.86275061546E+01 -0.36454075536E+02  0.42250127332E+02  0.47000000000E+01 0.  1.
<mgrwt>
<rscale>  0 0.12250213E+03</rscale>
<asrwt>0</asrwt>
<pdfrwt beam="1">  1        1 0.49104367E-01 0.12262754E+03</pdfrwt>
<pdfrwt beam="2">  1       -1 0.12507555E-01 0.12262754E+03</pdfrwt>
<totfact> 0.33452546E+03</totfact>
</mgrwt>
</event>
<event>
 8    1  0.3177960E-004  0.9326984E+02  0.7546771E-02  0.1297423E+00
         -1   -1    0    0    0  501 -0.00000000000E+00  0.00000000000E+00  0.42757905575E+02  0.42757905575E+02  0.00000000000E+00 0.  1.
          1   -1    0    0  501    0  0.00000000000E+00 -0.00000000000E+00 -0.23643349096E+03  0.23643349096E+03  0.00000000000E+00 0. -1.
         23    2    1    2    0    0  0.16002436847E+01 -0.47354739871E+01 -0.36733669045E+02  0.96626263176E+02  0.89231646853E+02 0.  0.
         23    2    1    2    0    0 -0.16002436847E+01  0.47354739871E+01 -0.15694191634E+03  0.18256513336E+03  0.93135800425E+02 0.  0.
          5    1    3    3  502    0  0.29594173751E+02 -0.28681815329E+02 -0.42102324874E+02  0.59102939101E+02  0.47000000000E+01 0. -1.
         -5    1    3    3    0  502 -0.27993930066E+02  0.23946341342E+02  0.53686558287E+01  0.37523324075E+02  0.47000000000E+01 0.  1.
          5    1    4    4  503    0  0.13389773902E+02 -0.33070430763E+02 -0.23489582162E+02  0.42974293550E+02  0.47000000000E+01 0. -1.
         -5    1    4    4    0  503 -0.14990017587E+02  0.37805904750E+02 -0.13345233418E+03  0.13959083981E+03  0.47000000000E+01 0.  1.
<mgrwt>
<rscale>  0 0.92279606E+02</rscale>
<asrwt>0</asrwt>
<pdfrwt beam="1">  1        1 0.36374383E-01 0.93269839E+02</pdfrwt>
<pdfrwt beam="2">  1       -1 0.65781394E-02 0.93269839E+02</pdfrwt>
<totfact> 0.12508365E+04</totfact>
</mgrwt>
</event>
<event>
 8    1  0.3177960E-004  0.9385871E+02  0.7546771E-02  0.1297017E+00
          2   -1    0    0  501    0  0.00000000000E+00  0.00000000000E+00  0.17645935334E+03  0.17645935334E+03  0.00000000000E+00 0. -1.
         -2   -1    0    0    0  501 -0.00000000000E+00 -0.00000000000E+00 -0.48792027038E+02  0.48792027038E+02  0.00000000000E+00 0.  1.
         23    2    1    2    0    0 -0.19962342878E+01  0.23250615254E+02  0.83294328514E+02  0.12143221082E+03  0.85224765185E+02 0.  0.
         23    2    1    2    0    0  0.19962342878E+01 -0.23250615254E+02  0.44372997792E+02  0.10381916956E+03  0.90911390787E+02 0.  0.
          5    1    3    3  502    0 -0.33032785863E+02  0.35425420288E+02  0.69955877917E+02  0.85217604986E+02  0.47000000000E+01 0. -1.
         -5    1    3    3    0  502  0.31036551576E+02 -0.12174805034E+02  0.13338450597E+02  0.36214605833E+02  0.47000000000E+01 0.  1.
          5    1    4    4  503    0  0.23243511358E+02 -0.19949298252E+02 -0.19260399804E+02  0.36486823945E+02  0.47000000000E+01 0.  1.
         -5    1    4    4    0  503 -0.21247277070E+02 -0.33013170021E+01  0.63633397597E+02  0.67332345619E+02  0.47000000000E+01 0. -1.
<mgrwt>
<rscale>  0 0.92453268E+02</rscale>
<asrwt>0</asrwt>
<pdfrwt beam="1">  1        2 0.27147593E-01 0.93858708E+02</pdfrwt>
<pdfrwt beam="2">  1       -2 0.75064658E-02 0.93858708E+02</pdfrwt>
<totfact> 0.18377171E+04</totfact>
</mgrwt>
</event>
<event>
 8    1  0.3177960E-004  0.1743803E+03  0.7546771E-02  0.1173497E+00
         -2   -1    0    0    0  501 -0.00000000000E+00  0.00000000000E+00  0.88786824891E+02  0.88786824891E+02  0.00000000000E+00 0.  1.
          2   -1    0    0  501    0  0.00000000000E+00 -0.00000000000E+00 -0.37010000357E+03  0.37010000357E+03  0.00000000000E+00 0. -1.
         23    2    1    2    0    0 -0.11796752619E+03 -0.92805323093E+02 -0.76537051012E+02  0.18992262394E+03  0.87655676796E+02 0.  0.
         23    2    1    2    0    0  0.11796752619E+03  0.92805323093E+02 -0.20477612767E+03  0.26896420453E+03  0.88765509203E+02 0.  0.
          5    1    4    4  502    0  0.77042368366E+02  0.79331748964E+02 -0.19547374541E+03  0.22463554497E+03  0.47000000000E+01 0. -1.
         -5    1    4    4    0  502  0.40925157826E+02  0.13473574129E+02 -0.93023822575E+01  0.44328659562E+02  0.47000000000E+01 0.  1.
          5    1    3    3  503    0 -0.42853516520E+02 -0.78396395569E+02 -0.13056035645E+02  0.90415533970E+02  0.47000000000E+01 0. -1.
         -5    1    3    3    0  503 -0.75114009672E+02 -0.14408927524E+02 -0.63481015366E+02  0.99507089965E+02  0.47000000000E+01 0.  1.
<mgrwt>
<rscale>  0 0.17423953E+03</rscale>
<asrwt>0</asrwt>
<pdfrwt beam="1">  1        2 0.56938462E-01 0.17438028E+03</pdfrwt>
<pdfrwt beam="2">  1       -2 0.13659512E-01 0.17438028E+03</pdfrwt>
<totfact> 0.34025969E+03</totfact>
</mgrwt>
</event>
<event>
 8    1  0.3177960E-004  0.1444299E+03  0.7546771E-02  0.1207612E+00
         -1   -1    0    0    0  501 -0.00000000000E+00  0.00000000000E+00  0.80694095085E+02  0.80694095085E+02  0.00000000000E+00 0.  1.
          1   -1    0    0  501    0  0.00000000000E+00 -0.00000000000E+00 -0.66278073241E+03  0.66278073241E+03  0.00000000000E+00 0. -1.
         23    2    1    2    0    0  0.48576987377E+02  0.10116668299E+03 -0.32348905536E+00  0.14405147880E+03  0.90312249724E+02 0.  0.
         23    2    1    2    0    0 -0.48576987377E+02 -0.10116668299E+03 -0.58176314827E+03  0.59942334869E+03  0.90915173761E+02 0.  0.
          5    1    3    3  502    0  0.54424862559E+02  0.34087771381E+02  0.28801903383E+02  0.70538510480E+02  0.47000000000E+01 0. -1.
         -5    1    3    3    0  502 -0.58478751817E+01  0.67078911612E+02 -0.29125392439E+02  0.73512968324E+02  0.47000000000E+01 0.  1.
          5    1    4    4  503    0  0.10500172039E+02 -0.79080438648E+02 -0.36357016179E+03  0.37224900528E+03  0.47000000000E+01 0. -1.
         -5    1    4    4    0  503 -0.59077159416E+02 -0.22086244344E+02 -0.21819298648E+03  0.22717434341E+03  0.47000000000E+01 0.  1.
<mgrwt>
<rscale>  0 0.14433510E+03</rscale>
<asrwt>0</asrwt>
<pdfrwt beam="1">  1        1 0.10196626E+00 0.14442988E+03</pdfrwt>
<pdfrwt beam="2">  1       -1 0.12414477E-01 0.14442988E+03</pdfrwt>
<totfact> 0.13190940E+03</totfact>
</mgrwt>
</event>
<event>
 8    1  0.3177960E-004  0.1004865E+03  0.7546771E-02  0.1280171E+00
          2   -1    0    0  501    0  0.00000000000E+00  0.00000000000E+00  0.87035842660E+03  0.87035842660E+03  0.00000000000E+00 0. -1.
         -2   -1    0    0    0  501 -0.00000000000E+00 -0.00000000000E+00 -0.12496629479E+02  0.12496629479E+02  0.00000000000E+00 0.  1.
         23    2    1    2    0    0  0.29320460252E+02  0.29289222898E+02  0.30188973168E+03  0.31817438557E+03  0.91542239265E+02 0.  0.
         23    2    1    2    0    0 -0.29320460252E+02 -0.29289222898E+02  0.55597206544E+03  0.56468067051E+03  0.89675939534E+02 0.  0.
          5    1    3    3  502    0  0.49209557785E+02 -0.15846413972E+01  0.24740273386E+03  0.25229802692E+03  0.47000000000E+01 0. -1.
         -5    1    3    3    0  502 -0.19889097533E+02  0.30873864295E+02  0.54486997815E+02  0.65876358643E+02  0.47000000000E+01 0.  1.
          5    1    4    4  503    0 -0.58541273711E+02 -0.18015124720E+02  0.26687305978E+03  0.27385205035E+03  0.47000000000E+01 0. -1.
         -5    1    4    4    0  503  0.29220813459E+02 -0.11274098178E+02  0.28909900567E+03  0.29082862016E+03  0.47000000000E+01 0.  1.
<mgrwt>
<rscale>  0 0.10005945E+03</rscale>
<asrwt>0</asrwt>
<pdfrwt beam="1">  1        2 0.13390125E+00 0.10048646E+03</pdfrwt>
<pdfrwt beam="2">  1       -2 0.19225591E-02 0.10048646E+03</pdfrwt>
<totfact> 0.24037521E+04</totfact>
</mgrwt>
</event>
<event>
 8    1  0.3177960E-004  0.1113095E+03  0.7546771E-02  0.1260128E+00
          1   -1    0    0  501    0  0.00000000000E+00  0.00000000000E+00  0.76449332077E+03  0.76449332077E+03  0.00000000000E+00 0. -1.
         -1   -1    0    0    0  501 -0.00000000000E+00 -0.00000000000E+00 -0.17717271166E+02  0.17717271166E+02  0.00000000000E+00 0.  1.
         23    2    1    2    0    0 -0.54426146307E+02  0.16439247793E+02  0.24449001929E+03  0.26863576187E+03  0.95694037190E+02 0.  0.
         23    2    1    2    0    0  0.54426146307E+02 -0.16439247793E+02  0.50228603031E+03  0.51357483006E+03  0.90749080203E+02 0.  0.
          5    1    4    4  502    0 -0.10251733393E+02 -0.31510670150E+02  0.26570491437E+03  0.26780442844E+03  0.47000000000E+01 0. -1.
         -5    1    3    3    0  503 -0.64417307759E+02  0.35736735544E+02  0.11097694922E+03  0.13328419660E+03  0.47000000000E+01 0.  1.
          5    1    3    3  503    0  0.99911614514E+01 -0.19297487751E+02  0.13351307007E+03  0.13535156527E+03  0.47000000000E+01 0. -1.
         -5    1    4    4    0  502  0.64677879700E+02  0.15071422357E+02  0.23658111595E+03  0.24577040163E+03  0.47000000000E+01 0.  1.
<mgrwt>
<rscale>  0 0.11023878E+03</rscale>
<asrwt>0</asrwt>
<pdfrwt beam="1">  1        1 0.11761433E+00 0.11130949E+03</pdfrwt>
<pdfrwt beam="2">  1       -1 0.27257346E-02 0.11130949E+03</pdfrwt>
<totfact> 0.10165433E+04</totfact>
</mgrwt>
</event>
<event>
 7    1  0.3177960E-004  0.2353223E+03  0.7546771E-02  0.1142246E+00
          1   -1    0    0  501    0  0.00000000000E+00  0.00000000000E+00  0.96882176700E+03  0.96882176700E+03  0.00000000000E+00 0. -1.
         -1   -1    0    0    0  501 -0.00000000000E+00 -0.00000000000E+00 -0.38017312833E+02  0.38017312833E+02  0.00000000000E+00 0.  1.
         23    2    1    2    0    0 -0.19706740309E+02 -0.10854962119E+03  0.40447712164E+03  0.43030021738E+03  0.96877031728E+02 0.  0.
          5    1    3    3  502    0 -0.20400400616E+02 -0.93624119687E+01  0.12866410647E+02  0.26295733990E+02  0.47000000000E+01 0. -1.
         -5    1    1    2    0  503  0.87505286820E+02 -0.19549311542E+02  0.18281366096E+03  0.20367198000E+03  0.47000000000E+01 0.  1.
          5    1    1    2  503    0 -0.67798546510E+02  0.12809893273E+03  0.34351367157E+03  0.37286688245E+03  0.47000000000E+01 0. -1.
         -5    1    3    3    0  502  0.69366030637E+00 -0.99187209218E+02  0.39161071099E+03  0.40400448339E+03  0.47000000000E+01 0.  1.
<mgrwt>
<rscale>  0 0.20914367E+03</rscale>
<asrwt>0</asrwt>
<pdfrwt beam="1">  1        1 0.14904948E+00 0.23532233E+03</pdfrwt>
<pdfrwt beam="2">  1       -1 0.58488181E-02 0.23532233E+03</pdfrwt>
<totfact> 0.23394831E+03</totfact>
</mgrwt>
</event>
<event>
 8    1  0.3177960E-004  0.1002904E+03  0.7546771E-02  0.1280189E+00
         -1   -1    0    0    0  501 -0.00000000000E+00  0.00000000000E+00  0.21700795735E+02  0.21700795735E+02  0.00000000000E+00 0.  1.
          1   -1    0    0  501    0  0.00000000000E+00 -0.00000000000E+00 -0.63754835832E+03  0.63754835832E+03  0.00000000000E+00 0. -1.
         23    2    1    2    0    0  0.24269064605E+02 -0.33840708472E+02 -0.48337777172E+03  0.49367219475E+03  0.91235873592E+02 0.  0.
         23    2    1    2    0    0 -0.24269064605E+02  0.33840708472E+02 -0.13246979087E+03  0.16557695931E+03  0.90184826408E+02 0.  0.
          5    1    4    4  502    0 -0.13032813334E+01 -0.27383777065E+02 -0.68708528142E+02  0.74125040493E+02  0.47000000000E+01 0. -1.
         -5    1    3    3    0  503 -0.29304804476E+02  0.91783144012E+01 -0.17015039140E+03  0.17296317156E+03  0.47000000000E+01 0.  1.
          5    1    3    3  503    0  0.53573869081E+02 -0.43019022874E+02 -0.31322738031E+03  0.32070902319E+03  0.47000000000E+01 0. -1.
         -5    1    4    4    0  502 -0.22965783272E+02  0.61224485537E+02 -0.63761262728E+02  0.91451918817E+02  0.47000000000E+01 0.  1.
<mgrwt>
<rscale>  0 0.10005075E+03</rscale>
<asrwt>0</asrwt>
<pdfrwt beam="1">  1        1 0.98084356E-01 0.10029041E+03</pdfrwt>
<pdfrwt beam="2">  1       -1 0.33385842E-02 0.10029041E+03</pdfrwt>
<totfact> 0.97286035E+03</totfact>
</mgrwt>
</event>
<event>
 8    1  0.3177960E-004  0.1037159E+03  0.7546771E-02  0.1273728E+00
          1   -1    0    0  501    0  0.00000000000E+00  0.00000000000E+00  0.37671939852E+03  0.37671939852E+03  0.00000000000E+00 0. -1.
         -1   -1    0    0    0  501 -0.00000000000E+00 -0.00000000000E+00 -0.28544804727E+02  0.28544804727E+02  0.00000000000E+00 0.  1.
         23    2    1    2    0    0  0.46052517549E+02  0.16035229421E+02  0.14737505372E+03  0.18021206931E+03  0.91536989848E+02 0.  0.
         23    2    1    2    0    0 -0.46052517549E+02 -0.16035229421E+02  0.20079954007E+03  0.22505213394E+03  0.89163023395E+02 0.  0.
          5    1    4    4  502    0 -0.62646822183E+02  0.38069328470E+01  0.18242600172E+03  0.19297785668E+03  0.47000000000E+01 0. -1.
         -5    1    4    4    0  502  0.16594304634E+02 -0.19842162268E+02  0.18373538358E+02  0.32074277257E+02  0.47000000000E+01 0.  1.
          5    1    3    3  503    0 -0.17850019337E+02  0.27931872606E+02  0.78758206108E+02  0.85578956099E+02  0.47000000000E+01 0. -1.
         -5    1    3    3    0  503  0.63902536887E+02 -0.11896643185E+02  0.68616847610E+02  0.94633113209E+02  0.47000000000E+01 0.  1.
<mgrwt>
<rscale>  0 0.10318962E+03</rscale>
<asrwt>0</asrwt>
<pdfrwt beam="1">  1        1 0.57956827E-01 0.10371588E+03</pdfrwt>
<pdfrwt beam="2">  1       -1 0.43915087E-02 0.10371588E+03</pdfrwt>
<totfact> 0.12918717E+04</totfact>
</mgrwt>
</event>
<event>
 8    1  0.3177960E-004  0.1238651E+03  0.7546771E-02  0.1240295E+00
          2   -1    0    0  501    0  0.00000000000E+00  0.00000000000E+00  0.56480328892E+03  0.56480328892E+03  0.00000000000E+00 0. -1.
         -2   -1    0    0    0  501 -0.00000000000E+00 -0.00000000000E+00 -0.25375149980E+02  0.25375149980E+02  0.00000000000E+00 0.  1.
         23    2    1    2    0    0 -0.43809088395E+02  0.58212042874E+02  0.25255053557E+03  0.27770230546E+03  0.89604236957E+02 0.  0.
         23    2    1    2    0    0  0.43809088395E+02 -0.58212042874E+02  0.28687760336E+03  0.31247613343E+03  0.10017333224E+03 0.  0.
          5    1    4    4  502    0  0.59670922542E+02 -0.77841358057E+02  0.22703389071E+03  0.24735879517E+03  0.47000000000E+01 0.  1.
         -5    1    4    4    0  502 -0.15861834147E+02  0.19629315183E+02  0.59843712657E+02  0.65117338257E+02  0.47000000000E+01 0. -1.
          5    1    3    3  503    0  0.14095986914E+02  0.55358708095E+02  0.12467922553E+03  0.13722347718E+03  0.47000000000E+01 0. -1.
         -5    1    3    3    0  503 -0.57905075309E+02  0.28533347798E+01  0.12787131004E+03  0.14047882829E+03  0.47000000000E+01 0.  1.
<mgrwt>
<rscale>  0 0.12171477E+03</rscale>
<asrwt>0</asrwt>
<pdfrwt beam="1">  1        2 0.86892804E-01 0.12386515E+03</pdfrwt>
<pdfrwt beam="2">  1       -2 0.39038697E-02 0.12386515E+03</pdfrwt>
<totfact> 0.14527493E+04</totfact>
</mgrwt>
</event>
<event>
 8    1  0.3177960E-004  0.1312931E+03  0.7546771E-02  0.1225624E+00
         -1   -1    0    0    0  501 -0.00000000000E+00  0.00000000000E+00  0.35544157365E+03  0.35544157365E+03  0.00000000000E+00 0.  1.
          1   -1    0    0  501    0  0.00000000000E+00 -0.00000000000E+00 -0.37704103031E+03  0.37704103031E+03  0.00000000000E+00 0. -1.
         23    2    1    2    0    0 -0.86940174519E+02  0.38010349654E+02 -0.35271687051E+03  0.37636029167E+03  0.90744133558E+02 0.  0.
         23    2    1    2    0    0  0.86940174519E+02 -0.38010349654E+02  0.33111741385E+03  0.35612231229E+03  0.90448764092E+02 0.  0.
          5    1    3    3  502    0 -0.35593709171E+02  0.62909919057E+02 -0.22559323728E+03  0.23693663447E+03  0.47000000000E+01 0. -1.
         -5    1    4    4    0  503  0.90549816266E+02 -0.76365003182E+01  0.29419826079E+03  0.30794852170E+03  0.47000000000E+01 0.  1.
          5    1    4    4  503    0 -0.36096417476E+01 -0.30373849336E+02  0.36919153065E+02  0.48173790593E+02  0.47000000000E+01 0. -1.
         -5    1    3    3    0  502 -0.51346465348E+02 -0.24899569403E+02 -0.12712363323E+03  0.13942365720E+03  0.47000000000E+01 0.  1.
<mgrwt>
<rscale>  0 0.13124208E+03</rscale>
<asrwt>0</asrwt>
<pdfrwt beam="1">  1        1 0.58006312E-01 0.13129310E+03</pdfrwt>
<pdfrwt beam="2">  1       -1 0.54683319E-01 0.13129310E+03</pdfrwt>
<totfact> 0.23324259E+02</totfact>
</mgrwt>
</event>
<event>
 8    1  0.3177960E-004  0.9220241E+02  0.7546771E-02  0.1298081E+00
         -2   -1    0    0    0  501 -0.00000000000E+00  0.00000000000E+00  0.66389180874E+02  0.66389180874E+02  0.00000000000E+00 0.  1.
          2   -1    0    0  501    0  0.00000000000E+00 -0.00000000000E+00 -0.18084168720E+03  0.18084168720E+03  0.00000000000E+00 0. -1.
         23    2    1    2    0    0 -0.11796310928E+02  0.92728004665E+01  0.10444977934E+02  0.91986978538E+02  0.90151921092E+02 0.  0.
         23    2    1    2    0    0  0.11796310928E+02 -0.92728004665E+01 -0.12489748426E+03  0.15524388953E+03  0.90973325122E+02 0.  0.
          5    1    3    3  502    0  0.22323237231E+02 -0.66590508631E+01 -0.28837937558E+02  0.37368255531E+02  0.47000000000E+01 0. -1.
         -5    1    3    3    0  502 -0.34119548159E+02  0.15931851330E+02  0.39282915492E+02  0.54618723007E+02  0.47000000000E+01 0.  1.
          5    1    4    4  503    0  0.49733438342E+02  0.73091775143E+01 -0.70880410600E+02  0.87022764677E+02  0.47000000000E+01 0. -1.
         -5    1    4    4    0  503 -0.37937127414E+02 -0.16581977981E+02 -0.54017073657E+02  0.68221124856E+02  0.47000000000E+01 0.  1.
<mgrwt>
<rscale>  0 0.91999146E+02</rscale>
<asrwt>0</asrwt>
<pdfrwt beam="1">  1        2 0.27821797E-01 0.92202406E+02</pdfrwt>
<pdfrwt beam="2">  1       -2 0.10213720E-01 0.92202406E+02</pdfrwt>
<totfact> 0.11119106E+04</totfact>
</mgrwt>
</event>
<event>
 8    1  0.3177960E-004  0.1029170E+03  0.7546771E-02  0.1276805E+00
          1   -1    0    0  501    0  0.00000000000E+00  0.00000000000E+00  0.34250187504E+02  0.34250187504E+02  0.00000000000E+00 0. -1.
         -1   -1    0    0    0  501 -0.00000000000E+00 -0.00000000000E+00 -0.29675695894E+03  0.29675695894E+03  0.00000000000E+00 0.  1.
         23    2    1    2    0    0 -0.15271512285E+02  0.38240421971E+02 -0.14150511355E+03  0.17215718932E+03  0.88987930158E+02 0.  0.
         23    2    1    2    0    0  0.15271512285E+02 -0.38240421971E+02 -0.12100165788E+03  0.15884995712E+03  0.94320510532E+02 0.  0.
          5    1    4    4  502    0 -0.84878608800E+01 -0.34382654735E+02 -0.12836473881E+03  0.13324341221E+03  0.47000000000E+01 0. -1.
         -5    1    3    3    0  503 -0.37301348463E+02 -0.19832511272E+01 -0.11014220301E+03  0.11639896376E+03  0.47000000000E+01 0.  1.
          5    1    3    3  503    0  0.22029836177E+02  0.40223673098E+02 -0.31362910547E+02  0.55758225559E+02  0.47000000000E+01 0. -1.
         -5    1    4    4    0  502  0.23759373165E+02 -0.38577672360E+01  0.73630809287E+01  0.25606544906E+02  0.47000000000E+01 0.  1.
<mgrwt>
<rscale>  0 0.10167884E+03</rscale>
<asrwt>0</asrwt>
<pdfrwt beam="1">  1        1 0.52692595E-02 0.10291699E+03</pdfrwt>
<pdfrwt beam="2">  1       -1 0.45654918E-01 0.10291699E+03</pdfrwt>
<totfact> 0.69639090E+03</totfact>
</mgrwt>
</event>
<event>
 8    1  0.3177960E-004  0.1037723E+03  0.7546771E-02  0.1272728E+00
         -2   -1    0    0    0  501 -0.00000000000E+00  0.00000000000E+00  0.21977351977E+03  0.21977351977E+03  0.00000000000E+00 0.  1.
          2   -1    0    0  501    0  0.00000000000E+00 -0.00000000000E+00 -0.71793807812E+02  0.71793807812E+02  0.00000000000E+00 0. -1.
         23    2    1    2    0    0  0.40124597283E+02  0.29655759507E+02 -0.83612273405E+01  0.10410858826E+03  0.90990332716E+02 0.  0.
         23    2    1    2    0    0 -0.40124597283E+02 -0.29655759507E+02  0.15634093930E+03  0.18745873932E+03  0.90602661488E+02 0.  0.
          5    1    4    4  502    0  0.11910348217E+02 -0.24000955171E+02  0.12125925918E+03  0.12427308711E+03  0.47000000000E+01 0. -1.
         -5    1    4    4    0  502 -0.52034945500E+02 -0.56548043358E+01  0.35081680120E+02  0.63185652211E+02  0.47000000000E+01 0.  1.
          5    1    3    3  503    0  0.58405985453E+02  0.15476266901E+01 -0.28008198907E+02  0.64963093300E+02  0.47000000000E+01 0. -1.
         -5    1    3    3    0  503 -0.18281388170E+02  0.28108132817E+02  0.19646971566E+02  0.39145494959E+02  0.47000000000E+01 0.  1.
<mgrwt>
<rscale>  0 0.10368725E+03</rscale>
<asrwt>0</asrwt>
<pdfrwt beam="1">  1        2 0.11045201E-01 0.10377229E+03</pdfrwt>
<pdfrwt beam="2">  1       -2 0.33811310E-01 0.10377229E+03</pdfrwt>
<totfact> 0.43412843E+03</totfact>
</mgrwt>
</event>
<event>
 7    1  0.3177960E-004  0.1495428E+03  0.7546771E-02  0.1213980E+00
          2   -1    0    0  501    0  0.00000000000E+00  0.00000000000E+00  0.12544672769E+03  0.12544672769E+03  0.00000000000E+00 0. -1.
         -2   -1    0    0    0  501 -0.00000000000E+00 -0.00000000000E+00 -0.17437460638E+03  0.17437460638E+03  0.00000000000E+00 0.  1.
         23    2    1    2    0    0 -0.16903000394E+02  0.37185993416E+02 -0.90055042578E+02  0.14472619434E+03  0.10567521520E+03 0.  0.
          5    1    3    3  502    0  0.42532682903E+02  0.22319561720E+02 -0.57892016646E+02  0.75370866664E+02  0.47000000000E+01 0. -1.
         -5    1    1    2    0  503 -0.32658179018E+02  0.41120184240E+02  0.32430261314E+02  0.61896995546E+02  0.47000000000E+01 0.  1.
          5    1    1    2  503    0  0.49561179412E+02 -0.78306177656E+02  0.86969025686E+01  0.93198144177E+02  0.47000000000E+01 0. -1.
         -5    1    3    3    0  502 -0.59435683298E+02  0.14866431696E+02 -0.32163025932E+02  0.69355327679E+02  0.47000000000E+01 0.  1.
<mgrwt>
<rscale>  0 0.13951693E+03</rscale>
<asrwt>0</asrwt>
<pdfrwt beam="1">  1        2 0.19299497E-01 0.14954283E+03</pdfrwt>
<pdfrwt beam="2">  1       -2 0.26826863E-01 0.14954283E+03</pdfrwt>
<totfact> 0.35018921E+03</totfact>
</mgrwt>
</event>
<event>
 8    1  0.3177960E-004  0.1122566E+03  0.7546771E-02  0.1259478E+00
          2   -1    0    0  501    0  0.00000000000E+00  0.00000000000E+00  0.35654336802E+02  0.35654336802E+02  0.00000000000E+00 0. -1.
         -2   -1    0    0    0  501 -0.00000000000E+00 -0.00000000000E+00 -0.33361401988E+03  0.33361401988E+03  0.00000000000E+00 0.  1.
         23    2    1    2    0    0  0.27728364096E+02  0.45300415764E+02 -0.15969650984E+03  0.19520380408E+03  0.98896713927E+02 0.  0.
         23    2    1    2    0    0 -0.27728364096E+02 -0.45300415764E+02 -0.13826317323E+03  0.17406455261E+03  0.91437265694E+02 0.  0.
          5    1    4    4  502    0 -0.13841880397E+02 -0.23665759056E+02  0.51503974981E+01  0.28289262963E+02  0.47000000000E+01 0. -1.
         -5    1    4    4    0  502 -0.13886483699E+02 -0.21634656708E+02 -0.14341357073E+03  0.14577528964E+03  0.47000000000E+01 0.  1.
          5    1    3    3  503    0 -0.28618766070E+02 -0.12326750822E+02 -0.43695104151E+02  0.53873320707E+02  0.47000000000E+01 0. -1.
         -5    1    3    3    0  503  0.56347130166E+02  0.57627166586E+02 -0.11600140569E+03  0.14133048337E+03  0.47000000000E+01 0.  1.
<mgrwt>
<rscale>  0 0.11059176E+03</rscale>
<asrwt>0</asrwt>
<pdfrwt beam="1">  1        2 0.54852827E-02 0.11225663E+03</pdfrwt>
<pdfrwt beam="2">  1       -2 0.51325232E-01 0.11225663E+03</pdfrwt>
<totfact> 0.47372100E+03</totfact>
</mgrwt>
</event>
<event>
 8    1  0.3177960E-004  0.1407556E+03  0.7546771E-02  0.1213052E+00
         -2   -1    0    0    0  501 -0.00000000000E+00  0.00000000000E+00  0.14445719607E+02  0.14445719607E+02  0.00000000000E+00 0.  1.
          2   -1    0    0  501    0  0.00000000000E+00 -0.00000000000E+00 -0.13504799631E+04  0.13504799631E+04  0.00000000000E+00 0. -1.
         23    2    1    2    0    0  0.99125983239E+02  0.27397355744E+02 -0.66495649618E+03  0.67969056811E+03  0.96101773725E+02 0.  0.
         23    2    1    2    0    0 -0.99125983239E+02 -0.27397355744E+02 -0.67107774736E+03  0.68523511465E+03  0.92872190041E+02 0.  0.
          5    1    3    3  502    0  0.92892495607E+02 -0.15374473605E+02 -0.38477330177E+03  0.39615397756E+03  0.47000000000E+01 0. -1.
         -5    1    4    4    0  503 -0.37540241468E+02 -0.36381176166E+02 -0.12459059660E+03  0.13519529012E+03  0.47000000000E+01 0.  1.
          5    1    4    4  503    0 -0.61585741770E+02  0.89838204221E+01 -0.54648715076E+03  0.55003982452E+03  0.47000000000E+01 0. -1.
         -5    1    3    3    0  502  0.62334876316E+01  0.42771829350E+02 -0.28018319440E+03  0.28353659055E+03  0.47000000000E+01 0.  1.
<mgrwt>
<rscale>  0 0.14020612E+03</rscale>
<asrwt>0</asrwt>
<pdfrwt beam="1">  1        2 0.20776617E+00 0.14075556E+03</pdfrwt>
<pdfrwt beam="2">  1       -2 0.22224181E-02 0.14075556E+03</pdfrwt>
<totfact> 0.10589757E+04</totfact>
</mgrwt>
</event>
<event>
 8    1  0.3177960E-004  0.9842824E+02  0.7546771E-02  0.1288807E+00
          1   -1    0    0  501    0  0.00000000000E+00  0.00000000000E+00  0.96986030189E+03  0.96986030189E+03  0.00000000000E+00 0. -1.
         -1   -1    0    0    0  501 -0.00000000000E+00 -0.00000000000E+00 -0.92474814676E+01  0.92474814676E+01  0.00000000000E+00 0.  1.
         23    2    1    2    0    0  0.36829828514E+02 -0.35534056105E+01  0.39219808267E+03  0.40223393952E+03  0.81263417910E+02 0.  0.
         23    2    1    2    0    0 -0.36829828514E+02  0.35534056105E+01  0.56841473775E+03  0.57687384384E+03  0.91208851830E+02 0.  0.
          5    1    3    3  502    0  0.25700128379E+02  0.30221553840E+02  0.30981874182E+03  0.31238370908E+03  0.47000000000E+01 0. -1.
         -5    1    3    3    0  502  0.11129700135E+02 -0.33774959450E+02  0.82379340846E+02  0.89850230435E+02  0.47000000000E+01 0.  1.
          5    1    4    4  503    0 -0.93511804304E+01  0.44702862240E+02  0.34198521744E+03  0.34505328489E+03  0.47000000000E+01 0. -1.
         -5    1    4    4    0  503 -0.27478648084E+02 -0.41149456629E+02  0.22642952032E+03  0.23182055895E+03  0.47000000000E+01 0.  1.
<mgrwt>
<rscale>  0 0.96059689E+02</rscale>
<asrwt>0</asrwt>
<pdfrwt beam="1">  1        1 0.14920920E+00 0.98428236E+02</pdfrwt>
<pdfrwt beam="2">  1       -1 0.14226902E-02 0.98428236E+02</pdfrwt>
<totfact> 0.17696090E+04</totfact>
</mgrwt>
</event>
<event>
 8    1  0.3177960E-004  0.1021774E+03  0.7546771E-02  0.1276181E+00
         -1   -1    0    0    0  501 -0.00000000000E+00  0.00000000000E+00  0.19696863823E+03  0.19696863823E+03  0.00000000000E+00 0.  1.
          1   -1    0    0  501    0  0.00000000000E+00 -0.00000000000E+00 -0.54233555333E+02  0.54233555333E+02  0.00000000000E+00 0. -1.
         23    2    1    2    0    0 -0.85051513805E+01 -0.44309379795E+02  0.49851446490E+02  0.11368987174E+03  0.91676395444E+02 0.  0.
         23    2    1    2    0    0  0.85051513805E+01  0.44309379795E+02  0.92883636411E+02  0.13751232183E+03  0.90810847387E+02 0.  0.
          5    1    4    4  502    0 -0.40749181209E+02  0.14649410824E+02  0.36184044707E+02  0.56625754724E+02  0.47000000000E+01 0. -1.
         -5    1    3    3    0  503  0.26526186954E+02  0.16577763395E+02  0.12696561327E+02  0.34084505322E+02  0.47000000000E+01 0.  1.
          5    1    3    3  503    0 -0.35031338334E+02 -0.60887143190E+02  0.37154885163E+02  0.79605366420E+02  0.47000000000E+01 0. -1.
         -5    1    4    4    0  502  0.49254332589E+02  0.29659968971E+02  0.56699591704E+02  0.80886567102E+02  0.47000000000E+01 0.  1.
<mgrwt>
<rscale>  0 0.10198287E+03</rscale>
<asrwt>0</asrwt>
<pdfrwt beam="1">  1        1 0.83436240E-02 0.10217740E+03</pdfrwt>
<pdfrwt beam="2">  1       -1 0.30302867E-01 0.10217740E+03</pdfrwt>
<totfact> 0.76098128E+03</totfact>
</mgrwt>
</event>
<event>
 8    1  0.3177960E-004  0.9524234E+02  0.7546771E-02  0.1302160E+00
         -2   -1    0    0    0  501 -0.00000000000E+00  0.00000000000E+00  0.69746176697E+03  0.69746176697E+03  0.00000000000E+00 0.  1.
          2   -1    0    0  501    0  0.00000000000E+00 -0.00000000000E+00 -0.10623796946E+02  0.10623796946E+02  0.00000000000E+00 0. -1.
         23    2    1    2    0    0  0.23343189727E+02 -0.16141196335E+02  0.30414960300E+03  0.31372343461E+03  0.71484051983E+02 0.  0.
         23    2    1    2    0    0 -0.23343189727E+02  0.16141196335E+02  0.38268836702E+03  0.39436212931E+03  0.90915675519E+02 0.  0.
          5    1    3    3  502    0 -0.17465268563E+02  0.16311321916E+02  0.10754775970E+03  0.11027105443E+03  0.47000000000E+01 0.  1.
         -5    1    4    4    0  503 -0.48693596459E+02 -0.11317438368E+02  0.28996704042E+03  0.29428239036E+03  0.47000000000E+01 0.  1.
          5    1    4    4  503    0  0.25350406732E+02  0.27458634704E+02  0.92721326602E+02  0.10007973895E+03  0.47000000000E+01 0. -1.
         -5    1    3    3    0  502  0.40808458290E+02 -0.32452518252E+02  0.19660184331E+03  0.20345238018E+03  0.47000000000E+01 0. -1.
<mgrwt>
<rscale>  0 0.90286052E+02</rscale>
<asrwt>0</asrwt>
<pdfrwt beam="1">  1        2 0.16344308E-02 0.95242337E+02</pdfrwt>
<pdfrwt beam="2">  1       -2 0.10730177E+00 0.95242337E+02</pdfrwt>
<totfact> 0.48014823E+03</totfact>
</mgrwt>
</event>
<event>
 8    1  0.3177960E-004  0.1021146E+03  0.7546771E-02  0.1276608E+00
          2   -1    0    0  501    0  0.00000000000E+00  0.00000000000E+00  0.22689513363E+03  0.22689513363E+03  0.00000000000E+00 0. -1.
         -2   -1    0    0    0  501 -0.00000000000E+00 -0.00000000000E+00 -0.57742107116E+02  0.57742107116E+02  0.00000000000E+00 0.  1.
         23    2    1    2    0    0  0.33722987765E+02 -0.30828393110E+02  0.15006312993E+03  0.18075355279E+03  0.89806871435E+02 0.  0.
         23    2    1    2    0    0 -0.33722987765E+02  0.30828393110E+02  0.19089896589E+02  0.10388368796E+03  0.91322323375E+02 0.  0.
          5    1    3    3  502    0  0.63605213578E+02 -0.18313228620E+02  0.11509625327E+03  0.13285418719E+03  0.47000000000E+01 0. -1.
         -5    1    4    4    0  503 -0.64583450905E+02  0.25189460931E+02  0.19478496670E+02  0.72159773457E+02  0.47000000000E+01 0.  1.
          5    1    4    4  503    0  0.30860463140E+02  0.56389321785E+01 -0.38860008097E+00  0.31723914502E+02  0.47000000000E+01 0. -1.
         -5    1    3    3    0  502 -0.29882225813E+02 -0.12515164490E+02  0.34966876656E+02  0.47899365599E+02  0.47000000000E+01 0.  1.
<mgrwt>
<rscale>  0 0.10177468E+03</rscale>
<asrwt>0</asrwt>
<pdfrwt beam="1">  1        2 0.34906943E-01 0.10211462E+03</pdfrwt>
<pdfrwt beam="2">  1       -2 0.88834012E-02 0.10211462E+03</pdfrwt>
<totfact> 0.10934282E+04</totfact>
</mgrwt>
</event>
<event>
 8    1  0.3177960E-004  0.1636189E+03  0.7546771E-02  0.1185496E+00
          1   -1    0    0  501    0  0.00000000000E+00  0.00000000000E+00  0.10895976957E+04  0.10895976957E+04  0.00000000000E+00 0. -1.
         -1   -1    0    0    0  501 -0.00000000000E+00 -0.00000000000E+00 -0.24252156299E+02  0.24252156299E+02  0.00000000000E+00 0.  1.
         23    2    1    2    0    0  0.13466671668E+03  0.35964865782E+01  0.56829635435E+03  0.59056307693E+03  0.87498240969E+02 0.  0.
         23    2    1    2    0    0 -0.13466671668E+03 -0.35964865782E+01  0.49704918505E+03  0.52328677506E+03  0.92860633765E+02 0.  0.
          5    1    4    4  502    0 -0.77088725450E+02 -0.42689915240E+02  0.20809714632E+03  0.22603453887E+03  0.47000000000E+01 0. -1.
         -5    1    3    3    0  503  0.10111385129E+03  0.62254268662E+01  0.24047120773E+03  0.26098133766E+03  0.47000000000E+01 0.  1.
          5    1    3    3  503    0  0.33552865390E+02 -0.26289402880E+01  0.32782514662E+03  0.32958173927E+03  0.47000000000E+01 0. -1.
         -5    1    4    4    0  502 -0.57577991227E+02  0.39093428662E+02  0.28895203873E+03  0.29725223619E+03  0.47000000000E+01 0.  1.
<mgrwt>
<rscale>  0 0.16286811E+03</rscale>
<asrwt>0</asrwt>
<pdfrwt beam="1">  1        1 0.16763038E+00 0.16361894E+03</pdfrwt>
<pdfrwt beam="2">  1       -1 0.37311018E-02 0.16361894E+03</pdfrwt>
<totfact> 0.37006911E+03</totfact>
</mgrwt>
</event>
<event>
 8    1  0.3177960E-004  0.1144530E+03  0.7546771E-02  0.1256920E+00
         -2   -1    0    0    0  501 -0.00000000000E+00  0.00000000000E+00  0.29731478963E+02  0.29731478963E+02  0.00000000000E+00 0.  1.
          2   -1    0    0  501    0  0.00000000000E+00 -0.00000000000E+00 -0.47639155207E+03  0.47639155207E+03  0.00000000000E+00 0. -1.
         23    2    1    2    0    0  0.83606731628E+01 -0.53213066812E+02 -0.11700453160E+03  0.15716418884E+03  0.90049933394E+02 0.  0.
         23    2    1    2    0    0 -0.83606731628E+01  0.53213066812E+02 -0.32965554150E+03  0.34895884219E+03  0.10098497988E+03 0.  0.
          5    1    3    3  502    0  0.49095662641E+02 -0.31642690579E+02 -0.65543668607E+02  0.87918749148E+02  0.47000000000E+01 0. -1.
         -5    1    4    4    0  503 -0.44152239720E+02  0.45754308318E+02 -0.11805234373E+03  0.13416900858E+03  0.47000000000E+01 0.  1.
          5    1    4    4  503    0  0.35791566557E+02  0.74587584944E+01 -0.21160319777E+03  0.21478983361E+03  0.47000000000E+01 0. -1.
         -5    1    3    3    0  502 -0.40734989478E+02 -0.21570376233E+02 -0.51460862991E+02  0.69245439693E+02  0.47000000000E+01 0.  1.
<mgrwt>
<rscale>  0 0.11199444E+03</rscale>
<asrwt>0</asrwt>
<pdfrwt beam="1">  1        2 0.73290999E-01 0.11445304E+03</pdfrwt>
<pdfrwt beam="2">  1       -2 0.45740742E-02 0.11445304E+03</pdfrwt>
<totfact> 0.13758489E+04</totfact>
</mgrwt>
</event>
<event>
 8    1  0.3177960E-004  0.1263146E+03  0.7546771E-02  0.1244267E+00
          1   -1    0    0  501    0  0.00000000000E+00  0.00000000000E+00  0.23071539365E+03  0.23071539365E+03  0.00000000000E+00 0. -1.
         -1   -1    0    0    0  501 -0.00000000000E+00 -0.00000000000E+00 -0.60131337546E+02  0.60131337546E+02  0.00000000000E+00 0.  1.
         23    2    1    2    0    0 -0.24909451476E+01  0.19436802214E+02  0.11535727345E+03  0.15298670949E+03  0.98557793471E+02 0.  0.
         23    2    1    2    0    0  0.24909451476E+01 -0.19436802214E+02  0.55226782658E+02  0.13786002171E+03  0.12478539168E+03 0.  0.
          5    1    3    3  502    0  0.40185525249E+01 -0.37929898946E+02  0.25655203120E+02  0.46207201231E+02  0.47000000000E+01 0. -1.
         -5    1    4    4    0  503  0.62954547916E+01  0.28361883312E+02 -0.28687151846E+02  0.41098319395E+02  0.47000000000E+01 0.  1.
          5    1    4    4  503    0 -0.38045096440E+01 -0.47798685526E+02  0.83913934504E+02  0.96761702319E+02  0.47000000000E+01 0.  1.
         -5    1    3    3    0  502 -0.65094976726E+01  0.57366701161E+02  0.89702070331E+02  0.10677950826E+03  0.47000000000E+01 0.  1.
<mgrwt>
<rscale>  0 0.11929376E+03</rscale>
<asrwt>0</asrwt>
<pdfrwt beam="1">  1        1 0.35494676E-01 0.12631464E+03</pdfrwt>
<pdfrwt beam="2">  1       -1 0.92509751E-02 0.12631464E+03</pdfrwt>
<totfact> 0.79327006E+03</totfact>
</mgrwt>
</event>
<event>
 8    1  0.3177960E-004  0.2566752E+03  0.7546771E-02  0.1111389E+00
          1   -1    0    0  501    0  0.00000000000E+00  0.00000000000E+00  0.15771521348E+04  0.15771521348E+04  0.00000000000E+00 0. -1.
         -1   -1    0    0    0  501 -0.00000000000E+00 -0.00000000000E+00 -0.61857649693E+02  0.61857649693E+02  0.00000000000E+00 0.  1.
         23    2    1    2    0    0  0.21842278536E+03 -0.51910925881E+02  0.27880430143E+03  0.37896436236E+03  0.12441419554E+03 0.  0.
         23    2    1    2    0    0 -0.21842278536E+03  0.51910925881E+02  0.12364901837E+04  0.12600454221E+04  0.91669155789E+02 0.  0.
          5    1    3    3  502    0  0.11247528558E+03  0.51175774912E+00  0.53830848718E+02  0.12478301982E+03  0.47000000000E+01 0. -1.
         -5    1    4    4    0  503 -0.10135303405E+03  0.88266449978E+01  0.34063186962E+03  0.35553130351E+03  0.47000000000E+01 0.  1.
          5    1    4    4  503    0 -0.11706975131E+03  0.43084280883E+02  0.89585831405E+03  0.90451411862E+03  0.47000000000E+01 0. -1.
         -5    1    3    3    0  502  0.10594749978E+03 -0.52422683630E+02  0.22497345271E+03  0.25418134253E+03  0.47000000000E+01 0. -1.
<mgrwt>
<rscale>  0 0.25305567E+03</rscale>
<asrwt>0</asrwt>
<pdfrwt beam="1">  1        1 0.24263876E+00 0.25667518E+03</pdfrwt>
<pdfrwt beam="2">  1       -1 0.95165627E-02 0.25667518E+03</pdfrwt>
<totfact> 0.42081942E+02</totfact>
</mgrwt>
</event>
<event>
 8    1  0.3177960E-004  0.1358198E+03  0.7546771E-02  0.1220647E+00
          2   -1    0    0  501    0  0.00000000000E+00  0.00000000000E+00  0.80110024987E+02  0.80110024987E+02  0.00000000000E+00 0. -1.
         -2   -1    0    0    0  501 -0.00000000000E+00 -0.00000000000E+00 -0.34680379069E+03  0.34680379069E+03  0.00000000000E+00 0.  1.
         23    2    1    2    0    0 -0.92899643714E+02 -0.18093577325E+02 -0.71487499669E+01  0.13600780376E+03  0.97413021275E+02 0.  0.
         23    2    1    2    0    0  0.92899643714E+02  0.18093577325E+02 -0.25954501573E+03  0.29090601192E+03  0.91131614907E+02 0.  0.
          5    1    3    3  502    0 -0.88102699144E+02  0.20377911751E+02  0.13950975116E+02  0.91619127864E+02  0.47000000000E+01 0. -1.
         -5    1    3    3    0  502 -0.47969445697E+01 -0.38471489076E+02 -0.21099725082E+02  0.44388675892E+02  0.47000000000E+01 0.  1.
          5    1    4    4  503    0  0.78941211010E+02 -0.27299477596E+02 -0.16641633544E+03  0.18626181298E+03  0.47000000000E+01 0. -1.
         -5    1    4    4    0  503  0.13958432704E+02  0.45393054921E+02 -0.93128680292E+02  0.10464419894E+03  0.47000000000E+01 0.  1.
<mgrwt>
<rscale>  0 0.13469792E+03</rscale>
<asrwt>0</asrwt>
<pdfrwt beam="1">  1        2 0.12324619E-01 0.13581980E+03</pdfrwt>
<pdfrwt beam="2">  1       -2 0.53354429E-01 0.13581980E+03</pdfrwt>
<totfact> 0.16174296E+03</totfact>
</mgrwt>
</event>
<event>
 8    1  0.3177960E-004  0.9238595E+02  0.7546771E-02  0.1297370E+00
          1   -1    0    0  501    0  0.00000000000E+00  0.00000000000E+00  0.85585037976E+02  0.85585037976E+02  0.00000000000E+00 0. -1.
         -1   -1    0    0    0  501 -0.00000000000E+00 -0.00000000000E+00 -0.99642364548E+02  0.99642364548E+02  0.00000000000E+00 0.  1.
         23    2    1    2    0    0 -0.14877990865E+01  0.64286207119E+01 -0.21494927530E+01  0.92077199851E+02  0.91815302118E+02 0.  0.
         23    2    1    2    0    0  0.14877990865E+01 -0.64286207119E+01 -0.11907833819E+02  0.93150202672E+02  0.92150002936E+02 0.  0.
          5    1    4    4  502    0 -0.35697715055E+02 -0.24276151984E+02  0.12248875024E+02  0.45119655968E+02  0.47000000000E+01 0. -1.
         -5    1    3    3    0  503 -0.19871234981E+02  0.15399143505E+02 -0.40766688050E+02  0.48124967064E+02  0.47000000000E+01 0.  1.
          5    1    3    3  503    0  0.18383435894E+02 -0.89705227930E+01  0.38617195297E+02  0.43952232788E+02  0.47000000000E+01 0. -1.
         -5    1    4    4    0  502  0.37185514142E+02  0.17847531272E+02 -0.24156708843E+02  0.48030546704E+02  0.47000000000E+01 0.  1.
<mgrwt>
<rscale>  0 0.92302376E+02</rscale>
<asrwt>0</asrwt>
<pdfrwt beam="1">  1        1 0.13166929E-01 0.92385950E+02</pdfrwt>
<pdfrwt beam="2">  1       -1 0.15329595E-01 0.92385950E+02</pdfrwt>
<totfact> 0.12394811E+04</totfact>
</mgrwt>
</event>
<event>
 8    1  0.3177960E-004  0.1017948E+03  0.7546771E-02  0.1278080E+00
         -4   -1    0    0    0  501 -0.00000000000E+00  0.00000000000E+00  0.74130601727E+02  0.74130601727E+02  0.00000000000E+00 0.  1.
          4   -1    0    0  501    0  0.00000000000E+00 -0.00000000000E+00 -0.14732067330E+03  0.14732067330E+03  0.00000000000E+00 0. -1.
         23    2    1    2    0    0 -0.30917251651E+02 -0.32570266377E+02 -0.68011452863E+02  0.12242443145E+03  0.91353626059E+02 0.  0.
         23    2    1    2    0    0  0.30917251651E+02  0.32570266377E+02 -0.51786187076E+01  0.99026843573E+02  0.88106747499E+02 0.  0.
          5    1    3    3  502    0 -0.53091459297E+01 -0.37851651647E+02 -0.83301573835E+02  0.91772418331E+02  0.47000000000E+01 0. -1.
         -5    1    4    4    0  503 -0.30443108168E+02  0.43971879448E+01 -0.36264791534E+01  0.31326657143E+02  0.47000000000E+01 0.  1.
          5    1    4    4  503    0  0.61360359819E+02  0.28173078432E+02 -0.15521395542E+01  0.67700186430E+02  0.47000000000E+01 0. -1.
         -5    1    3    3    0  502 -0.25608105721E+02  0.52813852699E+01  0.15290120972E+02  0.30652013120E+02  0.47000000000E+01 0.  1.
<mgrwt>
<rscale>  0 0.10106105E+03</rscale>
<asrwt>0</asrwt>
<pdfrwt beam="1">  1        4 0.22664719E-01 0.10179481E+03</pdfrwt>
<pdfrwt beam="2">  1       -4 0.11404708E-01 0.10179481E+03</pdfrwt>
<totfact> 0.16740491E+03</totfact>
</mgrwt>
</event>
<event>
 8    1  0.3177960E-004  0.9507100E+02  0.7546771E-02  0.1291838E+00
         -3   -1    0    0    0  501 -0.00000000000E+00  0.00000000000E+00  0.12976196341E+03  0.12976196341E+03  0.00000000000E+00 0.  1.
          3   -1    0    0  501    0  0.00000000000E+00 -0.00000000000E+00 -0.88258298254E+02  0.88258298254E+02  0.00000000000E+00 0. -1.
         23    2    1    2    0    0  0.29196106358E+01 -0.24960300113E+02  0.72326306100E+02  0.11945539034E+03  0.91689448784E+02 0.  0.
         23    2    1    2    0    0 -0.29196106358E+01  0.24960300113E+02 -0.30822640948E+02  0.98564871324E+02  0.90185685982E+02 0.  0.
          5    1    4    4  502    0 -0.10012624862E+02  0.56159286922E+02 -0.55196174261E+01  0.57503689801E+02  0.47000000000E+01 0. -1.
         -5    1    3    3    0  503  0.27803318660E+02 -0.50694206077E+02  0.52640969760E+02  0.78333190638E+02  0.47000000000E+01 0.  1.
          5    1    3    3  503    0 -0.24883708024E+02  0.25733905964E+02  0.19685336339E+02  0.41122199698E+02  0.47000000000E+01 0. -1.
         -5    1    4    4    0  502  0.70930142261E+01 -0.31198986809E+02 -0.25303023522E+02  0.41061181523E+02  0.47000000000E+01 0.  1.
<mgrwt>
<rscale>  0 0.94706555E+02</rscale>
<asrwt>0</asrwt>
<pdfrwt beam="1">  1        3 0.13578200E-01 0.95071004E+02</pdfrwt>
<pdfrwt beam="2">  1       -3 0.19963379E-01 0.95071004E+02</pdfrwt>
<totfact> 0.21237275E+03</totfact>
</mgrwt>
</event>
<event>
 8    1  0.3177960E-004  0.9776914E+02  0.7546771E-02  0.1287462E+00
         -1   -1    0    0    0  501 -0.00000000000E+00  0.00000000000E+00  0.13985843300E+02  0.13985843300E+02  0.00000000000E+00 0.  1.
          1   -1    0    0  501    0  0.00000000000E+00 -0.00000000000E+00 -0.72193083055E+03  0.72193083055E+03  0.00000000000E+00 0. -1.
         23    2    1    2    0    0  0.13008651876E+02  0.18197204895E+02 -0.45994813255E+03  0.46934352375E+03  0.90723179875E+02 0.  0.
         23    2    1    2    0    0 -0.13008651876E+02 -0.18197204895E+02 -0.24799685470E+03  0.26657315010E+03  0.95175843153E+02 0.  0.
          5    1    3    3  502    0  0.52040774450E+02  0.11832381199E+02 -0.27047484601E+03  0.27572990366E+03  0.47000000000E+01 0. -1.
         -5    1    4    4    0  503 -0.40144184552E+02 -0.38445066120E+01 -0.42626412650E+02  0.58867961065E+02  0.47000000000E+01 0.  1.
          5    1    4    4  503    0  0.27135532677E+02 -0.14352698283E+02 -0.20537044205E+03  0.20770518903E+03  0.47000000000E+01 0. -1.
         -5    1    3    3    0  502 -0.39032122574E+02  0.63648236960E+01 -0.18947328654E+03  0.19361362009E+03  0.47000000000E+01 0.  1.
<mgrwt>
<rscale>  0 0.96668439E+02</rscale>
<asrwt>0</asrwt>
<pdfrwt beam="1">  1        1 0.11106631E+00 0.97769138E+02</pdfrwt>
<pdfrwt beam="2">  1       -1 0.21516677E-02 0.97769138E+02</pdfrwt>
<totfact> 0.15362885E+04</totfact>
</mgrwt>
</event>
<event>
 8    1  0.3177960E-004  0.1209340E+03  0.7546771E-02  0.1242272E+00
          2   -1    0    0  501    0  0.00000000000E+00  0.00000000000E+00  0.21081250910E+03  0.21081250910E+03  0.00000000000E+00 0. -1.
         -2   -1    0    0    0  501 -0.00000000000E+00 -0.00000000000E+00 -0.11513343092E+03  0.11513343092E+03  0.00000000000E+00 0.  1.
         23    2    1    2    0    0 -0.14294776864E+02  0.76592602082E+02 -0.56204138869E+02  0.13179767818E+03  0.90227243162E+02 0.  0.
         23    2    1    2    0    0  0.14294776864E+02 -0.76592602082E+02  0.15188321705E+03  0.19414826184E+03  0.92489289191E+02 0.  0.
          5    1    3    3  502    0  0.36918850756E+02  0.26187825721E+02 -0.32738986328E+02  0.56060101524E+02  0.47000000000E+01 0. -1.
         -5    1    3    3    0  502 -0.51213627620E+02  0.50404776361E+02 -0.23465152541E+02  0.75737576656E+02  0.47000000000E+01 0.  1.
          5    1    4    4  503    0 -0.25146738954E+02 -0.75239395490E+02  0.11594519452E+03  0.14056565458E+03  0.47000000000E+01 0. -1.
         -5    1    4    4    0  503  0.39441515818E+02 -0.13532065921E+01  0.35938022528E+02  0.53582607265E+02  0.47000000000E+01 0.  1.
<mgrwt>
<rscale>  0 0.12050143E+03</rscale>
<asrwt>0</asrwt>
<pdfrwt beam="1">  1        2 0.32432694E-01 0.12093401E+03</pdfrwt>
<pdfrwt beam="2">  1       -2 0.17712836E-01 0.12093401E+03</pdfrwt>
<totfact> 0.39733888E+03</totfact>
</mgrwt>
</event>
<event>
 8    1  0.3177960E-004  0.1296918E+03  0.7546771E-02  0.1227992E+00
         -4   -1    0    0    0  501 -0.00000000000E+00  0.00000000000E+00  0.88414615168E+02  0.88414615168E+02  0.00000000000E+00 0.  1.
          4   -1    0    0  501    0  0.00000000000E+00 -0.00000000000E+00 -0.19076590325E+03  0.19076590325E+03  0.00000000000E+00 0. -1.
         23    2    1    2    0    0  0.90016553122E+02 -0.20025885408E+02 -0.41892917244E+02  0.13608905360E+03  0.90891133077E+02 0.  0.
         23    2    1    2    0    0 -0.90016553122E+02  0.20025885408E+02 -0.60458370838E+02  0.14309146482E+03  0.91191758276E+02 0.  0.
          5    1    4    4  502    0 -0.10167073924E+03 -0.44995474872E+01 -0.43838253635E+02  0.11091017820E+03  0.47000000000E+01 0. -1.
         -5    1    4    4    0  502  0.11654186122E+02  0.24525432895E+02 -0.16620117203E+02  0.32181286623E+02  0.47000000000E+01 0.  1.
          5    1    3    3  503    0  0.53472917624E+02 -0.56286987014E+02 -0.24538815158E+02  0.81558698345E+02  0.47000000000E+01 0.  1.
         -5    1    3    3    0  503  0.36543635497E+02  0.36261101605E+02 -0.17354102087E+02  0.54530355255E+02  0.47000000000E+01 0. -1.
<mgrwt>
<rscale>  0 0.12963893E+03</rscale>
<asrwt>0</asrwt>
<pdfrwt beam="1">  1        4 0.29348601E-01 0.12969176E+03</pdfrwt>
<pdfrwt beam="2">  1       -4 0.13602248E-01 0.12969176E+03</pdfrwt>
<totfact> 0.81204665E+02</totfact>
</mgrwt>
</event>
<event>
 8    1  0.3177960E-004  0.1016314E+03  0.7546771E-02  0.1277642E+00
          1   -1    0    0  501    0  0.00000000000E+00  0.00000000000E+00  0.18912278820E+03  0.18912278820E+03  0.00000000000E+00 0. -1.
         -1   -1    0    0    0  501 -0.00000000000E+00 -0.00000000000E+00 -0.78707157991E+02  0.78707157991E+02  0.00000000000E+00 0.  1.
         23    2    1    2    0    0 -0.20476908712E+02 -0.39556033580E+02 -0.19779342279E+02  0.10353817708E+03  0.91350687728E+02 0.  0.
         23    2    1    2    0    0  0.20476908712E+02  0.39556033580E+02  0.13019497249E+03  0.16429176911E+03  0.89761188465E+02 0.  0.
          5    1    3    3  502    0  0.31420378729E+02  0.19512214631E+01  0.54644894811E+01  0.32295481262E+02  0.47000000000E+01 0. -1.
         -5    1    4    4    0  503  0.43545763052E+02 -0.66376298601E+01  0.83470497240E+02  0.94497119106E+02  0.47000000000E+01 0.  1.
          5    1    4    4  503    0 -0.23068854339E+02  0.46193663440E+02  0.46724475247E+02  0.69794650008E+02  0.47000000000E+01 0. -1.
         -5    1    3    3    0  502 -0.51897287441E+02 -0.41507255043E+02 -0.25243831760E+02  0.71242695814E+02  0.47000000000E+01 0.  1.
<mgrwt>
<rscale>  0 0.10127289E+03</rscale>
<asrwt>0</asrwt>
<pdfrwt beam="1">  1        1 0.29095813E-01 0.10163135E+03</pdfrwt>
<pdfrwt beam="2">  1       -1 0.12108794E-01 0.10163135E+03</pdfrwt>
<totfact> 0.66184498E+03</totfact>
</mgrwt>
</event>
<event>
 8    1  0.3177960E-004  0.9222496E+02  0.7546771E-02  0.1297842E+00
         -3   -1    0    0    0  501 -0.00000000000E+00  0.00000000000E+00  0.20501837153E+02  0.20501837153E+02  0.00000000000E+00 0.  1.
          3   -1    0    0  501    0  0.00000000000E+00 -0.00000000000E+00 -0.60655868730E+03  0.60655868730E+03  0.00000000000E+00 0. -1.
         23    2    1    2    0    0  0.12367020939E+02  0.73182261024E+00 -0.46976929303E+03  0.47864139259E+03  0.90889577284E+02 0.  0.
         23    2    1    2    0    0 -0.12367020939E+02 -0.73182261024E+00 -0.11628755711E+03  0.14841913186E+03  0.91389080257E+02 0.  0.
          5    1    3    3  502    0  0.78452760539E+01  0.44705145904E+02 -0.19273226457E+03  0.19806038027E+03  0.47000000000E+01 0. -1.
         -5    1    4    4    0  503  0.13588471395E+02 -0.37551651812E+02 -0.27403625907E+02  0.48660269435E+02  0.47000000000E+01 0.  1.
          5    1    4    4  503    0 -0.25955492334E+02  0.36819829202E+02 -0.88883931206E+02  0.99758862420E+02  0.47000000000E+01 0. -1.
         -5    1    3    3    0  502  0.45217448853E+01 -0.43973323294E+02 -0.27703702846E+03  0.28058101232E+03  0.47000000000E+01 0.  1.
<mgrwt>
<rscale>  0 0.92100970E+02</rscale>
<asrwt>0</asrwt>
<pdfrwt beam="1">  1        3 0.93316731E-01 0.92224957E+02</pdfrwt>
<pdfrwt beam="2">  1       -3 0.31541284E-02 0.92224957E+02</pdfrwt>
<totfact> 0.10779872E+03</totfact>
</mgrwt>
</event>
<event>
 8    1  0.3177960E-004  0.9811306E+02  0.7546771E-02  0.1285812E+00
          1   -1    0    0  501    0  0.00000000000E+00  0.00000000000E+00  0.24300941451E+02  0.24300941451E+02  0.00000000000E+00 0. -1.
         -1   -1    0    0    0  501 -0.00000000000E+00 -0.00000000000E+00 -0.63469978987E+03  0.63469978987E+03  0.00000000000E+00 0.  1.
         23    2    1    2    0    0  0.15990117173E+02 -0.27156659067E+02 -0.95991356521E+02  0.13532025544E+03  0.90022569539E+02 0.  0.
         23    2    1    2    0    0 -0.15990117173E+02  0.27156659067E+02 -0.51440749190E+03  0.52368047589E+03  0.92913966226E+02 0.  0.
          5    1    3    3  502    0  0.38019232596E+02 -0.44417989926E+02 -0.35652559178E+02  0.68641203750E+02  0.47000000000E+01 0. -1.
         -5    1    4    4    0  503 -0.44171926048E+02  0.45912076726E+02 -0.32691540378E+03  0.33309885780E+03  0.47000000000E+01 0.  1.
          5    1    4    4  503    0  0.28181808876E+02 -0.18755417659E+02 -0.18749208812E+03  0.19058161808E+03  0.47000000000E+01 0. -1.
         -5    1    3    3    0  502 -0.22029115423E+02  0.17261330859E+02 -0.60338797343E+02  0.66679051689E+02  0.47000000000E+01 0.  1.
<mgrwt>
<rscale>  0 0.97422390E+02</rscale>
<asrwt>0</asrwt>
<pdfrwt beam="1">  1        1 0.37386062E-02 0.98113063E+02</pdfrwt>
<pdfrwt beam="2">  1       -1 0.97646127E-01 0.98113063E+02</pdfrwt>
<totfact> 0.25197095E+03</totfact>
</mgrwt>
</event>
<event>
 8    1  0.3177960E-004  0.1758695E+03  0.7546771E-02  0.1171943E+00
         -2   -1    0    0    0  501 -0.00000000000E+00  0.00000000000E+00  0.10194098733E+03  0.10194098733E+03  0.00000000000E+00 0.  1.
          2   -1    0    0  501    0  0.00000000000E+00 -0.00000000000E+00 -0.67157626708E+03  0.67157626708E+03  0.00000000000E+00 0. -1.
         23    2    1    2    0    0  0.12556579290E+03  0.82686367297E+02 -0.57151622535E+03  0.59796395549E+03  0.91248520775E+02 0.  0.
         23    2    1    2    0    0 -0.12556579290E+03 -0.82686367297E+02  0.18809456054E+01  0.17555329892E+03  0.90617984530E+02 0.  0.
          5    1    3    3  502    0  0.66361670247E+02  0.91311536683E+02 -0.31902740698E+03  0.33844090240E+03  0.47000000000E+01 0. -1.
         -5    1    3    3    0  502  0.59204122656E+02 -0.86251693861E+01 -0.25248881837E+03  0.25952305309E+03  0.47000000000E+01 0.  1.
          5    1    4    4  503    0 -0.36437334261E+02  0.43026663883E+01  0.30190630750E+02  0.47746795193E+02  0.47000000000E+01 0. -1.
         -5    1    4    4    0  503 -0.89128458642E+02 -0.86989033686E+02 -0.28309685144E+02  0.12780650373E+03  0.47000000000E+01 0.  1.
<mgrwt>
<rscale>  0 0.17578791E+03</rscale>
<asrwt>0</asrwt>
<pdfrwt beam="1">  1        2 0.10331942E+00 0.17586954E+03</pdfrwt>
<pdfrwt beam="2">  1       -2 0.15683229E-01 0.17586954E+03</pdfrwt>
<totfact> 0.13967635E+03</totfact>
</mgrwt>
</event>
<event>
 8    1  0.3177960E-004  0.1120268E+03  0.7546771E-02  0.1257827E+00
          2   -1    0    0  501    0  0.00000000000E+00  0.00000000000E+00  0.53921867845E+02  0.53921867845E+02  0.00000000000E+00 0. -1.
         -2   -1    0    0    0  501 -0.00000000000E+00 -0.00000000000E+00 -0.24648357773E+03  0.24648357773E+03  0.00000000000E+00 0.  1.
         23    2    1    2    0    0 -0.46860129140E+02 -0.47169864831E+02 -0.13784102027E+03  0.17762362596E+03  0.90161731226E+02 0.  0.
         23    2    1    2    0    0  0.46860129140E+02  0.47169864831E+02 -0.54720689613E+02  0.12278181962E+03  0.87522302905E+02 0.  0.
          5    1    4    4  502    0  0.43489279964E+02 -0.78543255335E+01  0.73249752245E+00  0.44448109679E+02  0.47000000000E+01 0. -1.
         -5    1    4    4    0  502  0.33708491756E+01  0.55024190364E+02 -0.55453187136E+02  0.78333709940E+02  0.47000000000E+01 0.  1.
          5    1    3    3  503    0  0.23446911628E+02 -0.28087521585E+02 -0.63466343790E+02  0.73407992260E+02  0.47000000000E+01 0. -1.
         -5    1    3    3    0  503 -0.70307040767E+02 -0.19082343246E+02 -0.74374676485E+02  0.10421563370E+03  0.47000000000E+01 0.  1.
<mgrwt>
<rscale>  0 0.11149475E+03</rscale>
<asrwt>0</asrwt>
<pdfrwt beam="1">  1        2 0.82956721E-02 0.11202681E+03</pdfrwt>
<pdfrwt beam="2">  1       -2 0.37920550E-01 0.11202681E+03</pdfrwt>
<totfact> 0.50165954E+03</totfact>
</mgrwt>
</event>
<event>
 8    1  0.3177960E-004  0.9394515E+02  0.7546771E-02  0.1294411E+00
         -2   -1    0    0    0  501 -0.00000000000E+00  0.00000000000E+00  0.27164225075E+03  0.27164225075E+03  0.00000000000E+00 0.  1.
          2   -1    0    0  501    0  0.00000000000E+00 -0.00000000000E+00 -0.55264775528E+02  0.55264775528E+02  0.00000000000E+00 0. -1.
         23    2    1    2    0    0 -0.17352072454E+02 -0.18486372322E+02  0.21377765034E+03  0.23292591040E+03  0.88942428419E+02 0.  0.
         23    2    1    2    0    0  0.17352072454E+02  0.18486372322E+02  0.25998248851E+01  0.93981115876E+02  0.90459110496E+02 0.  0.
          5    1    3    3  502    0  0.87776627781E+01 -0.45788451279E+02  0.70338975846E+02  0.84517993099E+02  0.47000000000E+01 0. -1.
         -5    1    3    3    0  502 -0.26129735232E+02  0.27302078956E+02  0.14343867449E+03  0.14840791731E+03  0.47000000000E+01 0.  1.
          5    1    4    4  503    0  0.27286288783E+02 -0.55785577180E+00 -0.38466748172E+02  0.47398665314E+02  0.47000000000E+01 0. -1.
         -5    1    4    4    0  503 -0.99342163286E+01  0.19044228094E+02  0.41066573057E+02  0.46582450562E+02  0.47000000000E+01 0.  1.
<mgrwt>
<rscale>  0 0.93578130E+02</rscale>
<asrwt>0</asrwt>
<pdfrwt beam="1">  1        2 0.85022733E-02 0.93945149E+02</pdfrwt>
<pdfrwt beam="2">  1       -2 0.41791115E-01 0.93945149E+02</pdfrwt>
<totfact> 0.39984236E+03</totfact>
</mgrwt>
</event>
<event>
 8    1  0.3177960E-004  0.1329163E+03  0.7546771E-02  0.1226085E+00
          2   -1    0    0  501    0  0.00000000000E+00  0.00000000000E+00  0.46130093652E+02  0.46130093652E+02  0.00000000000E+00 0. -1.
         -2   -1    0    0    0  501 -0.00000000000E+00 -0.00000000000E+00 -0.60648208028E+03  0.60648208028E+03  0.00000000000E+00 0.  1.
         23    2    1    2    0    0  0.83386272923E+02 -0.10035070491E+02 -0.67566026233E+02  0.14221550737E+03  0.92769119233E+02 0.  0.
         23    2    1    2    0    0 -0.83386272923E+02  0.10035070491E+02 -0.49278596039E+03  0.51039666656E+03  0.10301835431E+03 0.  0.
          5    1    3    3  502    0  0.78730091126E+02  0.29857090121E+02 -0.40475915975E+02  0.93542839668E+02  0.47000000000E+01 0. -1.
         -5    1    4    4    0  503 -0.32163291950E+02 -0.22579296160E+02 -0.38138510606E+03  0.38343316378E+03  0.47000000000E+01 0.  1.
          5    1    4    4  503    0 -0.51222980972E+02  0.32614366650E+02 -0.11140085433E+03  0.12696350278E+03  0.47000000000E+01 0.  1.
         -5    1    3    3    0  502  0.46561817967E+01 -0.39892160611E+02 -0.27090110258E+02  0.48672667699E+02  0.47000000000E+01 0.  1.
<mgrwt>
<rscale>  0 0.13092815E+03</rscale>
<asrwt>0</asrwt>
<pdfrwt beam="1">  1        2 0.70969380E-02 0.13291634E+03</pdfrwt>
<pdfrwt beam="2">  1       -2 0.93304929E-01 0.13291634E+03</pdfrwt>
<totfact> 0.97178303E+02</totfact>
</mgrwt>
</event>
<event>
 8    1  0.3177960E-004  0.9897195E+02  0.7546771E-02  0.1285235E+00
         -2   -1    0    0    0  501 -0.00000000000E+00  0.00000000000E+00  0.29286897685E+03  0.29286897685E+03  0.00000000000E+00 0.  1.
          2   -1    0    0  501    0  0.00000000000E+00 -0.00000000000E+00 -0.36516902511E+02  0.36516902511E+02  0.00000000000E+00 0. -1.
         23    2    1    2    0    0 -0.28297128398E+02  0.11461021631E+02  0.19047461636E+03  0.21465326804E+03  0.94145438092E+02 0.  0.
         23    2    1    2    0    0  0.28297128398E+02 -0.11461021631E+02  0.65877457984E+02  0.11473261132E+03  0.88834960105E+02 0.  0.
          5    1    3    3  502    0 -0.28971041743E+02  0.48946292754E+02  0.14306580628E+03  0.15402913932E+03  0.47000000000E+01 0. -1.
         -5    1    4    4    0  503  0.19193988216E+02 -0.45455560182E+02  0.13350375530E+02  0.51331663346E+02  0.47000000000E+01 0.  1.
          5    1    4    4  503    0  0.91031401827E+01  0.33994538551E+02  0.52527082454E+02  0.63400947971E+02  0.47000000000E+01 0. -1.
         -5    1    3    3    0  502  0.67391334462E+00 -0.37485271124E+02  0.47408810079E+02  0.60624128723E+02  0.47000000000E+01 0.  1.
<mgrwt>
<rscale>  0 0.97687866E+02</rscale>
<asrwt>0</asrwt>
<pdfrwt beam="1">  1        2 0.56179852E-02 0.98971946E+02</pdfrwt>
<pdfrwt beam="2">  1       -2 0.45056764E-01 0.98971946E+02</pdfrwt>
<totfact> 0.58601754E+03</totfact>
</mgrwt>
</event>
<event>
 8    1  0.3177960E-004  0.1111674E+03  0.7546771E-02  0.1258578E+00
          2   -1    0    0  501    0  0.00000000000E+00  0.00000000000E+00  0.22178798006E+03  0.22178798006E+03  0.00000000000E+00 0. -1.
         -2   -1    0    0    0  501 -0.00000000000E+00 -0.00000000000E+00 -0.56409294132E+02  0.56409294132E+02  0.00000000000E+00 0.  1.
         23    2    1    2    0    0 -0.52659099336E+02  0.34789929950E+02  0.65405600802E+02  0.12868870500E+03  0.91101976975E+02 0.  0.
         23    2    1    2    0    0  0.52659099336E+02 -0.34789929950E+02  0.99973085127E+02  0.14950856920E+03  0.91514340650E+02 0.  0.
          5    1    3    3  502    0 -0.75443274682E+02  0.22364628072E+02  0.65224092608E+02  0.10231391176E+03  0.47000000000E+01 0. -1.
         -5    1    3    3    0  502  0.22784175346E+02  0.12425301878E+02  0.18150819393E+00  0.26374793235E+02  0.47000000000E+01 0.  1.
          5    1    4    4  503    0 -0.24202475511E+02 -0.20341511946E+02  0.37702149013E+02  0.49427512271E+02  0.47000000000E+01 0. -1.
         -5    1    4    4    0  503  0.76861574847E+02 -0.14448418003E+02  0.62270936114E+02  0.10008105693E+03  0.47000000000E+01 0.  1.
<mgrwt>
<rscale>  0 0.11108252E+03</rscale>
<asrwt>0</asrwt>
<pdfrwt beam="1">  1        2 0.34121227E-01 0.11116742E+03</pdfrwt>
<pdfrwt beam="2">  1       -2 0.86783531E-02 0.11116742E+03</pdfrwt>
<totfact> 0.11700821E+04</totfact>
</mgrwt>
</event>
<event>
 8    1  0.3177960E-004  0.1163692E+03  0.7546771E-02  0.1249669E+00
          1   -1    0    0  501    0  0.00000000000E+00  0.00000000000E+00  0.58798595640E+02  0.58798595640E+02  0.00000000000E+00 0. -1.
         -1   -1    0    0    0  501 -0.00000000000E+00 -0.00000000000E+00 -0.24911211975E+03  0.24911211975E+03  0.00000000000E+00 0.  1.
         23    2    1    2    0    0 -0.69298404562E+02 -0.40677065434E+01 -0.13935542488E+03  0.18087324825E+03  0.92067270939E+02 0.  0.
         23    2    1    2    0    0  0.69298404562E+02  0.40677065434E+01 -0.50958099236E+02  0.12703746714E+03  0.93396868626E+02 0.  0.
          5    1    3    3  502    0 -0.73267153177E+02  0.17120106980E+02 -0.54051054646E+02  0.92761955057E+02  0.47000000000E+01 0. -1.
         -5    1    4    4    0  503 -0.43027437359E+01 -0.29126416248E+02 -0.32454445560E+02  0.44070883401E+02  0.47000000000E+01 0.  1.
          5    1    4    4  503    0  0.73601148298E+02  0.33194122792E+02 -0.18503653677E+02  0.82966583743E+02  0.47000000000E+01 0. -1.
         -5    1    3    3    0  502  0.39687486155E+01 -0.21187813523E+02 -0.85304370230E+02  0.88111293191E+02  0.47000000000E+01 0.  1.
<mgrwt>
<rscale>  0 0.11610218E+03</rscale>
<asrwt>0</asrwt>
<pdfrwt beam="1">  1        1 0.90459378E-02 0.11636920E+03</pdfrwt>
<pdfrwt beam="2">  1       -1 0.38324942E-01 0.11636920E+03</pdfrwt>
<totfact> 0.46316951E+03</totfact>
</mgrwt>
</event>
<event>
 8    1  0.3177960E-004  0.1289571E+03  0.7546771E-02  0.1229248E+00
          2   -1    0    0  501    0  0.00000000000E+00  0.00000000000E+00  0.30491867615E+03  0.30491867615E+03  0.00000000000E+00 0. -1.
         -2   -1    0    0    0  501 -0.00000000000E+00 -0.00000000000E+00 -0.21236120365E+03  0.21236120365E+03  0.00000000000E+00 0.  1.
         23    2    1    2    0    0 -0.63689120990E+02 -0.61529959527E+02  0.26940492773E+03  0.29840788025E+03  0.92876304065E+02 0.  0.
         23    2    1    2    0    0  0.63689120990E+02  0.61529959527E+02 -0.17684745523E+03  0.21887199955E+03  0.93742678197E+02 0.  0.
          5    1    4    4  502    0  0.75968635977E+01  0.71125283256E+02 -0.10402715661E+03  0.12633391297E+03  0.47000000000E+01 0. -1.
         -5    1    4    4    0  502  0.56092257392E+02 -0.95953237297E+01 -0.72820298620E+02  0.92538086580E+02  0.47000000000E+01 0.  1.
          5    1    3    3  503    0 -0.87442185371E+02 -0.48395340614E+02  0.22349133424E+03  0.24486467948E+03  0.47000000000E+01 0. -1.
         -5    1    3    3    0  503  0.23753064381E+02 -0.13134618912E+02  0.45913593492E+02  0.53543200771E+02  0.47000000000E+01 0.  1.
<mgrwt>
<rscale>  0 0.12879969E+03</rscale>
<asrwt>0</asrwt>
<pdfrwt beam="1">  1        2 0.46910566E-01 0.12895708E+03</pdfrwt>
<pdfrwt beam="2">  1       -2 0.32670954E-01 0.12895708E+03</pdfrwt>
<totfact> 0.92970956E+02</totfact>
</mgrwt>
</event>
<event>
 8    1  0.3177960E-004  0.1155253E+03  0.7546771E-02  0.1251066E+00
         -2   -1    0    0    0  501 -0.00000000000E+00  0.00000000000E+00  0.93481440679E+02  0.93481440679E+02  0.00000000000E+00 0.  1.
          2   -1    0    0  501    0  0.00000000000E+00 -0.00000000000E+00 -0.18108866522E+03  0.18108866522E+03  0.00000000000E+00 0. -1.
         23    2    1    2    0    0 -0.32305564052E+02  0.62076524605E+02  0.20409901778E+02  0.11641259356E+03  0.90764439473E+02 0.  0.
         23    2    1    2    0    0  0.32305564052E+02 -0.62076524605E+02 -0.10801712632E+03  0.15815751234E+03  0.91918195997E+02 0.  0.
          5    1    4    4  502    0  0.61030573757E+02 -0.52139024044E+02 -0.56909334314E+02  0.98508736127E+02  0.47000000000E+01 0. -1.
         -5    1    3    3    0  503 -0.40816790569E+02  0.82395406709E+02  0.17093445328E+02  0.93644483620E+02  0.47000000000E+01 0.  1.
          5    1    3    3  503    0  0.85112265175E+01 -0.20318882105E+02  0.33164564501E+01  0.22768109939E+02  0.47000000000E+01 0. -1.
         -5    1    4    4    0  502 -0.28725009705E+02 -0.99375005605E+01 -0.51107792004E+02  0.59648776211E+02  0.47000000000E+01 0.  1.
<mgrwt>
<rscale>  0 0.11529567E+03</rscale>
<asrwt>0</asrwt>
<pdfrwt beam="1">  1        2 0.27859795E-01 0.11552532E+03</pdfrwt>
<pdfrwt beam="2">  1       -2 0.14381760E-01 0.11552532E+03</pdfrwt>
<totfact> 0.65680591E+03</totfact>
</mgrwt>
</event>
<event>
 8    1  0.3177960E-004  0.1102184E+03  0.7546771E-02  0.1263974E+00
         -3   -1    0    0    0  501 -0.00000000000E+00  0.00000000000E+00  0.33129205671E+02  0.33129205671E+02  0.00000000000E+00 0.  1.
          3   -1    0    0  501    0  0.00000000000E+00 -0.00000000000E+00 -0.50894342505E+03  0.50894342505E+03  0.00000000000E+00 0. -1.
         23    2    1    2    0    0  0.37493055583E+02 -0.25906892834E+02 -0.88133395331E+02  0.14112262740E+03  0.10035538989E+03 0.  0.
         23    2    1    2    0    0 -0.37493055583E+02  0.25906892834E+02 -0.38768082405E+03  0.40095000332E+03  0.91583773197E+02 0.  0.
          5    1    4    4  502    0  0.10826610370E+02  0.47371614846E+02 -0.20338255513E+03  0.20915984107E+03  0.47000000000E+01 0. -1.
         -5    1    3    3    0  503 -0.23331925156E+00 -0.59375465640E+02 -0.48354364194E+02  0.76718543355E+02  0.47000000000E+01 0.  1.
          5    1    3    3  503    0  0.37726374835E+02  0.33468572807E+02 -0.39779031137E+02  0.64404084048E+02  0.47000000000E+01 0. -1.
         -5    1    4    4    0  502 -0.48319665953E+02 -0.21464722013E+02 -0.18429826892E+03  0.19179016225E+03  0.47000000000E+01 0.  1.
<mgrwt>
<rscale>  0 0.10818209E+03</rscale>
<asrwt>0</asrwt>
<pdfrwt beam="1">  1        3 0.78298990E-01 0.11021842E+03</pdfrwt>
<pdfrwt beam="2">  1       -3 0.50968007E-02 0.11021842E+03</pdfrwt>
<totfact> 0.77343213E+02</totfact>
</mgrwt>
</event>
<event>
 8    1  0.3177960E-004  0.9744404E+02  0.7546771E-02  0.1287066E+00
          2   -1    0    0  501    0  0.00000000000E+00  0.00000000000E+00  0.50521922510E+03  0.50521922510E+03  0.00000000000E+00 0. -1.
         -2   -1    0    0    0  501 -0.00000000000E+00 -0.00000000000E+00 -0.90480010087E+02  0.90480010087E+02  0.00000000000E+00 0.  1.
         23    2    1    2    0    0 -0.25856041613E+02 -0.17271857466E+02 -0.59093448889E+02  0.11195060708E+03  0.89855721992E+02 0.  0.
         23    2    1    2    0    0  0.25856041613E+02  0.17271857466E+02  0.47383266390E+03  0.48374862811E+03  0.92349823341E+02 0.  0.
          5    1    3    3  502    0  0.52149181722E+01  0.22046078960E+02  0.11031344726E+02  0.25632119216E+02  0.47000000000E+01 0. -1.
         -5    1    4    4    0  503  0.42632588446E+02 -0.21566819794E+02  0.33827422807E+03  0.34166388262E+03  0.47000000000E+01 0. -1.
          5    1    4    4  503    0 -0.16776546833E+02  0.38838677260E+02  0.13555843583E+03  0.14208474549E+03  0.47000000000E+01 0.  1.
         -5    1    3    3    0  502 -0.31070959785E+02 -0.39317936425E+02 -0.70124793615E+02  0.86318487859E+02  0.47000000000E+01 0.  1.
<mgrwt>
<rscale>  0 0.96848512E+02</rscale>
<asrwt>0</asrwt>
<pdfrwt beam="1">  1        2 0.77726033E-01 0.97444045E+02</pdfrwt>
<pdfrwt beam="2">  1       -2 0.13920002E-01 0.97444045E+02</pdfrwt>
<totfact> 0.23062175E+03</totfact>
</mgrwt>
</event>
<event>
 8    1  0.3177960E-004  0.9557150E+02  0.7546771E-02  0.1290322E+00
          2   -1    0    0  501    0  0.00000000000E+00  0.00000000000E+00  0.15943270805E+03  0.15943270805E+03  0.00000000000E+00 0. -1.
         -2   -1    0    0    0  501 -0.00000000000E+00 -0.00000000000E+00 -0.13458487272E+03  0.13458487272E+03  0.00000000000E+00 0.  1.
         23    2    1    2    0    0  0.22945074135E+02  0.58101765707E+01 -0.99291914559E+02  0.13781435597E+03  0.92594156597E+02 0.  0.
         23    2    1    2    0    0 -0.22945074135E+02 -0.58101765707E+01  0.12413974989E+03  0.15620322479E+03  0.91807055035E+02 0.  0.
          5    1    3    3  502    0 -0.33863200600E+02 -0.40970866049E+01 -0.20538447567E+02  0.40092646482E+02  0.47000000000E+01 0. -1.
         -5    1    3    3    0  502  0.56808274735E+02  0.99072631756E+01 -0.78753466992E+02  0.97721709488E+02  0.47000000000E+01 0.  1.
          5    1    4    4  503    0  0.75443606275E+01 -0.31795600523E+02  0.10769952135E+03  0.11264614725E+03  0.47000000000E+01 0. -1.
         -5    1    4    4    0  503 -0.30489434762E+02  0.25985423952E+02  0.16440228540E+02  0.43557077548E+02  0.47000000000E+01 0.  1.
<mgrwt>
<rscale>  0 0.95380336E+02</rscale>
<asrwt>0</asrwt>
<pdfrwt beam="1">  1        2 0.24528109E-01 0.95571504E+02</pdfrwt>
<pdfrwt beam="2">  1       -2 0.20705365E-01 0.95571504E+02</pdfrwt>
<totfact> 0.40796040E+03</totfact>
</mgrwt>
</event>
<event>
 8    1  0.3177960E-004  0.9763497E+02  0.7546771E-02  0.1286255E+00
         -1   -1    0    0    0  501 -0.00000000000E+00  0.00000000000E+00  0.15281123024E+02  0.15281123024E+02  0.00000000000E+00 0.  1.
          1   -1    0    0  501    0  0.00000000000E+00 -0.00000000000E+00 -0.62425275290E+03  0.62425275290E+03  0.00000000000E+00 0. -1.
         23    2    1    2    0    0 -0.30905406007E+02  0.22295004332E+02 -0.25957884129E+03  0.27675583480E+03  0.88093166064E+02 0.  0.
         23    2    1    2    0    0  0.30905406007E+02 -0.22295004332E+02 -0.34939278859E+03  0.36277804113E+03  0.89890906511E+02 0.  0.
          5    1    3    3  502    0  0.93621054565E+01  0.18897703760E+02 -0.21622852626E+03  0.21730540213E+03  0.47000000000E+01 0. -1.
         -5    1    3    3    0  502 -0.40267511464E+02  0.33973005719E+01 -0.43350315034E+02  0.59450432667E+02  0.47000000000E+01 0.  1.
          5    1    4    4  503    0  0.51447518382E+02 -0.34102780362E+02 -0.15521668572E+03  0.16710522523E+03  0.47000000000E+01 0. -1.
         -5    1    4    4    0  503 -0.20542112374E+02  0.11807776030E+02 -0.19417610287E+03  0.19567281590E+03  0.47000000000E+01 0.  1.
<mgrwt>
<rscale>  0 0.97219170E+02</rscale>
<asrwt>0</asrwt>
<pdfrwt beam="1">  1        1 0.96038900E-01 0.97634965E+02</pdfrwt>
<pdfrwt beam="2">  1       -1 0.23509416E-02 0.97634965E+02</pdfrwt>
<totfact> 0.16562703E+04</totfact>
</mgrwt>
</event>
<event>
 8    1  0.3177960E-004  0.9977401E+02  0.7546771E-02  0.1280838E+00
          1   -1    0    0  501    0  0.00000000000E+00  0.00000000000E+00  0.23830387873E+03  0.23830387873E+03  0.00000000000E+00 0. -1.
         -1   -1    0    0    0  501 -0.00000000000E+00 -0.00000000000E+00 -0.11505124519E+03  0.11505124519E+03  0.00000000000E+00 0.  1.
         23    2    1    2    0    0  0.40578948660E+02  0.29291325712E+00 -0.79438420373E+02  0.12743806569E+03  0.91012422686E+02 0.  0.
         23    2    1    2    0    0 -0.40578948660E+02 -0.29291325712E+00  0.20269105392E+03  0.22591705823E+03  0.91148872679E+02 0.  0.
          5    1    4    4  502    0 -0.47847758280E+02 -0.19626820961E+02  0.19735413666E+03  0.20407196116E+03  0.47000000000E+01 0. -1.
         -5    1    3    3    0  503 -0.68213555227E+01 -0.25135345209E+02 -0.66987582902E+02  0.72025986512E+02  0.47000000000E+01 0.  1.
          5    1    3    3  503    0  0.47400304183E+02  0.25428258466E+02 -0.12450837471E+02  0.55412079180E+02  0.47000000000E+01 0. -1.
         -5    1    4    4    0  502  0.72688096198E+01  0.19333907704E+02  0.53369172528E+01  0.21845097074E+02  0.47000000000E+01 0.  1.
<mgrwt>
<rscale>  0 0.99742840E+02</rscale>
<asrwt>0</asrwt>
<pdfrwt beam="1">  1        1 0.36662135E-01 0.99774014E+02</pdfrwt>
<pdfrwt beam="2">  1       -1 0.17700192E-01 0.99774014E+02</pdfrwt>
<totfact> 0.27600790E+03</totfact>
</mgrwt>
</event>
<event>
 7    1  0.3177960E-004  0.2670256E+03  0.7546771E-02  0.1119050E+00
         -2   -1    0    0    0  501 -0.00000000000E+00  0.00000000000E+00  0.82893613332E+02  0.82893613332E+02  0.00000000000E+00 0.  1.
          2   -1    0    0  501    0  0.00000000000E+00 -0.00000000000E+00 -0.13553271699E+04  0.13553271699E+04  0.00000000000E+00 0. -1.
         23    2    1    2    0    0  0.96304196181E+02  0.11909276870E+03 -0.11133164471E+04  0.11273817149E+04  0.89768780344E+02 0.  0.
          5    1    1    2  502    0  0.23256068937E+02  0.18809353458E+02 -0.12047220873E+03  0.12421867651E+03  0.47000000000E+01 0. -1.
         -5    1    3    3    0  503 -0.11810798925E+02  0.31095930546E+02 -0.13225264855E+03  0.13645257387E+03  0.47000000000E+01 0.  1.
          5    1    3    3  503    0  0.10811499511E+03  0.87996838149E+02 -0.98106379854E+03  0.99092914101E+03  0.47000000000E+01 0. -1.
         -5    1    1    2    0  502 -0.11956026512E+03 -0.13790212215E+03 -0.38644900732E+02  0.18662039182E+03  0.47000000000E+01 0.  1.
<mgrwt>
<rscale>  0 0.24111881E+03</rscale>
<asrwt>0</asrwt>
<pdfrwt beam="1">  1        2 0.20851186E+00 0.26702560E+03</pdfrwt>
<pdfrwt beam="2">  1       -2 0.12752864E-01 0.26702560E+03</pdfrwt>
<totfact> 0.73439149E+02</totfact>
</mgrwt>
</event>
<event>
 8    1  0.3177960E-004  0.9495043E+02  0.7546771E-02  0.1291524E+00
         -2   -1    0    0    0  501 -0.00000000000E+00  0.00000000000E+00  0.55343866730E+02  0.55343866730E+02  0.00000000000E+00 0.  1.
          2   -1    0    0  501    0  0.00000000000E+00 -0.00000000000E+00 -0.18658384546E+03  0.18658384546E+03  0.00000000000E+00 0. -1.
         23    2    1    2    0    0  0.11572744539E+02 -0.69510850815E+01 -0.10923676003E+03  0.14446117129E+03  0.93563423785E+02 0.  0.
         23    2    1    2    0    0 -0.11572744539E+02  0.69510850815E+01 -0.22003218703E+02  0.97466540897E+02  0.93985844472E+02 0.  0.
          5    1    3    3  502    0  0.49248446488E+02  0.89217321770E+01 -0.78002475754E+02  0.92798076544E+02  0.47000000000E+01 0. -1.
         -5    1    4    4    0  503 -0.25742280021E+02 -0.37537542503E+02 -0.21450807465E+02  0.50536711594E+02  0.47000000000E+01 0.  1.
          5    1    4    4  503    0  0.14169535482E+02  0.44488627585E+02 -0.55241123798E+00  0.46929829302E+02  0.47000000000E+01 0. -1.
         -5    1    3    3    0  502 -0.37675701949E+02 -0.15872817258E+02 -0.31234284273E+02  0.51663094749E+02  0.47000000000E+01 0.  1.
<mgrwt>
<rscale>  0 0.94845734E+02</rscale>
<asrwt>0</asrwt>
<pdfrwt beam="1">  1        2 0.28705207E-01 0.94950434E+02</pdfrwt>
<pdfrwt beam="2">  1       -2 0.85144412E-02 0.94950434E+02</pdfrwt>
<totfact> 0.14287720E+04</totfact>
</mgrwt>
</event>
<event>
 8    1  0.3177960E-004  0.1065720E+03  0.7546771E-02  0.1268293E+00
         -2   -1    0    0    0  501 -0.00000000000E+00  0.00000000000E+00  0.87365322025E+02  0.87365322025E+02  0.00000000000E+00 0.  1.
          2   -1    0    0  501    0  0.00000000000E+00 -0.00000000000E+00 -0.12820753898E+03  0.12820753898E+03  0.00000000000E+00 0. -1.
         23    2    1    2    0    0 -0.50511287173E+02 -0.92096472374E+01 -0.98913122595E+01  0.10703008762E+03  0.93388403259E+02 0.  0.
         23    2    1    2    0    0  0.50511287173E+02  0.92096472374E+01 -0.30950904699E+02  0.10854277339E+03  0.90484072739E+02 0.  0.
          5    1    4    4  502    0  0.57399433410E+02 -0.27453037404E+02 -0.31024933426E+02  0.70943644624E+02  0.47000000000E+01 0. -1.
         -5    1    3    3    0  503 -0.40440697215E+02  0.24207771710E+02  0.28222661497E+02  0.55136873546E+02  0.47000000000E+01 0.  1.
          5    1    3    3  503    0 -0.10070589957E+02 -0.33417418947E+02 -0.38113973757E+02  0.51893214072E+02  0.47000000000E+01 0. -1.
         -5    1    4    4    0  502 -0.68881462373E+01  0.36662684641E+02  0.74028726659E-01  0.37599128766E+02  0.47000000000E+01 0.  1.
<mgrwt>
<rscale>  0 0.10593240E+03</rscale>
<asrwt>0</asrwt>
<pdfrwt beam="1">  1        2 0.19724237E-01 0.10657205E+03</pdfrwt>
<pdfrwt beam="2">  1       -2 0.13440819E-01 0.10657205E+03</pdfrwt>
<totfact> 0.10656336E+04</totfact>
</mgrwt>
</event>
<event>
 8    1  0.3177960E-004  0.1005837E+03  0.7546771E-02  0.1280324E+00
         -3   -1    0    0    0  501 -0.00000000000E+00  0.00000000000E+00  0.69277226185E+02  0.69277226185E+02  0.00000000000E+00 0.  1.
          3   -1    0    0  501    0  0.00000000000E+00 -0.00000000000E+00 -0.14279831719E+03  0.14279831719E+03  0.00000000000E+00 0. -1.
         23    2    1    2    0    0  0.15737665672E+01 -0.36281286689E+02 -0.40933624906E+02  0.10859392067E+03  0.93799090901E+02 0.  0.
         23    2    1    2    0    0 -0.15737665672E+01  0.36281286689E+02 -0.32587466102E+02  0.10348162271E+03  0.91256204095E+02 0.  0.
          5    1    4    4  502    0 -0.75217866319E+01  0.66453380780E+02 -0.23990051445E+02  0.71205629409E+02  0.47000000000E+01 0. -1.
         -5    1    4    4    0  502  0.59480200646E+01 -0.30172094091E+02 -0.85974146570E+01  0.32275993297E+02  0.47000000000E+01 0.  1.
          5    1    3    3  503    0  0.38273650829E+02 -0.13990611325E+02 -0.49778010175E+02  0.64502324376E+02  0.47000000000E+01 0. -1.
         -5    1    3    3    0  503 -0.36699884262E+02 -0.22290675365E+02  0.88443852690E+01  0.44091596295E+02  0.47000000000E+01 0.  1.
<mgrwt>
<rscale>  0 0.99986623E+02</rscale>
<asrwt>0</asrwt>
<pdfrwt beam="1">  1        3 0.21968972E-01 0.10058369E+03</pdfrwt>
<pdfrwt beam="2">  1       -3 0.10658035E-01 0.10058369E+03</pdfrwt>
<totfact> 0.27165168E+03</totfact>
</mgrwt>
</event>
<event>
 8    1  0.3177960E-004  0.9619899E+02  0.7546771E-02  0.1290348E+00
          1   -1    0    0  501    0  0.00000000000E+00  0.00000000000E+00  0.45958388338E+02  0.45958388338E+02  0.00000000000E+00 0. -1.
         -1   -1    0    0    0  501 -0.00000000000E+00 -0.00000000000E+00 -0.29783996931E+03  0.29783996931E+03  0.00000000000E+00 0.  1.
         23    2    1    2    0    0 -0.20880458113E+02 -0.77284002880E+01 -0.22573157695E+03  0.24410849947E+03  0.90213596411E+02 0.  0.
         23    2    1    2    0    0  0.20880458113E+02  0.77284002880E+01 -0.26150004022E+02  0.99689858181E+02  0.93586983132E+02 0.  0.
          5    1    4    4  502    0  0.43709704940E+01  0.25141022009E+02  0.29270293664E+02  0.39115424859E+02  0.47000000000E+01 0. -1.
         -5    1    3    3    0  503 -0.53843357446E+02 -0.19642555179E+02 -0.13585772641E+03  0.14752745148E+03  0.47000000000E+01 0.  1.
          5    1    3    3  503    0  0.32962899333E+02  0.11914154891E+02 -0.89873850546E+02  0.96581047992E+02  0.47000000000E+01 0. -1.
         -5    1    4    4    0  502  0.16509487619E+02 -0.17412621721E+02 -0.55420297686E+02  0.60574433322E+02  0.47000000000E+01 0.  1.
<mgrwt>
<rscale>  0 0.95368671E+02</rscale>
<asrwt>0</asrwt>
<pdfrwt beam="1">  1        1 0.70705212E-02 0.96198987E+02</pdfrwt>
<pdfrwt beam="2">  1       -1 0.45821534E-01 0.96198987E+02</pdfrwt>
<totfact> 0.46346579E+03</totfact>
</mgrwt>
</event>
<event>
 8    1  0.3177960E-004  0.1902059E+03  0.7546771E-02  0.1158521E+00
          1   -1    0    0  501    0  0.00000000000E+00  0.00000000000E+00  0.31790524787E+02  0.31790524787E+02  0.00000000000E+00 0. -1.
         -1   -1    0    0    0  501 -0.00000000000E+00 -0.00000000000E+00 -0.11454762454E+04  0.11454762454E+04  0.00000000000E+00 0.  1.
         23    2    1    2    0    0 -0.11559656240E+03  0.11977691717E+03 -0.62337862002E+03  0.65175086146E+03  0.92028291270E+02 0.  0.
         23    2    1    2    0    0  0.11559656240E+03 -0.11977691717E+03 -0.49030710063E+03  0.52551590876E+03  0.89759914810E+02 0.  0.
          5    1    4    4  502    0  0.45757415539E+02 -0.10197308049E+03 -0.23634121408E+03  0.26147946324E+03  0.47000000000E+01 0. -1.
         -5    1    4    4    0  502  0.69839146862E+02 -0.17803836685E+02 -0.25396588655E+03  0.26403644553E+03  0.47000000000E+01 0.  1.
          5    1    3    3  503    0 -0.10249329223E+03  0.10239989086E+03 -0.60710891015E+03  0.62417460008E+03  0.47000000000E+01 0. -1.
         -5    1    3    3    0  503 -0.13103270168E+02  0.17377026313E+02 -0.16269709866E+02  0.27576261381E+02  0.47000000000E+01 0.  1.
<mgrwt>
<rscale>  0 0.18993353E+03</rscale>
<asrwt>0</asrwt>
<pdfrwt beam="1">  1        1 0.48908498E-02 0.19020589E+03</pdfrwt>
<pdfrwt beam="2">  1       -1 0.17622712E+00 0.19020589E+03</pdfrwt>
<totfact> 0.41707832E+02</totfact>
</mgrwt>
</event>
<event>
 7    1  0.3177960E-004  0.1850990E+03  0.7546771E-02  0.1180104E+00
          2   -1    0    0  501    0  0.00000000000E+00  0.00000000000E+00  0.65707162356E+03  0.65707162356E+03  0.00000000000E+00 0. -1.
         -2   -1    0    0    0  501 -0.00000000000E+00 -0.00000000000E+00 -0.41072899523E+02  0.41072899523E+02  0.00000000000E+00 0.  1.
         23    2    1    2    0    0 -0.48528360524E+02  0.76839976848E+02  0.14205081830E+03  0.18933388973E+03  0.86078470035E+02 0.  0.
          5    1    3    3  502    0  0.16678168434E+01  0.67559788176E+02  0.10901294475E+03  0.12834725830E+03  0.47000000000E+01 0. -1.
         -5    1    1    2    0  503 -0.26307210371E+02 -0.25840188058E+02  0.13548733650E+02  0.39565677296E+02  0.47000000000E+01 0.  1.
          5    1    1    2  503    0  0.74835570895E+02 -0.50999788790E+02  0.46039917209E+03  0.46924495606E+03  0.47000000000E+01 0. -1.
         -5    1    3    3    0  502 -0.50196177367E+02  0.92801886719E+01  0.33037873556E+02  0.60986631430E+02  0.47000000000E+01 0.  1.
<mgrwt>
<rscale>  0 0.16785444E+03</rscale>
<asrwt>0</asrwt>
<pdfrwt beam="1">  1        2 0.10108793E+00 0.18509901E+03</pdfrwt>
<pdfrwt beam="2">  1       -2 0.63189081E-02 0.18509901E+03</pdfrwt>
<totfact> 0.60627307E+03</totfact>
</mgrwt>
</event>
<event>
 8    1  0.3177960E-004  0.9710214E+02  0.7546771E-02  0.1287496E+00
          1   -1    0    0  501    0  0.00000000000E+00  0.00000000000E+00  0.30171456770E+03  0.30171456770E+03  0.00000000000E+00 0. -1.
         -1   -1    0    0    0  501 -0.00000000000E+00 -0.00000000000E+00 -0.47068533231E+02  0.47068533231E+02  0.00000000000E+00 0.  1.
         23    2    1    2    0    0  0.33103340433E+02 -0.17590114605E+02  0.23099480274E+03  0.25057419090E+03  0.89574454924E+02 0.  0.
         23    2    1    2    0    0 -0.33103340433E+02  0.17590114605E+02  0.23651231727E+02  0.98208910026E+02  0.87637697178E+02 0.  0.
          5    1    4    4  502    0 -0.14451043190E+02 -0.35549089055E+02  0.69623478939E+01  0.39282752832E+02  0.47000000000E+01 0. -1.
         -5    1    4    4    0  502 -0.18652297243E+02  0.53139203659E+02  0.16688883834E+02  0.58926157194E+02  0.47000000000E+01 0.  1.
          5    1    3    3  503    0 -0.30026545154E+02 -0.11069054812E+02  0.60761654245E+02  0.68834482746E+02  0.47000000000E+01 0. -1.
         -5    1    3    3    0  503  0.63129885587E+02 -0.65210597926E+01  0.17023314850E+03  0.18173970816E+03  0.47000000000E+01 0.  1.
<mgrwt>
<rscale>  0 0.96653118E+02</rscale>
<asrwt>0</asrwt>
<pdfrwt beam="1">  1        1 0.46417624E-01 0.97102143E+02</pdfrwt>
<pdfrwt beam="2">  1       -1 0.72413130E-02 0.97102143E+02</pdfrwt>
<totfact> 0.80797630E+03</totfact>
</mgrwt>
</event>
<event>
 8    1  0.3177960E-004  0.9340726E+02  0.7546771E-02  0.1295287E+00
         -2   -1    0    0    0  501 -0.00000000000E+00  0.00000000000E+00  0.32116466840E+02  0.32116466840E+02  0.00000000000E+00 0.  1.
          2   -1    0    0  501    0  0.00000000000E+00 -0.00000000000E+00 -0.29433443547E+03  0.29433443547E+03  0.00000000000E+00 0. -1.
         23    2    1    2    0    0 -0.64416376750E+01  0.25662437078E+02 -0.17822705355E+03  0.20083486102E+03  0.88711348837E+02 0.  0.
         23    2    1    2    0    0  0.64416376750E+01 -0.25662437078E+02 -0.83990915078E+02  0.12561604128E+03  0.89581586499E+02 0.  0.
          5    1    4    4  502    0  0.17367753702E+02  0.27285406982E+02 -0.55286544829E+02  0.64224795382E+02  0.47000000000E+01 0. -1.
         -5    1    3    3    0  503  0.26928571423E+02  0.84615012180E+01 -0.15230800785E+03  0.15497278541E+03  0.47000000000E+01 0.  1.
          5    1    3    3  503    0 -0.33370209098E+02  0.17200935860E+02 -0.25919045697E+02  0.45862075613E+02  0.47000000000E+01 0. -1.
         -5    1    4    4    0  502 -0.10926116027E+02 -0.52947844060E+02 -0.28704370249E+02  0.61391245902E+02  0.47000000000E+01 0.  1.
<mgrwt>
<rscale>  0 0.93197990E+02</rscale>
<asrwt>0</asrwt>
<pdfrwt beam="1">  1        2 0.45282219E-01 0.93407259E+02</pdfrwt>
<pdfrwt beam="2">  1       -2 0.49409951E-02 0.93407259E+02</pdfrwt>
<totfact> 0.20030582E+04</totfact>
</mgrwt>
</event>
<event>
 8    1  0.3177960E-004  0.9265830E+02  0.7546771E-02  0.1297624E+00
          1   -1    0    0  501    0  0.00000000000E+00  0.00000000000E+00  0.15469249797E+03  0.15469249797E+03  0.00000000000E+00 0. -1.
         -1   -1    0    0    0  501 -0.00000000000E+00 -0.00000000000E+00 -0.68775287432E+02  0.68775287432E+02  0.00000000000E+00 0.  1.
         23    2    1    2    0    0  0.87626942687E+01 -0.12748245872E+02 -0.77770315919E+01  0.92984098520E+02  0.91357855566E+02 0.  0.
         23    2    1    2    0    0 -0.87626942687E+01  0.12748245872E+02  0.93694242125E+02  0.13048368688E+03  0.89487870407E+02 0.  0.
          5    1    4    4  502    0 -0.26590425687E+02 -0.24480998857E+02  0.77960317023E+02  0.86059694826E+02  0.47000000000E+01 0. -1.
         -5    1    3    3    0  503  0.42935057645E+02 -0.27391809592E+02  0.89920522201E+01  0.51929542756E+02  0.47000000000E+01 0.  1.
          5    1    3    3  503    0 -0.34172363376E+02  0.14643563719E+02 -0.16769083812E+02  0.41054555765E+02  0.47000000000E+01 0. -1.
         -5    1    4    4    0  502  0.17827731418E+02  0.37229244729E+02  0.15733925102E+02  0.44423992051E+02  0.47000000000E+01 0.  1.
<mgrwt>
<rscale>  0 0.92194020E+02</rscale>
<asrwt>0</asrwt>
<pdfrwt beam="1">  1        1 0.23798846E-01 0.92658299E+02</pdfrwt>
<pdfrwt beam="2">  1       -1 0.10580813E-01 0.92658299E+02</pdfrwt>
<totfact> 0.10346438E+04</totfact>
</mgrwt>
</event>
<event>
 8    1  0.3177960E-004  0.9632549E+02  0.7546771E-02  0.1289202E+00
         -2   -1    0    0    0  501 -0.00000000000E+00  0.00000000000E+00  0.15712527535E+02  0.15712527535E+02  0.00000000000E+00 0.  1.
          2   -1    0    0  501    0  0.00000000000E+00 -0.00000000000E+00 -0.59756236319E+03  0.59756236319E+03  0.00000000000E+00 0. -1.
         23    2    1    2    0    0  0.17481277793E+02  0.21502715913E+02 -0.23540908529E+03  0.25369208674E+03  0.90411700417E+02 0.  0.
         23    2    1    2    0    0 -0.17481277793E+02 -0.21502715913E+02 -0.34644075036E+03  0.35958280398E+03  0.92253116717E+02 0.  0.
          5    1    4    4  502    0  0.29741464653E+02  0.67592833989E+01 -0.56032100688E+02  0.63968186931E+02  0.47000000000E+01 0. -1.
         -5    1    4    4    0  502 -0.47222742446E+02 -0.28261999312E+02 -0.29040864967E+03  0.29561461705E+03  0.47000000000E+01 0.  1.
          5    1    3    3  503    0  0.33023278859E+02 -0.38972768372E+01 -0.21423842459E+03  0.21685460171E+03  0.47000000000E+01 0. -1.
         -5    1    3    3    0  503 -0.15542001065E+02  0.25399992750E+02 -0.21170660708E+02  0.36837485034E+02  0.47000000000E+01 0.  1.
<mgrwt>
<rscale>  0 0.95881912E+02</rscale>
<asrwt>0</asrwt>
<pdfrwt beam="1">  1        2 0.91932679E-01 0.96325487E+02</pdfrwt>
<pdfrwt beam="2">  1       -2 0.24173117E-02 0.96325487E+02</pdfrwt>
<totfact> 0.26878998E+04</totfact>
</mgrwt>
</event>
<event>
 8    1  0.3177960E-004  0.1492664E+03  0.7546771E-02  0.1201494E+00
         -1   -1    0    0    0  501 -0.00000000000E+00  0.00000000000E+00  0.18834923158E+02  0.18834923158E+02  0.00000000000E+00 0.  1.
          1   -1    0    0  501    0  0.00000000000E+00 -0.00000000000E+00 -0.12393084376E+04  0.12393084376E+04  0.00000000000E+00 0. -1.
         23    2    1    2    0    0  0.32137707306E+02 -0.11308233639E+03 -0.74862954738E+03  0.76336534851E+03  0.91978307564E+02 0.  0.
         23    2    1    2    0    0 -0.32137707306E+02  0.11308233639E+03 -0.47184396710E+03  0.49477801228E+03  0.91367965485E+02 0.  0.
          5    1    3    3  502    0  0.37687127115E+02 -0.30881771880E+02 -0.47626636164E+03  0.47877525063E+03  0.47000000000E+01 0. -1.
         -5    1    3    3    0  502 -0.55494198090E+01 -0.82200564512E+02 -0.27236318574E+03  0.28459009788E+03  0.47000000000E+01 0.  1.
          5    1    4    4  503    0  0.25539539375E+02  0.72053224502E+02 -0.21141694716E+03  0.22486251529E+03  0.47000000000E+01 0. -1.
         -5    1    4    4    0  503 -0.57677246681E+02  0.41029111889E+02 -0.26042701993E+03  0.26991549699E+03  0.47000000000E+01 0.  1.
<mgrwt>
<rscale>  0 0.14917247E+03</rscale>
<asrwt>0</asrwt>
<pdfrwt beam="1">  1        1 0.19066289E+00 0.14926639E+03</pdfrwt>
<pdfrwt beam="2">  1       -1 0.28976796E-02 0.14926639E+03</pdfrwt>
<totfact> 0.42073698E+03</totfact>
</mgrwt>
</event>
<event>
 8    1  0.3177960E-004  0.1503806E+03  0.7546771E-02  0.1200896E+00
          2   -1    0    0  501    0  0.00000000000E+00  0.00000000000E+00  0.23254731416E+03  0.23254731416E+03  0.00000000000E+00 0. -1.
         -2   -1    0    0    0  501 -0.00000000000E+00 -0.00000000000E+00 -0.10567107953E+03  0.10567107953E+03  0.00000000000E+00 0.  1.
         23    2    1    2    0    0 -0.76140483101E+02  0.86221765673E+02  0.11561650866E+03  0.18741681077E+03  0.92338062792E+02 0.  0.
         23    2    1    2    0    0  0.76140483101E+02 -0.86221765673E+02  0.11259725967E+02  0.15080158292E+03  0.96864699140E+02 0.  0.
          5    1    4    4  502    0 -0.11478032270E+02 -0.40544651307E+02 -0.20244344581E+02  0.46984438508E+02  0.47000000000E+01 0. -1.
         -5    1    4    4    0  502  0.87618515371E+02 -0.45677114366E+02  0.31504070548E+02  0.10381714441E+03  0.47000000000E+01 0.  1.
          5    1    3    3  503    0 -0.68151270329E+02  0.34532146270E+02  0.11081784178E+03  0.13468388482E+03  0.47000000000E+01 0. -1.
         -5    1    3    3    0  503 -0.79892127718E+01  0.51689619403E+02  0.47986668782E+01  0.52732925944E+02  0.47000000000E+01 0.  1.
<mgrwt>
<rscale>  0 0.14965665E+03</rscale>
<asrwt>0</asrwt>
<pdfrwt beam="1">  1        2 0.35776510E-01 0.15038064E+03</pdfrwt>
<pdfrwt beam="2">  1       -2 0.16257089E-01 0.15038064E+03</pdfrwt>
<totfact> 0.41726521E+03</totfact>
</mgrwt>
</event>
<event>
 8    1  0.3177960E-004  0.3205608E+03  0.7546771E-02  0.1075592E+00
         -2   -1    0    0    0  501 -0.00000000000E+00  0.00000000000E+00  0.16432004192E+03  0.16432004192E+03  0.00000000000E+00 0.  1.
          2   -1    0    0  501    0  0.00000000000E+00 -0.00000000000E+00 -0.66689702625E+03  0.66689702625E+03  0.00000000000E+00 0. -1.
         23    2    1    2    0    0 -0.25828289560E+03 -0.16621512692E+03 -0.14276867721E+03  0.34932364914E+03  0.85478617672E+02 0.  0.
         23    2    1    2    0    0  0.25828289560E+03  0.16621512692E+03 -0.35980830713E+03  0.48189341903E+03  0.91769967027E+02 0.  0.
          5    1    4    4  502    0  0.26001624685E+03  0.14456350164E+03 -0.34273776819E+03  0.45387038058E+03  0.47000000000E+01 0. -1.
         -5    1    4    4    0  502 -0.17333512472E+01  0.21651625283E+02 -0.17070538945E+02  0.28023038447E+02  0.47000000000E+01 0.  1.
          5    1    3    3  503    0 -0.96890160083E+02 -0.11064769727E+03 -0.52943670316E+02  0.15638330556E+03  0.47000000000E+01 0. -1.
         -5    1    3    3    0  503 -0.16139273552E+03 -0.55567429646E+02 -0.89825006892E+02  0.19294034357E+03  0.47000000000E+01 0.  1.
<mgrwt>
<rscale>  0 0.32012392E+03</rscale>
<asrwt>0</asrwt>
<pdfrwt beam="1">  1        2 0.10259954E+00 0.32056084E+03</pdfrwt>
<pdfrwt beam="2">  1       -2 0.25280007E-01 0.32056084E+03</pdfrwt>
<totfact> 0.62161456E+02</totfact>
</mgrwt>
</event>
<event>
 8    1  0.3177960E-004  0.1436151E+03  0.7546771E-02  0.1208604E+00
          1   -1    0    0  501    0  0.00000000000E+00  0.00000000000E+00  0.11988258144E+04  0.11988258144E+04  0.00000000000E+00 0. -1.
         -1   -1    0    0    0  501 -0.00000000000E+00 -0.00000000000E+00 -0.90873971089E+02  0.90873971089E+02  0.00000000000E+00 0.  1.
         23    2    1    2    0    0  0.10875388854E+03 -0.14496500346E+02 -0.26650449912E+02  0.14606691438E+03  0.92670060985E+02 0.  0.
         23    2    1    2    0    0 -0.10875388854E+03  0.14496500346E+02  0.11346022932E+04  0.11436328711E+04  0.92391684107E+02 0.  0.
          5    1    3    3  502    0  0.66796840365E+02  0.24346534954E+02  0.17860325766E+02  0.73455107947E+02  0.47000000000E+01 0. -1.
         -5    1    4    4    0  503 -0.75091750215E+02 -0.33483403735E+02  0.55872001470E+03  0.56475663264E+03  0.47000000000E+01 0.  1.
          5    1    4    4  503    0 -0.33662138322E+02  0.47979904081E+02  0.57588227849E+03  0.57887623844E+03  0.47000000000E+01 0. -1.
         -5    1    3    3    0  502  0.41957048171E+02 -0.38843035300E+02 -0.44510775678E+02  0.72611806437E+02  0.47000000000E+01 0.  1.
<mgrwt>
<rscale>  0 0.14357021E+03</rscale>
<asrwt>0</asrwt>
<pdfrwt beam="1">  1        1 0.18443473E+00 0.14361510E+03</pdfrwt>
<pdfrwt beam="2">  1       -1 0.13980612E-01 0.14361510E+03</pdfrwt>
<totfact> 0.42273128E+02</totfact>
</mgrwt>
</event>
<event>
 8    1  0.3177960E-004  0.9333092E+02  0.7546771E-02  0.1297749E+00
          4   -1    0    0  501    0  0.00000000000E+00  0.00000000000E+00  0.72117966397E+02  0.72117966397E+02  0.00000000000E+00 0. -1.
         -4   -1    0    0    0  501 -0.00000000000E+00 -0.00000000000E+00 -0.31483847582E+03  0.31483847582E+03  0.00000000000E+00 0.  1.
         23    2    1    2    0    0  0.96806241159E+01  0.17493410705E+02 -0.27442186038E+03  0.28838851465E+03  0.86376177429E+02 0.  0.
         23    2    1    2    0    0 -0.96806241159E+01 -0.17493410705E+02  0.31701350955E+02  0.98567927568E+02  0.91164284626E+02 0.  0.
          5    1    3    3  502    0  0.11263079567E+02 -0.23024930562E+02 -0.26638975371E+02  0.37265659762E+02  0.47000000000E+01 0. -1.
         -5    1    3    3    0  502 -0.15824554507E+01  0.40518341267E+02 -0.24778288501E+03  0.25112285489E+03  0.47000000000E+01 0.  1.
          5    1    4    4  503    0 -0.47984869105E+02 -0.23799316432E+02  0.13507050455E+02  0.55439025403E+02  0.47000000000E+01 0. -1.
         -5    1    4    4    0  503  0.38304244989E+02  0.63059057275E+01  0.18194300501E+02  0.43128902165E+02  0.47000000000E+01 0.  1.
<mgrwt>
<rscale>  0 0.92140586E+02</rscale>
<asrwt>0</asrwt>
<pdfrwt beam="1">  1        4 0.11095072E-01 0.93330920E+02</pdfrwt>
<pdfrwt beam="2">  1       -4 0.48436688E-01 0.93330920E+02</pdfrwt>
<totfact> 0.40444017E+02</totfact>
</mgrwt>
</event>
<event>
 8    1  0.3177960E-004  0.9593606E+02  0.7546771E-02  0.1289454E+00
          1   -1    0    0  501    0  0.00000000000E+00  0.00000000000E+00  0.42050144464E+03  0.42050144464E+03  0.00000000000E+00 0. -1.
         -1   -1    0    0    0  501 -0.00000000000E+00 -0.00000000000E+00 -0.22965624465E+02  0.22965624465E+02  0.00000000000E+00 0.  1.
         23    2    1    2    0    0  0.24341360548E+02  0.60061707695E+01  0.14679675822E+03  0.17500142028E+03  0.91911005622E+02 0.  0.
         23    2    1    2    0    0 -0.24341360548E+02 -0.60061707695E+01  0.25073906195E+03  0.26846564882E+03  0.92602113851E+02 0.  0.
          5    1    3    3  502    0  0.52244585088E+02 -0.83435973617E+01  0.49286062022E+02  0.72459079470E+02  0.47000000000E+01 0.  1.
         -5    1    4    4    0  503  0.60156885848E+01  0.25954469247E+02  0.20356806853E+02  0.33857238048E+02  0.47000000000E+01 0.  1.
          5    1    4    4  503    0 -0.30357049133E+02 -0.31960640016E+02  0.23038225510E+03  0.23460841078E+03  0.47000000000E+01 0. -1.
         -5    1    3    3    0  502 -0.27903224540E+02  0.14349768131E+02  0.97510696201E+02  0.10254234081E+03  0.47000000000E+01 0. -1.
<mgrwt>
<rscale>  0 0.95768893E+02</rscale>
<asrwt>0</asrwt>
<pdfrwt beam="1">  1        1 0.64692524E-01 0.95936059E+02</pdfrwt>
<pdfrwt beam="2">  1       -1 0.35331733E-02 0.95936059E+02</pdfrwt>
<totfact> 0.15349296E+04</totfact>
</mgrwt>
</event>
<event>
 8    1  0.3177960E-004  0.9422706E+02  0.7546771E-02  0.1293617E+00
          2   -1    0    0  501    0  0.00000000000E+00  0.00000000000E+00  0.65108541159E+03  0.65108541159E+03  0.00000000000E+00 0. -1.
         -2   -1    0    0    0  501 -0.00000000000E+00 -0.00000000000E+00 -0.14798457296E+02  0.14798457296E+02  0.00000000000E+00 0.  1.
         23    2    1    2    0    0 -0.11225110392E+02  0.20498529954E+02  0.21626818193E+03  0.23542538396E+03  0.90038836423E+02 0.  0.
         23    2    1    2    0    0  0.11225110392E+02 -0.20498529954E+02  0.42001877236E+03  0.43045848493E+03  0.91282776425E+02 0.  0.
          5    1    4    4  502    0 -0.29901335843E+02  0.82540555132E+01  0.68475341769E+02  0.75320526738E+02  0.47000000000E+01 0. -1.
         -5    1    3    3    0  503  0.28167137430E+02  0.32381693710E+02  0.15896562680E+03  0.16472438260E+03  0.47000000000E+01 0.  1.
          5    1    3    3  503    0 -0.39392247822E+02 -0.11883163756E+02  0.57302555135E+02  0.70701001367E+02  0.47000000000E+01 0. -1.
         -5    1    4    4    0  502  0.41126446235E+02 -0.28752585467E+02  0.35154343060E+03  0.35513795819E+03  0.47000000000E+01 0.  1.
<mgrwt>
<rscale>  0 0.93924462E+02</rscale>
<asrwt>0</asrwt>
<pdfrwt beam="1">  1        2 0.10016696E+00 0.94227056E+02</pdfrwt>
<pdfrwt beam="2">  1       -2 0.22766862E-02 0.94227056E+02</pdfrwt>
<totfact> 0.26538068E+04</totfact>
</mgrwt>
</event>
<event>
 8    1  0.3177960E-004  0.1003366E+03  0.7546771E-02  0.1281023E+00
          1   -1    0    0  501    0  0.00000000000E+00  0.00000000000E+00  0.20711170691E+03  0.20711170691E+03  0.00000000000E+00 0. -1.
         -1   -1    0    0    0  501 -0.00000000000E+00 -0.00000000000E+00 -0.13771869105E+03  0.13771869105E+03  0.00000000000E+00 0.  1.
         23    2    1    2    0    0  0.25203489178E+02 -0.31441407650E+02 -0.10515750940E+03  0.14349656212E+03  0.88934715246E+02 0.  0.
         23    2    1    2    0    0 -0.25203489178E+02  0.31441407650E+02  0.17455052526E+03  0.20133383583E+03  0.91889333454E+02 0.  0.
          5    1    3    3  502    0  0.23721452003E+02 -0.59328104371E+02 -0.92396261779E+02  0.11243527224E+03  0.47000000000E+01 0. -1.
         -5    1    4    4    0  503 -0.11343113079E+00  0.36564377242E+02  0.15209243311E+02  0.39879539012E+02  0.47000000000E+01 0.  1.
          5    1    4    4  503    0 -0.25090058047E+02 -0.51229695926E+01  0.15934128194E+03  0.16145429682E+03  0.47000000000E+01 0. -1.
         -5    1    3    3    0  502  0.14820371742E+01  0.27886696721E+02 -0.12761247623E+02  0.31061289882E+02  0.47000000000E+01 0.  1.
<mgrwt>
<rscale>  0 0.99654993E+02</rscale>
<asrwt>0</asrwt>
<pdfrwt beam="1">  1        1 0.31863340E-01 0.10033657E+03</pdfrwt>
<pdfrwt beam="2">  1       -1 0.21187491E-01 0.10033657E+03</pdfrwt>
<totfact> 0.24647677E+03</totfact>
</mgrwt>
</event>
<event>
 8    1  0.3177960E-004  0.9244494E+02  0.7546771E-02  0.1297433E+00
          2   -1    0    0  501    0  0.00000000000E+00  0.00000000000E+00  0.56402860958E+02  0.56402860958E+02  0.00000000000E+00 0. -1.
         -2   -1    0    0    0  501 -0.00000000000E+00 -0.00000000000E+00 -0.15046306517E+03  0.15046306517E+03  0.00000000000E+00 0.  1.
         23    2    1    2    0    0  0.16315890500E+02  0.49680223819E+01 -0.45285772742E+02  0.10294108757E+03  0.90858003324E+02 0.  0.
         23    2    1    2    0    0 -0.16315890500E+02 -0.49680223819E+01 -0.48774431466E+02  0.10392483855E+03  0.90169492481E+02 0.  0.
          5    1    4    4  502    0  0.33175801603E+02 -0.10997734201E+02 -0.18773138791E+01  0.35315694485E+02  0.47000000000E+01 0. -1.
         -5    1    3    3    0  503  0.38321044537E+02  0.36812037201E+02 -0.28610270684E+02  0.60533182023E+02  0.47000000000E+01 0.  1.
          5    1    3    3  503    0 -0.22005154037E+02 -0.31844014819E+02 -0.16675502058E+02  0.42407905547E+02  0.47000000000E+01 0. -1.
         -5    1    4    4    0  502 -0.49491692103E+02  0.60297118186E+01 -0.46897117587E+02  0.68609144069E+02  0.47000000000E+01 0.  1.
<mgrwt>
<rscale>  0 0.92275319E+02</rscale>
<asrwt>0</asrwt>
<pdfrwt beam="1">  1        2 0.86773632E-02 0.92444937E+02</pdfrwt>
<pdfrwt beam="2">  1       -2 0.23148164E-01 0.92444937E+02</pdfrwt>
<totfact> 0.11255238E+04</totfact>
</mgrwt>
</event>
<event>
 8    1  0.3177960E-004  0.9546406E+02  0.7546771E-02  0.1290264E+00
          1   -1    0    0  501    0  0.00000000000E+00  0.00000000000E+00  0.50111774476E+02  0.50111774476E+02  0.00000000000E+00 0. -1.
         -1   -1    0    0    0  501 -0.00000000000E+00 -0.00000000000E+00 -0.22796783474E+03  0.22796783474E+03  0.00000000000E+00 0.  1.
         23    2    1    2    0    0 -0.17030981301E+02  0.16631200001E+02 -0.15166997814E+03  0.17908921862E+03  0.92209082077E+02 0.  0.
         23    2    1    2    0    0  0.17030981301E+02 -0.16631200001E+02 -0.26186082123E+02  0.98990390601E+02  0.92448555407E+02 0.  0.
          5    1    3    3  502    0 -0.44404039030E+02 -0.38489901549E+01 -0.33418322633E+02  0.55905345853E+02  0.47000000000E+01 0. -1.
         -5    1    3    3    0  502  0.27373057729E+02  0.20480190156E+02 -0.11825165551E+03  0.12318387276E+03  0.47000000000E+01 0.  1.
          5    1    4    4  503    0 -0.24043878980E+02 -0.17748463212E+02 -0.44459006541E+02  0.53775545794E+02  0.47000000000E+01 0. -1.
         -5    1    4    4    0  503  0.41074860281E+02  0.11172632114E+01  0.18272924418E+02  0.45214844807E+02  0.47000000000E+01 0.  1.
<mgrwt>
<rscale>  0 0.95406033E+02</rscale>
<asrwt>0</asrwt>
<pdfrwt beam="1">  1        1 0.77095037E-02 0.95464059E+02</pdfrwt>
<pdfrwt beam="2">  1       -1 0.35071975E-01 0.95464059E+02</pdfrwt>
<totfact> 0.65694563E+03</totfact>
</mgrwt>
</event>
<event>
 8    1  0.3177960E-004  0.9348747E+02  0.7546771E-02  0.1295087E+00
          1   -1    0    0  501    0  0.00000000000E+00  0.00000000000E+00  0.17636435381E+03  0.17636435381E+03  0.00000000000E+00 0. -1.
         -1   -1    0    0    0  501 -0.00000000000E+00 -0.00000000000E+00 -0.59513749201E+02  0.59513749201E+02  0.00000000000E+00 0.  1.
         23    2    1    2    0    0 -0.12253603322E+02 -0.10534376600E+02  0.93676844980E+01  0.93955627698E+02  0.92080305052E+02 0.  0.
         23    2    1    2    0    0  0.12253603322E+02  0.10534376600E+02  0.10748292011E+03  0.14192247531E+03  0.91259448818E+02 0.  0.
          5    1    3    3  502    0 -0.37790564366E+02  0.12082938256E+02  0.33308455915E+02  0.52016030100E+02  0.47000000000E+01 0. -1.
         -5    1    4    4    0  503  0.50891052005E+02  0.13398374679E+02  0.52381298176E+02  0.74399637209E+02  0.47000000000E+01 0.  1.
          5    1    4    4  503    0 -0.38637448683E+02 -0.28639980790E+01  0.55101621938E+02  0.67522838106E+02  0.47000000000E+01 0. -1.
         -5    1    3    3    0  502  0.25536961044E+02 -0.22617314856E+02 -0.23940771417E+02  0.41939597598E+02  0.47000000000E+01 0.  1.
<mgrwt>
<rscale>  0 0.93284710E+02</rscale>
<asrwt>0</asrwt>
<pdfrwt beam="1">  1        1 0.27132977E-01 0.93487467E+02</pdfrwt>
<pdfrwt beam="2">  1       -1 0.91559615E-02 0.93487467E+02</pdfrwt>
<totfact> 0.10949219E+04</totfact>
</mgrwt>
</event>
<event>
 8    1  0.3177960E-004  0.9136373E+02  0.7546771E-02  0.1300118E+00
          2   -1    0    0  501    0  0.00000000000E+00  0.00000000000E+00  0.12982648186E+03  0.12982648186E+03  0.00000000000E+00 0. -1.
         -2   -1    0    0    0  501 -0.00000000000E+00 -0.00000000000E+00 -0.93925268484E+02  0.93925268484E+02  0.00000000000E+00 0.  1.
         23    2    1    2    0    0 -0.79423830724E+00  0.80271622696E+01 -0.45488783722E+02  0.10206154939E+03  0.91006946276E+02 0.  0.
         23    2    1    2    0    0  0.79423830724E+00 -0.80271622696E+01  0.81389997100E+02  0.12169020096E+03  0.90106088767E+02 0.  0.
          5    1    4    4  502    0  0.35026824751E+02  0.16723507383E+01  0.30389354837E+01  0.35510566568E+02  0.47000000000E+01 0. -1.
         -5    1    4    4    0  502 -0.34232586444E+02 -0.96995130079E+01  0.78351061616E+02  0.86179634390E+02  0.47000000000E+01 0.  1.
          5    1    3    3  503    0  0.30686769789E+02  0.32563697227E+02 -0.54295265768E+01  0.45317126741E+02  0.47000000000E+01 0. -1.
         -5    1    3    3    0  503 -0.31481008097E+02 -0.24536534958E+02 -0.40059257145E+02  0.56744422647E+02  0.47000000000E+01 0.  1.
<mgrwt>
<rscale>  0 0.91138569E+02</rscale>
<asrwt>0</asrwt>
<pdfrwt beam="1">  1        2 0.19973305E-01 0.91363726E+02</pdfrwt>
<pdfrwt beam="2">  1       -2 0.14450041E-01 0.91363726E+02</pdfrwt>
<totfact> 0.92246654E+03</totfact>
</mgrwt>
</event>
<event>
 8    1  0.3177960E-004  0.9411123E+02  0.7546771E-02  0.1293883E+00
          2   -1    0    0  501    0  0.00000000000E+00  0.00000000000E+00  0.31487176042E+03  0.31487176042E+03  0.00000000000E+00 0. -1.
         -2   -1    0    0    0  501 -0.00000000000E+00 -0.00000000000E+00 -0.51641513616E+02  0.51641513616E+02  0.00000000000E+00 0.  1.
         23    2    1    2    0    0 -0.11890563055E+02  0.22668039241E+02  0.65630865015E+01  0.93136326339E+02  0.89308877984E+02 0.  0.
         23    2    1    2    0    0  0.11890563055E+02 -0.22668039241E+02  0.25666716030E+03  0.27337694770E+03  0.90563231292E+02 0.  0.
          5    1    3    3  502    0 -0.40676543851E+02  0.37929573239E+02  0.17425220531E+02  0.58471891164E+02  0.47000000000E+01 0. -1.
         -5    1    4    4    0  503  0.46196309261E+02 -0.32457565129E+02  0.13257278888E+03  0.14417082532E+03  0.47000000000E+01 0.  1.
          5    1    4    4  503    0 -0.34305746206E+02  0.97895258880E+01  0.12409437143E+03  0.12920612238E+03  0.47000000000E+01 0. -1.
         -5    1    3    3    0  502  0.28785980795E+02 -0.15261533998E+02 -0.10862134029E+02  0.34664435175E+02  0.47000000000E+01 0.  1.
<mgrwt>
<rscale>  0 0.93808164E+02</rscale>
<asrwt>0</asrwt>
<pdfrwt beam="1">  1        2 0.48441808E-01 0.94111234E+02</pdfrwt>
<pdfrwt beam="2">  1       -2 0.79448484E-02 0.94111234E+02</pdfrwt>
<totfact> 0.91347206E+03</totfact>
</mgrwt>
</event>
<event>
 8    1  0.3177960E-004  0.2336635E+03  0.7546771E-02  0.1124485E+00
         -1   -1    0    0    0  501 -0.00000000000E+00  0.00000000000E+00  0.54065336614E+03  0.54065336614E+03  0.00000000000E+00 0.  1.
          1   -1    0    0  501    0  0.00000000000E+00 -0.00000000000E+00 -0.14725760613E+03  0.14725760613E+03  0.00000000000E+00 0. -1.
         23    2    1    2    0    0 -0.38701790215E+02 -0.21014811336E+03  0.39089301105E+03  0.45423407292E+03  0.88719720468E+02 0.  0.
         23    2    1    2    0    0  0.38701790215E+02  0.21014811336E+03  0.25027489589E+01  0.23367689934E+03  0.94544018432E+02 0.  0.
          5    1    4    4  502    0 -0.20116563257E+02  0.13919911961E+03 -0.70786379713E+01  0.14090162573E+03  0.47000000000E+01 0. -1.
         -5    1    4    4    0  502  0.58818353472E+02  0.70948993748E+02  0.95813869302E+01  0.92775273616E+02  0.47000000000E+01 0.  1.
          5    1    3    3  503    0  0.19051902624E+02 -0.13444177399E+03  0.22120350595E+03  0.25959708517E+03  0.47000000000E+01 0. -1.
         -5    1    3    3    0  503 -0.57753692839E+02 -0.75706339368E+02  0.16968950511E+03  0.19463698775E+03  0.47000000000E+01 0.  1.
<mgrwt>
<rscale>  0 0.23308755E+03</rscale>
<asrwt>0</asrwt>
<pdfrwt beam="1">  1        1 0.22655017E-01 0.23366350E+03</pdfrwt>
<pdfrwt beam="2">  1       -1 0.83177440E-01 0.23366350E+03</pdfrwt>
<totfact> 0.32856183E+02</totfact>
</mgrwt>
</event>
<event>
 8    1  0.3177960E-004  0.1159237E+03  0.7546771E-02  0.1258012E+00
          2   -1    0    0  501    0  0.00000000000E+00  0.00000000000E+00  0.60448070637E+03  0.60448070637E+03  0.00000000000E+00 0. -1.
         -2   -1    0    0    0  501 -0.00000000000E+00 -0.00000000000E+00 -0.21781006129E+02  0.21781006129E+02  0.00000000000E+00 0.  1.
         23    2    1    2    0    0  0.20929641021E+02  0.27758857857E+02  0.16098063610E+03  0.18889998154E+03  0.92519369674E+02 0.  0.
         23    2    1    2    0    0 -0.20929641021E+02 -0.27758857857E+02  0.42171906415E+03  0.43736173096E+03  0.11058802187E+03 0.  0.
          5    1    4    4  502    0 -0.47397466881E+02  0.19730667648E+02  0.29380202078E+03  0.29829102656E+03  0.47000000000E+01 0. -1.
         -5    1    3    3    0  503  0.71741885094E+01  0.58621665876E+02  0.12980331287E+03  0.14268482303E+03  0.47000000000E+01 0.  1.
          5    1    3    3  503    0  0.13755452512E+02 -0.30862808019E+02  0.31177323227E+02  0.46215158511E+02  0.47000000000E+01 0. -1.
         -5    1    4    4    0  502  0.26467825861E+02 -0.47489525505E+02  0.12791704337E+03  0.13907070440E+03  0.47000000000E+01 0.  1.
<mgrwt>
<rscale>  0 0.11139288E+03</rscale>
<asrwt>0</asrwt>
<pdfrwt beam="1">  1        2 0.92997019E-01 0.11592374E+03</pdfrwt>
<pdfrwt beam="2">  1       -2 0.33509245E-02 0.11592374E+03</pdfrwt>
<totfact> 0.16769717E+04</totfact>
</mgrwt>
</event>
<event>
 8    1  0.3177960E-004  0.1238800E+03  0.7546771E-02  0.1239961E+00
         -1   -1    0    0    0  501 -0.00000000000E+00  0.00000000000E+00  0.85815966855E+02  0.85815966855E+02  0.00000000000E+00 0.  1.
          1   -1    0    0  501    0  0.00000000000E+00 -0.00000000000E+00 -0.19698618912E+03  0.19698618912E+03  0.00000000000E+00 0. -1.
         23    2    1    2    0    0  0.54245081631E+02 -0.50533360941E+02 -0.28327643614E+01  0.12391237333E+03  0.99247681388E+02 0.  0.
         23    2    1    2    0    0 -0.54245081631E+02  0.50533360941E+02 -0.10833745790E+03  0.15888978265E+03  0.89514293805E+02 0.  0.
          5    1    3    3  502    0  0.31523849364E+02 -0.91746585943E+00 -0.44744867052E+02  0.54943497794E+02  0.47000000000E+01 0. -1.
         -5    1    4    4    0  503  0.13532304834E+02  0.42995550159E+02 -0.59894979286E+02  0.75108182984E+02  0.47000000000E+01 0.  1.
          5    1    4    4  503    0 -0.67777386464E+02  0.75378107827E+01 -0.48442478619E+02  0.83781599663E+02  0.47000000000E+01 0. -1.
         -5    1    3    3    0  502  0.22721232266E+02 -0.49615895082E+02  0.41912102691E+02  0.68968875534E+02  0.47000000000E+01 0.  1.
<mgrwt>
<rscale>  0 0.12192102E+03</rscale>
<asrwt>0</asrwt>
<pdfrwt beam="1">  1        1 0.30305567E-01 0.12387999E+03</pdfrwt>
<pdfrwt beam="2">  1       -1 0.13202457E-01 0.12387999E+03</pdfrwt>
<totfact> 0.55857695E+03</totfact>
</mgrwt>
</event>
<event>
 8    1  0.3177960E-004  0.1199858E+03  0.7546771E-02  0.1243834E+00
         -2   -1    0    0    0  501 -0.00000000000E+00  0.00000000000E+00  0.20537704136E+02  0.20537704136E+02  0.00000000000E+00 0.  1.
          2   -1    0    0  501    0  0.00000000000E+00 -0.00000000000E+00 -0.69117073319E+03  0.69117073319E+03  0.00000000000E+00 0. -1.
         23    2    1    2    0    0  0.74329345205E+02 -0.13025620096E+02 -0.32723633384E+03  0.34795320128E+03  0.91067523090E+02 0.  0.
         23    2    1    2    0    0 -0.74329345205E+02  0.13025620096E+02 -0.34339669522E+03  0.36375523605E+03  0.93284849391E+02 0.  0.
          5    1    4    4  502    0 -0.95667436544E+02  0.86010275068E+01 -0.29884273605E+03  0.31393519551E+03  0.47000000000E+01 0. -1.
         -5    1    4    4    0  502  0.21338091338E+02  0.44245925891E+01 -0.44553959173E+02  0.49820040541E+02  0.47000000000E+01 0.  1.
          5    1    3    3  503    0 -0.70409011915E+01  0.21136925006E+02 -0.12780805165E+03  0.12982038343E+03  0.47000000000E+01 0. -1.
         -5    1    3    3    0  503  0.81370246397E+02 -0.34162545102E+02 -0.19942828219E+03  0.21813281785E+03  0.47000000000E+01 0.  1.
<mgrwt>
<rscale>  0 0.11955452E+03</rscale>
<asrwt>0</asrwt>
<pdfrwt beam="1">  1        2 0.10633396E+00 0.11998576E+03</pdfrwt>
<pdfrwt beam="2">  1       -2 0.31596468E-02 0.11998576E+03</pdfrwt>
<totfact> 0.15706560E+04</totfact>
</mgrwt>
</event>
<event>
 8    1  0.3177960E-004  0.9653214E+02  0.7546771E-02  0.1287840E+00
         -1   -1    0    0    0  501 -0.00000000000E+00  0.00000000000E+00  0.10856393758E+03  0.10856393758E+03  0.00000000000E+00 0.  1.
          1   -1    0    0  501    0  0.00000000000E+00 -0.00000000000E+00 -0.12839221077E+03  0.12839221077E+03  0.00000000000E+00 0. -1.
         23    2    1    2    0    0  0.13269703303E+02  0.27508463540E+02  0.58393483692E+02  0.11281956102E+03  0.91573215619E+02 0.  0.
         23    2    1    2    0    0 -0.13269703303E+02 -0.27508463540E+02 -0.78221756874E+02  0.12413658733E+03  0.91424550717E+02 0.  0.
          5    1    4    4  502    0  0.71227177778E+01 -0.43481753962E+02 -0.85949286206E+02  0.96699357989E+02  0.47000000000E+01 0. -1.
         -5    1    4    4    0  502 -0.20392421081E+02  0.15973290422E+02  0.77275293320E+01  0.27437229343E+02  0.47000000000E+01 0.  1.
          5    1    3    3  503    0  0.46919360281E+02  0.14111149899E+02  0.69185162801E+01  0.49704192863E+02  0.47000000000E+01 0. -1.
         -5    1    3    3    0  503 -0.33649656977E+02  0.13397313641E+02  0.51474967412E+02  0.63115368157E+02  0.47000000000E+01 0.  1.
<mgrwt>
<rscale>  0 0.96496868E+02</rscale>
<asrwt>0</asrwt>
<pdfrwt beam="1">  1        1 0.19752648E-01 0.96532142E+02</pdfrwt>
<pdfrwt beam="2">  1       -1 0.16702144E-01 0.96532142E+02</pdfrwt>
<totfact> 0.64918371E+03</totfact>
</mgrwt>
</event>
<event>
 7    1  0.3177960E-004  0.1413123E+03  0.7546771E-02  0.1229724E+00
          1   -1    0    0  501    0  0.00000000000E+00  0.00000000000E+00  0.35165039472E+03  0.35165039472E+03  0.00000000000E+00 0. -1.
         -1   -1    0    0    0  501 -0.00000000000E+00 -0.00000000000E+00 -0.72634078457E+02  0.72634078457E+02  0.00000000000E+00 0.  1.
         23    2    1    2    0    0 -0.16349597360E+02 -0.47125661692E+02  0.26527424965E+03  0.28230558430E+03  0.82691463141E+02 0.  0.
          5    1    3    3  502    0 -0.46613632940E+02 -0.16680142672E+02  0.17966829322E+03  0.18642382767E+03  0.47000000000E+01 0. -1.
         -5    1    3    3    0  502  0.30264035580E+02 -0.30445519019E+02  0.85605956435E+02  0.95881756633E+02  0.47000000000E+01 0.  1.
          5    1    1    2  503    0 -0.59965557757E+01 -0.19213655217E+02 -0.45614713671E+02  0.50079090759E+02  0.47000000000E+01 0. -1.
         -5    1    1    2    0  503  0.22346153136E+02  0.66339316908E+02  0.59356780278E+02  0.91899798111E+02  0.47000000000E+01 0.  1.
<mgrwt>
<rscale>  0 0.12848338E+03</rscale>
<asrwt>0</asrwt>
<pdfrwt beam="1">  1        1 0.54100060E-01 0.14131228E+03</pdfrwt>
<pdfrwt beam="2">  1       -1 0.11174474E-01 0.14131228E+03</pdfrwt>
<totfact> 0.35518229E+03</totfact>
</mgrwt>
</event>
<event>
 8    1  0.3177960E-004  0.9363346E+02  0.7546771E-02  0.1295110E+00
         -1   -1    0    0    0  501 -0.00000000000E+00  0.00000000000E+00  0.20785620598E+03  0.20785620598E+03  0.00000000000E+00 0.  1.
          1   -1    0    0  501    0  0.00000000000E+00 -0.00000000000E+00 -0.41558854735E+02  0.41558854735E+02  0.00000000000E+00 0. -1.
         23    2    1    2    0    0 -0.73248811907E+01 -0.22788878651E+02  0.79767438318E+02  0.12192133144E+03  0.89044820008E+02 0.  0.
         23    2    1    2    0    0  0.73248811907E+01  0.22788878651E+02  0.86529912931E+02  0.12749372928E+03  0.90522032117E+02 0.  0.
          5    1    4    4  502    0  0.26919967089E+02 -0.22060824728E+02  0.64867174905E+02  0.73764523966E+02  0.47000000000E+01 0. -1.
         -5    1    4    4    0  502 -0.19595085899E+02  0.44849703379E+02  0.21662738026E+02  0.53729205311E+02  0.47000000000E+01 0.  1.
          5    1    3    3  503    0  0.16177725456E+02 -0.48130410916E+02  0.24515695598E+02  0.56580602564E+02  0.47000000000E+01 0. -1.
         -5    1    3    3    0  503 -0.23502606647E+02  0.25341532265E+02  0.55251742720E+02  0.65340728878E+02  0.47000000000E+01 0.  1.
<mgrwt>
<rscale>  0 0.93274566E+02</rscale>
<asrwt>0</asrwt>
<pdfrwt beam="1">  1        1 0.63936701E-02 0.93633462E+02</pdfrwt>
<pdfrwt beam="2">  1       -1 0.31977877E-01 0.93633462E+02</pdfrwt>
<totfact> 0.98397352E+03</totfact>
</mgrwt>
</event>
<event>
 8    1  0.3177960E-004  0.9982512E+02  0.7546771E-02  0.1283176E+00
         -1   -1    0    0    0  501 -0.00000000000E+00  0.00000000000E+00  0.29357754799E+03  0.29357754799E+03  0.00000000000E+00 0.  1.
          1   -1    0    0  501    0  0.00000000000E+00 -0.00000000000E+00 -0.33622967717E+02  0.33622967717E+02  0.00000000000E+00 0. -1.
         23    2    1    2    0    0  0.30276098362E+01 -0.32212221387E+02  0.95574743213E+02  0.13488362820E+03  0.89511272968E+02 0.  0.
         23    2    1    2    0    0 -0.30276098362E+01  0.32212221387E+02  0.16437983706E+03  0.19231688751E+03  0.94436543562E+02 0.  0.
          5    1    4    4  502    0 -0.37842842721E+02  0.11099066183E+02  0.24752357040E+02  0.46797854591E+02  0.47000000000E+01 0. -1.
         -5    1    3    3    0  503  0.31587023555E+02  0.44309823576E+01  0.79013958567E+02  0.85338556996E+02  0.47000000000E+01 0.  1.
          5    1    3    3  503    0 -0.28559413718E+02 -0.36643203745E+02  0.16560784646E+02  0.49545071205E+02  0.47000000000E+01 0. -1.
         -5    1    4    4    0  502  0.34815232885E+02  0.21113155204E+02  0.13962748002E+03  0.14551903291E+03  0.47000000000E+01 0.  1.
<mgrwt>
<rscale>  0 0.98642775E+02</rscale>
<asrwt>0</asrwt>
<pdfrwt beam="1">  1        1 0.51727645E-02 0.99825119E+02</pdfrwt>
<pdfrwt beam="2">  1       -1 0.45165775E-01 0.99825119E+02</pdfrwt>
<totfact> 0.72591381E+03</totfact>
</mgrwt>
</event>
<event>
 8    1  0.3177960E-004  0.1104364E+03  0.7546771E-02  0.1271396E+00
          2   -1    0    0  501    0  0.00000000000E+00  0.00000000000E+00  0.41362217891E+03  0.41362217891E+03  0.00000000000E+00 0. -1.
         -2   -1    0    0    0  501 -0.00000000000E+00 -0.00000000000E+00 -0.35372034722E+02  0.35372034722E+02  0.00000000000E+00 0.  1.
         23    2    1    2    0    0  0.18130998320E+02 -0.12069931064E+02  0.46971878584E+02  0.99792987579E+02  0.85310413528E+02 0.  0.
         23    2    1    2    0    0 -0.18130998320E+02  0.12069931064E+02  0.33127826560E+03  0.34920122605E+03  0.10826721886E+03 0.  0.
          5    1    4    4  502    0 -0.75491648783E+01  0.56837730736E+02  0.24097896467E+03  0.24775082026E+03  0.47000000000E+01 0. -1.
         -5    1    3    3    0  503 -0.26253410457E+02 -0.26841840428E+01 -0.83673802138E+01  0.28081122774E+02  0.47000000000E+01 0.  1.
          5    1    3    3  503    0  0.44384408776E+02 -0.93857470216E+01  0.55339258797E+02  0.71711864805E+02  0.47000000000E+01 0. -1.
         -5    1    4    4    0  502 -0.10581833441E+02 -0.44767799672E+02  0.90299300929E+02  0.10145040579E+03  0.47000000000E+01 0.  1.
<mgrwt>
<rscale>  0 0.10435494E+03</rscale>
<asrwt>0</asrwt>
<pdfrwt beam="1">  1        2 0.63634178E-01 0.11043644E+03</pdfrwt>
<pdfrwt beam="2">  1       -2 0.54418518E-02 0.11043644E+03</pdfrwt>
<totfact> 0.12314400E+04</totfact>
</mgrwt>
</event>
<event>
 8    1  0.3177960E-004  0.9223791E+02  0.7546771E-02  0.1297738E+00
         -1   -1    0    0    0  501 -0.00000000000E+00  0.00000000000E+00  0.43943829505E+02  0.43943829505E+02  0.00000000000E+00 0.  1.
          1   -1    0    0  501    0  0.00000000000E+00 -0.00000000000E+00 -0.52281896111E+03  0.52281896111E+03  0.00000000000E+00 0. -1.
         23    2    1    2    0    0 -0.86283425436E+01  0.12014424961E+01 -0.14125409506E+02  0.92948338141E+02  0.91454768112E+02 0.  0.
         23    2    1    2    0    0  0.86283425436E+01 -0.12014424961E+01 -0.46474972210E+03  0.47381445247E+03  0.91825592420E+02 0.  0.
          5    1    4    4  502    0 -0.55687559828E+01  0.43987499712E+02 -0.21686724715E+03  0.22140326118E+03  0.47000000000E+01 0. -1.
         -5    1    4    4    0  502  0.14197098526E+02 -0.45188942208E+02 -0.24788247494E+03  0.25241119129E+03  0.47000000000E+01 0.  1.
          5    1    3    3  503    0 -0.48393058334E+02  0.11897895183E+02 -0.11858170051E+02  0.51440783447E+02  0.47000000000E+01 0. -1.
         -5    1    3    3    0  503  0.39764715790E+02 -0.10696452687E+02 -0.22672394545E+01  0.41507554694E+02  0.47000000000E+01 0.  1.
<mgrwt>
<rscale>  0 0.92145477E+02</rscale>
<asrwt>0</asrwt>
<pdfrwt beam="1">  1        1 0.80433688E-01 0.92237905E+02</pdfrwt>
<pdfrwt beam="2">  1       -1 0.67605890E-02 0.92237905E+02</pdfrwt>
<totfact> 0.44857067E+03</totfact>
</mgrwt>
</event>
<event>
 8    1  0.3177960E-004  0.1018725E+03  0.7546771E-02  0.1277911E+00
         -1   -1    0    0    0  501 -0.00000000000E+00  0.00000000000E+00  0.45045887014E+02  0.45045887014E+02  0.00000000000E+00 0.  1.
          1   -1    0    0  501    0  0.00000000000E+00 -0.00000000000E+00 -0.23825829290E+03  0.23825829290E+03  0.00000000000E+00 0. -1.
         23    2    1    2    0    0 -0.26367050836E+02  0.25617533245E+02 -0.60533714995E+02  0.11602702886E+03  0.91904632063E+02 0.  0.
         23    2    1    2    0    0  0.26367050836E+02 -0.25617533245E+02 -0.13267869089E+03  0.16727715106E+03  0.95008056871E+02 0.  0.
          5    1    4    4  502    0  0.41133627905E+02  0.24744926294E+02 -0.52093229765E+02  0.70993530052E+02  0.47000000000E+01 0. -1.
         -5    1    4    4    0  502 -0.14766577069E+02 -0.50362459539E+02 -0.80585461129E+02  0.96283621009E+02  0.47000000000E+01 0.  1.
          5    1    3    3  503    0  0.15352630678E+02 -0.25619724562E+02 -0.74478659706E+01  0.31138950895E+02  0.47000000000E+01 0. -1.
         -5    1    3    3    0  503 -0.41719681513E+02  0.51237257807E+02 -0.53085849024E+02  0.84888077960E+02  0.47000000000E+01 0.  1.
<mgrwt>
<rscale>  0 0.10114272E+03</rscale>
<asrwt>0</asrwt>
<pdfrwt beam="1">  1        1 0.36655122E-01 0.10187252E+03</pdfrwt>
<pdfrwt beam="2">  1       -1 0.69301365E-02 0.10187252E+03</pdfrwt>
<totfact> 0.11561602E+04</totfact>
</mgrwt>
</event>
<event>
 8    1  0.3177960E-004  0.9307526E+02  0.7546771E-02  0.1296967E+00
          2   -1    0    0  501    0  0.00000000000E+00  0.00000000000E+00  0.50191166134E+03  0.50191166134E+03  0.00000000000E+00 0. -1.
         -2   -1    0    0    0  501 -0.00000000000E+00 -0.00000000000E+00 -0.17937054810E+02  0.17937054810E+02  0.00000000000E+00 0.  1.
         23    2    1    2    0    0  0.16382052832E+00  0.24696744657E+01  0.18011727783E+03  0.20274426836E+03  0.93042347604E+02 0.  0.
         23    2    1    2    0    0 -0.16382052832E+00 -0.24696744657E+01  0.30385732870E+03  0.31710444780E+03  0.90663269739E+02 0.  0.
          5    1    3    3  502    0  0.37117168998E+02 -0.21990233577E+02  0.12212926232E+03  0.12961057566E+03  0.47000000000E+01 0. -1.
         -5    1    4    4    0  503  0.43691780820E+02  0.83074736424E+01  0.13303759455E+03  0.14035340179E+03  0.47000000000E+01 0.  1.
          5    1    4    4  503    0 -0.43855601349E+02 -0.10777148108E+02  0.17081973415E+03  0.17675104601E+03  0.47000000000E+01 0. -1.
         -5    1    3    3    0  502 -0.36953348470E+02  0.24459908043E+02  0.57988015515E+02  0.73133692700E+02  0.47000000000E+01 0.  1.
<mgrwt>
<rscale>  0 0.92474926E+02</rscale>
<asrwt>0</asrwt>
<pdfrwt beam="1">  1        2 0.77217168E-01 0.93075263E+02</pdfrwt>
<pdfrwt beam="2">  1       -2 0.27595473E-02 0.93075263E+02</pdfrwt>
<totfact> 0.26786247E+04</totfact>
</mgrwt>
</event>
<event>
 8    1  0.3177960E-004  0.1687654E+03  0.7546771E-02  0.1185227E+00
          1   -1    0    0  501    0  0.00000000000E+00  0.00000000000E+00  0.18811902892E+04  0.18811902892E+04  0.00000000000E+00 0. -1.
         -1   -1    0    0    0  501 -0.00000000000E+00 -0.00000000000E+00 -0.13272928386E+02  0.13272928386E+02  0.00000000000E+00 0.  1.
         23    2    1    2    0    0  0.10188190580E+03 -0.53930392517E+02  0.86735561390E+03  0.87976840784E+03  0.91642132827E+02 0.  0.
         23    2    1    2    0    0 -0.10188190580E+03  0.53930392517E+02  0.10005617469E+04  0.10146948098E+04  0.12326125735E+03 0.  0.
          5    1    4    4  502    0  0.23991363876E+02 -0.75697976408E+01  0.96739891170E+02  0.10006789655E+03  0.47000000000E+01 0. -1.
         -5    1    4    4    0  502 -0.12587326968E+03  0.61500190158E+02  0.90382185578E+03  0.91462691322E+03  0.47000000000E+01 0.  1.
          5    1    3    3  503    0  0.10070982470E+03 -0.74148240139E+02  0.69672037691E+03  0.70787131874E+03  0.47000000000E+01 0. -1.
         -5    1    3    3    0  503  0.11720811077E+01  0.20217847622E+02  0.17063523699E+03  0.17189708910E+03  0.47000000000E+01 0.  1.
<mgrwt>
<rscale>  0 0.16311228E+03</rscale>
<asrwt>0</asrwt>
<pdfrwt beam="1">  1        1 0.28941368E+00 0.16876536E+03</pdfrwt>
<pdfrwt beam="2">  1       -1 0.20419905E-02 0.16876536E+03</pdfrwt>
<totfact> 0.26763179E+03</totfact>
</mgrwt>
</event>
<event>
 8    1  0.3177960E-004  0.1082501E+03  0.7546771E-02  0.1264742E+00
          1   -1    0    0  501    0  0.00000000000E+00  0.00000000000E+00  0.61142829474E+03  0.61142829474E+03  0.00000000000E+00 0. -1.
         -1   -1    0    0    0  501 -0.00000000000E+00 -0.00000000000E+00 -0.19065405610E+02  0.19065405610E+02  0.00000000000E+00 0.  1.
         23    2    1    2    0    0 -0.41605026828E+02  0.35404716095E+02  0.32836266480E+03  0.34516196285E+03  0.91270306180E+02 0.  0.
         23    2    1    2    0    0  0.41605026828E+02 -0.35404716095E+02  0.26400022433E+03  0.28533173750E+03  0.93453784275E+02 0.  0.
          5    1    4    4  502    0  0.38459715874E+02 -0.63084943143E+02  0.14242916368E+03  0.16052107794E+03  0.47000000000E+01 0. -1.
         -5    1    3    3    0  503 -0.23053067664E+02  0.53248549898E+02  0.10322486920E+03  0.11850871536E+03  0.47000000000E+01 0.  1.
          5    1    3    3  503    0 -0.18551959164E+02 -0.17843833803E+02  0.22513779560E+03  0.22665324749E+03  0.47000000000E+01 0. -1.
         -5    1    4    4    0  502  0.31453109544E+01  0.27680227048E+02  0.12157106065E+03  0.12481065956E+03  0.47000000000E+01 0.  1.
<mgrwt>
<rscale>  0 0.10777717E+03</rscale>
<asrwt>0</asrwt>
<pdfrwt beam="1">  1        1 0.94065877E-01 0.10825009E+03</pdfrwt>
<pdfrwt beam="2">  1       -1 0.29331398E-02 0.10825009E+03</pdfrwt>
<totfact> 0.12495834E+04</totfact>
</mgrwt>
</event>
<event>
 8    1  0.3177960E-004  0.1273831E+03  0.7546771E-02  0.1231548E+00
         -2   -1    0    0    0  501 -0.00000000000E+00  0.00000000000E+00  0.57146094808E+02  0.57146094808E+02  0.00000000000E+00 0.  1.
          2   -1    0    0  501    0  0.00000000000E+00 -0.00000000000E+00 -0.28553070260E+03  0.28553070260E+03  0.00000000000E+00 0. -1.
         23    2    1    2    0    0  0.50058558979E+02 -0.76136422114E+02 -0.98350608329E+02  0.16093261530E+03  0.89016012103E+02 0.  0.
         23    2    1    2    0    0 -0.50058558979E+02  0.76136422114E+02 -0.13003399947E+03  0.18174418211E+03  0.88427894993E+02 0.  0.
          5    1    3    3  502    0  0.54219770491E+02 -0.46559720792E+02 -0.10765037585E+03  0.12929920546E+03  0.47000000000E+01 0. -1.
         -5    1    3    3    0  502 -0.41612115119E+01 -0.29576701322E+02  0.92997675215E+01  0.31633409843E+02  0.47000000000E+01 0.  1.
          5    1    4    4  503    0 -0.37137610300E+02  0.95647764197E+02 -0.99674313922E+02  0.14312496550E+03  0.47000000000E+01 0. -1.
         -5    1    4    4    0  503 -0.12920948680E+02 -0.19511342083E+02 -0.30359685545E+02  0.38619216603E+02  0.47000000000E+01 0.  1.
<mgrwt>
<rscale>  0 0.12728045E+03</rscale>
<asrwt>0</asrwt>
<pdfrwt beam="1">  1        2 0.43927800E-01 0.12738314E+03</pdfrwt>
<pdfrwt beam="2">  1       -2 0.87917069E-02 0.12738314E+03</pdfrwt>
<totfact> 0.88679797E+03</totfact>
</mgrwt>
</event>
<event>
 8    1  0.5727133E-004  0.1019959E+03  0.7546771E-02  0.1276320E+00
          1   -1    0    0  501    0  0.00000000000E+00  0.00000000000E+00  0.10919988389E+03  0.10919988389E+03  0.00000000000E+00 0. -1.
         -1   -1    0    0    0  501 -0.00000000000E+00 -0.00000000000E+00 -0.60864998872E+03  0.60864998872E+03  0.00000000000E+00 0.  1.
         23    2    1    2    0    0 -0.42151518948E+02  0.19227455490E+01  0.79950460275E+02  0.12959642566E+03  0.92858548049E+02 0.  0.
         23    2    1    2    0    0  0.42151518948E+02 -0.19227455490E+01 -0.57940056511E+03  0.58825344695E+03  0.92502191837E+02 0.  0.
          5    1    3    3  502    0 -0.66151258562E+01 -0.43300648548E+02  0.38989178794E+02  0.58829857367E+02  0.47000000000E+01 0. -1.
         -5    1    3    3    0  502 -0.35536393092E+02  0.45223394097E+02  0.40961281481E+02  0.70766568295E+02  0.47000000000E+01 0.  1.
          5    1    4    4  503    0 -0.18955406591E+02 -0.27169610333E+02 -0.25189450555E+03  0.25410711736E+03  0.47000000000E+01 0. -1.
         -5    1    4    4    0  503  0.61106925540E+02  0.25246864784E+02 -0.32750605956E+03  0.33414632959E+03  0.47000000000E+01 0.  1.
<mgrwt>
<rscale>  0 0.10191469E+03</rscale>
<asrwt>0</asrwt>
<pdfrwt beam="1">  1        1 0.16799982E-01 0.10199587E+03</pdfrwt>
<pdfrwt beam="2">  1       -1 0.93638462E-01 0.10199587E+03</pdfrwt>
<totfact> 0.37634574E+02</totfact>
</mgrwt>
</event>
<event>
 8    1  0.3177960E-004  0.9305646E+02  0.7546771E-02  0.1295718E+00
          1   -1    0    0  501    0  0.00000000000E+00  0.00000000000E+00  0.16711307993E+03  0.16711307993E+03  0.00000000000E+00 0. -1.
         -1   -1    0    0    0  501 -0.00000000000E+00 -0.00000000000E+00 -0.53569022359E+02  0.53569022359E+02  0.00000000000E+00 0.  1.
         23    2    1    2    0    0  0.20125309966E+02  0.79676133313E+01  0.77228569608E+02  0.12079056601E+03  0.90319421549E+02 0.  0.
         23    2    1    2    0    0 -0.20125309966E+02 -0.79676133313E+01  0.36315487960E+02  0.99891536280E+02  0.90504107040E+02 0.  0.
          5    1    3    3  502    0  0.45548375986E+02  0.32974063326E+02  0.53063584888E+02  0.77458230347E+02  0.47000000000E+01 0. -1.
         -5    1    3    3    0  502 -0.25423066020E+02 -0.25006449995E+02  0.24164984720E+02  0.43332335660E+02  0.47000000000E+01 0.  1.
          5    1    4    4  503    0  0.33168515510E+02 -0.18149349677E+02  0.20047871757E+02  0.43052949688E+02  0.47000000000E+01 0. -1.
         -5    1    4    4    0  503 -0.53293825476E+02  0.10181736346E+02  0.16267616204E+02  0.56838586593E+02  0.47000000000E+01 0.  1.
<mgrwt>
<rscale>  0 0.93011523E+02</rscale>
<asrwt>0</asrwt>
<pdfrwt beam="1">  1        1 0.25709704E-01 0.93056458E+02</pdfrwt>
<pdfrwt beam="2">  1       -1 0.82413882E-02 0.93056458E+02</pdfrwt>
<totfact> 0.13698655E+04</totfact>
</mgrwt>
</event>
<event>
 8    1  0.3177960E-004  0.1039989E+03  0.7546771E-02  0.1272131E+00
         -2   -1    0    0    0  501 -0.00000000000E+00  0.00000000000E+00  0.14213506284E+03  0.14213506284E+03  0.00000000000E+00 0.  1.
          2   -1    0    0  501    0  0.00000000000E+00 -0.00000000000E+00 -0.43746939557E+03  0.43746939557E+03  0.00000000000E+00 0. -1.
         23    2    1    2    0    0  0.50615192802E+02  0.20047634839E+01  0.11574816202E+03  0.15557073940E+03  0.90767291065E+02 0.  0.
         23    2    1    2    0    0 -0.50615192802E+02 -0.20047634839E+01 -0.41108249474E+03  0.42403371901E+03  0.90828743003E+02 0.  0.
          5    1    3    3  502    0  0.21446439627E+02  0.10507126839E+02 -0.98551437391E+01  0.26259538176E+02  0.47000000000E+01 0. -1.
         -5    1    3    3    0  502  0.29168753174E+02 -0.85023633547E+01  0.12560330576E+03  0.12931120122E+03  0.47000000000E+01 0.  1.
          5    1    4    4  503    0 -0.16712812718E+02  0.41278290366E+02 -0.24399631402E+03  0.24807157560E+03  0.47000000000E+01 0. -1.
         -5    1    4    4    0  503 -0.33902380083E+02 -0.43283053850E+02 -0.16708618072E+03  0.17596214341E+03  0.47000000000E+01 0.  1.
<mgrwt>
<rscale>  0 0.10398551E+03</rscale>
<asrwt>0</asrwt>
<pdfrwt beam="1">  1        2 0.67302982E-01 0.10399893E+03</pdfrwt>
<pdfrwt beam="2">  1       -2 0.21866933E-01 0.10399893E+03</pdfrwt>
<totfact> 0.12794082E+03</totfact>
</mgrwt>
</event>
<event>
 8    1  0.3177960E-004  0.1020182E+03  0.7546771E-02  0.1277227E+00
         -1   -1    0    0    0  501 -0.00000000000E+00  0.00000000000E+00  0.30492794190E+02  0.30492794190E+02  0.00000000000E+00 0.  1.
          1   -1    0    0  501    0  0.00000000000E+00 -0.00000000000E+00 -0.43889955166E+03  0.43889955166E+03  0.00000000000E+00 0. -1.
         23    2    1    2    0    0 -0.32185104523E+02  0.28510198906E+02 -0.31720328026E+03  0.33255012701E+03  0.90127429621E+02 0.  0.
         23    2    1    2    0    0  0.32185104523E+02 -0.28510198906E+02 -0.91203477205E+02  0.13684221884E+03  0.92514897218E+02 0.  0.
          5    1    4    4  502    0  0.22468983980E+02 -0.61099698753E+02 -0.73215579531E+02  0.98084858745E+02  0.47000000000E+01 0. -1.
         -5    1    3    3    0  503 -0.55661667943E+02  0.44063756648E+02 -0.21763379505E+03  0.22896810842E+03  0.47000000000E+01 0.  1.
          5    1    3    3  503    0  0.23476563420E+02 -0.15553557742E+02 -0.99569485217E+02  0.10358201859E+03  0.47000000000E+01 0. -1.
         -5    1    4    4    0  502  0.97161205424E+01  0.32589499847E+02 -0.17987897674E+02  0.38757360093E+02  0.47000000000E+01 0.  1.
<mgrwt>
<rscale>  0 0.10147389E+03</rscale>
<asrwt>0</asrwt>
<pdfrwt beam="1">  1        1 0.67523003E-01 0.10201823E+03</pdfrwt>
<pdfrwt beam="2">  1       -1 0.46911995E-02 0.10201823E+03</pdfrwt>
<totfact> 0.96751108E+03</totfact>
</mgrwt>
</event>
<event>
 8    1  0.3177960E-004  0.9504038E+02  0.7546771E-02  0.1291825E+00
         -2   -1    0    0    0  501 -0.00000000000E+00  0.00000000000E+00  0.15331355036E+02  0.15331355036E+02  0.00000000000E+00 0.  1.
          2   -1    0    0  501    0  0.00000000000E+00 -0.00000000000E+00 -0.76311608583E+03  0.76311608583E+03  0.00000000000E+00 0. -1.
         23    2    1    2    0    0 -0.12882684982E+02  0.15481120198E+02 -0.18577504190E+03  0.20867448481E+03  0.92881891468E+02 0.  0.
         23    2    1    2    0    0  0.12882684982E+02 -0.15481120198E+02 -0.56200968890E+03  0.56977295606E+03  0.91546176255E+02 0.  0.
          5    1    4    4  502    0 -0.90803772709E+01 -0.50015899275E+02 -0.36037430497E+03  0.36397221476E+03  0.47000000000E+01 0. -1.
         -5    1    4    4    0  502  0.21963062252E+02  0.34534779077E+02 -0.20163538393E+03  0.20580074130E+03  0.47000000000E+01 0.  1.
          5    1    3    3  503    0 -0.31792346917E+02 -0.28264438061E+02 -0.56970436545E+02  0.71255543093E+02  0.47000000000E+01 0. -1.
         -5    1    3    3    0  503  0.18909661935E+02  0.43745558259E+02 -0.12880460535E+03  0.13741894172E+03  0.47000000000E+01 0.  1.
<mgrwt>
<rscale>  0 0.94712452E+02</rscale>
<asrwt>0</asrwt>
<pdfrwt beam="1">  1        2 0.11740250E+00 0.95040383E+02</pdfrwt>
<pdfrwt beam="2">  1       -2 0.23586695E-02 0.95040383E+02</pdfrwt>
<totfact> 0.20952082E+04</totfact>
</mgrwt>
</event>
<event>
 8    1  0.3177960E-004  0.9468334E+02  0.7546771E-02  0.1291915E+00
          1   -1    0    0  501    0  0.00000000000E+00  0.00000000000E+00  0.23149361922E+02  0.23149361922E+02  0.00000000000E+00 0. -1.
         -1   -1    0    0    0  501 -0.00000000000E+00 -0.00000000000E+00 -0.43669564935E+03  0.43669564935E+03  0.00000000000E+00 0.  1.
         23    2    1    2    0    0 -0.27711063283E+02 -0.79378761915E+01 -0.12932320281E+03  0.16027921091E+03  0.90188811709E+02 0.  0.
         23    2    1    2    0    0  0.27711063283E+02  0.79378761915E+01 -0.28422308461E+03  0.29956580036E+03  0.90144295502E+02 0.  0.
          5    1    4    4  502    0 -0.23449821832E+02 -0.24212263608E+02 -0.10308487135E+03  0.10855739751E+03  0.47000000000E+01 0. -1.
         -5    1    4    4    0  502  0.51160885115E+02  0.32150139800E+02 -0.18113821327E+03  0.19100840285E+03  0.47000000000E+01 0.  1.
          5    1    3    3  503    0 -0.35119885789E+02 -0.27074323758E+02 -0.19869180338E+02  0.48819050708E+02  0.47000000000E+01 0. -1.
         -5    1    3    3    0  503  0.74088225052E+01  0.19136447566E+02 -0.10945402248E+03  0.11146016020E+03  0.47000000000E+01 0.  1.
<mgrwt>
<rscale>  0 0.94672737E+02</rscale>
<asrwt>0</asrwt>
<pdfrwt beam="1">  1        1 0.35614406E-02 0.94683339E+02</pdfrwt>
<pdfrwt beam="2">  1       -1 0.67183939E-01 0.94683339E+02</pdfrwt>
<totfact> 0.57587339E+03</totfact>
</mgrwt>
</event>
<event>
 8    1  0.3177960E-004  0.1246276E+03  0.7546771E-02  0.1236052E+00
          1   -1    0    0  501    0  0.00000000000E+00  0.00000000000E+00  0.11663268593E+04  0.11663268593E+04  0.00000000000E+00 0. -1.
         -1   -1    0    0    0  501 -0.00000000000E+00 -0.00000000000E+00 -0.16205597269E+02  0.16205597269E+02  0.00000000000E+00 0.  1.
         23    2    1    2    0    0 -0.20377001991E+00  0.84338161725E+02  0.83123385305E+03  0.84052468416E+03  0.91755431386E+02 0.  0.
         23    2    1    2    0    0  0.20377001991E+00 -0.84338161725E+02  0.31888740902E+03  0.34200777245E+03  0.90372394759E+02 0.  0.
          5    1    3    3  502    0  0.39333216547E+02  0.16449276203E+02  0.21084738646E+03  0.21516596151E+03  0.47000000000E+01 0. -1.
         -5    1    3    3    0  502 -0.39536986567E+02  0.67888885521E+02  0.62038646658E+03  0.62535872266E+03  0.47000000000E+01 0.  1.
          5    1    4    4  503    0 -0.33945067814E+01 -0.54925911006E+02  0.30312802922E+03  0.30811859807E+03  0.47000000000E+01 0. -1.
         -5    1    4    4    0  503  0.35982768013E+01 -0.29412250719E+02  0.15759379803E+02  0.33889174379E+02  0.47000000000E+01 0.  1.
<mgrwt>
<rscale>  0 0.12437310E+03</rscale>
<asrwt>0</asrwt>
<pdfrwt beam="1">  1        1 0.17943484E+00 0.12462755E+03</pdfrwt>
<pdfrwt beam="2">  1       -1 0.24931697E-02 0.12462755E+03</pdfrwt>
<totfact> 0.58341763E+03</totfact>
</mgrwt>
</event>
<event>
 8    1  0.3177960E-004  0.1368257E+03  0.7546771E-02  0.1218164E+00
          1   -1    0    0  501    0  0.00000000000E+00  0.00000000000E+00  0.87984897013E+03  0.87984897013E+03  0.00000000000E+00 0. -1.
         -1   -1    0    0    0  501 -0.00000000000E+00 -0.00000000000E+00 -0.50694452413E+02  0.50694452413E+02  0.00000000000E+00 0.  1.
         23    2    1    2    0    0  0.71494783071E+02  0.69939133450E+02  0.57918097147E+02  0.14726384915E+03  0.91264170923E+02 0.  0.
         23    2    1    2    0    0 -0.71494783071E+02 -0.69939133450E+02  0.77123642057E+03  0.78327957339E+03  0.93371769255E+02 0.  0.
          5    1    4    4  502    0 -0.83446083518E+02 -0.46181067198E+02  0.70946811775E+03  0.71586523866E+03  0.47000000000E+01 0. -1.
         -5    1    4    4    0  502  0.11951300448E+02 -0.23758066252E+02  0.61768302819E+02  0.67414334733E+02  0.47000000000E+01 0.  1.
          5    1    3    3  503    0  0.34756580704E+02  0.20448365277E+02  0.73094841659E+02  0.83612806567E+02  0.47000000000E+01 0. -1.
         -5    1    3    3    0  503  0.36738202367E+02  0.49490768173E+02 -0.15176744512E+02  0.63651042580E+02  0.47000000000E+01 0.  1.
<mgrwt>
<rscale>  0 0.13646692E+03</rscale>
<asrwt>0</asrwt>
<pdfrwt beam="1">  1        1 0.13536137E+00 0.13682571E+03</pdfrwt>
<pdfrwt beam="2">  1       -1 0.77991472E-02 0.13682571E+03</pdfrwt>
<totfact> 0.17607295E+03</totfact>
</mgrwt>
</event>
<event>
 8    1  0.3177960E-004  0.1043047E+03  0.7546771E-02  0.1272299E+00
          3   -1    0    0  501    0  0.00000000000E+00  0.00000000000E+00  0.61702599623E+03  0.61702599623E+03  0.00000000000E+00 0. -1.
         -3   -1    0    0    0  501 -0.00000000000E+00 -0.00000000000E+00 -0.17486553865E+02  0.17486553865E+02  0.00000000000E+00 0.  1.
         23    2    1    2    0    0  0.58443175837E+00  0.49233532695E+02  0.27533007627E+03  0.29442507067E+03  0.91952101859E+02 0.  0.
         23    2    1    2    0    0 -0.58443175837E+00 -0.49233532695E+02  0.32420936609E+03  0.34008747943E+03  0.90130451555E+02 0.  0.
          5    1    3    3  502    0  0.32200729599E+02  0.67951249529E+01  0.19694642461E+03  0.19973243321E+03  0.47000000000E+01 0.  1.
         -5    1    3    3    0  502 -0.31616297840E+02  0.42438407742E+02  0.78383651662E+02  0.94692637458E+02  0.47000000000E+01 0. -1.
          5    1    4    4  503    0 -0.44143608251E+02 -0.29608897020E+02  0.14316023846E+03  0.15278183402E+03  0.47000000000E+01 0. -1.
         -5    1    4    4    0  503  0.43559176493E+02 -0.19624635675E+02  0.18104912764E+03  0.18730564540E+03  0.47000000000E+01 0.  1.
<mgrwt>
<rscale>  0 0.10390180E+03</rscale>
<asrwt>0</asrwt>
<pdfrwt beam="1">  1        3 0.94927060E-01 0.10430470E+03</pdfrwt>
<pdfrwt beam="2">  1       -3 0.26902395E-02 0.10430470E+03</pdfrwt>
<totfact> 0.13547173E+03</totfact>
</mgrwt>
</event>
<event>
 8    1  0.3177960E-004  0.1079701E+03  0.7546771E-02  0.1265409E+00
          2   -1    0    0  501    0  0.00000000000E+00  0.00000000000E+00  0.63115198096E+03  0.63115198096E+03  0.00000000000E+00 0. -1.
         -2   -1    0    0    0  501 -0.00000000000E+00 -0.00000000000E+00 -0.18134402195E+02  0.18134402195E+02  0.00000000000E+00 0.  1.
         23    2    1    2    0    0 -0.22947806466E+02 -0.45137581888E+02  0.32294574684E+03  0.34051651741E+03  0.95360055089E+02 0.  0.
         23    2    1    2    0    0  0.22947806466E+02  0.45137581888E+02  0.29007183192E+03  0.30876986574E+03  0.92914795351E+02 0.  0.
          5    1    3    3  502    0 -0.14469694344E+02  0.21001258348E+02  0.18948512833E+03  0.19125148043E+03  0.47000000000E+01 0. -1.
         -5    1    4    4    0  503  0.51686951928E+02 -0.22602635135E+00  0.14437562653E+03  0.15342100125E+03  0.47000000000E+01 0.  1.
          5    1    4    4  503    0 -0.28739145462E+02  0.45363608239E+02  0.14569620539E+03  0.15534886449E+03  0.47000000000E+01 0. -1.
         -5    1    3    3    0  502 -0.84781121223E+01 -0.66138840236E+02  0.13346061851E+03  0.14926503698E+03  0.47000000000E+01 0.  1.
<mgrwt>
<rscale>  0 0.10742766E+03</rscale>
<asrwt>0</asrwt>
<pdfrwt beam="1">  1        2 0.97100288E-01 0.10797010E+03</pdfrwt>
<pdfrwt beam="2">  1       -2 0.27899085E-02 0.10797010E+03</pdfrwt>
<totfact> 0.20747966E+04</totfact>
</mgrwt>
</event>
<event>
 8    1  0.3177960E-004  0.9909158E+02  0.7546771E-02  0.1282841E+00
          2   -1    0    0  501    0  0.00000000000E+00  0.00000000000E+00  0.38609540762E+02  0.38609540762E+02  0.00000000000E+00 0. -1.
         -2   -1    0    0    0  501 -0.00000000000E+00 -0.00000000000E+00 -0.26186729849E+03  0.26186729849E+03  0.00000000000E+00 0.  1.
         23    2    1    2    0    0 -0.37117375560E+02 -0.11427912463E+02 -0.82139181983E+02  0.12870892496E+03  0.91163838200E+02 0.  0.
         23    2    1    2    0    0  0.37117375560E+02  0.11427912463E+02 -0.14111857575E+03  0.17176791430E+03  0.89896981091E+02 0.  0.
          5    1    3    3  502    0 -0.67091612164E+02 -0.13542621382E+02 -0.54631131875E+02  0.87700271304E+02  0.47000000000E+01 0. -1.
         -5    1    3    3    0  502  0.29974236605E+02  0.21147089198E+01 -0.27508050108E+02  0.41008653655E+02  0.47000000000E+01 0.  1.
          5    1    4    4  503    0  0.14087305503E+02  0.48310567802E+02 -0.98453925112E+02  0.11066900428E+03  0.47000000000E+01 0. -1.
         -5    1    4    4    0  503  0.23030070057E+02 -0.36882655340E+02 -0.42664650636E+02  0.61098910020E+02  0.47000000000E+01 0.  1.
<mgrwt>
<rscale>  0 0.98799232E+02</rscale>
<asrwt>0</asrwt>
<pdfrwt beam="1">  1        2 0.59399294E-02 0.99091585E+02</pdfrwt>
<pdfrwt beam="2">  1       -2 0.40287276E-01 0.99091585E+02</pdfrwt>
<totfact> 0.67527471E+03</totfact>
</mgrwt>
</event>
<event>
 8    1  0.3177960E-004  0.1061969E+03  0.7546771E-02  0.1268810E+00
         -2   -1    0    0    0  501 -0.00000000000E+00  0.00000000000E+00  0.33634300444E+03  0.33634300444E+03  0.00000000000E+00 0.  1.
          2   -1    0    0  501    0  0.00000000000E+00 -0.00000000000E+00 -0.17165044762E+03  0.17165044762E+03  0.00000000000E+00 0. -1.
         23    2    1    2    0    0  0.44145890624E+02 -0.29024929068E+02 -0.14587994234E+03  0.18044041288E+03  0.92122086699E+02 0.  0.
         23    2    1    2    0    0 -0.44145890624E+02  0.29024929068E+02  0.31057249916E+03  0.32755303918E+03  0.89690635395E+02 0.  0.
          5    1    3    3  502    0 -0.87531436016E+01  0.27099191357E+02 -0.36881838182E+02  0.46833147266E+02  0.47000000000E+01 0. -1.
         -5    1    3    3    0  502  0.52899034226E+02 -0.56124120425E+02 -0.10899810416E+03  0.13360726562E+03  0.47000000000E+01 0.  1.
          5    1    4    4  503    0 -0.61178832667E+02  0.48151991287E+02  0.23749335006E+03  0.24997328888E+03  0.47000000000E+01 0. -1.
         -5    1    4    4    0  503  0.17032942043E+02 -0.19127062219E+02  0.73079149103E+02  0.77579750305E+02  0.47000000000E+01 0.  1.
<mgrwt>
<rscale>  0 0.10566743E+03</rscale>
<asrwt>0</asrwt>
<pdfrwt beam="1">  1        2 0.26407761E-01 0.10619692E+03</pdfrwt>
<pdfrwt beam="2">  1       -2 0.51745078E-01 0.10619692E+03</pdfrwt>
<totfact> 0.71409861E+02</totfact>
</mgrwt>
</event>
<event>
 8    1  0.3177960E-004  0.1817757E+03  0.7546771E-02  0.1166194E+00
         -1   -1    0    0    0  501 -0.00000000000E+00  0.00000000000E+00  0.25256121830E+03  0.25256121830E+03  0.00000000000E+00 0.  1.
          1   -1    0    0  501    0  0.00000000000E+00 -0.00000000000E+00 -0.22854500420E+03  0.22854500420E+03  0.00000000000E+00 0. -1.
         23    2    1    2    0    0  0.10523820485E+01 -0.15710880888E+03  0.16954649265E+03  0.24857278793E+03  0.91422822062E+02 0.  0.
         23    2    1    2    0    0 -0.10523820485E+01  0.15710880888E+03 -0.14553027856E+03  0.23253343457E+03  0.90600501547E+02 0.  0.
          5    1    3    3  502    0 -0.26311636401E+02 -0.38348992441E+02  0.10089383699E+02  0.47820843727E+02  0.47000000000E+01 0.  1.
         -5    1    4    4    0  503 -0.40405365797E+02  0.64179283951E+02 -0.88030476730E+02  0.11628855880E+03  0.47000000000E+01 0.  1.
          5    1    4    4  503    0  0.39352983749E+02  0.92929524932E+02 -0.57499801826E+02  0.11624487578E+03  0.47000000000E+01 0. -1.
         -5    1    3    3    0  502  0.27364018449E+02 -0.11875981644E+03  0.15945710895E+03  0.20075194421E+03  0.47000000000E+01 0.  1.
<mgrwt>
<rscale>  0 0.18167260E+03</rscale>
<asrwt>0</asrwt>
<pdfrwt beam="1">  1        1 0.35160770E-01 0.18177573E+03</pdfrwt>
<pdfrwt beam="2">  1       -1 0.38855572E-01 0.18177573E+03</pdfrwt>
<totfact> 0.80432159E+02</totfact>
</mgrwt>
</event>
<event>
 8    1  0.3177960E-004  0.1013380E+03  0.7546771E-02  0.1281042E+00
         -2   -1    0    0    0  501 -0.00000000000E+00  0.00000000000E+00  0.16616487310E+02  0.16616487310E+02  0.00000000000E+00 0.  1.
          2   -1    0    0  501    0  0.00000000000E+00 -0.00000000000E+00 -0.87966295881E+03  0.87966295881E+03  0.00000000000E+00 0. -1.
         23    2    1    2    0    0  0.13987899657E+02  0.14158969943E+02 -0.70322160440E+03  0.71048576215E+03  0.99364256970E+02 0.  0.
         23    2    1    2    0    0 -0.13987899657E+02 -0.14158969943E+02 -0.15982486711E+03  0.18579368397E+03  0.92623793332E+02 0.  0.
          5    1    4    4  502    0  0.37012724566E+02 -0.15307812146E+02 -0.47316393576E+02  0.62170748697E+02  0.47000000000E+01 0. -1.
         -5    1    3    3    0  503 -0.39604492195E+02 -0.11562127791E+02 -0.30988959868E+03  0.31265932254E+03  0.47000000000E+01 0.  1.
          5    1    3    3  503    0  0.53592391851E+02  0.25721097733E+02 -0.39333200572E+03  0.39782643961E+03  0.47000000000E+01 0. -1.
         -5    1    4    4    0  502 -0.51000624223E+02  0.11488422033E+01 -0.11250847353E+03  0.12362293527E+03  0.47000000000E+01 0.  1.
<mgrwt>
<rscale>  0 0.99646132E+02</rscale>
<asrwt>0</asrwt>
<pdfrwt beam="1">  1        2 0.13533278E+00 0.10133802E+03</pdfrwt>
<pdfrwt beam="2">  1       -2 0.25563823E-02 0.10133802E+03</pdfrwt>
<totfact> 0.15723565E+04</totfact>
</mgrwt>
</event>
<event>
 8    1  0.3177960E-004  0.9430263E+02  0.7546771E-02  0.1292946E+00
          2   -1    0    0  501    0  0.00000000000E+00  0.00000000000E+00  0.92412830688E+02  0.92412830688E+02  0.00000000000E+00 0. -1.
         -2   -1    0    0    0  501 -0.00000000000E+00 -0.00000000000E+00 -0.10899845386E+03  0.10899845386E+03  0.00000000000E+00 0.  1.
         23    2    1    2    0    0 -0.23035782555E+02 -0.17927522194E+02  0.26620255368E+02  0.97987877998E+02  0.89671304824E+02 0.  0.
         23    2    1    2    0    0  0.23035782555E+02  0.17927522194E+02 -0.43205878535E+02  0.10342340655E+03  0.89317466105E+02 0.  0.
          5    1    4    4  502    0  0.56096971617E+02  0.17541718749E+02 -0.18216684573E+02  0.61713205378E+02  0.47000000000E+01 0. -1.
         -5    1    3    3    0  503 -0.44873499911E+02  0.73055319808E+01 -0.11475980763E+02  0.47125257837E+02  0.47000000000E+01 0. -1.
          5    1    3    3  503    0  0.21837717355E+02 -0.25233054175E+02  0.38096236131E+02  0.50862620161E+02  0.47000000000E+01 0.  1.
         -5    1    4    4    0  502 -0.33061189062E+02  0.38580344547E+00 -0.24989193962E+02  0.41710201167E+02  0.47000000000E+01 0.  1.
<mgrwt>
<rscale>  0 0.94218419E+02</rscale>
<asrwt>0</asrwt>
<pdfrwt beam="1">  1        2 0.14217359E-01 0.94302631E+02</pdfrwt>
<pdfrwt beam="2">  1       -2 0.16768993E-01 0.94302631E+02</pdfrwt>
<totfact> 0.10705205E+04</totfact>
</mgrwt>
</event>
<event>
 8    1  0.3177960E-004  0.1182885E+03  0.7546771E-02  0.1246283E+00
         -1   -1    0    0    0  501 -0.00000000000E+00  0.00000000000E+00  0.40414855869E+03  0.40414855869E+03  0.00000000000E+00 0.  1.
          1   -1    0    0  501    0  0.00000000000E+00 -0.00000000000E+00 -0.45087807556E+02  0.45087807556E+02  0.00000000000E+00 0. -1.
         23    2    1    2    0    0  0.54824918377E+02  0.45039338628E+02  0.28848368411E+03  0.31149278280E+03  0.93651503144E+02 0.  0.
         23    2    1    2    0    0 -0.54824918377E+02 -0.45039338628E+02  0.70577067023E+02  0.13774358344E+03  0.94645965001E+02 0.  0.
          5    1    3    3  502    0  0.24016843831E+02  0.45770874541E+02  0.53826616356E+02  0.74774169151E+02  0.47000000000E+01 0. -1.
         -5    1    4    4    0  503 -0.24946695457E+02 -0.72330876986E+02  0.37871538520E+02  0.85501092447E+02  0.47000000000E+01 0.  1.
          5    1    4    4  503    0 -0.29878222920E+02  0.27291538358E+02  0.32705528503E+02  0.52242490996E+02  0.47000000000E+01 0. -1.
         -5    1    3    3    0  502  0.30808074546E+02 -0.73153591285E+00  0.23465706776E+03  0.23671861365E+03  0.47000000000E+01 0.  1.
<mgrwt>
<rscale>  0 0.11808947E+03</rscale>
<asrwt>0</asrwt>
<pdfrwt beam="1">  1        1 0.69365861E-02 0.11828851E+03</pdfrwt>
<pdfrwt beam="2">  1       -1 0.62176699E-01 0.11828851E+03</pdfrwt>
<totfact> 0.27481556E+03</totfact>
</mgrwt>
</event>
<event>
 8    1  0.3177960E-004  0.1067293E+03  0.7546771E-02  0.1267823E+00
          1   -1    0    0  501    0  0.00000000000E+00  0.00000000000E+00  0.20450937432E+03  0.20450937432E+03  0.00000000000E+00 0. -1.
         -1   -1    0    0    0  501 -0.00000000000E+00 -0.00000000000E+00 -0.15100580676E+03  0.15100580676E+03  0.00000000000E+00 0.  1.
         23    2    1    2    0    0  0.49757922455E+02 -0.19255363303E+02 -0.11540910288E+03  0.15570870678E+03  0.89885040332E+02 0.  0.
         23    2    1    2    0    0 -0.49757922455E+02  0.19255363303E+02  0.16891267044E+03  0.19980647431E+03  0.92436557036E+02 0.  0.
          5    1    3    3  502    0  0.34758876835E+02  0.32364504722E+02 -0.72354635665E+02  0.86677124935E+02  0.47000000000E+01 0. -1.
         -5    1    4    4    0  503 -0.11923398678E+02  0.41928314683E+02  0.27866768352E+02  0.51949954635E+02  0.47000000000E+01 0.  1.
          5    1    4    4  503    0 -0.37834523777E+02 -0.22672951379E+02  0.14104590209E+03  0.14785651967E+03  0.47000000000E+01 0. -1.
         -5    1    3    3    0  502  0.14999045619E+02 -0.51619868025E+02 -0.43054467214E+02  0.69031581841E+02  0.47000000000E+01 0.  1.
<mgrwt>
<rscale>  0 0.10617445E+03</rscale>
<asrwt>0</asrwt>
<pdfrwt beam="1">  1        1 0.31462981E-01 0.10672927E+03</pdfrwt>
<pdfrwt beam="2">  1       -1 0.23231663E-01 0.10672927E+03</pdfrwt>
<totfact> 0.21645476E+03</totfact>
</mgrwt>
</event>
<event>
 8    1  0.3177960E-004  0.1014166E+03  0.7546771E-02  0.1278701E+00
         -2   -1    0    0    0  501 -0.00000000000E+00  0.00000000000E+00  0.34443959843E+03  0.34443959843E+03  0.00000000000E+00 0.  1.
          2   -1    0    0  501    0  0.00000000000E+00 -0.00000000000E+00 -0.33879805075E+02  0.33879805075E+02  0.00000000000E+00 0. -1.
         23    2    1    2    0    0  0.25967191751E+02 -0.27983569530E+02  0.85981094895E+02  0.13295895839E+03  0.93957228175E+02 0.  0.
         23    2    1    2    0    0 -0.25967191751E+02  0.27983569530E+02  0.22457869846E+03  0.24536044511E+03  0.91152515119E+02 0.  0.
          5    1    3    3  502    0 -0.34138997307E+02 -0.21849662294E+02  0.35590719832E+02  0.54144881730E+02  0.47000000000E+01 0. -1.
         -5    1    4    4    0  503 -0.16601731840E+02  0.59965041610E+02  0.11643079479E+03  0.13209709948E+03  0.47000000000E+01 0.  1.
          5    1    4    4  503    0 -0.93654599109E+01 -0.31981472080E+02  0.10814790367E+03  0.11326334563E+03  0.47000000000E+01 0. -1.
         -5    1    3    3    0  502  0.60106189058E+02 -0.61339072365E+01  0.50390375063E+02  0.78814076661E+02  0.47000000000E+01 0.  1.
<mgrwt>
<rscale>  0 0.10076214E+03</rscale>
<asrwt>0</asrwt>
<pdfrwt beam="1">  1        2 0.52122779E-02 0.10141665E+03</pdfrwt>
<pdfrwt beam="2">  1       -2 0.52990705E-01 0.10141665E+03</pdfrwt>
<totfact> 0.47084360E+03</totfact>
</mgrwt>
</event>
<event>
 8    1  0.3177960E-004  0.9832032E+02  0.7546771E-02  0.1284859E+00
          1   -1    0    0  501    0  0.00000000000E+00  0.00000000000E+00  0.35730523690E+02  0.35730523690E+02  0.00000000000E+00 0. -1.
         -1   -1    0    0    0  501 -0.00000000000E+00 -0.00000000000E+00 -0.26776938086E+03  0.26776938086E+03  0.00000000000E+00 0.  1.
         23    2    1    2    0    0 -0.20055376985E+02 -0.24489273292E+02 -0.12874678631E+03  0.16089507630E+03  0.91156721869E+02 0.  0.
         23    2    1    2    0    0  0.20055376985E+02  0.24489273292E+02 -0.10329207087E+03  0.14260482825E+03  0.93085672817E+02 0.  0.
          5    1    3    3  502    0 -0.36467415167E+02 -0.70387109413E+01 -0.87572456931E+01  0.38447303843E+02  0.47000000000E+01 0. -1.
         -5    1    4    4    0  503 -0.28105196084E+02  0.36859601070E+02 -0.63431945701E+02  0.78703455917E+02  0.47000000000E+01 0.  1.
          5    1    4    4  503    0  0.48160573069E+02 -0.12370327777E+02 -0.39860125164E+02  0.63901372331E+02  0.47000000000E+01 0. -1.
         -5    1    3    3    0  502  0.16412038182E+02 -0.17450562351E+02 -0.11998954061E+03  0.12244777246E+03  0.47000000000E+01 0.  1.
<mgrwt>
<rscale>  0 0.97861048E+02</rscale>
<asrwt>0</asrwt>
<pdfrwt beam="1">  1        1 0.54970034E-02 0.98320319E+02</pdfrwt>
<pdfrwt beam="2">  1       -1 0.41195291E-01 0.98320319E+02</pdfrwt>
<totfact> 0.78526702E+03</totfact>
</mgrwt>
</event>
<event>
 8    1  0.3177960E-004  0.1679293E+03  0.7546771E-02  0.1180173E+00
          1   -1    0    0  501    0  0.00000000000E+00  0.00000000000E+00  0.67496418186E+03  0.67496418186E+03  0.00000000000E+00 0. -1.
         -1   -1    0    0    0  501 -0.00000000000E+00 -0.00000000000E+00 -0.63393256232E+02  0.63393256232E+02  0.00000000000E+00 0.  1.
         23    2    1    2    0    0  0.13605072042E+03 -0.37495947201E+02  0.52170292929E+03  0.54789348141E+03  0.89986532070E+02 0.  0.
         23    2    1    2    0    0 -0.13605072042E+03  0.37495947201E+02  0.89867996330E+02  0.19046395668E+03  0.91019324577E+02 0.  0.
          5    1    3    3  502    0  0.36680590828E+02  0.27911746688E+02  0.18671512863E+03  0.19237765101E+03  0.47000000000E+01 0.  1.
         -5    1    4    4    0  503 -0.68134427626E+02 -0.23191910485E+02  0.17973531033E+02  0.74332380277E+02  0.47000000000E+01 0.  1.
          5    1    4    4  503    0 -0.67916292792E+02  0.60687857686E+02  0.71894465297E+02  0.11613157640E+03  0.47000000000E+01 0. -1.
         -5    1    3    3    0  502  0.99370129590E+02 -0.65407693889E+02  0.33498780066E+03  0.35551583040E+03  0.47000000000E+01 0. -1.
<mgrwt>
<rscale>  0 0.16778978E+03</rscale>
<asrwt>0</asrwt>
<pdfrwt beam="1">  1        1 0.10384064E+00 0.16792934E+03</pdfrwt>
<pdfrwt beam="2">  1       -1 0.97528091E-02 0.16792934E+03</pdfrwt>
<totfact> 0.18685966E+03</totfact>
</mgrwt>
</event>
<event>
 8    1  0.3177960E-004  0.1155787E+03  0.7546771E-02  0.1252338E+00
         -1   -1    0    0    0  501 -0.00000000000E+00  0.00000000000E+00  0.11255562919E+03  0.11255562919E+03  0.00000000000E+00 0.  1.
          1   -1    0    0  501    0  0.00000000000E+00 -0.00000000000E+00 -0.13457429545E+03  0.13457429545E+03  0.00000000000E+00 0. -1.
         23    2    1    2    0    0 -0.59150024912E+01 -0.60247986695E+02  0.36732514693E+02  0.11747603787E+03  0.93736517335E+02 0.  0.
         23    2    1    2    0    0  0.59150024912E+01  0.60247986695E+02 -0.58751180954E+02  0.12965388678E+03  0.98456192993E+02 0.  0.
          5    1    4    4  502    0  0.51209622063E+02  0.35239617702E+02 -0.22384958688E+02  0.66237696390E+02  0.47000000000E+01 0. -1.
         -5    1    4    4    0  502 -0.45294619571E+02  0.25008368993E+02 -0.36366222266E+02  0.63416190391E+02  0.47000000000E+01 0.  1.
          5    1    3    3  503    0 -0.33539689963E+02 -0.27676595364E+02 -0.18508408666E+02  0.47492693387E+02  0.47000000000E+01 0. -1.
         -5    1    3    3    0  503  0.27624687472E+02 -0.32571391330E+02  0.55240923359E+02  0.69983344481E+02  0.47000000000E+01 0.  1.
<mgrwt>
<rscale>  0 0.11456720E+03</rscale>
<asrwt>0</asrwt>
<pdfrwt beam="1">  1        1 0.20703738E-01 0.11557867E+03</pdfrwt>
<pdfrwt beam="2">  1       -1 0.17316251E-01 0.11557867E+03</pdfrwt>
<totfact> 0.58587987E+03</totfact>
</mgrwt>
</event>
<event>
 8    1  0.5115105E-004  0.9281514E+02  0.7546771E-02  0.1296768E+00
          2   -1    0    0  501    0  0.00000000000E+00  0.00000000000E+00  0.12628207544E+03  0.12628207544E+03  0.00000000000E+00 0. -1.
         -2   -1    0    0    0  501 -0.00000000000E+00 -0.00000000000E+00 -0.16554525968E+03  0.16554525968E+03  0.00000000000E+00 0.  1.
         23    2    1    2    0    0  0.85842401825E+01 -0.12052601803E+01  0.92719953306E+02  0.13047616677E+03  0.91388722067E+02 0.  0.
         23    2    1    2    0    0 -0.85842401825E+01  0.12052601803E+01 -0.13198313755E+03  0.16135116836E+03  0.92409464355E+02 0.  0.
          5    1    4    4  502    0  0.28485686346E+02  0.32632827097E+02 -0.54632928324E+02  0.69879772382E+02  0.47000000000E+01 0. -1.
         -5    1    3    3    0  503 -0.14586514286E+02 -0.38831032593E+02  0.22625669310E+02  0.47482906429E+02  0.47000000000E+01 0.  1.
          5    1    3    3  503    0  0.23170754468E+02  0.37625772413E+02  0.70094283997E+02  0.82993260337E+02  0.47000000000E+01 0. -1.
         -5    1    4    4    0  502 -0.37069926528E+02 -0.31427566916E+02 -0.77350209223E+02  0.91471395977E+02  0.47000000000E+01 0.  1.
<mgrwt>
<rscale>  0 0.92560036E+02</rscale>
<asrwt>0</asrwt>
<pdfrwt beam="1">  1        2 0.19428012E-01 0.92815144E+02</pdfrwt>
<pdfrwt beam="2">  1       -2 0.25468501E-01 0.92815144E+02</pdfrwt>
<totfact> 0.36986648E+03</totfact>
</mgrwt>
</event>
<event>
 8    1  0.3177960E-004  0.1002580E+03  0.7546771E-02  0.1280036E+00
         -3   -1    0    0    0  501 -0.00000000000E+00  0.00000000000E+00  0.15649529988E+03  0.15649529988E+03  0.00000000000E+00 0.  1.
          3   -1    0    0  501    0  0.00000000000E+00 -0.00000000000E+00 -0.63888992768E+02  0.63888992768E+02  0.00000000000E+00 0. -1.
         23    2    1    2    0    0 -0.19824577726E+02 -0.31530857527E+02  0.45856289247E+02  0.11024730511E+03  0.93083082035E+02 0.  0.
         23    2    1    2    0    0  0.19824577726E+02  0.31530857527E+02  0.46750017860E+02  0.11013698754E+03  0.92506124098E+02 0.  0.
          5    1    3    3  502    0 -0.47618224445E+02 -0.36384073439E+02  0.49257145458E+01  0.60312923683E+02  0.47000000000E+01 0. -1.
         -5    1    4    4    0  503  0.51895756351E+02  0.26284398722E+02  0.50382942531E+02  0.77101037876E+02  0.47000000000E+01 0.  1.
          5    1    4    4  503    0 -0.32071178626E+02  0.52464588045E+01 -0.36329246709E+01  0.33035949662E+02  0.47000000000E+01 0. -1.
         -5    1    3    3    0  502  0.27793646720E+02  0.48532159127E+01  0.40930574702E+02  0.49934381423E+02  0.47000000000E+01 0.  1.
<mgrwt>
<rscale>  0 0.10012388E+03</rscale>
<asrwt>0</asrwt>
<pdfrwt beam="1">  1        3 0.98290759E-02 0.10025801E+03</pdfrwt>
<pdfrwt beam="2">  1       -3 0.24076200E-01 0.10025801E+03</pdfrwt>
<totfact> 0.26354642E+03</totfact>
</mgrwt>
</event>
<event>
 8    1  0.3177960E-004  0.1030364E+03  0.7546771E-02  0.1276281E+00
          1   -1    0    0  501    0  0.00000000000E+00  0.00000000000E+00  0.11228188928E+03  0.11228188928E+03  0.00000000000E+00 0. -1.
         -1   -1    0    0    0  501 -0.00000000000E+00 -0.00000000000E+00 -0.13728750190E+03  0.13728750190E+03  0.00000000000E+00 0.  1.
         23    2    1    2    0    0 -0.45466743143E+02  0.39877946305E+01 -0.85074452885E+02  0.13030173441E+03  0.87508583691E+02 0.  0.
         23    2    1    2    0    0  0.45466743143E+02 -0.39877946305E+01  0.60068840260E+02  0.11926765677E+03  0.92376301846E+02 0.  0.
          5    1    3    3  502    0 -0.35409688893E+02  0.41850136960E+02 -0.67566525252E+02  0.87135557414E+02  0.47000000000E+01 0. -1.
         -5    1    3    3    0  502 -0.10057054250E+02 -0.37862342330E+02 -0.17507927633E+02  0.43166177001E+02  0.47000000000E+01 0.  1.
          5    1    4    4  503    0  0.21527249658E+02  0.84729959597E+01  0.81268774429E+02  0.84628114924E+02  0.47000000000E+01 0. -1.
         -5    1    4    4    0  503  0.23939493485E+02 -0.12460790590E+02 -0.21199934168E+02  0.34639541844E+02  0.47000000000E+01 0.  1.
<mgrwt>
<rscale>  0 0.10193373E+03</rscale>
<asrwt>0</asrwt>
<pdfrwt beam="1">  1        1 0.17274137E-01 0.10303644E+03</pdfrwt>
<pdfrwt beam="2">  1       -1 0.21121154E-01 0.10303644E+03</pdfrwt>
<totfact> 0.53304023E+03</totfact>
</mgrwt>
</event>
<event>
 8    1  0.3177960E-004  0.1174125E+03  0.7546771E-02  0.1249251E+00
         -3   -1    0    0    0  501 -0.00000000000E+00  0.00000000000E+00  0.40118202257E+03  0.40118202257E+03  0.00000000000E+00 0.  1.
          3   -1    0    0  501    0  0.00000000000E+00 -0.00000000000E+00 -0.50709256400E+02  0.50709256400E+02  0.00000000000E+00 0. -1.
         23    2    1    2    0    0 -0.45956130235E+02 -0.50349795364E+02  0.31030443509E+03  0.33177483745E+03  0.95596195161E+02 0.  0.
         23    2    1    2    0    0  0.45956130235E+02  0.50349795364E+02  0.40168331083E+02  0.12011644152E+03  0.90373651596E+02 0.  0.
          5    1    3    3  502    0 -0.21779690888E+02  0.74722642557E+01  0.11008392145E+02  0.25951191994E+02  0.47000000000E+01 0. -1.
         -5    1    3    3    0  502 -0.24176439348E+02 -0.57822059619E+02  0.29929604294E+03  0.30582364545E+03  0.47000000000E+01 0.  1.
          5    1    4    4  503    0  0.69659911286E+02  0.52173733936E+02  0.22182878635E+02  0.89937599800E+02  0.47000000000E+01 0. -1.
         -5    1    4    4    0  503 -0.23703781050E+02 -0.18239385724E+01  0.17985452448E+02  0.30178841723E+02  0.47000000000E+01 0.  1.
<mgrwt>
<rscale>  0 0.11634517E+03</rscale>
<asrwt>0</asrwt>
<pdfrwt beam="1">  1        3 0.78014243E-02 0.11741252E+03</pdfrwt>
<pdfrwt beam="2">  1       -3 0.61720309E-01 0.11741252E+03</pdfrwt>
<totfact> 0.65281448E+02</totfact>
</mgrwt>
</event>
<event>
 8    1  0.3177960E-004  0.9744999E+02  0.7546771E-02  0.1287438E+00
         -1   -1    0    0    0  501 -0.00000000000E+00  0.00000000000E+00  0.85030508075E+02  0.85030508075E+02  0.00000000000E+00 0.  1.
          1   -1    0    0  501    0  0.00000000000E+00 -0.00000000000E+00 -0.12695080070E+03  0.12695080070E+03  0.00000000000E+00 0. -1.
         23    2    1    2    0    0 -0.10915758800E+02  0.24476547862E+02  0.20031695091E+02  0.96505993089E+02  0.90520067987E+02 0.  0.
         23    2    1    2    0    0  0.10915758800E+02 -0.24476547862E+02 -0.61951987720E+02  0.11547531569E+03  0.93692286588E+02 0.  0.
          5    1    4    4  502    0 -0.60524427015E+01 -0.55404588893E+02 -0.17653509618E+02  0.58651828061E+02  0.47000000000E+01 0. -1.
         -5    1    3    3    0  503 -0.39896349106E+02  0.42197645128E+02  0.33163251015E+01  0.58356215937E+02  0.47000000000E+01 0.  1.
          5    1    3    3  503    0  0.28980590306E+02 -0.17721097266E+02  0.16715369990E+02  0.38149777151E+02  0.47000000000E+01 0. -1.
         -5    1    4    4    0  502  0.16968201502E+02  0.30928041031E+02 -0.44298478102E+02  0.56823487630E+02  0.47000000000E+01 0.  1.
<mgrwt>
<rscale>  0 0.96679428E+02</rscale>
<asrwt>0</asrwt>
<pdfrwt beam="1">  1        1 0.19530892E-01 0.97449986E+02</pdfrwt>
<pdfrwt beam="2">  1       -1 0.13081617E-01 0.97449986E+02</pdfrwt>
<totfact> 0.96278297E+03</totfact>
</mgrwt>
</event>
<event>
 8    1  0.3177960E-004  0.9819179E+02  0.7546771E-02  0.1285367E+00
          4   -1    0    0  501    0  0.00000000000E+00  0.00000000000E+00  0.18739166718E+02  0.18739166718E+02  0.00000000000E+00 0. -1.
         -4   -1    0    0    0  501 -0.00000000000E+00 -0.00000000000E+00 -0.92621317919E+03  0.92621317919E+03  0.00000000000E+00 0.  1.
         23    2    1    2    0    0  0.14154857189E+02 -0.20615584860E+02 -0.77600161816E+03  0.78218932450E+03  0.94954018658E+02 0.  0.
         23    2    1    2    0    0 -0.14154857189E+02  0.20615584860E+02 -0.13147239431E+03  0.16276302141E+03  0.92636107157E+02 0.  0.
          5    1    4    4  502    0  0.13666537057E+02 -0.19604519952E+02 -0.21828395920E+01  0.24453347958E+02  0.47000000000E+01 0. -1.
         -5    1    3    3    0  503  0.40794446809E+01 -0.56481561972E+02 -0.56710594843E+03  0.56994566009E+03  0.47000000000E+01 0.  1.
          5    1    3    3  503    0  0.10075412508E+02  0.35865977112E+02 -0.20889566973E+03  0.21224366441E+03  0.47000000000E+01 0. -1.
         -5    1    4    4    0  502 -0.27821394246E+02  0.40220104812E+02 -0.12928955472E+03  0.13830967345E+03  0.47000000000E+01 0.  1.
<mgrwt>
<rscale>  0 0.97627022E+02</rscale>
<asrwt>0</asrwt>
<pdfrwt beam="1">  1        4 0.28829486E-02 0.98191792E+02</pdfrwt>
<pdfrwt beam="2">  1       -4 0.14249434E+00 0.98191792E+02</pdfrwt>
<totfact> 0.32660440E+02</totfact>
</mgrwt>
</event>
<event>
 8    1  0.3177960E-004  0.1065918E+03  0.7546771E-02  0.1269315E+00
         -1   -1    0    0    0  501 -0.00000000000E+00  0.00000000000E+00  0.27912233097E+03  0.27912233097E+03  0.00000000000E+00 0.  1.
          1   -1    0    0  501    0  0.00000000000E+00 -0.00000000000E+00 -0.39773662767E+02  0.39773662767E+02  0.00000000000E+00 0. -1.
         23    2    1    2    0    0 -0.85303315718E+01 -0.46684931206E+02  0.14524916096E+03  0.18016420231E+03  0.95444076166E+02 0.  0.
         23    2    1    2    0    0  0.85303315718E+01  0.46684931206E+02  0.94099507242E+02  0.13873179143E+03  0.90219417706E+02 0.  0.
          5    1    3    3  502    0 -0.55582612456E+01 -0.19816970039E+02 -0.93930311514E+01  0.23106830242E+02  0.47000000000E+01 0. -1.
         -5    1    4    4    0  503 -0.17204357678E+02 -0.17004683568E+02  0.34260871599E+01  0.24879253598E+02  0.47000000000E+01 0.  1.
          5    1    4    4  503    0  0.25734689250E+02  0.63689614774E+02  0.90673420082E+02  0.11385253783E+03  0.47000000000E+01 0. -1.
         -5    1    3    3    0  502 -0.29720703262E+01 -0.26867961167E+02  0.15464219211E+03  0.15705737207E+03  0.47000000000E+01 0.  1.
<mgrwt>
<rscale>  0 0.10540939E+03</rscale>
<asrwt>0</asrwt>
<pdfrwt beam="1">  1        1 0.61190252E-02 0.10659184E+03</pdfrwt>
<pdfrwt beam="2">  1       -1 0.42941896E-01 0.10659184E+03</pdfrwt>
<totfact> 0.63622984E+03</totfact>
</mgrwt>
</event>
<event>
 8    1  0.3177960E-004  0.1354960E+03  0.7546771E-02  0.1219888E+00
         -1   -1    0    0    0  501 -0.00000000000E+00  0.00000000000E+00  0.26672975838E+02  0.26672975838E+02  0.00000000000E+00 0.  1.
          1   -1    0    0  501    0  0.00000000000E+00 -0.00000000000E+00 -0.73421005776E+03  0.73421005776E+03  0.00000000000E+00 0. -1.
         23    2    1    2    0    0 -0.94262450920E+02  0.33897029511E+02 -0.45547755839E+03  0.47520414808E+03  0.91240111218E+02 0.  0.
         23    2    1    2    0    0  0.94262450920E+02 -0.33897029511E+02 -0.25205952354E+03  0.28567888552E+03  0.89688371395E+02 0.  0.
          5    1    3    3  502    0 -0.73466712265E+02  0.11595113783E+02 -0.42621364489E+03  0.43267998055E+03  0.47000000000E+01 0. -1.
         -5    1    4    4    0  503  0.71101815070E+02 -0.26738406804E+02 -0.74816347888E+02  0.10672387931E+03  0.47000000000E+01 0.  1.
          5    1    4    4  503    0  0.23160635850E+02 -0.71586227071E+01 -0.17724317565E+03  0.17895500620E+03  0.47000000000E+01 0. -1.
         -5    1    3    3    0  502 -0.20795738656E+02  0.22301915728E+02 -0.29263913500E+02  0.42524167537E+02  0.47000000000E+01 0.  1.
<mgrwt>
<rscale>  0 0.13523528E+03</rscale>
<asrwt>0</asrwt>
<pdfrwt beam="1">  1        1 0.11295538E+00 0.13549604E+03</pdfrwt>
<pdfrwt beam="2">  1       -1 0.41035353E-02 0.13549604E+03</pdfrwt>
<totfact> 0.60119433E+03</totfact>
</mgrwt>
</event>
<event>
 8    1  0.3177960E-004  0.9936421E+02  0.7546771E-02  0.1284768E+00
          1   -1    0    0  501    0  0.00000000000E+00  0.00000000000E+00  0.18025975604E+03  0.18025975604E+03  0.00000000000E+00 0. -1.
         -1   -1    0    0    0  501 -0.00000000000E+00 -0.00000000000E+00 -0.67486498007E+02  0.67486498007E+02  0.00000000000E+00 0.  1.
         23    2    1    2    0    0  0.34898875190E+01 -0.38816653386E+02 -0.48461723019E+01  0.93773607689E+02  0.85153345313E+02 0.  0.
         23    2    1    2    0    0 -0.34898875190E+01  0.38816653386E+02  0.11761943033E+03  0.15397264635E+03  0.91402043405E+02 0.  0.
          5    1    3    3  502    0  0.23396752662E+02  0.16630349141E+02  0.13253942429E+02  0.31964566907E+02  0.47000000000E+01 0. -1.
         -5    1    3    3    0  502 -0.19906865143E+02 -0.55447002527E+02 -0.18100114731E+02  0.61809040782E+02  0.47000000000E+01 0.  1.
          5    1    4    4  503    0  0.35993577221E+02 -0.75134934368E+00  0.75661590891E+02  0.83921799689E+02  0.47000000000E+01 0. -1.
         -5    1    4    4    0  503 -0.39483464740E+02  0.39568002730E+02  0.41957839442E+02  0.70050846665E+02  0.47000000000E+01 0.  1.
<mgrwt>
<rscale>  0 0.97903327E+02</rscale>
<asrwt>0</asrwt>
<pdfrwt beam="1">  1        1 0.27732270E-01 0.99364206E+02</pdfrwt>
<pdfrwt beam="2">  1       -1 0.10382538E-01 0.99364206E+02</pdfrwt>
<totfact> 0.88618507E+03</totfact>
</mgrwt>
</event>
<event>
 8    1  0.3177960E-004  0.1169600E+03  0.7546771E-02  0.1249026E+00
         -2   -1    0    0    0  501 -0.00000000000E+00  0.00000000000E+00  0.68707304538E+02  0.68707304538E+02  0.00000000000E+00 0.  1.
          2   -1    0    0  501    0  0.00000000000E+00 -0.00000000000E+00 -0.19633996364E+03  0.19633996364E+03  0.00000000000E+00 0. -1.
         23    2    1    2    0    0  0.72009291854E+02 -0.86097682136E+01 -0.56608875918E+02  0.12821156915E+03  0.89298238563E+02 0.  0.
         23    2    1    2    0    0 -0.72009291854E+02  0.86097682136E+01 -0.71023783184E+02  0.13683569902E+03  0.91761454476E+02 0.  0.
          5    1    3    3  502    0  0.77294887815E+02  0.11388389613E+02 -0.12493542521E+02  0.79261426337E+02  0.47000000000E+01 0. -1.
         -5    1    4    4    0  503 -0.19070689816E+02  0.12222617744E+02  0.20518628080E+02  0.30922284729E+02  0.47000000000E+01 0.  1.
          5    1    4    4  503    0 -0.52938602038E+02 -0.36128495309E+01 -0.91542411264E+02  0.10591341429E+03  0.47000000000E+01 0. -1.
         -5    1    3    3    0  502 -0.52855959612E+01 -0.19998157827E+02 -0.44115333397E+02  0.48950142818E+02  0.47000000000E+01 0.  1.
<mgrwt>
<rscale>  0 0.11647637E+03</rscale>
<asrwt>0</asrwt>
<pdfrwt beam="1">  1        2 0.30206147E-01 0.11695995E+03</pdfrwt>
<pdfrwt beam="2">  1       -2 0.10570355E-01 0.11695995E+03</pdfrwt>
<totfact> 0.98451585E+03</totfact>
</mgrwt>
</event>
<event>
 7    1  0.3177960E-004  0.1663831E+03  0.7546771E-02  0.1208005E+00
          2   -1    0    0  501    0  0.00000000000E+00  0.00000000000E+00  0.46126025968E+03  0.46126025968E+03  0.00000000000E+00 0. -1.
         -2   -1    0    0    0  501 -0.00000000000E+00 -0.00000000000E+00 -0.36808693453E+02  0.36808693453E+02  0.00000000000E+00 0.  1.
         23    2    1    2    0    0  0.19282718048E+02  0.99483487747E+01  0.13444664970E+03  0.16372452646E+03  0.90879184028E+02 0.  0.
          5    1    1    2  502    0 -0.19661834896E+02  0.39617366102E+02  0.28006211574E+03  0.28357186413E+03  0.47000000000E+01 0. -1.
         -5    1    1    2    0  502  0.37911684818E+00 -0.49565714876E+02  0.99428007875E+01  0.50772562554E+02  0.47000000000E+01 0.  1.
          5    1    3    3  503    0 -0.12223357289E+02 -0.35506230715E+02  0.51123224481E+02  0.63606422351E+02  0.47000000000E+01 0.  1.
         -5    1    3    3    0  503  0.31506075337E+02  0.45454579489E+02  0.83323425219E+02  0.10011810411E+03  0.47000000000E+01 0. -1.
<mgrwt>
<rscale>  0 0.14403154E+03</rscale>
<asrwt>0</asrwt>
<pdfrwt beam="1">  1        2 0.70963113E-01 0.16638312E+03</pdfrwt>
<pdfrwt beam="2">  1       -2 0.56628762E-02 0.16638312E+03</pdfrwt>
<totfact> 0.10628100E+04</totfact>
</mgrwt>
</event>
<event>
 8    1  0.3177960E-004  0.3146879E+03  0.7546771E-02  0.1078324E+00
         -2   -1    0    0    0  501 -0.00000000000E+00  0.00000000000E+00  0.10141597755E+04  0.10141597755E+04  0.00000000000E+00 0.  1.
          2   -1    0    0  501    0  0.00000000000E+00 -0.00000000000E+00 -0.10219442963E+03  0.10219442963E+03  0.00000000000E+00 0. -1.
         23    2    1    2    0    0  0.33396699592E+02 -0.29783314531E+03  0.57928794346E+03  0.65842108669E+03  0.90132591060E+02 0.  0.
         23    2    1    2    0    0 -0.33396699592E+02  0.29783314531E+03  0.33267740241E+03  0.45793311845E+03  0.95961267758E+02 0.  0.
          5    1    4    4  502    0  0.91325853917E+01  0.22132165226E+03  0.27433309099E+03  0.35262928507E+03  0.47000000000E+01 0. -1.
         -5    1    3    3    0  503  0.47188426024E+02 -0.18449429707E+03  0.28573978550E+03  0.34341550376E+03  0.47000000000E+01 0.  1.
          5    1    3    3  503    0 -0.13791726432E+02 -0.11333884824E+03  0.29354815795E+03  0.31500558293E+03  0.47000000000E+01 0. -1.
         -5    1    4    4    0  502 -0.42529284984E+02  0.76511493047E+02  0.58344311422E+02  0.10530383338E+03  0.47000000000E+01 0.  1.
<mgrwt>
<rscale>  0 0.31425499E+03</rscale>
<asrwt>0</asrwt>
<pdfrwt beam="1">  1        2 0.15722221E-01 0.31468792E+03</pdfrwt>
<pdfrwt beam="2">  1       -2 0.15602457E+00 0.31468792E+03</pdfrwt>
<totfact> 0.10544555E+02</totfact>
</mgrwt>
</event>
<event>
 8    1  0.3177960E-004  0.9187935E+02  0.7546771E-02  0.1299117E+00
         -1   -1    0    0    0  501 -0.00000000000E+00  0.00000000000E+00  0.24571724448E+03  0.24571724448E+03  0.00000000000E+00 0.  1.
          1   -1    0    0  501    0  0.00000000000E+00 -0.00000000000E+00 -0.34192802742E+02  0.34192802742E+02  0.00000000000E+00 0. -1.
         23    2    1    2    0    0 -0.42410197177E+01  0.11993283155E+02  0.93152916384E+02  0.13084067120E+03  0.90994452142E+02 0.  0.
         23    2    1    2    0    0  0.42410197177E+01 -0.11993283155E+02  0.11837152535E+03  0.14906937602E+03  0.89710845294E+02 0.  0.
          5    1    4    4  502    0  0.46889896804E+01 -0.50435128989E+02  0.78010734681E+02  0.93131378095E+02  0.47000000000E+01 0. -1.
         -5    1    4    4    0  502 -0.44796996271E+00  0.38441845834E+02  0.40360790673E+02  0.55937997926E+02  0.47000000000E+01 0.  1.
          5    1    3    3  503    0  0.35256384115E+02  0.18936089916E+02  0.15228536034E+02  0.43076518336E+02  0.47000000000E+01 0.  1.
         -5    1    3    3    0  503 -0.39497403833E+02 -0.69428067619E+01  0.77924380350E+02  0.87764152866E+02  0.47000000000E+01 0. -1.
<mgrwt>
<rscale>  0 0.91559923E+02</rscale>
<asrwt>0</asrwt>
<pdfrwt beam="1">  1        1 0.52604313E-02 0.91879352E+02</pdfrwt>
<pdfrwt beam="2">  1       -1 0.37802652E-01 0.91879352E+02</pdfrwt>
<totfact> 0.96101010E+03</totfact>
</mgrwt>
</event>
<event>
 8    1  0.3177960E-004  0.1079405E+03  0.7546771E-02  0.1266145E+00
         -2   -1    0    0    0  501 -0.00000000000E+00  0.00000000000E+00  0.13949320655E+02  0.13949320655E+02  0.00000000000E+00 0.  1.
          2   -1    0    0  501    0  0.00000000000E+00 -0.00000000000E+00 -0.81994182073E+03  0.81994182073E+03  0.00000000000E+00 0. -1.
         23    2    1    2    0    0 -0.53811475840E+02 -0.11681709445E+02 -0.34616096274E+03  0.36156054004E+03  0.88693149234E+02 0.  0.
         23    2    1    2    0    0  0.53811475840E+02  0.11681709445E+02 -0.45983153733E+03  0.47233060134E+03  0.92838660979E+02 0.  0.
          5    1    3    3  502    0 -0.18663142555E+01 -0.27969836662E+02 -0.24448997680E+03  0.24613661582E+03  0.47000000000E+01 0. -1.
         -5    1    3    3    0  502 -0.51945161584E+02  0.16288127217E+02 -0.10167098594E+03  0.11542392422E+03  0.47000000000E+01 0.  1.
          5    1    4    4  503    0  0.62560726734E+02 -0.23442699846E+02 -0.35662600447E+03  0.36286030613E+03  0.47000000000E+01 0. -1.
         -5    1    4    4    0  503 -0.87492508942E+01  0.35124409290E+02 -0.10320553286E+03  0.10947029521E+03  0.47000000000E+01 0.  1.
<mgrwt>
<rscale>  0 0.10704337E+03</rscale>
<asrwt>0</asrwt>
<pdfrwt beam="1">  1        2 0.12614490E+00 0.10794051E+03</pdfrwt>
<pdfrwt beam="2">  1       -2 0.21460493E-02 0.10794051E+03</pdfrwt>
<totfact> 0.22250237E+04</totfact>
</mgrwt>
</event>
<event>
 8    1  0.3177960E-004  0.1434244E+03  0.7546771E-02  0.1209189E+00
         -2   -1    0    0    0  501 -0.00000000000E+00  0.00000000000E+00  0.37857557348E+03  0.37857557348E+03  0.00000000000E+00 0.  1.
          2   -1    0    0  501    0  0.00000000000E+00 -0.00000000000E+00 -0.11646974189E+03  0.11646974189E+03  0.00000000000E+00 0. -1.
         23    2    1    2    0    0  0.13644698000E+02  0.10769656577E+03  0.31224634555E+03  0.34310908375E+03  0.91876737959E+02 0.  0.
         23    2    1    2    0    0 -0.13644698000E+02 -0.10769656577E+03 -0.50140513962E+02  0.15193623163E+03  0.93732701223E+02 0.  0.
          5    1    3    3  502    0  0.33925135417E+02  0.73579270751E+02  0.10859015047E+03  0.13556819198E+03  0.47000000000E+01 0. -1.
         -5    1    4    4    0  503  0.25644005370E+02 -0.94005363358E+02 -0.18113010776E+02  0.99220937865E+02  0.47000000000E+01 0.  1.
          5    1    4    4  503    0 -0.39288703370E+02 -0.13691202409E+02 -0.32027503186E+02  0.52715293760E+02  0.47000000000E+01 0.  1.
         -5    1    3    3    0  502 -0.20280437417E+02  0.34117295015E+02  0.20365619508E+03  0.20754089177E+03  0.47000000000E+01 0.  1.
<mgrwt>
<rscale>  0 0.14312191E+03</rscale>
<asrwt>0</asrwt>
<pdfrwt beam="1">  1        2 0.17918422E-01 0.14342436E+03</pdfrwt>
<pdfrwt beam="2">  1       -2 0.58242395E-01 0.14342436E+03</pdfrwt>
<totfact> 0.87498764E+02</totfact>
</mgrwt>
</event>
<event>
 8    1  0.3177960E-004  0.1171735E+03  0.7546771E-02  0.1254211E+00
         -2   -1    0    0    0  501 -0.00000000000E+00  0.00000000000E+00  0.17560289448E+03  0.17560289448E+03  0.00000000000E+00 0.  1.
          2   -1    0    0  501    0  0.00000000000E+00 -0.00000000000E+00 -0.32091903920E+03  0.32091903920E+03  0.00000000000E+00 0. -1.
         23    2    1    2    0    0  0.69440281406E+01  0.48487189050E+02  0.14814386278E+03  0.18053395057E+03  0.90811211875E+02 0.  0.
         23    2    1    2    0    0 -0.69440281406E+01 -0.48487189050E+02 -0.29346000750E+03  0.31598798311E+03  0.10644436314E+03 0.  0.
          5    1    4    4  502    0 -0.30661124672E+02 -0.61337744851E+02 -0.27375834985E+03  0.28225546518E+03  0.47000000000E+01 0. -1.
         -5    1    4    4    0  502  0.23717096531E+02  0.12850555801E+02 -0.19701657644E+02  0.33732517934E+02  0.47000000000E+01 0.  1.
          5    1    3    3  503    0 -0.29996597777E+02  0.77031368295E+01  0.11876274106E+02  0.33500299728E+02  0.47000000000E+01 0. -1.
         -5    1    3    3    0  503  0.36940625918E+02  0.40784052221E+02  0.13626758867E+03  0.14703365084E+03  0.47000000000E+01 0.  1.
<mgrwt>
<rscale>  0 0.11350627E+03</rscale>
<asrwt>0</asrwt>
<pdfrwt beam="1">  1        2 0.49372159E-01 0.11717350E+03</pdfrwt>
<pdfrwt beam="2">  1       -2 0.27015830E-01 0.11717350E+03</pdfrwt>
<totfact> 0.12353760E+03</totfact>
</mgrwt>
</event>
<event>
 8    1  0.3177960E-004  0.9396839E+02  0.7546771E-02  0.1293584E+00
         -1   -1    0    0    0  501 -0.00000000000E+00  0.00000000000E+00  0.33067960869E+02  0.33067960869E+02  0.00000000000E+00 0.  1.
          1   -1    0    0  501    0  0.00000000000E+00 -0.00000000000E+00 -0.34984772379E+03  0.34984772379E+03  0.00000000000E+00 0. -1.
         23    2    1    2    0    0  0.21281837990E+02  0.13588730776E+02 -0.25180701856E+03  0.26876910802E+03  0.90512367083E+02 0.  0.
         23    2    1    2    0    0 -0.21281837990E+02 -0.13588730776E+02 -0.64972744359E+02  0.11414657664E+03  0.90390338074E+02 0.  0.
          5    1    4    4  502    0  0.13899165559E+02 -0.22429491409E+02 -0.72064636560E+02  0.76887389932E+02  0.47000000000E+01 0. -1.
         -5    1    4    4    0  502 -0.35181003549E+02  0.88407606327E+01  0.70918922001E+01  0.37259186710E+02  0.47000000000E+01 0.  1.
          5    1    3    3  503    0  0.55106818027E+02  0.18743188648E+02 -0.13828068605E+03  0.15010565162E+03  0.47000000000E+01 0. -1.
         -5    1    3    3    0  503 -0.33824980038E+02 -0.51544578720E+01 -0.11352633251E+03  0.11866345639E+03  0.47000000000E+01 0.  1.
<mgrwt>
<rscale>  0 0.93938995E+02</rscale>
<asrwt>0</asrwt>
<pdfrwt beam="1">  1        1 0.53822727E-01 0.93968393E+02</pdfrwt>
<pdfrwt beam="2">  1       -1 0.50873786E-02 0.93968393E+02</pdfrwt>
<totfact> 0.11316150E+04</totfact>
</mgrwt>
</event>
<event>
 8    1  0.3177960E-004  0.1456490E+03  0.7546771E-02  0.1206764E+00
         -1   -1    0    0    0  501 -0.00000000000E+00  0.00000000000E+00  0.10663108977E+04  0.10663108977E+04  0.00000000000E+00 0.  1.
          1   -1    0    0  501    0  0.00000000000E+00 -0.00000000000E+00 -0.65208971369E+02  0.65208971369E+02  0.00000000000E+00 0. -1.
         23    2    1    2    0    0  0.11149450441E+03 -0.21361045669E+02  0.25737932145E+02  0.14534110276E+03  0.87030317787E+02 0.  0.
         23    2    1    2    0    0 -0.11149450441E+03  0.21361045669E+02  0.97536399418E+03  0.98617876630E+03  0.91248666703E+02 0.  0.
          5    1    4    4  502    0 -0.75230963168E+02 -0.30374170498E+02  0.48919759361E+03  0.49590186897E+03  0.47000000000E+01 0. -1.
         -5    1    4    4    0  502 -0.36263541245E+02  0.51735216167E+02  0.48616640056E+03  0.49027689733E+03  0.47000000000E+01 0.  1.
          5    1    3    3  503    0  0.48623902202E+02  0.39342916704E+01 -0.30006923249E+02  0.57465363126E+02  0.47000000000E+01 0.  1.
         -5    1    3    3    0  503  0.62870602211E+02 -0.25295337339E+02  0.55744855394E+02  0.87875739635E+02  0.47000000000E+01 0. -1.
<mgrwt>
<rscale>  0 0.14499336E+03</rscale>
<asrwt>0</asrwt>
<pdfrwt beam="1">  1        1 0.10032150E-01 0.14564902E+03</pdfrwt>
<pdfrwt beam="2">  1       -1 0.16404782E+00 0.14564902E+03</pdfrwt>
<totfact> 0.19228179E+02</totfact>
</mgrwt>
</event>
<event>
 8    1  0.3177960E-004  0.1472931E+03  0.7546771E-02  0.1204872E+00
          1   -1    0    0  501    0  0.00000000000E+00  0.00000000000E+00  0.80925042303E+03  0.80925042303E+03  0.00000000000E+00 0. -1.
         -1   -1    0    0    0  501 -0.00000000000E+00 -0.00000000000E+00 -0.44578133216E+02  0.44578133216E+02  0.00000000000E+00 0.  1.
         23    2    1    2    0    0 -0.85609473678E+02 -0.77662633150E+02  0.65377120314E+03  0.66945309275E+03  0.85966218760E+02 0.  0.
         23    2    1    2    0    0  0.85609473678E+02  0.77662633150E+02  0.11090108668E+03  0.18437546350E+03  0.91295092654E+02 0.  0.
          5    1    4    4  502    0  0.16031711433E+02  0.70491333584E+02  0.79510919958E+02  0.10756449356E+03  0.47000000000E+01 0. -1.
         -5    1    4    4    0  502  0.69577762244E+02  0.71712995665E+01  0.31390166718E+02  0.76810969939E+02  0.47000000000E+01 0.  1.
          5    1    3    3  503    0 -0.56482572385E+02 -0.73663311968E+02  0.60654589801E+03  0.61362576617E+03  0.47000000000E+01 0. -1.
         -5    1    3    3    0  503 -0.29126901292E+02 -0.39993211822E+01  0.47225305134E+02  0.55827326587E+02  0.47000000000E+01 0.  1.
<mgrwt>
<rscale>  0 0.14647578E+03</rscale>
<asrwt>0</asrwt>
<pdfrwt beam="1">  1        1 0.12450005E+00 0.14729311E+03</pdfrwt>
<pdfrwt beam="2">  1       -1 0.68581750E-02 0.14729311E+03</pdfrwt>
<totfact> 0.24348018E+03</totfact>
</mgrwt>
</event>
<event>
 8    1  0.3177960E-004  0.9622892E+02  0.7546771E-02  0.1289851E+00
         -2   -1    0    0    0  501 -0.00000000000E+00  0.00000000000E+00  0.16809648215E+02  0.16809648215E+02  0.00000000000E+00 0.  1.
          2   -1    0    0  501    0  0.00000000000E+00 -0.00000000000E+00 -0.64715369655E+03  0.64715369655E+03  0.00000000000E+00 0. -1.
         23    2    1    2    0    0  0.16644130631E+02  0.74201482821E+01 -0.44895976841E+03  0.45863370262E+03  0.91912533684E+02 0.  0.
         23    2    1    2    0    0 -0.16644130631E+02 -0.74201482821E+01 -0.18138427993E+03  0.20532964214E+03  0.94487667197E+02 0.  0.
          5    1    3    3  502    0  0.36279140961E+02 -0.32364539969E+02 -0.21808790397E+03  0.22349063375E+03  0.47000000000E+01 0. -1.
         -5    1    3    3    0  502 -0.19635010329E+02  0.39784688251E+02 -0.23087186444E+03  0.23514306888E+03  0.47000000000E+01 0.  1.
          5    1    4    4  503    0 -0.37428371093E+02 -0.40633330618E+02 -0.12228196251E+03  0.13426436190E+03  0.47000000000E+01 0. -1.
         -5    1    4    4    0  503  0.20784240462E+02  0.33213182336E+02 -0.59102317415E+02  0.71065280245E+02  0.47000000000E+01 0.  1.
<mgrwt>
<rscale>  0 0.95590783E+02</rscale>
<asrwt>0</asrwt>
<pdfrwt beam="1">  1        2 0.99562113E-01 0.96228919E+02</pdfrwt>
<pdfrwt beam="2">  1       -2 0.25860996E-02 0.96228919E+02</pdfrwt>
<totfact> 0.22271382E+04</totfact>
</mgrwt>
</event>
<event>
 8    1  0.3177960E-004  0.9772244E+02  0.7546771E-02  0.1285304E+00
          3   -1    0    0  501    0  0.00000000000E+00  0.00000000000E+00  0.67008403214E+03  0.67008403214E+03  0.00000000000E+00 0. -1.
         -3   -1    0    0    0  501 -0.00000000000E+00 -0.00000000000E+00 -0.14935161480E+02  0.14935161480E+02  0.00000000000E+00 0.  1.
         23    2    1    2    0    0 -0.15720789910E+02 -0.32239200108E+02  0.25267290420E+03  0.27091192456E+03  0.90901953190E+02 0.  0.
         23    2    1    2    0    0  0.15720789910E+02  0.32239200108E+02  0.40247596646E+03  0.41410726906E+03  0.90616871773E+02 0.  0.
          5    1    4    4  502    0 -0.18180563242E+02  0.53792400258E+02  0.22990254567E+03  0.23685739531E+03  0.47000000000E+01 0. -1.
         -5    1    3    3    0  503 -0.44008192430E+02 -0.45810025058E+02  0.19430930629E+03  0.20448343675E+03  0.47000000000E+01 0.  1.
          5    1    3    3  503    0  0.28287402520E+02  0.13570824950E+02  0.58363597913E+02  0.66428487808E+02  0.47000000000E+01 0. -1.
         -5    1    4    4    0  502  0.33901353152E+02 -0.21553200150E+02  0.17257342079E+03  0.17724987375E+03  0.47000000000E+01 0.  1.
<mgrwt>
<rscale>  0 0.97656086E+02</rscale>
<asrwt>0</asrwt>
<pdfrwt beam="1">  1        3 0.10308983E+00 0.97722435E+02</pdfrwt>
<pdfrwt beam="2">  1       -3 0.22977177E-02 0.97722435E+02</pdfrwt>
<totfact> 0.14141697E+03</totfact>
</mgrwt>
</event>
<event>
 8    1  0.3177960E-004  0.9924872E+02  0.7546771E-02  0.1282540E+00
          3   -1    0    0  501    0  0.00000000000E+00  0.00000000000E+00  0.10226509616E+04  0.10226509616E+04  0.00000000000E+00 0. -1.
         -3   -1    0    0    0  501 -0.00000000000E+00 -0.00000000000E+00 -0.10229808082E+02  0.10229808082E+02  0.00000000000E+00 0.  1.
         23    2    1    2    0    0  0.10050871223E+02 -0.37458136700E+02  0.37247200719E+03  0.38546816189E+03  0.91357406219E+02 0.  0.
         23    2    1    2    0    0 -0.10050871223E+02  0.37458136700E+02  0.63994914633E+03  0.64741260779E+03  0.90022457360E+02 0.  0.
          5    1    4    4  502    0 -0.35944100062E+01  0.60502971334E+02  0.57195422608E+03  0.57517584794E+03  0.47000000000E+01 0. -1.
         -5    1    4    4    0  502 -0.64564612164E+01 -0.23044834634E+02  0.67994920248E+02  0.72236759854E+02  0.47000000000E+01 0.  1.
          5    1    3    3  503    0 -0.34915714413E+02 -0.36670534122E+02  0.14816234594E+03  0.15664611690E+03  0.47000000000E+01 0. -1.
         -5    1    3    3    0  503  0.44966585635E+02 -0.78760257790E+00  0.22430966125E+03  0.22882204498E+03  0.47000000000E+01 0.  1.
<mgrwt>
<rscale>  0 0.98940428E+02</rscale>
<asrwt>0</asrwt>
<pdfrwt beam="1">  1        3 0.15733084E+00 0.99248716E+02</pdfrwt>
<pdfrwt beam="2">  1       -3 0.15738174E-02 0.99248716E+02</pdfrwt>
<totfact> 0.92219176E+02</totfact>
</mgrwt>
</event>
<event>
 8    1  0.3177960E-004  0.1026648E+03  0.7546771E-02  0.1275319E+00
         -2   -1    0    0    0  501 -0.00000000000E+00  0.00000000000E+00  0.91656073753E+02  0.91656073753E+02  0.00000000000E+00 0.  1.
          2   -1    0    0  501    0  0.00000000000E+00 -0.00000000000E+00 -0.20538001487E+03  0.20538001487E+03  0.00000000000E+00 0. -1.
         23    2    1    2    0    0  0.44111950865E+02  0.16174399117E+02  0.42131513157E+02  0.11097351437E+03  0.91282972644E+02 0.  0.
         23    2    1    2    0    0 -0.44111950865E+02 -0.16174399117E+02 -0.15585545427E+03  0.18606257425E+03  0.90115944842E+02 0.  0.
          5    1    4    4  502    0 -0.53875013302E+02  0.24045149451E+02 -0.79856706840E+02  0.99397534666E+02  0.47000000000E+01 0. -1.
         -5    1    3    3    0  503  0.19117634459E+02  0.48070765122E+02  0.46792629754E+02  0.69913679678E+02  0.47000000000E+01 0.  1.
          5    1    3    3  503    0  0.24994316407E+02 -0.31896366005E+02 -0.46611165972E+01  0.41059834692E+02  0.47000000000E+01 0. -1.
         -5    1    4    4    0  502  0.97630624364E+01 -0.40219548568E+02 -0.75998747434E+02  0.86665039587E+02  0.47000000000E+01 0.  1.
<mgrwt>
<rscale>  0 0.10240473E+03</rscale>
<asrwt>0</asrwt>
<pdfrwt beam="1">  1        2 0.31596925E-01 0.10266478E+03</pdfrwt>
<pdfrwt beam="2">  1       -2 0.14100935E-01 0.10266478E+03</pdfrwt>
<totfact> 0.58710688E+03</totfact>
</mgrwt>
</event>
<event>
 8    1  0.3177960E-004  0.1051951E+03  0.7546771E-02  0.1270438E+00
         -3   -1    0    0    0  501 -0.00000000000E+00  0.00000000000E+00  0.50350500741E+02  0.50350500741E+02  0.00000000000E+00 0.  1.
          3   -1    0    0  501    0  0.00000000000E+00 -0.00000000000E+00 -0.44378936754E+03  0.44378936754E+03  0.00000000000E+00 0. -1.
         23    2    1    2    0    0  0.39354884567E+02  0.32378553727E+02 -0.19379301019E+02  0.10556996879E+03  0.90400682089E+02 0.  0.
         23    2    1    2    0    0 -0.39354884567E+02 -0.32378553727E+02 -0.37405956578E+03  0.38856989949E+03  0.92026248191E+02 0.  0.
          5    1    3    3  502    0  0.19012183281E+02 -0.19869407084E+02 -0.37246083152E+02  0.46536191949E+02  0.47000000000E+01 0. -1.
         -5    1    4    4    0  503 -0.67676546255E+02 -0.14405312140E+02 -0.21368210338E+03  0.22465475565E+03  0.47000000000E+01 0. -1.
          5    1    4    4  503    0  0.28321661688E+02 -0.17973241587E+02 -0.16037746240E+03  0.16391514384E+03  0.47000000000E+01 0. -1.
         -5    1    3    3    0  502  0.20342701286E+02  0.52247960811E+02  0.17866782133E+02  0.59033776843E+02  0.47000000000E+01 0.  1.
<mgrwt>
<rscale>  0 0.10483852E+03</rscale>
<asrwt>0</asrwt>
<pdfrwt beam="1">  1        3 0.68275287E-01 0.10519510E+03</pdfrwt>
<pdfrwt beam="2">  1       -3 0.77462310E-02 0.10519510E+03</pdfrwt>
<totfact> 0.52661516E+02</totfact>
</mgrwt>
</event>
<event>
 8    1  0.3177960E-004  0.9413012E+02  0.7546771E-02  0.1295187E+00
         -1   -1    0    0    0  501 -0.00000000000E+00  0.00000000000E+00  0.50422448639E+02  0.50422448639E+02  0.00000000000E+00 0.  1.
          1   -1    0    0  501    0  0.00000000000E+00 -0.00000000000E+00 -0.21443210722E+03  0.21443210722E+03  0.00000000000E+00 0. -1.
         23    2    1    2    0    0  0.53055332328E+01  0.14826103248E+01 -0.22448449888E+02  0.96769889280E+02  0.93968780734E+02 0.  0.
         23    2    1    2    0    0 -0.53055332328E+01 -0.14826103248E+01 -0.14156120869E+03  0.16808466658E+03  0.90457351917E+02 0.  0.
          5    1    3    3  502    0  0.32273862695E+02 -0.12173630155E+02 -0.46336166059E+02  0.57956274634E+02  0.47000000000E+01 0. -1.
         -5    1    3    3    0  502 -0.26968329462E+02  0.13656240480E+02  0.23887716171E+02  0.38813614646E+02  0.47000000000E+01 0.  1.
          5    1    4    4  503    0 -0.43671725317E+02 -0.18971534630E+02 -0.67593779345E+02  0.82813934362E+02  0.47000000000E+01 0. -1.
         -5    1    4    4    0  503  0.38366192084E+02  0.17488924305E+02 -0.73967429349E+02  0.85270732217E+02  0.47000000000E+01 0.  1.
<mgrwt>
<rscale>  0 0.93241311E+02</rscale>
<asrwt>0</asrwt>
<pdfrwt beam="1">  1        1 0.32989555E-01 0.94130115E+02</pdfrwt>
<pdfrwt beam="2">  1       -1 0.77572998E-02 0.94130115E+02</pdfrwt>
<totfact> 0.11043074E+04</totfact>
</mgrwt>
</event>
<event>
 8    1  0.3177960E-004  0.9806347E+02  0.7546771E-02  0.1284673E+00
         -3   -1    0    0    0  501 -0.00000000000E+00  0.00000000000E+00  0.47371033292E+03  0.47371033292E+03  0.00000000000E+00 0.  1.
          3   -1    0    0  501    0  0.00000000000E+00 -0.00000000000E+00 -0.16686924328E+03  0.16686924328E+03  0.00000000000E+00 0. -1.
         23    2    1    2    0    0  0.34253017054E+02  0.10400709098E+02  0.45373906140E+03  0.46421501555E+03  0.91296226071E+02 0.  0.
         23    2    1    2    0    0 -0.34253017054E+02 -0.10400709098E+02 -0.14689797176E+03  0.17636456066E+03  0.90796476928E+02 0.  0.
          5    1    4    4  502    0 -0.54352787857E+02 -0.26509111988E+02 -0.58875439885E+02  0.84530266697E+02  0.47000000000E+01 0. -1.
         -5    1    3    3    0  503 -0.19861471054E+02  0.29222537398E+02  0.10802006177E+03  0.11374910316E+03  0.47000000000E+01 0.  1.
          5    1    3    3  503    0  0.54114488108E+02 -0.18821828300E+02  0.34571899963E+03  0.35046591239E+03  0.47000000000E+01 0. -1.
         -5    1    4    4    0  502  0.20099770803E+02  0.16108402890E+02 -0.88022531873E+02  0.91834293961E+02  0.47000000000E+01 0.  1.
<mgrwt>
<rscale>  0 0.97946993E+02</rscale>
<asrwt>0</asrwt>
<pdfrwt beam="1">  1        3 0.25672191E-01 0.98063473E+02</pdfrwt>
<pdfrwt beam="2">  1       -3 0.72878512E-01 0.98063473E+02</pdfrwt>
<totfact> 0.59605651E+01</totfact>
</mgrwt>
</event>
<event>
 8    1  0.3177960E-004  0.1177041E+03  0.7546771E-02  0.1247454E+00
          2   -1    0    0  501    0  0.00000000000E+00  0.00000000000E+00  0.34512048356E+03  0.34512048356E+03  0.00000000000E+00 0. -1.
         -2   -1    0    0    0  501 -0.00000000000E+00 -0.00000000000E+00 -0.11575171531E+03  0.11575171531E+03  0.00000000000E+00 0.  1.
         23    2    1    2    0    0  0.64742250030E+02 -0.35995842301E+02  0.30122941504E+03  0.32296566422E+03  0.89891046152E+02 0.  0.
         23    2    1    2    0    0 -0.64742250030E+02  0.35995842301E+02 -0.71860646796E+02  0.13790653465E+03  0.91471307740E+02 0.  0.
          5    1    3    3  502    0  0.82660977000E+02 -0.17929805806E+02  0.26660729925E+03  0.27974248349E+03  0.47000000000E+01 0. -1.
         -5    1    3    3    0  502 -0.17918726970E+02 -0.18066036495E+02  0.34622115791E+02  0.43223180733E+02  0.47000000000E+01 0.  1.
          5    1    4    4  503    0 -0.13144670341E+02  0.30449917301E+02  0.14931066521E+02  0.36674331207E+02  0.47000000000E+01 0. -1.
         -5    1    4    4    0  503 -0.51597579688E+02  0.55459250005E+01 -0.86791713316E+02  0.10123220344E+03  0.47000000000E+01 0.  1.
<mgrwt>
<rscale>  0 0.11739696E+03</rscale>
<asrwt>0</asrwt>
<pdfrwt beam="1">  1        2 0.53095459E-01 0.11770412E+03</pdfrwt>
<pdfrwt beam="2">  1       -2 0.17807956E-01 0.11770412E+03</pdfrwt>
<totfact> 0.23327689E+03</totfact>
</mgrwt>
</event>
<event>
 8    1  0.3177960E-004  0.9866716E+02  0.7546771E-02  0.1283642E+00
          2   -1    0    0  501    0  0.00000000000E+00  0.00000000000E+00  0.64599774110E+02  0.64599774110E+02  0.00000000000E+00 0. -1.
         -2   -1    0    0    0  501 -0.00000000000E+00 -0.00000000000E+00 -0.15082295657E+03  0.15082295657E+03  0.00000000000E+00 0.  1.
         23    2    1    2    0    0 -0.22370255636E+02  0.30931005144E+02 -0.32261060665E+02  0.10380744345E+03  0.90983810996E+02 0.  0.
         23    2    1    2    0    0  0.22370255636E+02 -0.30931005144E+02 -0.53962121794E+02  0.11161528723E+03  0.89938347431E+02 0.  0.
          5    1    4    4  502    0  0.35023556175E+01 -0.40575945336E+02  0.11556654779E+02  0.42594836594E+02  0.47000000000E+01 0. -1.
         -5    1    4    4    0  502  0.18867900019E+02  0.96449401929E+01 -0.65518776573E+02  0.69020450636E+02  0.47000000000E+01 0.  1.
          5    1    3    3  503    0  0.18914182312E+02  0.12839978627E+02  0.22709818856E+02  0.32564354994E+02  0.47000000000E+01 0. -1.
         -5    1    3    3    0  503 -0.41284437948E+02  0.18091026517E+02 -0.54970879521E+02  0.71243088454E+02  0.47000000000E+01 0.  1.
<mgrwt>
<rscale>  0 0.98425474E+02</rscale>
<asrwt>0</asrwt>
<pdfrwt beam="1">  1        2 0.99384269E-02 0.98667164E+02</pdfrwt>
<pdfrwt beam="2">  1       -2 0.23203532E-01 0.98667164E+02</pdfrwt>
<totfact> 0.95548223E+03</totfact>
</mgrwt>
</event>
<event>
 8    1  0.3177960E-004  0.9950645E+02  0.7546771E-02  0.1284316E+00
         -1   -1    0    0    0  501 -0.00000000000E+00  0.00000000000E+00  0.20517889246E+03  0.20517889246E+03  0.00000000000E+00 0.  1.
          1   -1    0    0  501    0  0.00000000000E+00 -0.00000000000E+00 -0.49906506785E+02  0.49906506785E+02  0.00000000000E+00 0. -1.
         23    2    1    2    0    0 -0.56953818469E+01  0.23593166935E+02  0.38382045093E+02  0.10157681568E+03  0.90860294947E+02 0.  0.
         23    2    1    2    0    0  0.56953818469E+01 -0.23593166935E+02  0.11689034058E+03  0.15350858356E+03  0.96501080855E+02 0.  0.
          5    1    3    3  502    0  0.38120535601E+02  0.24086715401E+02  0.36836827194E+01  0.45486312355E+02  0.47000000000E+01 0. -1.
         -5    1    4    4    0  503 -0.37766780116E+02 -0.21264135416E+02  0.95081278290E+02  0.10459939109E+03  0.47000000000E+01 0.  1.
          5    1    4    4  503    0  0.43462161963E+02 -0.23290315192E+01  0.21809062291E+02  0.48909192473E+02  0.47000000000E+01 0. -1.
         -5    1    3    3    0  502 -0.43815917447E+02 -0.49354846629E+00  0.34698362374E+02  0.56090503325E+02  0.47000000000E+01 0.  1.
<mgrwt>
<rscale>  0 0.98112336E+02</rscale>
<asrwt>0</asrwt>
<pdfrwt beam="1">  1        1 0.76779242E-02 0.99506450E+02</pdfrwt>
<pdfrwt beam="2">  1       -1 0.31565983E-01 0.99506450E+02</pdfrwt>
<totfact> 0.79193399E+03</totfact>
</mgrwt>
</event>
<event>
 8    1  0.3177960E-004  0.9908256E+02  0.7546771E-02  0.1282620E+00
          1   -1    0    0  501    0  0.00000000000E+00  0.00000000000E+00  0.25901516925E+02  0.25901516925E+02  0.00000000000E+00 0. -1.
         -1   -1    0    0    0  501 -0.00000000000E+00 -0.00000000000E+00 -0.38754895899E+03  0.38754895899E+03  0.00000000000E+00 0.  1.
         23    2    1    2    0    0  0.15571431969E+02 -0.29660429791E+02 -0.21542488928E+03  0.23681982076E+03  0.92485317737E+02 0.  0.
         23    2    1    2    0    0 -0.15571431969E+02  0.29660429791E+02 -0.14622255279E+03  0.17663065516E+03  0.93247749608E+02 0.  0.
          5    1    3    3  502    0  0.22563711455E+02  0.24816438517E+02 -0.37402105595E+02  0.50457746662E+02  0.47000000000E+01 0. -1.
         -5    1    3    3    0  502 -0.69922794861E+01 -0.54476868307E+02 -0.17802278368E+03  0.18636207410E+03  0.47000000000E+01 0.  1.
          5    1    4    4  503    0 -0.43950018367E+02  0.42476930308E+02 -0.64184232406E+02  0.88755841568E+02  0.47000000000E+01 0. -1.
         -5    1    4    4    0  503  0.28378586398E+02 -0.12816500518E+02 -0.82038320386E+02  0.87874813588E+02  0.47000000000E+01 0.  1.
<mgrwt>
<rscale>  0 0.98902771E+02</rscale>
<asrwt>0</asrwt>
<pdfrwt beam="1">  1        1 0.39848489E-02 0.99082558E+02</pdfrwt>
<pdfrwt beam="2">  1       -1 0.59622914E-01 0.99082558E+02</pdfrwt>
<totfact> 0.62277615E+03</totfact>
</mgrwt>
</event>
<event>
 8    1  0.3177960E-004  0.9857571E+02  0.7546771E-02  0.1283948E+00
         -2   -1    0    0    0  501 -0.00000000000E+00  0.00000000000E+00  0.95538774650E+02  0.95538774650E+02  0.00000000000E+00 0.  1.
          2   -1    0    0  501    0  0.00000000000E+00 -0.00000000000E+00 -0.23578504858E+03  0.23578504858E+03  0.00000000000E+00 0. -1.
         23    2    1    2    0    0 -0.35310365724E+02 -0.71684854774E+01  0.55177313133E+02  0.11296772105E+03  0.91754896338E+02 0.  0.
         23    2    1    2    0    0  0.35310365724E+02  0.71684854774E+01 -0.19542358706E+03  0.21835610218E+03  0.90503037897E+02 0.  0.
          5    1    3    3  502    0 -0.10071115059E+02 -0.48579351479E+02  0.26823990754E+02  0.56595028303E+02  0.47000000000E+01 0. -1.
         -5    1    3    3    0  502 -0.25239250665E+02  0.41410866001E+02  0.28353322380E+02  0.56372692743E+02  0.47000000000E+01 0.  1.
          5    1    4    4  503    0  0.47758868665E+02  0.35618899565E+02 -0.87551619840E+02  0.10600467763E+03  0.47000000000E+01 0. -1.
         -5    1    4    4    0  503 -0.12448502941E+02 -0.28450414087E+02 -0.10787196722E+03  0.11235142455E+03  0.47000000000E+01 0.  1.
<mgrwt>
<rscale>  0 0.98283369E+02</rscale>
<asrwt>0</asrwt>
<pdfrwt beam="1">  1        2 0.36274622E-01 0.98575708E+02</pdfrwt>
<pdfrwt beam="2">  1       -2 0.14698273E-01 0.98575708E+02</pdfrwt>
<totfact> 0.47277696E+03</totfact>
</mgrwt>
</event>
<event>
 8    1  0.3177960E-004  0.2096507E+03  0.7546771E-02  0.1141888E+00
         -1   -1    0    0    0  501 -0.00000000000E+00  0.00000000000E+00  0.12147148917E+03  0.12147148917E+03  0.00000000000E+00 0.  1.
          1   -1    0    0  501    0  0.00000000000E+00 -0.00000000000E+00 -0.10437093662E+04  0.10437093662E+04  0.00000000000E+00 0. -1.
         23    2    1    2    0    0 -0.25701782452E+02  0.18727342399E+03  0.99969429240E+01  0.20966257493E+03  0.90147321120E+02 0.  0.
         23    2    1    2    0    0  0.25701782452E+02 -0.18727342399E+03 -0.93223481992E+03  0.95551828040E+03  0.90672530341E+02 0.  0.
          5    1    3    3  502    0 -0.30511855218E+02  0.10250643264E+03 -0.36051064683E+02  0.11296154791E+03  0.47000000000E+01 0. -1.
         -5    1    4    4    0  503  0.42318812072E+02 -0.31952245339E+02 -0.25226120214E+03  0.25781705130E+03  0.47000000000E+01 0.  1.
          5    1    4    4  503    0 -0.16617029620E+02 -0.15532117865E+03 -0.67997361778E+03  0.69770122910E+03  0.47000000000E+01 0. -1.
         -5    1    3    3    0  502  0.48100727662E+01  0.84766991341E+02  0.46048007607E+02  0.96701027014E+02  0.47000000000E+01 0.  1.
<mgrwt>
<rscale>  0 0.20959404E+03</rscale>
<asrwt>0</asrwt>
<pdfrwt beam="1">  1        1 0.16057067E+00 0.20965072E+03</pdfrwt>
<pdfrwt beam="2">  1       -1 0.18687922E-01 0.20965072E+03</pdfrwt>
<totfact> 0.33939835E+02</totfact>
</mgrwt>
</event>
<event>
 8    1  0.3177960E-004  0.9521816E+02  0.7546771E-02  0.1290768E+00
          3   -1    0    0  501    0  0.00000000000E+00  0.00000000000E+00  0.34039870867E+03  0.34039870867E+03  0.00000000000E+00 0. -1.
         -3   -1    0    0    0  501 -0.00000000000E+00 -0.00000000000E+00 -0.33431385622E+02  0.33431385622E+02  0.00000000000E+00 0.  1.
         23    2    1    2    0    0  0.22402901640E+02  0.20147107869E+02  0.23810940322E+03  0.25644216751E+03  0.90325530285E+02 0.  0.
         23    2    1    2    0    0 -0.22402901640E+02 -0.20147107869E+02  0.68857919837E+02  0.11738792678E+03  0.90170484490E+02 0.  0.
          5    1    4    4  502    0 -0.19843898677E+02  0.23679641574E+02 -0.46944210533E+01  0.31601160244E+02  0.47000000000E+01 0. -1.
         -5    1    3    3    0  503 -0.21955134990E+02  0.86965684031E+01  0.14429347884E+02  0.28070524305E+02  0.47000000000E+01 0.  1.
          5    1    3    3  503    0  0.44358036630E+02  0.11450539466E+02  0.22368005533E+03  0.22837164321E+03  0.47000000000E+01 0. -1.
         -5    1    4    4    0  502 -0.25590029629E+01 -0.43826749443E+02  0.73552340890E+02  0.85786766540E+02  0.47000000000E+01 0.  1.
<mgrwt>
<rscale>  0 0.95181369E+02</rscale>
<asrwt>0</asrwt>
<pdfrwt beam="1">  1        3 0.52369030E-01 0.95218157E+02</pdfrwt>
<pdfrwt beam="2">  1       -3 0.51432903E-02 0.95218157E+02</pdfrwt>
<totfact> 0.17066787E+03</totfact>
</mgrwt>
</event>
<event>
 8    1  0.3177960E-004  0.9280864E+02  0.7546771E-02  0.1298159E+00
         -1   -1    0    0    0  501 -0.00000000000E+00  0.00000000000E+00  0.10386756391E+03  0.10386756391E+03  0.00000000000E+00 0.  1.
          1   -1    0    0  501    0  0.00000000000E+00 -0.00000000000E+00 -0.80162501354E+02  0.80162501354E+02  0.00000000000E+00 0. -1.
         23    2    1    2    0    0 -0.19671715511E+02  0.41204697548E+00  0.15981193136E+02  0.90900575172E+02  0.87294729845E+02 0.  0.
         23    2    1    2    0    0  0.19671715511E+02 -0.41204697548E+00  0.77238694208E+01  0.93129490093E+02  0.90698939312E+02 0.  0.
          5    1    4    4  502    0 -0.27790368911E+02 -0.19333253384E+02 -0.14608787375E+02  0.37169691405E+02  0.47000000000E+01 0. -1.
         -5    1    4    4    0  502  0.47462084422E+02  0.18921206409E+02  0.22332656796E+02  0.55959798688E+02  0.47000000000E+01 0.  1.
          5    1    3    3  503    0  0.21212798508E+02 -0.30799266049E+02  0.92780586268E+01  0.38816877535E+02  0.47000000000E+01 0. -1.
         -5    1    3    3    0  503 -0.40884514019E+02  0.31211313025E+02  0.67031345096E+01  0.52083697637E+02  0.47000000000E+01 0.  1.
<mgrwt>
<rscale>  0 0.91966262E+02</rscale>
<asrwt>0</asrwt>
<pdfrwt beam="1">  1        1 0.12332693E-01 0.92808641E+02</pdfrwt>
<pdfrwt beam="2">  1       -1 0.15979625E-01 0.92808641E+02</pdfrwt>
<totfact> 0.12650447E+04</totfact>
</mgrwt>
</event>
<event>
 8    1  0.3177960E-004  0.1364914E+03  0.7546771E-02  0.1218675E+00
          1   -1    0    0  501    0  0.00000000000E+00  0.00000000000E+00  0.45001053319E+03  0.45001053319E+03  0.00000000000E+00 0. -1.
         -1   -1    0    0    0  501 -0.00000000000E+00 -0.00000000000E+00 -0.79804948737E+02  0.79804948737E+02  0.00000000000E+00 0.  1.
         23    2    1    2    0    0 -0.65847814771E+02 -0.73626822021E+02 -0.33844542346E+00  0.13493224984E+03  0.91922542782E+02 0.  0.
         23    2    1    2    0    0  0.65847814771E+02  0.73626822021E+02  0.37054402988E+03  0.39488323209E+03  0.94196843221E+02 0.  0.
          5    1    3    3  502    0 -0.19848130873E+02 -0.25806062075E+02  0.44039551372E+02  0.54967929050E+02  0.47000000000E+01 0. -1.
         -5    1    4    4    0  503 -0.86362763819E+01  0.37786288551E+02  0.47957086384E+02  0.61841418214E+02  0.47000000000E+01 0.  1.
          5    1    4    4  503    0  0.74484091153E+02  0.35840533470E+02  0.32258694350E+03  0.33304181387E+03  0.47000000000E+01 0. -1.
         -5    1    3    3    0  502 -0.45999683898E+02 -0.47820759945E+02 -0.44377996795E+02  0.79964320794E+02  0.47000000000E+01 0.  1.
<mgrwt>
<rscale>  0 0.13609979E+03</rscale>
<asrwt>0</asrwt>
<pdfrwt beam="1">  1        1 0.69232388E-01 0.13649135E+03</pdfrwt>
<pdfrwt beam="2">  1       -1 0.12277685E-01 0.13649135E+03</pdfrwt>
<totfact> 0.22470885E+03</totfact>
</mgrwt>
</event>
<event>
 8    1  0.3177960E-004  0.1690730E+03  0.7546771E-02  0.1179704E+00
         -2   -1    0    0    0  501 -0.00000000000E+00  0.00000000000E+00  0.45991163738E+02  0.45991163738E+02  0.00000000000E+00 0.  1.
          2   -1    0    0  501    0  0.00000000000E+00 -0.00000000000E+00 -0.68460331038E+03  0.68460331038E+03  0.00000000000E+00 0. -1.
         23    2    1    2    0    0 -0.97605134382E+02 -0.97152031203E+02 -0.19535996486E+03  0.25619151985E+03  0.92213337143E+02 0.  0.
         23    2    1    2    0    0  0.97605134382E+02  0.97152031203E+02 -0.44325218179E+03  0.47440295428E+03  0.98083571205E+02 0.  0.
          5    1    4    4  502    0  0.11595701969E+02 -0.19071203512E+02 -0.40837971041E+02  0.46776072797E+02  0.47000000000E+01 0. -1.
         -5    1    4    4    0  502  0.86009432413E+02  0.11622323472E+03 -0.40241421075E+03  0.42762688148E+03  0.47000000000E+01 0.  1.
          5    1    3    3  503    0 -0.81937222540E+02 -0.11505295603E+03 -0.17061729557E+03  0.22154738247E+03  0.47000000000E+01 0. -1.
         -5    1    3    3    0  503 -0.15667911842E+02  0.17900924831E+02 -0.24742669287E+02  0.34644137379E+02  0.47000000000E+01 0.  1.
<mgrwt>
<rscale>  0 0.16823260E+03</rscale>
<asrwt>0</asrwt>
<pdfrwt beam="1">  1        2 0.10532358E+00 0.16907296E+03</pdfrwt>
<pdfrwt beam="2">  1       -2 0.70755639E-02 0.16907296E+03</pdfrwt>
<totfact> 0.48350306E+03</totfact>
</mgrwt>
</event>
<event>
 8    1  0.3177960E-004  0.9371708E+02  0.7546771E-02  0.1300231E+00
         -1   -1    0    0    0  501 -0.00000000000E+00  0.00000000000E+00  0.29835841384E+03  0.29835841384E+03  0.00000000000E+00 0.  1.
          1   -1    0    0  501    0  0.00000000000E+00 -0.00000000000E+00 -0.27382734911E+02  0.27382734911E+02  0.00000000000E+00 0. -1.
         23    2    1    2    0    0  0.78086503888E+01 -0.21055618649E+02  0.15952572065E+03  0.18012527102E+03  0.80575080609E+02 0.  0.
         23    2    1    2    0    0 -0.78086503888E+01  0.21055618649E+02  0.11144995828E+03  0.14561587772E+03  0.90986683356E+02 0.  0.
          5    1    4    4  502    0  0.15695261616E+02  0.37644250539E+02  0.13187813360E+02  0.43121215858E+02  0.47000000000E+01 0. -1.
         -5    1    4    4    0  502 -0.23503912005E+02 -0.16588631891E+02  0.98262144916E+02  0.10249466187E+03  0.47000000000E+01 0.  1.
          5    1    3    3  503    0  0.36637049382E+02  0.11611614920E+02  0.60396963433E+02  0.71742499123E+02  0.47000000000E+01 0. -1.
         -5    1    3    3    0  503 -0.28828398994E+02 -0.32667233569E+02  0.99128757218E+02  0.10838277190E+03  0.47000000000E+01 0.  1.
<mgrwt>
<rscale>  0 0.91090982E+02</rscale>
<asrwt>0</asrwt>
<pdfrwt beam="1">  1        1 0.42127287E-02 0.93717078E+02</pdfrwt>
<pdfrwt beam="2">  1       -1 0.45901292E-01 0.93717078E+02</pdfrwt>
<totfact> 0.92642814E+03</totfact>
</mgrwt>
</event>
<event>
 8    1  0.3177960E-004  0.1295541E+03  0.7546771E-02  0.1229527E+00
         -1   -1    0    0    0  501 -0.00000000000E+00  0.00000000000E+00  0.34606772561E+02  0.34606772561E+02  0.00000000000E+00 0.  1.
          1   -1    0    0  501    0  0.00000000000E+00 -0.00000000000E+00 -0.47702480332E+03  0.47702480332E+03  0.00000000000E+00 0. -1.
         23    2    1    2    0    0  0.12757050142E+02  0.90519633590E+02 -0.19606229910E+03  0.23499933821E+03  0.91802600395E+02 0.  0.
         23    2    1    2    0    0 -0.12757050142E+02 -0.90519633590E+02 -0.24635573166E+03  0.27663223767E+03  0.86473706993E+02 0.  0.
          5    1    4    4  502    0  0.21014910993E+02 -0.64713153883E+02 -0.81258923737E+02  0.10608732939E+03  0.47000000000E+01 0. -1.
         -5    1    4    4    0  502 -0.33771961135E+02 -0.25806479708E+02 -0.16509680793E+03  0.17054490828E+03  0.47000000000E+01 0.  1.
          5    1    3    3  503    0 -0.19871923325E+02 -0.87208664171E+01 -0.55718634265E+02  0.59980022108E+02  0.47000000000E+01 0. -1.
         -5    1    3    3    0  503  0.32628973467E+02  0.99240500007E+02 -0.14034366483E+03  0.17501931611E+03  0.47000000000E+01 0.  1.
<mgrwt>
<rscale>  0 0.12861394E+03</rscale>
<asrwt>0</asrwt>
<pdfrwt beam="1">  1        1 0.73388426E-01 0.12955410E+03</pdfrwt>
<pdfrwt beam="2">  1       -1 0.53241192E-02 0.12955410E+03</pdfrwt>
<totfact> 0.73439872E+03</totfact>
</mgrwt>
</event>
<event>
 8    1  0.3177960E-004  0.1471226E+03  0.7546771E-02  0.1204217E+00
         -3   -1    0    0    0  501 -0.00000000000E+00  0.00000000000E+00  0.12591895289E+03  0.12591895289E+03  0.00000000000E+00 0.  1.
          3   -1    0    0  501    0  0.00000000000E+00 -0.00000000000E+00 -0.18415012384E+03  0.18415012384E+03  0.00000000000E+00 0. -1.
         23    2    1    2    0    0 -0.11302107566E+03  0.22113357123E+02 -0.70032590140E+02  0.16247387524E+03  0.90721730290E+02 0.  0.
         23    2    1    2    0    0  0.11302107566E+03 -0.22113357123E+02  0.11801419190E+02  0.14759520149E+03  0.91554933797E+02 0.  0.
          5    1    3    3  502    0 -0.97712199844E+02 -0.97127594362E+01 -0.78559210641E+02  0.12583978413E+03  0.47000000000E+01 0. -1.
         -5    1    4    4    0  503  0.28294993836E+02  0.34622629266E+02  0.12849364596E+01  0.44978597079E+02  0.47000000000E+01 0.  1.
          5    1    4    4  503    0  0.84726081824E+02 -0.56735986388E+02  0.10516482730E+02  0.10261660442E+03  0.47000000000E+01 0. -1.
         -5    1    3    3    0  502 -0.15308875816E+02  0.31826116559E+02  0.85266205008E+01  0.36634091105E+02  0.47000000000E+01 0.  1.
<mgrwt>
<rscale>  0 0.14699320E+03</rscale>
<asrwt>0</asrwt>
<pdfrwt beam="1">  1        3 0.28330788E-01 0.14712264E+03</pdfrwt>
<pdfrwt beam="2">  1       -3 0.19372147E-01 0.14712264E+03</pdfrwt>
<totfact> 0.66396498E+02</totfact>
</mgrwt>
</event>
<event>
 8    1  0.3177960E-004  0.1562205E+03  0.7546771E-02  0.1193115E+00
          1   -1    0    0  501    0  0.00000000000E+00  0.00000000000E+00  0.11793862068E+04  0.11793862068E+04  0.00000000000E+00 0. -1.
         -1   -1    0    0    0  501 -0.00000000000E+00 -0.00000000000E+00 -0.20838243768E+02  0.20838243768E+02  0.00000000000E+00 0.  1.
         23    2    1    2    0    0 -0.67624279696E+02  0.10728413724E+03  0.63611124417E+03  0.65501325470E+03  0.91224555736E+02 0.  0.
         23    2    1    2    0    0  0.67624279696E+02 -0.10728413724E+03  0.52243671883E+03  0.54521119584E+03  0.90731436518E+02 0.  0.
          5    1    4    4  502    0  0.14285433410E+02 -0.39634867604E+02  0.34833290061E+03  0.35090297232E+03  0.47000000000E+01 0. -1.
         -5    1    4    4    0  502  0.53338846286E+02 -0.67649269635E+02  0.17410381823E+03  0.19430822352E+03  0.47000000000E+01 0.  1.
          5    1    3    3  503    0 -0.55932719669E+02  0.25610157837E+02  0.40281982579E+03  0.40751717922E+03  0.47000000000E+01 0. -1.
         -5    1    3    3    0  503 -0.11691560027E+02  0.81673979402E+02  0.23329141838E+03  0.24749607548E+03  0.47000000000E+01 0. -1.
<mgrwt>
<rscale>  0 0.15614860E+03</rscale>
<asrwt>0</asrwt>
<pdfrwt beam="1">  1        1 0.18144398E+00 0.15622051E+03</pdfrwt>
<pdfrwt beam="2">  1       -1 0.32058846E-02 0.15622051E+03</pdfrwt>
<totfact> 0.39947717E+03</totfact>
</mgrwt>
</event>
<event>
 8    1  0.3177960E-004  0.1070484E+03  0.7546771E-02  0.1272334E+00
          1   -1    0    0  501    0  0.00000000000E+00  0.00000000000E+00  0.29607062888E+03  0.29607062888E+03  0.00000000000E+00 0. -1.
         -1   -1    0    0    0  501 -0.00000000000E+00 -0.00000000000E+00 -0.34675133583E+02  0.34675133583E+02  0.00000000000E+00 0.  1.
         23    2    1    2    0    0  0.15326111859E+02  0.63541352480E+01  0.13618284744E+03  0.16601093575E+03  0.93480469148E+02 0.  0.
         23    2    1    2    0    0 -0.15326111859E+02 -0.63541352480E+01  0.12521264785E+03  0.16473482671E+03  0.10575486376E+03 0.  0.
          5    1    4    4  502    0  0.12077067110E+02  0.45743777604E+02  0.48389559334E+02  0.67837955394E+02  0.47000000000E+01 0. -1.
         -5    1    3    3    0  503  0.49925019038E+02 -0.77650821339E+01  0.10680027545E+03  0.11824209429E+03  0.47000000000E+01 0.  1.
          5    1    3    3  503    0 -0.34598907179E+02  0.14119217382E+02  0.29382571992E+02  0.47768841459E+02  0.47000000000E+01 0. -1.
         -5    1    4    4    0  502 -0.27403178970E+02 -0.52097912852E+02  0.76823088520E+02  0.96896871317E+02  0.47000000000E+01 0.  1.
<mgrwt>
<rscale>  0 0.10388407E+03</rscale>
<asrwt>0</asrwt>
<pdfrwt beam="1">  1        1 0.45549326E-01 0.10704838E+03</pdfrwt>
<pdfrwt beam="2">  1       -1 0.53346361E-02 0.10704838E+03</pdfrwt>
<totfact> 0.13107498E+04</totfact>
</mgrwt>
</event>
<event>
 8    1  0.3177960E-004  0.2440993E+03  0.7546771E-02  0.1117218E+00
          1   -1    0    0  501    0  0.00000000000E+00  0.00000000000E+00  0.24003419432E+03  0.24003419432E+03  0.00000000000E+00 0. -1.
         -1   -1    0    0    0  501 -0.00000000000E+00 -0.00000000000E+00 -0.47662688574E+03  0.47662688574E+03  0.00000000000E+00 0.  1.
         23    2    1    2    0    0  0.22041029578E+03 -0.50745421628E+02  0.13027646438E+03  0.27600539851E+03  0.89728627156E+02 0.  0.
         23    2    1    2    0    0 -0.22041029578E+03  0.50745421628E+02 -0.36686915580E+03  0.44065568155E+03  0.91807711560E+02 0.  0.
          5    1    4    4  502    0 -0.10641652351E+03  0.56951301852E+01 -0.96844024562E+02  0.14407555684E+03  0.47000000000E+01 0. -1.
         -5    1    4    4    0  502 -0.11399377227E+03  0.45050291442E+02 -0.27002513124E+03  0.29658012472E+03  0.47000000000E+01 0.  1.
          5    1    3    3  503    0  0.15765481140E+03 -0.75336952656E+02  0.82701879482E+02  0.19337111176E+03  0.47000000000E+01 0. -1.
         -5    1    3    3    0  503  0.62755484385E+02  0.24591531028E+02  0.47574584898E+02  0.82634286751E+02  0.47000000000E+01 0.  1.
<mgrwt>
<rscale>  0 0.24390545E+03</rscale>
<asrwt>0</asrwt>
<pdfrwt beam="1">  1        1 0.36928338E-01 0.24409927E+03</pdfrwt>
<pdfrwt beam="2">  1       -1 0.73327212E-01 0.24409927E+03</pdfrwt>
<totfact> 0.22913424E+02</totfact>
</mgrwt>
</event>
<event>
 8    1  0.3177960E-004  0.1456917E+03  0.7546771E-02  0.1206005E+00
          2   -1    0    0  501    0  0.00000000000E+00  0.00000000000E+00  0.30414004435E+02  0.30414004435E+02  0.00000000000E+00 0. -1.
         -2   -1    0    0    0  501 -0.00000000000E+00 -0.00000000000E+00 -0.13458168523E+04  0.13458168523E+04  0.00000000000E+00 0.  1.
         23    2    1    2    0    0  0.58884584273E+02  0.96244249527E+02 -0.11354017745E+04  0.11446569582E+04  0.91498702748E+02 0.  0.
         23    2    1    2    0    0 -0.58884584273E+02 -0.96244249527E+02 -0.18000107337E+03  0.23157389853E+03  0.92172307306E+02 0.  0.
          5    1    3    3  502    0  0.46268130142E+02 -0.10049376375E+01 -0.31915914585E+03  0.32253123902E+03  0.47000000000E+01 0. -1.
         -5    1    3    3    0  502  0.12616454131E+02  0.97249187165E+02 -0.81624262863E+03  0.82212571916E+03  0.47000000000E+01 0.  1.
          5    1    4    4  503    0 -0.39383662888E+02 -0.65960488224E+02 -0.39613733820E+02  0.86563253268E+02  0.47000000000E+01 0. -1.
         -5    1    4    4    0  503 -0.19500921384E+02 -0.30283761303E+02 -0.14038733955E+03  0.14501064526E+03  0.47000000000E+01 0.  1.
<mgrwt>
<rscale>  0 0.14558532E+03</rscale>
<asrwt>0</asrwt>
<pdfrwt beam="1">  1        2 0.46790772E-02 0.14569174E+03</pdfrwt>
<pdfrwt beam="2">  1       -2 0.20704877E+00 0.14569174E+03</pdfrwt>
<totfact> 0.22230627E+02</totfact>
</mgrwt>
</event>
<event>
 8    1  0.3177960E-004  0.9295497E+02  0.7546771E-02  0.1296622E+00
         -2   -1    0    0    0  501 -0.00000000000E+00  0.00000000000E+00  0.20362554886E+03  0.20362554886E+03  0.00000000000E+00 0.  1.
          2   -1    0    0  501    0  0.00000000000E+00 -0.00000000000E+00 -0.20145932611E+03  0.20145932611E+03  0.00000000000E+00 0. -1.
         23    2    1    2    0    0  0.77905326366E+01 -0.47172716688E+01  0.18137219623E+03  0.20320519013E+03  0.91178564795E+02 0.  0.
         23    2    1    2    0    0 -0.77905326366E+01  0.47172716688E+01 -0.17920597349E+03  0.20187968484E+03  0.92507735722E+02 0.  0.
          5    1    3    3  502    0  0.13041220166E+02  0.41903576064E+02  0.78912993856E+02  0.90417552000E+02  0.47000000000E+01 0. -1.
         -5    1    4    4    0  503  0.73005246009E+01 -0.33090545083E+02 -0.25133475943E+02  0.42450717854E+02  0.47000000000E+01 0.  1.
          5    1    4    4  503    0 -0.15091057238E+02  0.37807816752E+02 -0.15407249754E+03  0.15942896699E+03  0.47000000000E+01 0. -1.
         -5    1    3    3    0  502 -0.52506875294E+01 -0.46620847733E+02  0.10245920238E+03  0.11278763813E+03  0.47000000000E+01 0.  1.
<mgrwt>
<rscale>  0 0.92622519E+02</rscale>
<asrwt>0</asrwt>
<pdfrwt beam="1">  1        2 0.30993743E-01 0.92954969E+02</pdfrwt>
<pdfrwt beam="2">  1       -2 0.31327007E-01 0.92954969E+02</pdfrwt>
<totfact> 0.15405749E+03</totfact>
</mgrwt>
</event>
<event>
 8    1  0.3177960E-004  0.9708743E+02  0.7546771E-02  0.1287518E+00
         -1   -1    0    0    0  501 -0.00000000000E+00  0.00000000000E+00  0.33020809899E+02  0.33020809899E+02  0.00000000000E+00 0.  1.
          1   -1    0    0  501    0  0.00000000000E+00 -0.00000000000E+00 -0.67270319589E+03  0.67270319589E+03  0.00000000000E+00 0. -1.
         23    2    1    2    0    0 -0.25363823317E+02  0.22847087044E+02 -0.51564060769E+02  0.10993098735E+03  0.90888154883E+02 0.  0.
         23    2    1    2    0    0  0.25363823317E+02 -0.22847087044E+02 -0.58811832522E+03  0.59579301843E+03  0.88999120413E+02 0.  0.
          5    1    3    3  502    0  0.68467271463E+01 -0.28125795902E+02  0.16506112071E+01  0.29372650291E+02  0.47000000000E+01 0. -1.
         -5    1    4    4    0  503 -0.23146229297E+02  0.51616421710E+00 -0.53929428505E+02  0.58876885236E+02  0.47000000000E+01 0.  1.
          5    1    4    4  503    0  0.48510052614E+02 -0.23363251261E+02 -0.53418889671E+03  0.53691613319E+03  0.47000000000E+01 0. -1.
         -5    1    3    3    0  502 -0.32210550464E+02  0.50972882946E+02 -0.53214671976E+02  0.80558337064E+02  0.47000000000E+01 0.  1.
<mgrwt>
<rscale>  0 0.96642863E+02</rscale>
<asrwt>0</asrwt>
<pdfrwt beam="1">  1        1 0.10349280E+00 0.97087433E+02</pdfrwt>
<pdfrwt beam="2">  1       -1 0.50801243E-02 0.97087433E+02</pdfrwt>
<totfact> 0.48898586E+03</totfact>
</mgrwt>
</event>
<event>
 8    1  0.3177960E-004  0.1118643E+03  0.7546771E-02  0.1257259E+00
          2   -1    0    0  501    0  0.00000000000E+00  0.00000000000E+00  0.12548162349E+03  0.12548162349E+03  0.00000000000E+00 0. -1.
         -2   -1    0    0    0  501 -0.00000000000E+00 -0.00000000000E+00 -0.22790882883E+03  0.22790882883E+03  0.00000000000E+00 0.  1.
         23    2    1    2    0    0 -0.57252281963E+02  0.32696837157E+02  0.81427699351E+02  0.13817832810E+03  0.90088141197E+02 0.  0.
         23    2    1    2    0    0  0.57252281963E+02 -0.32696837157E+02 -0.18385490469E+03  0.21521212422E+03  0.90369936837E+02 0.  0.
          5    1    4    4  502    0  0.17007864028E+02  0.14733085815E+02 -0.21383878458E+01  0.23086661928E+02  0.47000000000E+01 0. -1.
         -5    1    4    4    0  502  0.40244417935E+02 -0.47429922972E+02 -0.18171651684E+03  0.19212546229E+03  0.47000000000E+01 0.  1.
          5    1    3    3  503    0 -0.19099386359E+02  0.57947944880E+02  0.26907519431E+02  0.66849498705E+02  0.47000000000E+01 0. -1.
         -5    1    3    3    0  503 -0.38152895603E+02 -0.25251107723E+02  0.54520179919E+02  0.71328829393E+02  0.47000000000E+01 0.  1.
<mgrwt>
<rscale>  0 0.11180742E+03</rscale>
<asrwt>0</asrwt>
<pdfrwt beam="1">  1        2 0.19304865E-01 0.11186435E+03</pdfrwt>
<pdfrwt beam="2">  1       -2 0.35062897E-01 0.11186435E+03</pdfrwt>
<totfact> 0.21275955E+03</totfact>
</mgrwt>
</event>
<event>
 8    1  0.3177960E-004  0.1040340E+03  0.7546771E-02  0.1276924E+00
         -1   -1    0    0    0  501 -0.00000000000E+00  0.00000000000E+00  0.25650367306E+02  0.25650367306E+02  0.00000000000E+00 0.  1.
          1   -1    0    0  501    0  0.00000000000E+00 -0.00000000000E+00 -0.77009617585E+03  0.77009617585E+03  0.00000000000E+00 0. -1.
         23    2    1    2    0    0 -0.33737034142E+02 -0.38299906171E+02 -0.82288595922E+02  0.12546657290E+03  0.79783316619E+02 0.  0.
         23    2    1    2    0    0  0.33737034142E+02  0.38299906171E+02 -0.66215721262E+03  0.67027997026E+03  0.90653152261E+02 0.  0.
          5    1    4    4  502    0  0.97120574839E+01  0.62474511668E+02 -0.52753035813E+03  0.53132641325E+03  0.47000000000E+01 0. -1.
         -5    1    3    3    0  503 -0.70380953331E+01 -0.37820866350E+02  0.73559026708E-01  0.38756265666E+02  0.47000000000E+01 0.  1.
          5    1    3    3  503    0 -0.26698938809E+02 -0.47903982100E+00 -0.82362154949E+02  0.86710307233E+02  0.47000000000E+01 0. -1.
         -5    1    4    4    0  502  0.24024976658E+02 -0.24174605496E+02 -0.13462685449E+03  0.13895355701E+03  0.47000000000E+01 0.  1.
<mgrwt>
<rscale>  0 0.10162092E+03</rscale>
<asrwt>0</asrwt>
<pdfrwt beam="1">  1        1 0.11847632E+00 0.10403396E+03</pdfrwt>
<pdfrwt beam="2">  1       -1 0.39462107E-02 0.10403396E+03</pdfrwt>
<totfact> 0.58546903E+03</totfact>
</mgrwt>
</event>
<event>
 8    1  0.3177960E-004  0.2800642E+03  0.7546771E-02  0.1095680E+00
          1   -1    0    0  501    0  0.00000000000E+00  0.00000000000E+00  0.55803413728E+03  0.55803413728E+03  0.00000000000E+00 0. -1.
         -1   -1    0    0    0  501 -0.00000000000E+00 -0.00000000000E+00 -0.17987179627E+03  0.17987179627E+03  0.00000000000E+00 0.  1.
         23    2    1    2    0    0 -0.17088459741E+03 -0.20274625200E+03  0.16431591673E+02  0.28054581201E+03  0.90157457231E+02 0.  0.
         23    2    1    2    0    0  0.17088459741E+03  0.20274625200E+03  0.36173074934E+03  0.45736012155E+03  0.89563147710E+02 0.  0.
          5    1    4    4  502    0  0.13654638269E+03  0.99529486977E+02  0.19310116554E+03  0.25663433818E+03  0.47000000000E+01 0. -1.
         -5    1    3    3    0  503 -0.15398224101E+03 -0.14201263702E+03  0.39570123280E+02  0.21322758798E+03  0.47000000000E+01 0.  1.
          5    1    3    3  503    0 -0.16902356407E+02 -0.60733614987E+02 -0.23138531607E+02  0.67318224029E+02  0.47000000000E+01 0. -1.
         -5    1    4    4    0  502  0.34338214726E+02  0.10321676503E+03  0.16862958380E+03  0.20072578336E+03  0.47000000000E+01 0.  1.
<mgrwt>
<rscale>  0 0.28001650E+03</rscale>
<asrwt>0</asrwt>
<pdfrwt beam="1">  1        1 0.85851405E-01 0.28006420E+03</pdfrwt>
<pdfrwt beam="2">  1       -1 0.27672584E-01 0.28006420E+03</pdfrwt>
<totfact> 0.45872853E+02</totfact>
</mgrwt>
</event>
<event>
 7    1  0.3177960E-004  0.1580902E+03  0.7546771E-02  0.1200918E+00
          1   -1    0    0  501    0  0.00000000000E+00  0.00000000000E+00  0.52981443825E+03  0.52981443825E+03  0.00000000000E+00 0. -1.
         -1   -1    0    0    0  501 -0.00000000000E+00 -0.00000000000E+00 -0.53113444346E+02  0.53113444346E+02  0.00000000000E+00 0.  1.
         23    2    1    2    0    0  0.59888241635E+02  0.66345833169E+02  0.66391892678E+02  0.14321653649E+03  0.90081750910E+02 0.  0.
          5    1    3    3  502    0  0.81552389737E+02  0.65397333507E+02  0.52961480539E+02  0.11728005765E+03  0.47000000000E+01 0.  1.
         -5    1    3    3    0  502 -0.21664148102E+02  0.94849966155E+00  0.13430412139E+02  0.25936478844E+02  0.47000000000E+01 0. -1.
          5    1    1    2  503    0 -0.23922321931E+02  0.26615455696E+02  0.23695879947E+03  0.23969193273E+03  0.47000000000E+01 0. -1.
         -5    1    1    2    0  503 -0.35965919704E+02 -0.92961288865E+02  0.17335030175E+03  0.20001941337E+03  0.47000000000E+01 0.  1.
<mgrwt>
<rscale>  0 0.14963816E+03</rscale>
<asrwt>0</asrwt>
<pdfrwt beam="1">  1        1 0.81509910E-01 0.15809019E+03</pdfrwt>
<pdfrwt beam="2">  1       -1 0.81712995E-02 0.15809019E+03</pdfrwt>
<totfact> 0.34045242E+03</totfact>
</mgrwt>
</event>
<event>
 8    1  0.3177960E-004  0.1005881E+03  0.7546771E-02  0.1279831E+00
          1   -1    0    0  501    0  0.00000000000E+00  0.00000000000E+00  0.99838671827E+02  0.99838671827E+02  0.00000000000E+00 0. -1.
         -1   -1    0    0    0  501 -0.00000000000E+00 -0.00000000000E+00 -0.16147418972E+03  0.16147418972E+03  0.00000000000E+00 0.  1.
         23    2    1    2    0    0  0.60415791739E+01 -0.39520396458E+02 -0.11137296374E+03  0.14909976428E+03  0.90710750417E+02 0.  0.
         23    2    1    2    0    0 -0.60415791739E+01  0.39520396458E+02  0.49737445844E+02  0.11221309727E+03  0.92301696976E+02 0.  0.
          5    1    3    3  502    0  0.21260226524E+02  0.24061485213E+02 -0.47901686087E+02  0.57858567495E+02  0.47000000000E+01 0. -1.
         -5    1    3    3    0  502 -0.15218647350E+02 -0.63581881671E+02 -0.63471277653E+02  0.91241196786E+02  0.47000000000E+01 0.  1.
          5    1    4    4  503    0 -0.48805399926E+02  0.16816097969E+02  0.23051976701E+02  0.56729461858E+02  0.47000000000E+01 0. -1.
         -5    1    4    4    0  503  0.42763820752E+02  0.22704298489E+02  0.26685469143E+02  0.55483635412E+02  0.47000000000E+01 0.  1.
<mgrwt>
<rscale>  0 0.10022163E+03</rscale>
<asrwt>0</asrwt>
<pdfrwt beam="1">  1        1 0.15359796E-01 0.10058810E+03</pdfrwt>
<pdfrwt beam="2">  1       -1 0.24842183E-01 0.10058810E+03</pdfrwt>
<totfact> 0.47567583E+03</totfact>
</mgrwt>
</event>
<event>
 8    1  0.3177960E-004  0.9278966E+02  0.7546771E-02  0.1300797E+00
         -1   -1    0    0    0  501 -0.00000000000E+00  0.00000000000E+00  0.14144152936E+02  0.14144152936E+02  0.00000000000E+00 0.  1.
          1   -1    0    0  501    0  0.00000000000E+00 -0.00000000000E+00 -0.67548023106E+03  0.67548023106E+03  0.00000000000E+00 0. -1.
         23    2    1    2    0    0 -0.15680859161E+02  0.14959731918E+02 -0.48439510857E+03  0.49320233407E+03  0.90223268677E+02 0.  0.
         23    2    1    2    0    0  0.15680859161E+02 -0.14959731918E+02 -0.17694096956E+03  0.19642204992E+03  0.82485344540E+02 0.  0.
          5    1    4    4  502    0  0.46038945991E+02 -0.25450891213E+02 -0.10826493950E+03  0.12046044802E+03  0.47000000000E+01 0. -1.
         -5    1    3    3    0  503 -0.99022677476E+01  0.47708617550E+02 -0.16675196752E+03  0.17378859504E+03  0.47000000000E+01 0.  1.
          5    1    3    3  503    0 -0.57785914133E+01 -0.32748885631E+02 -0.31764314105E+03  0.31941373903E+03  0.47000000000E+01 0. -1.
         -5    1    4    4    0  502 -0.30358086830E+02  0.10491159295E+02 -0.68676030056E+02  0.75961601902E+02  0.47000000000E+01 0.  1.
<mgrwt>
<rscale>  0 0.90853724E+02</rscale>
<asrwt>0</asrwt>
<pdfrwt beam="1">  1        1 0.10392004E+00 0.92789661E+02</pdfrwt>
<pdfrwt beam="2">  1       -1 0.21760234E-02 0.92789661E+02</pdfrwt>
<totfact> 0.16526172E+04</totfact>
</mgrwt>
</event>
<event>
 8    1  0.3177960E-004  0.9237113E+02  0.7546771E-02  0.1297650E+00
         -3   -1    0    0    0  501 -0.00000000000E+00  0.00000000000E+00  0.68474879298E+02  0.68474879298E+02  0.00000000000E+00 0.  1.
          3   -1    0    0  501    0  0.00000000000E+00 -0.00000000000E+00 -0.12949953463E+03  0.12949953463E+03  0.00000000000E+00 0. -1.
         23    2    1    2    0    0 -0.23819243318E+01 -0.25676811595E+00 -0.51766593013E+02  0.10588770017E+03  0.92340053070E+02 0.  0.
         23    2    1    2    0    0  0.23819243318E+01  0.25676811595E+00 -0.92580623149E+01  0.92086713757E+02  0.91588818310E+02 0.  0.
          5    1    3    3  502    0  0.26896196378E+00  0.39498252638E+02 -0.52369630850E+02  0.65763611043E+02  0.47000000000E+01 0. -1.
         -5    1    3    3    0  502 -0.26508862955E+01 -0.39755020754E+02  0.60303783723E+00  0.40124089123E+02  0.47000000000E+01 0.  1.
          5    1    4    4  503    0 -0.21101283214E+02  0.38040628792E+02  0.73527350359E+01  0.44367852153E+02  0.47000000000E+01 0. -1.
         -5    1    4    4    0  503  0.23483207546E+02 -0.37783860676E+02 -0.16610797351E+02  0.47718861604E+02  0.47000000000E+01 0.  1.
<mgrwt>
<rscale>  0 0.92182806E+02</rscale>
<asrwt>0</asrwt>
<pdfrwt beam="1">  1        3 0.19923005E-01 0.92371126E+02</pdfrwt>
<pdfrwt beam="2">  1       -3 0.10534597E-01 0.92371126E+02</pdfrwt>
<totfact> 0.32306453E+03</totfact>
</mgrwt>
</event>
<event>
 8    1  0.3177960E-004  0.1099060E+03  0.7546771E-02  0.1262101E+00
          1   -1    0    0  501    0  0.00000000000E+00  0.00000000000E+00  0.88895411308E+03  0.88895411308E+03  0.00000000000E+00 0. -1.
         -1   -1    0    0    0  501 -0.00000000000E+00 -0.00000000000E+00 -0.17462007646E+02  0.17462007646E+02  0.00000000000E+00 0.  1.
         23    2    1    2    0    0  0.51393208282E+02  0.16072355539E+02  0.21714237971E+03  0.24337242002E+03  0.95810955982E+02 0.  0.
         23    2    1    2    0    0 -0.51393208282E+02 -0.16072355539E+02  0.65434972572E+03  0.66304370071E+03  0.92486772195E+02 0.  0.
          5    1    3    3  502    0 -0.15914497058E+02  0.34648921416E+02  0.97048364539E+02  0.10437573488E+03  0.47000000000E+01 0. -1.
         -5    1    4    4    0  503  0.10934058366E+02 -0.21615926663E+02  0.53386432942E+02  0.58813290506E+02  0.47000000000E+01 0.  1.
          5    1    4    4  503    0 -0.62327266648E+02  0.55435711240E+01  0.60096329278E+03  0.60423041021E+03  0.47000000000E+01 0. -1.
         -5    1    3    3    0  502  0.67307705340E+02 -0.18576565876E+02  0.12009401518E+03  0.13899668514E+03  0.47000000000E+01 0.  1.
<mgrwt>
<rscale>  0 0.10917739E+03</rscale>
<asrwt>0</asrwt>
<pdfrwt beam="1">  1        1 0.13676214E+00 0.10990597E+03</pdfrwt>
<pdfrwt beam="2">  1       -1 0.26864634E-02 0.10990597E+03</pdfrwt>
<totfact> 0.82526474E+03</totfact>
</mgrwt>
</event>
<event>
 8    1  0.3177960E-004  0.1166967E+03  0.7546771E-02  0.1255142E+00
         -1   -1    0    0    0  501 -0.00000000000E+00  0.00000000000E+00  0.74908929532E+02  0.74908929532E+02  0.00000000000E+00 0.  1.
          1   -1    0    0  501    0  0.00000000000E+00 -0.00000000000E+00 -0.24058988192E+03  0.24058988192E+03  0.00000000000E+00 0. -1.
         23    2    1    2    0    0  0.16277960832E+02 -0.45032736336E+02 -0.17734724162E+03  0.21229734529E+03  0.10641991992E+03 0.  0.
         23    2    1    2    0    0 -0.16277960832E+02  0.45032736336E+02  0.11666289236E+02  0.10320146616E+03  0.90672603152E+02 0.  0.
          5    1    3    3  502    0  0.68173851405E+01  0.34643178518E+02 -0.65627541221E+02  0.74670547907E+02  0.47000000000E+01 0. -1.
         -5    1    3    3    0  502  0.94605756911E+01 -0.79675914853E+02 -0.11171970040E+03  0.13762679738E+03  0.47000000000E+01 0.  1.
          5    1    4    4  503    0  0.33629507053E+01  0.70099351682E+02  0.87612725148E+01  0.70880733911E+02  0.47000000000E+01 0. -1.
         -5    1    4    4    0  503 -0.19640911537E+02 -0.25066615347E+02  0.29050167214E+01  0.32320732249E+02  0.47000000000E+01 0.  1.
<mgrwt>
<rscale>  0 0.11298406E+03</rscale>
<asrwt>0</asrwt>
<pdfrwt beam="1">  1        1 0.37013828E-01 0.11669670E+03</pdfrwt>
<pdfrwt beam="2">  1       -1 0.11524451E-01 0.11669670E+03</pdfrwt>
<totfact> 0.53591958E+03</totfact>
</mgrwt>
</event>
<event>
 8    1  0.3177960E-004  0.1010753E+03  0.7546771E-02  0.1278281E+00
         -4   -1    0    0    0  501 -0.00000000000E+00  0.00000000000E+00  0.61429754245E+02  0.61429754245E+02  0.00000000000E+00 0.  1.
          4   -1    0    0  501    0  0.00000000000E+00 -0.00000000000E+00 -0.17337341589E+03  0.17337341589E+03  0.00000000000E+00 0. -1.
         23    2    1    2    0    0 -0.58237250222E+01 -0.39776704286E+02 -0.31195689505E+02  0.10577986628E+03  0.92736762341E+02 0.  0.
         23    2    1    2    0    0  0.58237250222E+01  0.39776704286E+02 -0.80747972143E+02  0.12902330386E+03  0.92253324906E+02 0.  0.
          5    1    4    4  502    0 -0.23997835251E+02  0.59162956185E+02 -0.59059549260E+02  0.87099206885E+02  0.47000000000E+01 0. -1.
         -5    1    4    4    0  502  0.29821560273E+02 -0.19386251899E+02 -0.21688422884E+02  0.41924096973E+02  0.47000000000E+01 0.  1.
          5    1    3    3  503    0 -0.48898366876E+02 -0.22944400037E+02 -0.21309896083E+02  0.58255449937E+02  0.47000000000E+01 0. -1.
         -5    1    3    3    0  503  0.43074641854E+02 -0.16832304249E+02 -0.98857934221E+01  0.47524416343E+02  0.47000000000E+01 0.  1.
<mgrwt>
<rscale>  0 0.10096424E+03</rscale>
<asrwt>0</asrwt>
<pdfrwt beam="1">  1        4 0.26672832E-01 0.10107526E+03</pdfrwt>
<pdfrwt beam="2">  1       -4 0.94507317E-02 0.10107526E+03</pdfrwt>
<totfact> 0.17005526E+03</totfact>
</mgrwt>
</event>
<event>
 8    1  0.3177960E-004  0.1245849E+03  0.7546771E-02  0.1235754E+00
         -1   -1    0    0    0  501 -0.00000000000E+00  0.00000000000E+00  0.23312012391E+02  0.23312012391E+02  0.00000000000E+00 0.  1.
          1   -1    0    0  501    0  0.00000000000E+00 -0.00000000000E+00 -0.69421473543E+03  0.69421473543E+03  0.00000000000E+00 0. -1.
         23    2    1    2    0    0 -0.11054992964E+02  0.86277745261E+02 -0.40872449788E+03  0.42729044007E+03  0.89192728451E+02 0.  0.
         23    2    1    2    0    0  0.11054992964E+02 -0.86277745261E+02 -0.26217822515E+03  0.29023630775E+03  0.89070929009E+02 0.  0.
          5    1    4    4  502    0 -0.26591039611E+02 -0.14685929713E+02 -0.25065562224E+02  0.39662732239E+02  0.47000000000E+01 0. -1.
         -5    1    4    4    0  502  0.37646032575E+02 -0.71591815549E+02 -0.23711266293E+03  0.25057357551E+03  0.47000000000E+01 0.  1.
          5    1    3    3  503    0 -0.31147610134E+02  0.79583546956E+02 -0.20138212986E+03  0.21881628548E+03  0.47000000000E+01 0. -1.
         -5    1    3    3    0  503  0.20092617170E+02  0.66941983052E+01 -0.20734236802E+03  0.20847415459E+03  0.47000000000E+01 0.  1.
<mgrwt>
<rscale>  0 0.12456313E+03</rscale>
<asrwt>0</asrwt>
<pdfrwt beam="1">  1        1 0.10680225E+00 0.12458493E+03</pdfrwt>
<pdfrwt beam="2">  1       -1 0.35864640E-02 0.12458493E+03</pdfrwt>
<totfact> 0.78994086E+03</totfact>
</mgrwt>
</event>
<event>
 8    1  0.3177960E-004  0.9940854E+02  0.7546771E-02  0.1282287E+00
          1   -1    0    0  501    0  0.00000000000E+00  0.00000000000E+00  0.74313718624E+03  0.74313718624E+03  0.00000000000E+00 0. -1.
         -1   -1    0    0    0  501 -0.00000000000E+00 -0.00000000000E+00 -0.29372364924E+02  0.29372364924E+02  0.00000000000E+00 0.  1.
         23    2    1    2    0    0  0.37031432848E+02 -0.13507745972E+02  0.70622551300E+02  0.12194097989E+03  0.91259364476E+02 0.  0.
         23    2    1    2    0    0 -0.37031432848E+02  0.13507745972E+02  0.64314227001E+03  0.65056857127E+03  0.89742410422E+02 0.  0.
          5    1    3    3  502    0  0.50578339249E+02  0.23701375579E+02  0.56631103533E+02  0.79681211668E+02  0.47000000000E+01 0. -1.
         -5    1    3    3    0  502 -0.13546906401E+02 -0.37209121551E+02  0.13991447767E+02  0.42259768223E+02  0.47000000000E+01 0.  1.
          5    1    4    4  503    0 -0.65314067700E+02  0.12060518221E+01  0.48250954241E+03  0.48693421580E+03  0.47000000000E+01 0. -1.
         -5    1    4    4    0  503  0.28282634852E+02  0.12301694150E+02  0.16063272760E+03  0.16363435547E+03  0.47000000000E+01 0.  1.
<mgrwt>
<rscale>  0 0.99059012E+02</rscale>
<asrwt>0</asrwt>
<pdfrwt beam="1">  1        1 0.11432878E+00 0.99408540E+02</pdfrwt>
<pdfrwt beam="2">  1       -1 0.45188259E-02 0.99408540E+02</pdfrwt>
<totfact> 0.50472547E+03</totfact>
</mgrwt>
</event>
<event>
 8    1  0.3177960E-004  0.1022517E+03  0.7546771E-02  0.1278968E+00
         -3   -1    0    0    0  501 -0.00000000000E+00  0.00000000000E+00  0.16164046435E+03  0.16164046435E+03  0.00000000000E+00 0.  1.
          3   -1    0    0  501    0  0.00000000000E+00 -0.00000000000E+00 -0.88254373375E+02  0.88254373375E+02  0.00000000000E+00 0. -1.
         23    2    1    2    0    0 -0.98375022787E+01 -0.36251453813E+02 -0.33841969740E+02  0.10172851366E+03  0.88274952395E+02 0.  0.
         23    2    1    2    0    0  0.98375022787E+01  0.36251453813E+02  0.10722806072E+03  0.14816632407E+03  0.95102356586E+02 0.  0.
          5    1    3    3  502    0 -0.23638743256E+02 -0.61882094480E+02 -0.22121256475E+02  0.69997312720E+02  0.47000000000E+01 0. -1.
         -5    1    4    4    0  503  0.62581318006E+01  0.64065063047E+02  0.99674657640E+02  0.11874604790E+03  0.47000000000E+01 0.  1.
          5    1    4    4  503    0  0.35793704781E+01 -0.27813609234E+02  0.75534030757E+01  0.29420276165E+02  0.47000000000E+01 0. -1.
         -5    1    3    3    0  502  0.13801240978E+02  0.25630640667E+02 -0.11720713265E+02  0.31731200938E+02  0.47000000000E+01 0.  1.
<mgrwt>
<rscale>  0 0.10063438E+03</rscale>
<asrwt>0</asrwt>
<pdfrwt beam="1">  1        3 0.13577596E-01 0.10225166E+03</pdfrwt>
<pdfrwt beam="2">  1       -3 0.24867764E-01 0.10225166E+03</pdfrwt>
<totfact> 0.14601515E+03</totfact>
</mgrwt>
</event>
<event>
 8    1  0.3177960E-004  0.1129249E+03  0.7546771E-02  0.1255536E+00
         -2   -1    0    0    0  501 -0.00000000000E+00  0.00000000000E+00  0.42873987555E+03  0.42873987555E+03  0.00000000000E+00 0. -1.
          2   -1    0    0  501    0  0.00000000000E+00 -0.00000000000E+00 -0.33811821086E+02  0.33811821086E+02  0.00000000000E+00 0.  1.
         23    2    1    2    0    0 -0.38279087536E+02 -0.54263451862E+02  0.27885111490E+03  0.30060757436E+03  0.90538161758E+02 0.  0.
         23    2    1    2    0    0  0.38279087536E+02  0.54263451862E+02  0.11607693957E+03  0.16194412227E+03  0.91335820403E+02 0.  0.
          5    1    3    3  502    0  0.27814152274E+02 -0.42767361165E+01  0.57078234353E+02  0.63811694660E+02  0.47000000000E+01 0. -1.
         -5    1    4    4    0  503  0.10674098952E+02  0.76345584274E+02  0.81192117899E+02  0.11205728283E+03  0.47000000000E+01 0.  1.
          5    1    4    4  503    0  0.27604988584E+02 -0.22082132412E+02  0.34884821667E+02  0.49886839440E+02  0.47000000000E+01 0. -1.
         -5    1    3    3    0  502 -0.66093239810E+02 -0.49986715745E+02  0.22177288054E+03  0.23679587970E+03  0.47000000000E+01 0.  1.
<mgrwt>
<rscale>  0 0.11276355E+03</rscale>
<asrwt>0</asrwt>
<pdfrwt beam="1">  1        2 0.52018189E-02 0.11292494E+03</pdfrwt>
<pdfrwt beam="2">  1       -2 0.65959977E-01 0.11292494E+03</pdfrwt>
<totfact> 0.30471512E+03</totfact>
</mgrwt>
</event>
<event>
 8    1  0.3177960E-004  0.1739204E+03  0.7546771E-02  0.1174079E+00
          2   -1    0    0  501    0  0.00000000000E+00  0.00000000000E+00  0.56642938544E+03  0.56642938544E+03  0.00000000000E+00 0. -1.
         -2   -1    0    0    0  501 -0.00000000000E+00 -0.00000000000E+00 -0.58744166652E+02  0.58744166652E+02  0.00000000000E+00 0.  1.
         23    2    1    2    0    0 -0.14188006852E+03  0.43080727209E+02  0.15617696062E+03  0.23299199220E+03  0.88927625078E+02 0.  0.
         23    2    1    2    0    0  0.14188006852E+03 -0.43080727209E+02  0.35150825817E+03  0.39218155989E+03  0.90897840756E+02 0.  0.
          5    1    4    4  502    0  0.10181136776E+03  0.90691811718E+01  0.25986887068E+03  0.27928788839E+03  0.47000000000E+01 0. -1.
         -5    1    3    3    0  503 -0.52504017366E+02 -0.55007791060E+01  0.86054808409E+01  0.53694270746E+02  0.47000000000E+01 0. -1.
          5    1    3    3  503    0 -0.89376051156E+02  0.48581506315E+02  0.14757147978E+03  0.17929772146E+03  0.47000000000E+01 0.  1.
         -5    1    4    4    0  502  0.40068700762E+02 -0.52149908381E+02  0.91639387482E+02  0.11289367149E+03  0.47000000000E+01 0.  1.
<mgrwt>
<rscale>  0 0.17366449E+03</rscale>
<asrwt>0</asrwt>
<pdfrwt beam="1">  1        2 0.87142979E-01 0.17392044E+03</pdfrwt>
<pdfrwt beam="2">  1       -2 0.90375645E-02 0.17392044E+03</pdfrwt>
<totfact> 0.41234361E+03</totfact>
</mgrwt>
</event>
<event>
 8    1  0.3177960E-004  0.2816408E+03  0.7546771E-02  0.1094854E+00
         -1   -1    0    0    0  501 -0.00000000000E+00  0.00000000000E+00  0.75930629478E+03  0.75930629478E+03  0.00000000000E+00 0.  1.
          1   -1    0    0  501    0  0.00000000000E+00 -0.00000000000E+00 -0.38596717343E+03  0.38596717343E+03  0.00000000000E+00 0. -1.
         23    2    1    2    0    0 -0.13699312102E+03  0.22819919189E+03  0.67588444504E+03  0.73221672037E+03  0.92084505531E+02 0.  0.
         23    2    1    2    0    0  0.13699312102E+03 -0.22819919189E+03 -0.30254532369E+03  0.41305674784E+03  0.90775644654E+02 0.  0.
          5    1    4    4  502    0  0.12013753567E+03 -0.18610285693E+03 -0.29150907397E+03  0.36615151378E+03  0.47000000000E+01 0. -1.
         -5    1    3    3    0  503 -0.45047904718E+02  0.16136673037E+03  0.38666864677E+03  0.42143002715E+03  0.47000000000E+01 0.  1.
          5    1    3    3  503    0 -0.91945216307E+02  0.66832461518E+02  0.28921579827E+03  0.31078669322E+03  0.47000000000E+01 0. -1.
         -5    1    4    4    0  502  0.16855585358E+02 -0.42096334954E+02 -0.11036249718E+02  0.46905234059E+02  0.47000000000E+01 0.  1.
<mgrwt>
<rscale>  0 0.28153444E+03</rscale>
<asrwt>0</asrwt>
<pdfrwt beam="1">  1        1 0.59379565E-01 0.28164080E+03</pdfrwt>
<pdfrwt beam="2">  1       -1 0.11681635E+00 0.28164080E+03</pdfrwt>
<totfact> 0.45203607E+01</totfact>
</mgrwt>
</event>
<event>
 8    1  0.3177960E-004  0.1043484E+03  0.7546771E-02  0.1274426E+00
         -1   -1    0    0    0  501 -0.00000000000E+00  0.00000000000E+00  0.11304929280E+03  0.11304929280E+03  0.00000000000E+00 0.  1.
          1   -1    0    0  501    0  0.00000000000E+00 -0.00000000000E+00 -0.11401235351E+03  0.11401235351E+03  0.00000000000E+00 0. -1.
         23    2    1    2    0    0 -0.30402012655E+02 -0.12547413356E+01  0.50563493181E+02  0.11068478447E+03  0.93640791977E+02 0.  0.
         23    2    1    2    0    0  0.30402012655E+02  0.12547413356E+01 -0.51526553897E+02  0.11637686184E+03  0.99813483384E+02 0.  0.
          5    1    4    4  502    0  0.45827991966E+02  0.14438343563E+02 -0.72314452937E+02  0.86949069668E+02  0.47000000000E+01 0. -1.
         -5    1    4    4    0  502 -0.15425979311E+02 -0.13183602228E+02  0.20787899041E+02  0.29427792169E+02  0.47000000000E+01 0.  1.
          5    1    3    3  503    0  0.15307228512E+02  0.25470903976E+02  0.49006485192E+02  0.57504815320E+02  0.47000000000E+01 0. -1.
         -5    1    3    3    0  503 -0.45709241167E+02 -0.26725645311E+02  0.15570079892E+01  0.53179969154E+02  0.47000000000E+01 0.  1.
<mgrwt>
<rscale>  0 0.10284419E+03</rscale>
<asrwt>0</asrwt>
<pdfrwt beam="1">  1        1 0.17540362E-01 0.10434840E+03</pdfrwt>
<pdfrwt beam="2">  1       -1 0.17392199E-01 0.10434840E+03</pdfrwt>
<totfact> 0.71237402E+03</totfact>
</mgrwt>
</event>
<event>
 8    1  0.3177960E-004  0.9368514E+02  0.7546771E-02  0.1295364E+00
          1   -1    0    0  501    0  0.00000000000E+00  0.00000000000E+00  0.91251149150E+02  0.91251149150E+02  0.00000000000E+00 0. -1.
         -1   -1    0    0    0  501 -0.00000000000E+00 -0.00000000000E+00 -0.97122559499E+02  0.97122559499E+02  0.00000000000E+00 0.  1.
         23    2    1    2    0    0 -0.51793863295E+01  0.16619230937E+02 -0.19645481589E+02  0.95722775162E+02  0.92053679221E+02 0.  0.
         23    2    1    2    0    0  0.51793863295E+01 -0.16619230937E+02  0.13774071240E+02  0.92650933486E+02  0.89952462766E+02 0.  0.
          5    1    4    4  502    0 -0.23706226341E+02 -0.41908452193E+02 -0.67800608670E+01  0.48850412054E+02  0.47000000000E+01 0. -1.
         -5    1    4    4    0  502  0.28885612671E+02  0.25289221255E+02  0.20554132107E+02  0.43800521432E+02  0.47000000000E+01 0.  1.
          5    1    3    3  503    0  0.38832797788E+02  0.88288585783E+01 -0.29413106298E+02  0.49730832990E+02  0.47000000000E+01 0.  1.
         -5    1    3    3    0  503 -0.44012184117E+02  0.77903723591E+01  0.97676247090E+01  0.45991942172E+02  0.47000000000E+01 0. -1.
<mgrwt>
<rscale>  0 0.93164870E+02</rscale>
<asrwt>0</asrwt>
<pdfrwt beam="1">  1        1 0.14038638E-01 0.93685136E+02</pdfrwt>
<pdfrwt beam="2">  1       -1 0.14941932E-01 0.93685136E+02</pdfrwt>
<totfact> 0.11892089E+04</totfact>
</mgrwt>
</event>
<event>
 8    1  0.3177960E-004  0.1278753E+03  0.7546771E-02  0.1230892E+00
         -2   -1    0    0    0  501 -0.00000000000E+00  0.00000000000E+00  0.15254784275E+03  0.15254784275E+03  0.00000000000E+00 0.  1.
          2   -1    0    0  501    0  0.00000000000E+00 -0.00000000000E+00 -0.11939761811E+03  0.11939761811E+03  0.00000000000E+00 0. -1.
         23    2    1    2    0    0 -0.69243566190E+02 -0.55919876014E+02 -0.27900958324E+02  0.13024385452E+03  0.90902663183E+02 0.  0.
         23    2    1    2    0    0  0.69243566190E+02  0.55919876014E+02  0.61051182961E+02  0.14170160634E+03  0.91817178705E+02 0.  0.
          5    1    4    4  502    0  0.30553148011E+02 -0.16642472674E+02 -0.58451430338E+01  0.35591044480E+02  0.47000000000E+01 0. -1.
         -5    1    3    3    0  503 -0.74513576063E+02 -0.55257450363E+01 -0.68621756414E+01  0.75179693604E+02  0.47000000000E+01 0.  1.
          5    1    3    3  503    0  0.52700098736E+01 -0.50394130977E+02 -0.21038782682E+02  0.55064160919E+02  0.47000000000E+01 0. -1.
         -5    1    4    4    0  502  0.38690418179E+02  0.72562348688E+02  0.66896325995E+02  0.10611056186E+03  0.47000000000E+01 0.  1.
<mgrwt>
<rscale>  0 0.12771125E+03</rscale>
<asrwt>0</asrwt>
<pdfrwt beam="1">  1        2 0.18368864E-01 0.12787532E+03</pdfrwt>
<pdfrwt beam="2">  1       -2 0.23468899E-01 0.12787532E+03</pdfrwt>
<totfact> 0.46370644E+03</totfact>
</mgrwt>
</event>
<event>
 8    1  0.3177960E-004  0.1257594E+03  0.7546771E-02  0.1234768E+00
         -1   -1    0    0    0  501 -0.00000000000E+00  0.00000000000E+00  0.52995032195E+02  0.52995032195E+02  0.00000000000E+00 0.  1.
          1   -1    0    0  501    0  0.00000000000E+00 -0.00000000000E+00 -0.37127897252E+03  0.37127897252E+03  0.00000000000E+00 0. -1.
         23    2    1    2    0    0 -0.45437343987E+02 -0.81683248752E+02 -0.60674976753E+02  0.13760727282E+03  0.80731675150E+02 0.  0.
         23    2    1    2    0    0  0.45437343987E+02  0.81683248752E+02 -0.25760896357E+03  0.28666673190E+03  0.84135198996E+02 0.  0.
          5    1    4    4  502    0  0.23721048025E+02  0.78299189397E+02 -0.24975983197E+03  0.26286025726E+03  0.47000000000E+01 0. -1.
         -5    1    3    3    0  503 -0.39063156480E+02 -0.55671019268E+02  0.31374555814E+01  0.68243140373E+02  0.47000000000E+01 0.  1.
          5    1    3    3  503    0 -0.63741875067E+01 -0.26012229485E+02 -0.63812432334E+02  0.69364132443E+02  0.47000000000E+01 0. -1.
         -5    1    4    4    0  502  0.21716295962E+02  0.33840593552E+01 -0.78491316033E+01  0.23806474644E+02  0.47000000000E+01 0.  1.
<mgrwt>
<rscale>  0 0.12519285E+03</rscale>
<asrwt>0</asrwt>
<pdfrwt beam="1">  1        1 0.57119841E-01 0.12575944E+03</pdfrwt>
<pdfrwt beam="2">  1       -1 0.81530820E-02 0.12575944E+03</pdfrwt>
<totfact> 0.53290905E+03</totfact>
</mgrwt>
</event>
<event>
 8    1  0.3177960E-004  0.9393005E+02  0.7546771E-02  0.1294517E+00
          3   -1    0    0  501    0  0.00000000000E+00  0.00000000000E+00  0.98514814276E+02  0.98514814276E+02  0.00000000000E+00 0. -1.
         -3   -1    0    0    0  501 -0.00000000000E+00 -0.00000000000E+00 -0.93919503029E+02  0.93919503029E+02  0.00000000000E+00 0.  1.
         23    2    1    2    0    0 -0.69203659002E+01 -0.20111713438E+02  0.26319050282E+02  0.96024899933E+02  0.89864990501E+02 0.  0.
         23    2    1    2    0    0  0.69203659002E+01  0.20111713438E+02 -0.21723739035E+02  0.96409417373E+02  0.91490340686E+02 0.  0.
          5    1    3    3  502    0  0.16336220122E+02 -0.20280013306E+02  0.53656249796E+02  0.59826701144E+02  0.47000000000E+01 0. -1.
         -5    1    3    3    0  502 -0.23256586023E+02  0.16829986723E+00 -0.27337199514E+02  0.36198198789E+02  0.47000000000E+01 0.  1.
          5    1    4    4  503    0  0.26651057301E+02  0.50549367668E+02 -0.12397713502E+02  0.58662685985E+02  0.47000000000E+01 0. -1.
         -5    1    4    4    0  503 -0.19730691401E+02 -0.30437654230E+02 -0.93260255331E+01  0.37746731387E+02  0.47000000000E+01 0.  1.
<mgrwt>
<rscale>  0 0.93531929E+02</rscale>
<asrwt>0</asrwt>
<pdfrwt beam="1">  1        3 0.15156125E-01 0.93930053E+02</pdfrwt>
<pdfrwt beam="2">  1       -3 0.14449154E-01 0.93930053E+02</pdfrwt>
<totfact> 0.30649451E+03</totfact>
</mgrwt>
</event>
<event>
 8    1  0.3177960E-004  0.1075298E+03  0.7546771E-02  0.1266154E+00
         -3   -1    0    0    0  501 -0.00000000000E+00  0.00000000000E+00  0.31043040757E+03  0.31043040757E+03  0.00000000000E+00 0.  1.
          3   -1    0    0  501    0  0.00000000000E+00 -0.00000000000E+00 -0.50495812947E+02  0.50495812947E+02  0.00000000000E+00 0. -1.
         23    2    1    2    0    0 -0.56798594418E+02 -0.19267614201E+01  0.22385745916E+03  0.24750564920E+03  0.88978040154E+02 0.  0.
         23    2    1    2    0    0  0.56798594418E+02  0.19267614201E+01  0.36077135470E+02  0.11342057132E+03  0.91284574583E+02 0.  0.
          5    1    3    3  502    0  0.16858981680E+02  0.14052586315E+02  0.19827783161E+02  0.29948813508E+02  0.47000000000E+01 0. -1.
         -5    1    4    4    0  503  0.50907241165E+02 -0.37007673987E+02  0.38083575801E+02  0.73712711813E+02  0.47000000000E+01 0.  1.
          5    1    4    4  503    0  0.58913532537E+01  0.38934435408E+02 -0.20064403311E+01  0.39707859505E+02  0.47000000000E+01 0. -1.
         -5    1    3    3    0  502 -0.73657576099E+02 -0.15979347735E+02  0.20402967600E+03  0.21755683570E+03  0.47000000000E+01 0.  1.
<mgrwt>
<rscale>  0 0.10703873E+03</rscale>
<asrwt>0</asrwt>
<pdfrwt beam="1">  1        3 0.77685868E-02 0.10752984E+03</pdfrwt>
<pdfrwt beam="2">  1       -3 0.47758523E-01 0.10752984E+03</pdfrwt>
<totfact> 0.10862288E+03</totfact>
</mgrwt>
</event>
<event>
 8    1  0.4958694E-004  0.9782168E+02  0.7546771E-02  0.1293295E+00
          3   -1    0    0  501    0  0.00000000000E+00  0.00000000000E+00  0.27353104640E+03  0.27353104640E+03  0.00000000000E+00 0. -1.
         -3   -1    0    0    0  501 -0.00000000000E+00 -0.00000000000E+00 -0.42496719580E+02  0.42496719580E+02  0.00000000000E+00 0.  1.
         23    2    1    2    0    0  0.28500552962E+01 -0.25815741225E+02  0.19429775157E+03  0.21153538518E+03  0.79504890462E+02 0.  0.
         23    2    1    2    0    0 -0.28500552962E+01  0.25815741225E+02  0.36736575248E+02  0.10449238080E+03  0.94310690665E+02 0.  0.
          5    1    4    4  502    0  0.10641200069E+02  0.59519469820E+02  0.28312351221E+02  0.66928929905E+02  0.47000000000E+01 0. -1.
         -5    1    3    3    0  503 -0.20284948353E+02 -0.42869511878E+02  0.76012498643E+02  0.89717691278E+02  0.47000000000E+01 0.  1.
          5    1    3    3  503    0  0.23135003649E+02  0.17053770653E+02  0.11828525293E+03  0.12181769390E+03  0.47000000000E+01 0. -1.
         -5    1    4    4    0  502 -0.13491255365E+02 -0.33703728595E+02  0.84242240266E+01  0.37563450893E+02  0.47000000000E+01 0.  1.
<mgrwt>
<rscale>  0 0.94065310E+02</rscale>
<asrwt>0</asrwt>
<pdfrwt beam="1">  1        3 0.42081698E-01 0.97821683E+02</pdfrwt>
<pdfrwt beam="2">  1       -3 0.65379570E-02 0.97821683E+02</pdfrwt>
<totfact> 0.18016010E+03</totfact>
</mgrwt>
</event>
<event>
 8    1  0.3177960E-004  0.9396451E+02  0.7546771E-02  0.1294169E+00
          2   -1    0    0  501    0  0.00000000000E+00  0.00000000000E+00  0.35599785661E+03  0.35599785661E+03  0.00000000000E+00 0. -1.
         -2   -1    0    0    0  501 -0.00000000000E+00 -0.00000000000E+00 -0.27985087420E+02  0.27985087420E+02  0.00000000000E+00 0.  1.
         23    2    1    2    0    0 -0.20341127364E+02  0.11082806473E+01  0.23082875151E+03  0.24880135389E+03  0.90582622098E+02 0.  0.
         23    2    1    2    0    0  0.20341127364E+02 -0.11082806473E+01  0.97184017680E+02  0.13518159014E+03  0.91729707682E+02 0.  0.
          5    1    4    4  502    0  0.53719880155E+01  0.37415204465E+02  0.11261167699E+02  0.39719764329E+02  0.47000000000E+01 0. -1.
         -5    1    3    3    0  503  0.11494196801E+02 -0.21674100300E+02  0.14446401676E+02  0.28856051450E+02  0.47000000000E+01 0.  1.
          5    1    3    3  503    0 -0.31835324165E+02  0.22782380947E+02  0.21638234984E+03  0.21994530244E+03  0.47000000000E+01 0. -1.
         -5    1    4    4    0  502  0.14969139348E+02 -0.38523485112E+02  0.85922849981E+02  0.95461825810E+02  0.47000000000E+01 0.  1.
<mgrwt>
<rscale>  0 0.93683383E+02</rscale>
<asrwt>0</asrwt>
<pdfrwt beam="1">  1        2 0.54768898E-01 0.93964509E+02</pdfrwt>
<pdfrwt beam="2">  1       -2 0.43053983E-02 0.93964509E+02</pdfrwt>
<totfact> 0.20140157E+04</totfact>
</mgrwt>
</event>
<event>
 8    1  0.3177960E-004  0.1028797E+03  0.7546771E-02  0.1275249E+00
          1   -1    0    0  501    0  0.00000000000E+00  0.00000000000E+00  0.19396985971E+03  0.19396985971E+03  0.00000000000E+00 0. -1.
         -1   -1    0    0    0  501 -0.00000000000E+00 -0.00000000000E+00 -0.58437199078E+02  0.58437199078E+02  0.00000000000E+00 0.  1.
         23    2    1    2    0    0 -0.45153565228E+02  0.30876831305E+01  0.32149045641E+02  0.10778584881E+03  0.92389662995E+02 0.  0.
         23    2    1    2    0    0  0.45153565228E+02 -0.30876831305E+01  0.10338361499E+03  0.14462120998E+03  0.90436410183E+02 0.  0.
          5    1    3    3  502    0 -0.68425466666E+01  0.31676547611E+02  0.47202875252E+02  0.57449330244E+02  0.47000000000E+01 0. -1.
         -5    1    3    3    0  502 -0.38311018561E+02 -0.28588864480E+02 -0.15053829611E+02  0.50336518566E+02  0.47000000000E+01 0.  1.
          5    1    4    4  503    0  0.55368003882E+02 -0.31526476571E+02  0.91964078150E+02  0.11197774890E+03  0.47000000000E+01 0. -1.
         -5    1    4    4    0  503 -0.10214438654E+02  0.28438793440E+02  0.11419536840E+02  0.32643461076E+02  0.47000000000E+01 0.  1.
<mgrwt>
<rscale>  0 0.10243925E+03</rscale>
<asrwt>0</asrwt>
<pdfrwt beam="1">  1        1 0.29841517E-01 0.10287968E+03</pdfrwt>
<pdfrwt beam="2">  1       -1 0.89903384E-02 0.10287968E+03</pdfrwt>
<totfact> 0.10093241E+04</totfact>
</mgrwt>
</event>
<event>
 8    1  0.3177960E-004  0.9564859E+02  0.7546771E-02  0.1290471E+00
          2   -1    0    0  501    0  0.00000000000E+00  0.00000000000E+00  0.15440240637E+03  0.15440240637E+03  0.00000000000E+00 0. -1.
         -2   -1    0    0    0  501 -0.00000000000E+00 -0.00000000000E+00 -0.15996570488E+03  0.15996570488E+03  0.00000000000E+00 0.  1.
         23    2    1    2    0    0 -0.48553361542E+01 -0.22355143208E+02 -0.12800226479E+03  0.15899773611E+03  0.91500675292E+02 0.  0.
         23    2    1    2    0    0  0.48553361542E+01  0.22355143208E+02  0.12243896629E+03  0.15537037514E+03  0.92872634769E+02 0.  0.
          5    1    4    4  502    0  0.31091599785E+02  0.28383590572E+02  0.12077986515E+03  0.12799289674E+03  0.47000000000E+01 0. -1.
         -5    1    4    4    0  502 -0.26236263631E+02 -0.60284473636E+01  0.16591011392E+01  0.27377478400E+02  0.47000000000E+01 0.  1.
          5    1    3    3  503    0 -0.34110572081E+02  0.12968814786E+02 -0.20718484105E+02  0.42226376452E+02  0.47000000000E+01 0. -1.
         -5    1    3    3    0  503  0.29255235927E+02 -0.35323957995E+02 -0.10728378069E+03  0.11677135966E+03  0.47000000000E+01 0.  1.
<mgrwt>
<rscale>  0 0.95313946E+02</rscale>
<asrwt>0</asrwt>
<pdfrwt beam="1">  1        2 0.23754216E-01 0.95648591E+02</pdfrwt>
<pdfrwt beam="2">  1       -2 0.24610109E-01 0.95648591E+02</pdfrwt>
<totfact> 0.31465538E+03</totfact>
</mgrwt>
</event>
<event>
 8    1  0.3177960E-004  0.9814904E+02  0.7546771E-02  0.1286865E+00
         -1   -1    0    0    0  501 -0.00000000000E+00  0.00000000000E+00  0.17513720893E+02  0.17513720893E+02  0.00000000000E+00 0.  1.
          1   -1    0    0  501    0  0.00000000000E+00 -0.00000000000E+00 -0.52450347955E+03  0.52450347955E+03  0.00000000000E+00 0. -1.
         23    2    1    2    0    0  0.53263162804E+01  0.16005105976E+02 -0.24957970626E+03  0.26818513103E+03  0.96688684275E+02 0.  0.
         23    2    1    2    0    0 -0.53263162804E+01 -0.16005105976E+02 -0.25741005240E+03  0.27383206941E+03  0.91866936929E+02 0.  0.
          5    1    4    4  502    0  0.34140534193E+01 -0.51255275559E+02 -0.10371587688E+03  0.11583536658E+03  0.47000000000E+01 0. -1.
         -5    1    4    4    0  502 -0.87403696997E+01  0.35250169583E+02 -0.15369417552E+03  0.15799670283E+03  0.47000000000E+01 0.  1.
          5    1    3    3  503    0 -0.38088922714E+02  0.88454158141E+01 -0.18960370804E+03  0.19365088050E+03  0.47000000000E+01 0. -1.
         -5    1    3    3    0  503  0.43415238994E+02  0.71596901619E+01 -0.59975998214E+02  0.74534250529E+02  0.47000000000E+01 0.  1.
<mgrwt>
<rscale>  0 0.96940315E+02</rscale>
<asrwt>0</asrwt>
<pdfrwt beam="1">  1        1 0.80692828E-01 0.98149043E+02</pdfrwt>
<pdfrwt beam="2">  1       -1 0.26944191E-02 0.98149043E+02</pdfrwt>
<totfact> 0.17165820E+04</totfact>
</mgrwt>
</event>
<event>
 8    1  0.3177960E-004  0.1224342E+03  0.7546771E-02  0.1244232E+00
         -3   -1    0    0    0  501 -0.00000000000E+00  0.00000000000E+00  0.30320929082E+02  0.30320929082E+02  0.00000000000E+00 0.  1.
          3   -1    0    0  501    0  0.00000000000E+00 -0.00000000000E+00 -0.45869289896E+03  0.45869289896E+03  0.00000000000E+00 0. -1.
         23    2    1    2    0    0 -0.55874876988E+02 -0.60782405524E+02 -0.24227736408E+03  0.26625537643E+03  0.73328723107E+02 0.  0.
         23    2    1    2    0    0  0.55874876988E+02  0.60782405524E+02 -0.18609460580E+03  0.22275845161E+03  0.90408090112E+02 0.  0.
          5    1    3    3  502    0 -0.25056308355E+02 -0.35496636918E+02 -0.21069594529E+03  0.21518062455E+03  0.47000000000E+01 0. -1.
         -5    1    4    4    0  503  0.27247227278E+02  0.71632557326E-01 -0.31453335360E+01  0.27828037096E+02  0.47000000000E+01 0.  1.
          5    1    4    4  503    0  0.28627649710E+02  0.60710772967E+02 -0.18294927226E+03  0.19493041452E+03  0.47000000000E+01 0. -1.
         -5    1    3    3    0  502 -0.30818568633E+02 -0.25285768606E+02 -0.31581418790E+02  0.51074751878E+02  0.47000000000E+01 0.  1.
<mgrwt>
<rscale>  0 0.11931457E+03</rscale>
<asrwt>0</asrwt>
<pdfrwt beam="1">  1        3 0.70568137E-01 0.12243417E+03</pdfrwt>
<pdfrwt beam="2">  1       -3 0.46647584E-02 0.12243417E+03</pdfrwt>
<totfact> 0.11292111E+03</totfact>
</mgrwt>
</event>
<event>
 8    1  0.3177960E-004  0.1063812E+03  0.7546771E-02  0.1267576E+00
          4   -1    0    0  501    0  0.00000000000E+00  0.00000000000E+00  0.45796068992E+03  0.45796068992E+03  0.00000000000E+00 0. -1.
         -4   -1    0    0    0  501 -0.00000000000E+00 -0.00000000000E+00 -0.24838280167E+02  0.24838280167E+02  0.00000000000E+00 0.  1.
         23    2    1    2    0    0  0.53428408050E+02  0.52911093420E+01  0.19456415612E+03  0.22159600292E+03  0.91471236122E+02 0.  0.
         23    2    1    2    0    0 -0.53428408050E+02 -0.52911093420E+01  0.23855825363E+03  0.26120296717E+03  0.91838766633E+02 0.  0.
          5    1    4    4  502    0 -0.39137278337E+02  0.10961417472E+02  0.23528496604E+03  0.23881579611E+03  0.47000000000E+01 0. -1.
         -5    1    4    4    0  502 -0.14291129713E+02 -0.16252526814E+02  0.32732875946E+01  0.22387171058E+02  0.47000000000E+01 0.  1.
          5    1    3    3  503    0 -0.80186011772E+01 -0.32407742242E+02  0.66613779036E+02  0.74659529060E+02  0.47000000000E+01 0. -1.
         -5    1    3    3    0  503  0.61447009227E+02  0.37698851584E+02  0.12795037709E+03  0.14693647386E+03  0.47000000000E+01 0.  1.
<mgrwt>
<rscale>  0 0.10630178E+03</rscale>
<asrwt>0</asrwt>
<pdfrwt beam="1">  1        4 0.70455485E-01 0.10638115E+03</pdfrwt>
<pdfrwt beam="2">  1       -4 0.38212742E-02 0.10638115E+03</pdfrwt>
<totfact> 0.10820025E+03</totfact>
</mgrwt>
</event>
<event>
 8    1  0.3177960E-004  0.1009548E+03  0.7546771E-02  0.1284714E+00
          1   -1    0    0  501    0  0.00000000000E+00  0.00000000000E+00  0.35179070400E+03  0.35179070400E+03  0.00000000000E+00 0. -1.
         -1   -1    0    0    0  501 -0.00000000000E+00 -0.00000000000E+00 -0.41001501196E+02  0.41001501196E+02  0.00000000000E+00 0.  1.
         23    2    1    2    0    0 -0.83651472285E+01  0.11850352506E+02  0.26912199499E+03  0.28357672515E+03  0.88196963174E+02 0.  0.
         23    2    1    2    0    0  0.83651472285E+01 -0.11850352506E+02  0.41667207808E+02  0.10921548005E+03  0.99907248648E+02 0.  0.
          5    1    3    3  502    0  0.30091091304E+02  0.24049974990E+01  0.21032695970E+03  0.21253418023E+03  0.47000000000E+01 0. -1.
         -5    1    3    3    0  502 -0.38456238532E+02  0.94453550075E+01  0.58795035291E+02  0.71042544916E+02  0.47000000000E+01 0.  1.
          5    1    4    4  503    0  0.17555647750E+02  0.41282809782E+02  0.29006823313E+02  0.53627949338E+02  0.47000000000E+01 0. -1.
         -5    1    4    4    0  503 -0.91905005213E+01 -0.53133162289E+02  0.12660384495E+02  0.55587530708E+02  0.47000000000E+01 0.  1.
<mgrwt>
<rscale>  0 0.97928122E+02</rscale>
<asrwt>0</asrwt>
<pdfrwt beam="1">  1        1 0.54121645E-01 0.10095477E+03</pdfrwt>
<pdfrwt beam="2">  1       -1 0.63079235E-02 0.10095477E+03</pdfrwt>
<totfact> 0.82359644E+03</totfact>
</mgrwt>
</event>
<event>
 8    1  0.3177960E-004  0.1480464E+03  0.7546771E-02  0.1209590E+00
          1   -1    0    0  501    0  0.00000000000E+00  0.00000000000E+00  0.93222169931E+02  0.93222169931E+02  0.00000000000E+00 0. -1.
         -1   -1    0    0    0  501 -0.00000000000E+00 -0.00000000000E+00 -0.39478997971E+03  0.39478997971E+03  0.00000000000E+00 0.  1.
         23    2    1    2    0    0 -0.86681790518E+02 -0.26329251748E+02  0.12709736982E+02  0.14859097057E+03  0.11709302633E+03 0.  0.
         23    2    1    2    0    0  0.86681790518E+02  0.26329251748E+02 -0.31427754676E+03  0.33942117907E+03  0.90716029997E+02 0.  0.
          5    1    4    4  502    0  0.38676842221E+02 -0.11355109050E+01 -0.28455848919E+02  0.48259847149E+02  0.47000000000E+01 0. -1.
         -5    1    3    3    0  503  0.17269418182E+02  0.24532311192E+02 -0.68460762800E+01  0.31129180156E+02  0.47000000000E+01 0.  1.
          5    1    3    3  503    0 -0.10395120870E+03 -0.50861562940E+02  0.19555813262E+02  0.11746179041E+03  0.47000000000E+01 0. -1.
         -5    1    4    4    0  502  0.48004948297E+02  0.27464762653E+02 -0.28582169784E+03  0.29116133192E+03  0.47000000000E+01 0.  1.
<mgrwt>
<rscale>  0 0.14281510E+03</rscale>
<asrwt>0</asrwt>
<pdfrwt beam="1">  1        1 0.14341872E-01 0.14804641E+03</pdfrwt>
<pdfrwt beam="2">  1       -1 0.60736920E-01 0.14804641E+03</pdfrwt>
<totfact> 0.11081820E+03</totfact>
</mgrwt>
</event>
<event>
 8    1  0.3177960E-004  0.1448156E+03  0.7546771E-02  0.1207084E+00
          1   -1    0    0  501    0  0.00000000000E+00  0.00000000000E+00  0.17652225611E+03  0.17652225611E+03  0.00000000000E+00 0. -1.
         -1   -1    0    0    0  501 -0.00000000000E+00 -0.00000000000E+00 -0.12654748653E+03  0.12654748653E+03  0.00000000000E+00 0.  1.
         23    2    1    2    0    0  0.21960572960E+02 -0.10884153901E+03  0.63010304406E+02  0.15766867982E+03  0.92522250067E+02 0.  0.
         23    2    1    2    0    0 -0.21960572960E+02  0.10884153901E+03 -0.13035534823E+02  0.14540106281E+03  0.92966641974E+02 0.  0.
          5    1    4    4  502    0  0.18704399254E+02 -0.78083865762E+01 -0.56320605450E+01  0.21555406708E+02  0.47000000000E+01 0. -1.
         -5    1    4    4    0  502 -0.40664972214E+02  0.11664992559E+03 -0.74034742779E+01  0.12384565610E+03  0.47000000000E+01 0.  1.
          5    1    3    3  503    0  0.26551289741E+00 -0.91800839528E+02  0.35938383695E+01  0.91991686088E+02  0.47000000000E+01 0. -1.
         -5    1    3    3    0  503  0.21695060062E+02 -0.17040699481E+02  0.59416466036E+02  0.65676993736E+02  0.47000000000E+01 0.  1.
<mgrwt>
<rscale>  0 0.14474428E+03</rscale>
<asrwt>0</asrwt>
<pdfrwt beam="1">  1        1 0.27157270E-01 0.14481555E+03</pdfrwt>
<pdfrwt beam="2">  1       -1 0.19468844E-01 0.14481555E+03</pdfrwt>
<totfact> 0.35045038E+03</totfact>
</mgrwt>
</event>
<event>
 8    1  0.3177960E-004  0.1154924E+03  0.7546771E-02  0.1251248E+00
          1   -1    0    0  501    0  0.00000000000E+00  0.00000000000E+00  0.52142250907E+03  0.52142250907E+03  0.00000000000E+00 0. -1.
         -1   -1    0    0    0  501 -0.00000000000E+00 -0.00000000000E+00 -0.76685860495E+02  0.76685860495E+02  0.00000000000E+00 0.  1.
         23    2    1    2    0    0 -0.44966226933E+02 -0.51230384168E+02 -0.22010917142E+02  0.11757118958E+03  0.93230844253E+02 0.  0.
         23    2    1    2    0    0  0.44966226933E+02  0.51230384168E+02  0.46674756572E+03  0.48053717998E+03  0.91739726484E+02 0.  0.
          5    1    3    3  502    0  0.20099721708E+02 -0.44528413469E+02 -0.16421616721E+02  0.51754593173E+02  0.47000000000E+01 0. -1.
         -5    1    3    3    0  502 -0.65065948642E+02 -0.67019706993E+01 -0.55893004209E+01  0.65816596411E+02  0.47000000000E+01 0.  1.
          5    1    4    4  503    0  0.61087646697E+02  0.65056464603E+02  0.41294030841E+03  0.42249950588E+03  0.47000000000E+01 0. -1.
         -5    1    4    4    0  503 -0.16121419763E+02 -0.13826080435E+02  0.53807257310E+02  0.58037674097E+02  0.47000000000E+01 0.  1.
<mgrwt>
<rscale>  0 0.11519119E+03</rscale>
<asrwt>0</asrwt>
<pdfrwt beam="1">  1        1 0.80218845E-01 0.11549244E+03</pdfrwt>
<pdfrwt beam="2">  1       -1 0.11797825E-01 0.11549244E+03</pdfrwt>
<totfact> 0.19646190E+03</totfact>
</mgrwt>
</event>
<event>
 8    1  0.3177960E-004  0.9463732E+02  0.7546771E-02  0.1292728E+00
          2   -1    0    0  501    0  0.00000000000E+00  0.00000000000E+00  0.19179993246E+03  0.19179993246E+03  0.00000000000E+00 0. -1.
         -2   -1    0    0    0  501 -0.00000000000E+00 -0.00000000000E+00 -0.50049321143E+02  0.50049321143E+02  0.00000000000E+00 0.  1.
         23    2    1    2    0    0  0.20612579150E+02  0.11859937680E+01  0.10455284798E+03  0.14016397840E+03  0.91040418607E+02 0.  0.
         23    2    1    2    0    0 -0.20612579150E+02 -0.11859937680E+01  0.37197763343E+02  0.10168527521E+03  0.92357655859E+02 0.  0.
          5    1    4    4  502    0  0.10741258264E+02  0.38436320805E+02  0.26016554124E+01  0.40268896149E+02  0.47000000000E+01 0. -1.
         -5    1    3    3    0  503  0.47998700489E+02 -0.12256630524E+02  0.96005106694E+02  0.10813496544E+03  0.47000000000E+01 0.  1.
          5    1    3    3  503    0 -0.27386121338E+02  0.13442624292E+02  0.85477412835E+01  0.32029012955E+02  0.47000000000E+01 0. -1.
         -5    1    4    4    0  502 -0.31353837414E+02 -0.39622314573E+02  0.34596107930E+02  0.61416379058E+02  0.47000000000E+01 0.  1.
<mgrwt>
<rscale>  0 0.94314401E+02</rscale>
<asrwt>0</asrwt>
<pdfrwt beam="1">  1        2 0.29507681E-01 0.94637316E+02</pdfrwt>
<pdfrwt beam="2">  1       -2 0.76998957E-02 0.94637316E+02</pdfrwt>
<totfact> 0.16174954E+04</totfact>
</mgrwt>
</event>
<event>
 8    1  0.3177960E-004  0.9714675E+02  0.7546771E-02  0.1292221E+00
         -3   -1    0    0    0  501 -0.00000000000E+00  0.00000000000E+00  0.27481434547E+03  0.27481434547E+03  0.00000000000E+00 0.  1.
          3   -1    0    0  501    0  0.00000000000E+00 -0.00000000000E+00 -0.13109601243E+03  0.13109601243E+03  0.00000000000E+00 0. -1.
         23    2    1    2    0    0  0.15722768820E+02  0.22831881241E+02  0.24831720524E+03  0.26315737374E+03  0.82594604378E+02 0.  0.
         23    2    1    2    0    0 -0.15722768820E+02 -0.22831881241E+02 -0.10459887221E+03  0.14275298416E+03  0.93107411945E+02 0.  0.
          5    1    4    4  502    0  0.13229433338E+02  0.23890551511E+02 -0.75411189848E+02  0.80341234197E+02  0.47000000000E+01 0. -1.
         -5    1    3    3    0  503  0.19394578300E+02  0.51014801214E+02  0.19508987337E+03  0.20263466708E+03  0.47000000000E+01 0.  1.
          5    1    3    3  503    0 -0.36718094795E+01 -0.28182919973E+02  0.53227331871E+02  0.60522706657E+02  0.47000000000E+01 0. -1.
         -5    1    4    4    0  502 -0.28952202158E+02 -0.46722432752E+02 -0.29187682362E+02  0.62411749965E+02  0.47000000000E+01 0.  1.
<mgrwt>
<rscale>  0 0.94537488E+02</rscale>
<asrwt>0</asrwt>
<pdfrwt beam="1">  1        3 0.20168617E-01 0.97146747E+02</pdfrwt>
<pdfrwt beam="2">  1       -3 0.42279130E-01 0.97146747E+02</pdfrwt>
<totfact> 0.27408046E+02</totfact>
</mgrwt>
</event>
<event>
 8    1  0.3177960E-004  0.1075320E+03  0.7546771E-02  0.1265732E+00
          2   -1    0    0  501    0  0.00000000000E+00  0.00000000000E+00  0.12104311861E+04  0.12104311861E+04  0.00000000000E+00 0. -1.
         -2   -1    0    0    0  501 -0.00000000000E+00 -0.00000000000E+00 -0.97670074303E+01  0.97670074303E+01  0.00000000000E+00 0.  1.
         23    2    1    2    0    0 -0.25457145708E+02 -0.47946506012E+02  0.71209015098E+03  0.72016353044E+03  0.92823454725E+02 0.  0.
         23    2    1    2    0    0  0.25457145708E+02  0.47946506012E+02  0.48857402769E+03  0.50003466309E+03  0.91559543752E+02 0.  0.
          5    1    3    3  502    0  0.33972704291E+02 -0.21038165694E+02  0.33951650478E+03  0.34189222874E+03  0.47000000000E+01 0. -1.
         -5    1    3    3    0  502 -0.59429849999E+02 -0.26908340319E+02  0.37257364619E+03  0.37827130169E+03  0.47000000000E+01 0.  1.
          5    1    4    4  503    0  0.34329011976E+02  0.68789852295E+02  0.28767354563E+03  0.29780645342E+03  0.47000000000E+01 0. -1.
         -5    1    4    4    0  503 -0.88718662679E+01 -0.20843346282E+02  0.20090048206E+03  0.20222820967E+03  0.47000000000E+01 0.  1.
<mgrwt>
<rscale>  0 0.10725866E+03</rscale>
<asrwt>0</asrwt>
<pdfrwt beam="1">  1        2 0.18622006E+00 0.10753198E+03</pdfrwt>
<pdfrwt beam="2">  1       -2 0.15026175E-02 0.10753198E+03</pdfrwt>
<totfact> 0.21821151E+04</totfact>
</mgrwt>
</event>
<event>
 8    1  0.3177960E-004  0.9982930E+02  0.7546771E-02  0.1282661E+00
          2   -1    0    0  501    0  0.00000000000E+00  0.00000000000E+00  0.47068872795E+03  0.47068872795E+03  0.00000000000E+00 0. -1.
         -2   -1    0    0    0  501 -0.00000000000E+00 -0.00000000000E+00 -0.20905421584E+02  0.20905421584E+02  0.00000000000E+00 0.  1.
         23    2    1    2    0    0 -0.19396186914E+02 -0.26932987906E+02  0.19045675204E+03  0.21503409671E+03  0.94150360837E+02 0.  0.
         23    2    1    2    0    0  0.19396186914E+02  0.26932987906E+02  0.25932655433E+03  0.27656005282E+03  0.90186490867E+02 0.  0.
          5    1    4    4  502    0  0.40802395004E+02  0.26082588351E+02  0.24628096975E+03  0.25104091880E+03  0.47000000000E+01 0. -1.
         -5    1    3    3    0  503 -0.27782244556E+02  0.22821558308E+02  0.13555339919E+03  0.14031924553E+03  0.47000000000E+01 0.  1.
          5    1    3    3  503    0  0.83860576412E+01 -0.49754546214E+02  0.54903352856E+02  0.74714851178E+02  0.47000000000E+01 0. -1.
         -5    1    4    4    0  502 -0.21406208089E+02  0.85039955430E+00  0.13045584575E+02  0.25519134019E+02  0.47000000000E+01 0.  1.
<mgrwt>
<rscale>  0 0.98883607E+02</rscale>
<asrwt>0</asrwt>
<pdfrwt beam="1">  1        2 0.72413643E-01 0.99829296E+02</pdfrwt>
<pdfrwt beam="2">  1       -2 0.32162191E-02 0.99829296E+02</pdfrwt>
<totfact> 0.23136246E+04</totfact>
</mgrwt>
</event>
<event>
 8    1  0.3177960E-004  0.1171213E+03  0.7546771E-02  0.1248413E+00
         -3   -1    0    0    0  501 -0.00000000000E+00  0.00000000000E+00  0.19764133550E+03  0.19764133550E+03  0.00000000000E+00 0.  1.
          3   -1    0    0  501    0  0.00000000000E+00 -0.00000000000E+00 -0.94272002941E+02  0.94272002941E+02  0.00000000000E+00 0. -1.
         23    2    1    2    0    0 -0.72406446599E+02 -0.22085490980E+02  0.12784381212E+03  0.17338238147E+03  0.89369723550E+02 0.  0.
         23    2    1    2    0    0  0.72406446599E+02  0.22085490980E+02 -0.24474479558E+02  0.11853095697E+03  0.87864242952E+02 0.  0.
          5    1    4    4  502    0 -0.11143649421E+02  0.23980371926E+02  0.90818738199E+01  0.28351535976E+02  0.47000000000E+01 0. -1.
         -5    1    3    3    0  503  0.15312108662E+02 -0.17254185548E+02  0.83168526625E+01  0.24968532773E+02  0.47000000000E+01 0.  1.
          5    1    3    3  503    0 -0.87718555261E+02 -0.48313054320E+01  0.11952695946E+03  0.14841384870E+03  0.47000000000E+01 0. -1.
         -5    1    4    4    0  502  0.83550096020E+02 -0.18948809458E+01 -0.33556353378E+02  0.90179420994E+02  0.47000000000E+01 0.  1.
<mgrwt>
<rscale>  0 0.11683412E+03</rscale>
<asrwt>0</asrwt>
<pdfrwt beam="1">  1        3 0.14503385E-01 0.11712135E+03</pdfrwt>
<pdfrwt beam="2">  1       -3 0.30406359E-01 0.11712135E+03</pdfrwt>
<totfact> 0.92766272E+02</totfact>
</mgrwt>
</event>
<event>
 8    1  0.3177960E-004  0.9561124E+02  0.7546771E-02  0.1290271E+00
          3   -1    0    0  501    0  0.00000000000E+00  0.00000000000E+00  0.44690584005E+02  0.44690584005E+02  0.00000000000E+00 0. -1.
         -3   -1    0    0    0  501 -0.00000000000E+00 -0.00000000000E+00 -0.33123620533E+03  0.33123620533E+03  0.00000000000E+00 0.  1.
         23    2    1    2    0    0  0.55858530296E+01  0.25525003495E+02 -0.25994335869E+03  0.27668370212E+03  0.91107594291E+02 0.  0.
         23    2    1    2    0    0 -0.55858530296E+01 -0.25525003495E+02 -0.26602262638E+02  0.99243087211E+02  0.91971639239E+02 0.  0.
          5    1    3    3  502    0 -0.17932978407E+02 -0.92635079737E+01 -0.96715760531E+01  0.22869929555E+02  0.47000000000E+01 0. -1.
         -5    1    4    4    0  503 -0.14088239713E+01  0.28622043463E+02 -0.33457988888E+02  0.44302744581E+02  0.47000000000E+01 0.  1.
          5    1    4    4  503    0 -0.41770290583E+01 -0.54147046958E+02  0.68557262494E+01  0.54940342631E+02  0.47000000000E+01 0. -1.
         -5    1    3    3    0  502  0.23518831436E+02  0.34788511469E+02 -0.25027178264E+03  0.25381377257E+03  0.47000000000E+01 0.  1.
<mgrwt>
<rscale>  0 0.95402849E+02</rscale>
<asrwt>0</asrwt>
<pdfrwt beam="1">  1        3 0.68754743E-02 0.95611244E+02</pdfrwt>
<pdfrwt beam="2">  1       -3 0.50959417E-01 0.95611244E+02</pdfrwt>
<totfact> 0.11379862E+03</totfact>
</mgrwt>
</event>
<event>
 8    1  0.3177960E-004  0.1045016E+03  0.7546771E-02  0.1279001E+00
         -1   -1    0    0    0  501 -0.00000000000E+00  0.00000000000E+00  0.20298799357E+02  0.20298799357E+02  0.00000000000E+00 0.  1.
          1   -1    0    0  501    0  0.00000000000E+00 -0.00000000000E+00 -0.47220792741E+03  0.47220792741E+03  0.00000000000E+00 0. -1.
         23    2    1    2    0    0  0.12863382940E+01  0.76682023921E+01 -0.17885843877E+03  0.20014178944E+03  0.89475911673E+02 0.  0.
         23    2    1    2    0    0 -0.12863382940E+01 -0.76682023921E+01 -0.27305068929E+03  0.29236493732E+03  0.10421190749E+03 0.  0.
          5    1    4    4  502    0  0.25163263159E+02 -0.87843659422E+01 -0.26183888260E+03  0.26323382256E+03  0.47000000000E+01 0. -1.
         -5    1    3    3    0  503 -0.36336122168E+02  0.25786703812E+02 -0.66522059907E+02  0.80203131622E+02  0.47000000000E+01 0.  1.
          5    1    3    3  503    0  0.37622460462E+02 -0.18118501420E+02 -0.11233637886E+03  0.11993865782E+03  0.47000000000E+01 0. -1.
         -5    1    4    4    0  502 -0.26449601453E+02  0.11161635501E+01 -0.11211806683E+02  0.29131114760E+02  0.47000000000E+01 0.  1.
<mgrwt>
<rscale>  0 0.10061831E+03</rscale>
<asrwt>0</asrwt>
<pdfrwt beam="1">  1        1 0.72647369E-01 0.10450157E+03</pdfrwt>
<pdfrwt beam="2">  1       -1 0.31228924E-02 0.10450157E+03</pdfrwt>
<totfact> 0.15975969E+04</totfact>
</mgrwt>
</event>
<event>
 8    1  0.3177960E-004  0.1029468E+03  0.7546771E-02  0.1276853E+00
          2   -1    0    0  501    0  0.00000000000E+00  0.00000000000E+00  0.22451812729E+03  0.22451812729E+03  0.00000000000E+00 0. -1.
         -2   -1    0    0    0  501 -0.00000000000E+00 -0.00000000000E+00 -0.47295158074E+02  0.47295158074E+02  0.00000000000E+00 0.  1.
         23    2    1    2    0    0 -0.33751986899E+02  0.13259823614E+02  0.60210876355E+02  0.11926189479E+03  0.96348484029E+02 0.  0.
         23    2    1    2    0    0  0.33751986899E+02 -0.13259823614E+02  0.11701209287E+03  0.15255139058E+03  0.90912470816E+02 0.  0.
          5    1    3    3  502    0  0.19022987357E+02  0.35021758135E+02  0.44383958473E+02  0.59836638948E+02  0.47000000000E+01 0. -1.
         -5    1    3    3    0  502 -0.52774974256E+02 -0.21761934520E+02  0.15826917882E+02  0.59425255839E+02  0.47000000000E+01 0.  1.
          5    1    4    4  503    0  0.23433243389E+01  0.37537181227E+02  0.42601898647E+02  0.57022301880E+02  0.47000000000E+01 0. -1.
         -5    1    4    4    0  503  0.31408662560E+02 -0.50797004841E+02  0.74410194219E+02  0.95529088702E+02  0.47000000000E+01 0.  1.
<mgrwt>
<rscale>  0 0.10165552E+03</rscale>
<asrwt>0</asrwt>
<pdfrwt beam="1">  1        2 0.34541250E-01 0.10294683E+03</pdfrwt>
<pdfrwt beam="2">  1       -2 0.72761783E-02 0.10294683E+03</pdfrwt>
<totfact> 0.15028711E+04</totfact>
</mgrwt>
</event>
<event>
 8    1  0.3177960E-004  0.1019474E+03  0.7546771E-02  0.1277485E+00
          1   -1    0    0  501    0  0.00000000000E+00  0.00000000000E+00  0.26993652191E+03  0.26993652191E+03  0.00000000000E+00 0. -1.
         -1   -1    0    0    0  501 -0.00000000000E+00 -0.00000000000E+00 -0.47838929440E+02  0.47838929440E+02  0.00000000000E+00 0.  1.
         23    2    1    2    0    0 -0.31934243232E+01  0.42957141204E+02  0.36559765683E+02  0.10607388464E+03  0.89774933012E+02 0.  0.
         23    2    1    2    0    0  0.31934243232E+01 -0.42957141204E+02  0.18553782678E+03  0.21170156670E+03  0.92399968817E+02 0.  0.
          5    1    3    3  502    0 -0.20055994456E+02  0.92275523183E+01  0.58143172574E+02  0.62370739553E+02  0.47000000000E+01 0. -1.
         -5    1    3    3    0  502  0.16862570132E+02  0.33729588885E+02 -0.21583406891E+02  0.43703145091E+02  0.47000000000E+01 0.  1.
          5    1    4    4  503    0  0.37409741061E+02  0.61802731044E+01  0.10112561044E+03  0.10810256051E+03  0.47000000000E+01 0. -1.
         -5    1    4    4    0  503 -0.34216316738E+02 -0.49137414308E+02  0.84412216342E+02  0.10359900619E+03  0.47000000000E+01 0.  1.
<mgrwt>
<rscale>  0 0.10134887E+03</rscale>
<asrwt>0</asrwt>
<pdfrwt beam="1">  1        1 0.41528695E-01 0.10194738E+03</pdfrwt>
<pdfrwt beam="2">  1       -1 0.73598355E-02 0.10194738E+03</pdfrwt>
<totfact> 0.90727137E+03</totfact>
</mgrwt>
</event>
<event>
 8    1  0.3177960E-004  0.1508433E+03  0.7546771E-02  0.1200520E+00
          1   -1    0    0  501    0  0.00000000000E+00  0.00000000000E+00  0.97174919317E+03  0.97174919317E+03  0.00000000000E+00 0. -1.
         -1   -1    0    0    0  501 -0.00000000000E+00 -0.00000000000E+00 -0.23647297501E+02  0.23647297501E+02  0.00000000000E+00 0.  1.
         23    2    1    2    0    0  0.82699885198E+02 -0.85963653263E+02  0.55857430263E+03  0.57768195125E+03  0.86499506088E+02 0.  0.
         23    2    1    2    0    0 -0.82699885198E+02  0.85963653263E+02  0.38952759304E+03  0.41771453942E+03  0.92329139525E+02 0.  0.
          5    1    4    4  502    0 -0.41165008983E+01  0.57956092877E+02  0.23412297295E+03  0.24127061724E+03  0.47000000000E+01 0. -1.
         -5    1    4    4    0  502 -0.78583384300E+02  0.28007560386E+02  0.15540462009E+03  0.17644392218E+03  0.47000000000E+01 0.  1.
          5    1    3    3  503    0  0.59387657462E+02 -0.74162466909E+01  0.31453086616E+03  0.32020876056E+03  0.47000000000E+01 0. -1.
         -5    1    3    3    0  503  0.23312227736E+02 -0.78547406573E+02  0.24404343647E+03  0.25747319069E+03  0.47000000000E+01 0.  1.
<mgrwt>
<rscale>  0 0.14996154E+03</rscale>
<asrwt>0</asrwt>
<pdfrwt beam="1">  1        1 0.14949985E+00 0.15084327E+03</pdfrwt>
<pdfrwt beam="2">  1       -1 0.36380465E-02 0.15084327E+03</pdfrwt>
<totfact> 0.46665366E+03</totfact>
</mgrwt>
</event>
<event>
 8    1  0.3177960E-004  0.1221772E+03  0.7546771E-02  0.1241057E+00
         -2   -1    0    0    0  501 -0.00000000000E+00  0.00000000000E+00  0.17833115954E+03  0.17833115954E+03  0.00000000000E+00 0.  1.
          2   -1    0    0  501    0  0.00000000000E+00 -0.00000000000E+00 -0.15482841138E+03  0.15482841138E+03  0.00000000000E+00 0. -1.
         23    2    1    2    0    0 -0.27469297101E+02 -0.75612952801E+02 -0.10320965474E+03  0.15713879844E+03  0.86997058741E+02 0.  0.
         23    2    1    2    0    0  0.27469297101E+02  0.75612952801E+02  0.12671240290E+03  0.17602077247E+03  0.91953240168E+02 0.  0.
          5    1    3    3  502    0  0.17869853478E+02 -0.60680118863E+02 -0.84487471965E+02  0.10564862236E+03  0.47000000000E+01 0. -1.
         -5    1    4    4    0  503 -0.16916394598E+02  0.15599440516E+02  0.89409313532E+02  0.92442535106E+02  0.47000000000E+01 0.  1.
          5    1    4    4  503    0  0.44385691699E+02  0.60013512285E+02  0.37303089370E+02  0.83578237364E+02  0.47000000000E+01 0. -1.
         -5    1    3    3    0  502 -0.45339150579E+02 -0.14932833938E+02 -0.18722182778E+02  0.51490176079E+02  0.47000000000E+01 0.  1.
<mgrwt>
<rscale>  0 0.12124534E+03</rscale>
<asrwt>0</asrwt>
<pdfrwt beam="1">  1        2 0.23819755E-01 0.12217725E+03</pdfrwt>
<pdfrwt beam="2">  1       -2 0.27435563E-01 0.12217725E+03</pdfrwt>
<totfact> 0.26299473E+03</totfact>
</mgrwt>
</event>
<event>
 8    1  0.3177960E-004  0.1160001E+03  0.7546771E-02  0.1250481E+00
          1   -1    0    0  501    0  0.00000000000E+00  0.00000000000E+00  0.24295090842E+02  0.24295090842E+02  0.00000000000E+00 0. -1.
         -1   -1    0    0    0  501 -0.00000000000E+00 -0.00000000000E+00 -0.58954253149E+03  0.58954253149E+03  0.00000000000E+00 0.  1.
         23    2    1    2    0    0  0.35457387686E+02  0.58918877995E+02 -0.19840807773E+03  0.22909467135E+03  0.91596629891E+02 0.  0.
         23    2    1    2    0    0 -0.35457387686E+02 -0.58918877995E+02 -0.36683936291E+03  0.38474295098E+03  0.93420338351E+02 0.  0.
          5    1    4    4  502    0 -0.31511901127E+02 -0.84164150018E+02 -0.28115449663E+03  0.29520593665E+03  0.47000000000E+01 0. -1.
         -5    1    3    3    0  503 -0.11533454388E+02  0.64556086101E+02 -0.13131239150E+03  0.14685211263E+03  0.47000000000E+01 0.  1.
          5    1    3    3  503    0  0.46990842074E+02 -0.56372081064E+01 -0.67095686227E+02  0.82242558718E+02  0.47000000000E+01 0. -1.
         -5    1    4    4    0  502 -0.39454865593E+01  0.25245272023E+02 -0.85684866285E+02  0.89537014323E+02  0.47000000000E+01 0.  1.
<mgrwt>
<rscale>  0 0.11563244E+03</rscale>
<asrwt>0</asrwt>
<pdfrwt beam="1">  1        1 0.37377064E-02 0.11600009E+03</pdfrwt>
<pdfrwt beam="2">  1       -1 0.90698848E-01 0.11600009E+03</pdfrwt>
<totfact> 0.29826425E+03</totfact>
</mgrwt>
</event>
<event>
 8    1  0.3177960E-004  0.1032819E+03  0.7546771E-02  0.1275420E+00
          2   -1    0    0  501    0  0.00000000000E+00  0.00000000000E+00  0.26423149217E+03  0.26423149217E+03  0.00000000000E+00 0. -1.
         -2   -1    0    0    0  501 -0.00000000000E+00 -0.00000000000E+00 -0.51029151751E+02  0.51029151751E+02  0.00000000000E+00 0.  1.
         23    2    1    2    0    0 -0.35127933446E+02 -0.31786145991E+02  0.31396300430E+02  0.10794850952E+03  0.91775934983E+02 0.  0.
         23    2    1    2    0    0  0.35127933446E+02  0.31786145991E+02  0.18180603999E+03  0.20731213440E+03  0.87638770575E+02 0.  0.
          5    1    4    4  502    0  0.55037926345E+02  0.45917041332E+02  0.15450524666E+03  0.17038635293E+03  0.47000000000E+01 0. -1.
         -5    1    3    3    0  503 -0.51272744669E+02 -0.27873681464E+01 -0.12168744112E+02  0.52979544169E+02  0.47000000000E+01 0.  1.
          5    1    3    3  503    0  0.16144811223E+02 -0.28998777844E+02  0.43565044542E+02  0.54968965352E+02  0.47000000000E+01 0. -1.
         -5    1    4    4    0  502 -0.19909992899E+02 -0.14130895342E+02  0.27300793328E+02  0.36925781464E+02  0.47000000000E+01 0.  1.
<mgrwt>
<rscale>  0 0.10235496E+03</rscale>
<asrwt>0</asrwt>
<pdfrwt beam="1">  1        2 0.40650998E-01 0.10328191E+03</pdfrwt>
<pdfrwt beam="2">  1       -2 0.78506389E-02 0.10328191E+03</pdfrwt>
<totfact> 0.11268020E+04</totfact>
</mgrwt>
</event>
<event>
 8    1  0.3177960E-004  0.9365549E+02  0.7546771E-02  0.1298302E+00
         -1   -1    0    0    0  501 -0.00000000000E+00  0.00000000000E+00  0.63199746336E+02  0.63199746336E+02  0.00000000000E+00 0.  1.
          1   -1    0    0  501    0  0.00000000000E+00 -0.00000000000E+00 -0.14875850813E+03  0.14875850813E+03  0.00000000000E+00 0. -1.
         23    2    1    2    0    0  0.13059942440E+02 -0.10165688573E+02 -0.54640377525E+01  0.93814743271E+02  0.92181598086E+02 0.  0.
         23    2    1    2    0    0 -0.13059942440E+02  0.10165688573E+02 -0.80094724043E+02  0.11814351120E+03  0.85257381486E+02 0.  0.
          5    1    4    4  502    0 -0.17212190453E+02 -0.29761219852E+02 -0.67353036167E+02  0.75766161234E+02  0.47000000000E+01 0. -1.
         -5    1    3    3    0  503  0.33246415816E+02 -0.10816408412E+02  0.34152063356E+02  0.49099615956E+02  0.47000000000E+01 0.  1.
          5    1    3    3  503    0 -0.20186473376E+02  0.65071983880E+00 -0.39616101109E+02  0.44715127314E+02  0.47000000000E+01 0. -1.
         -5    1    4    4    0  502  0.41522480125E+01  0.39926908426E+02 -0.12741687876E+02  0.42377349964E+02  0.47000000000E+01 0.  1.
<mgrwt>
<rscale>  0 0.91905384E+02</rscale>
<asrwt>0</asrwt>
<pdfrwt beam="1">  1        1 0.22885924E-01 0.93655488E+02</pdfrwt>
<pdfrwt beam="2">  1       -1 0.97230378E-02 0.93655488E+02</pdfrwt>
<totfact> 0.12356426E+04</totfact>
</mgrwt>
</event>
<event>
 8    1  0.3177960E-004  0.2081377E+03  0.7546771E-02  0.1143127E+00
         -2   -1    0    0    0  501 -0.00000000000E+00  0.00000000000E+00  0.17966946264E+03  0.17966946264E+03  0.00000000000E+00 0.  1.
          2   -1    0    0  501    0  0.00000000000E+00 -0.00000000000E+00 -0.33192049382E+03  0.33192049382E+03  0.00000000000E+00 0. -1.
         23    2    1    2    0    0  0.24462723816E+02 -0.18543236393E+03 -0.21019657757E+03  0.29553672132E+03  0.90419942355E+02 0.  0.
         23    2    1    2    0    0 -0.24462723816E+02  0.18543236393E+03  0.57945546381E+02  0.21605323515E+03  0.91311158257E+02 0.  0.
          5    1    3    3  502    0 -0.25958386228E+01 -0.16576111102E+03 -0.20087477405E+03  0.26049232072E+03  0.47000000000E+01 0. -1.
         -5    1    4    4    0  503 -0.14402692338E+01  0.87314130870E+02  0.73161343391E+02  0.11401975264E+03  0.47000000000E+01 0.  1.
          5    1    4    4  503    0 -0.23022454582E+02  0.98118233060E+02 -0.15215797009E+02  0.10203348251E+03  0.47000000000E+01 0. -1.
         -5    1    3    3    0  502  0.27058562438E+02 -0.19671252909E+02 -0.93218035197E+01  0.35044400596E+02  0.47000000000E+01 0.  1.
<mgrwt>
<rscale>  0 0.20804030E+03</rscale>
<asrwt>0</asrwt>
<pdfrwt beam="1">  1        2 0.51064690E-01 0.20813773E+03</pdfrwt>
<pdfrwt beam="2">  1       -2 0.27641456E-01 0.20813773E+03</pdfrwt>
<totfact> 0.11585445E+03</totfact>
</mgrwt>
</event>
<event>
 8    1  0.3177960E-004  0.9471221E+02  0.7546771E-02  0.1292571E+00
          2   -1    0    0  501    0  0.00000000000E+00  0.00000000000E+00  0.13372144070E+03  0.13372144070E+03  0.00000000000E+00 0. -1.
         -2   -1    0    0    0  501 -0.00000000000E+00 -0.00000000000E+00 -0.71120154957E+02  0.71120154957E+02  0.00000000000E+00 0.  1.
         23    2    1    2    0    0 -0.16458604885E+02 -0.18934771418E+02  0.58554912955E+02  0.11135116172E+03  0.91329032307E+02 0.  0.
         23    2    1    2    0    0  0.16458604885E+02  0.18934771418E+02  0.40463727914E+01  0.93490433940E+02  0.89970422151E+02 0.  0.
          5    1    4    4  502    0 -0.19325042796E+02  0.41700351209E+02 -0.12276936221E+02  0.47803658154E+02  0.47000000000E+01 0. -1.
         -5    1    3    3    0  503  0.23073082234E+01 -0.32763139225E+02 -0.13238157655E+02  0.35722342885E+02  0.47000000000E+01 0.  1.
          5    1    3    3  503    0 -0.18765913109E+02  0.13828367807E+02  0.71793070609E+02  0.75628818836E+02  0.47000000000E+01 0. -1.
         -5    1    4    4    0  502  0.35783647681E+02 -0.22765579790E+02  0.16323309013E+02  0.45686775785E+02  0.47000000000E+01 0.  1.
<mgrwt>
<rscale>  0 0.94383156E+02</rscale>
<asrwt>0</asrwt>
<pdfrwt beam="1">  1        2 0.20572529E-01 0.94712213E+02</pdfrwt>
<pdfrwt beam="2">  1       -2 0.10941562E-01 0.94712213E+02</pdfrwt>
<totfact> 0.13933391E+04</totfact>
</mgrwt>
</event>
<event>
 8    1  0.3177960E-004  0.9414363E+02  0.7546771E-02  0.1293359E+00
         -1   -1    0    0    0  501 -0.00000000000E+00  0.00000000000E+00  0.15359618799E+02  0.15359618799E+02  0.00000000000E+00 0.  1.
          1   -1    0    0  501    0  0.00000000000E+00 -0.00000000000E+00 -0.57653536702E+03  0.57653536702E+03  0.00000000000E+00 0. -1.
         23    2    1    2    0    0  0.26337329836E+02 -0.40425412801E+01 -0.26334597966E+03  0.27966789043E+03  0.90294113046E+02 0.  0.
         23    2    1    2    0    0 -0.26337329836E+02  0.40425412801E+01 -0.29782976856E+03  0.31222709539E+03  0.89850937515E+02 0.  0.
          5    1    4    4  502    0  0.31747463754E+02 -0.11819227328E+01 -0.70183864192E+02  0.77182661195E+02  0.47000000000E+01 0. -1.
         -5    1    3    3    0  503 -0.51978893806E+01 -0.39445909000E+02 -0.71145831943E+02  0.81650579874E+02  0.47000000000E+01 0. -1.
          5    1    3    3  503    0  0.31535219216E+02  0.35403367720E+02 -0.19220014772E+03  0.19801731055E+03  0.47000000000E+01 0.  1.
         -5    1    4    4    0  502 -0.58084793590E+02  0.52244640128E+01 -0.22764590437E+03  0.23504443420E+03  0.47000000000E+01 0.  1.
<mgrwt>
<rscale>  0 0.94037212E+02</rscale>
<asrwt>0</asrwt>
<pdfrwt beam="1">  1        1 0.88697740E-01 0.94143635E+02</pdfrwt>
<pdfrwt beam="2">  1       -1 0.23630185E-02 0.94143635E+02</pdfrwt>
<totfact> 0.18233364E+04</totfact>
</mgrwt>
</event>
<event>
 8    1  0.3177960E-004  0.1031332E+03  0.7546771E-02  0.1274978E+00
         -2   -1    0    0    0  501 -0.00000000000E+00  0.00000000000E+00  0.30005062287E+03  0.30005062287E+03  0.00000000000E+00 0.  1.
          2   -1    0    0  501    0  0.00000000000E+00 -0.00000000000E+00 -0.47894517455E+02  0.47894517455E+02  0.00000000000E+00 0. -1.
         23    2    1    2    0    0  0.92879567303E+01  0.42519141675E+02  0.21842403943E+03  0.24154817593E+03  0.93500356936E+02 0.  0.
         23    2    1    2    0    0 -0.92879567303E+01 -0.42519141675E+02  0.33732065982E+02  0.10639696439E+03  0.91040201046E+02 0.  0.
          5    1    3    3  502    0 -0.16717839682E+02 -0.24855468165E+02  0.54697301953E+02  0.62539310056E+02  0.47000000000E+01 0. -1.
         -5    1    3    3    0  502  0.26005796412E+02  0.67374609840E+02  0.16372673748E+03  0.17900886588E+03  0.47000000000E+01 0.  1.
          5    1    4    4  503    0 -0.32900672364E+02 -0.99185894237E+01 -0.19269432424E+02  0.39676613819E+02  0.47000000000E+01 0. -1.
         -5    1    4    4    0  503  0.23612715634E+02 -0.32600552251E+02  0.53001498407E+02  0.66720350569E+02  0.47000000000E+01 0.  1.
<mgrwt>
<rscale>  0 0.10257240E+03</rscale>
<asrwt>0</asrwt>
<pdfrwt beam="1">  1        2 0.73683875E-02 0.10313322E+03</pdfrwt>
<pdfrwt beam="2">  1       -2 0.46161633E-01 0.10313322E+03</pdfrwt>
<totfact> 0.39779322E+03</totfact>
</mgrwt>
</event>
<event>
 8    1  0.3177960E-004  0.9257368E+02  0.7546771E-02  0.1297204E+00
         -1   -1    0    0    0  501 -0.00000000000E+00  0.00000000000E+00  0.24108727844E+02  0.24108727844E+02  0.00000000000E+00 0.  1.
          1   -1    0    0  501    0  0.00000000000E+00 -0.00000000000E+00 -0.49353341154E+03  0.49353341154E+03  0.00000000000E+00 0. -1.
         23    2    1    2    0    0 -0.65397817797E+01 -0.33472688277E+01 -0.37384081990E+03  0.38513224272E+03  0.92281703505E+02 0.  0.
         23    2    1    2    0    0  0.65397817797E+01  0.33472688277E+01 -0.95583863792E+02  0.13250989666E+03  0.91480187703E+02 0.  0.
          5    1    4    4  502    0  0.44372853105E+01  0.35918897796E+02 -0.92440831688E+02  0.99384375447E+02  0.47000000000E+01 0. -1.
         -5    1    4    4    0  502  0.21024964692E+01 -0.32571628969E+02 -0.31430321037E+01  0.33125521217E+02  0.47000000000E+01 0.  1.
          5    1    3    3  503    0 -0.47526568714E+02  0.49988807112E+01 -0.15453631693E+03  0.16182498816E+03  0.47000000000E+01 0.  1.
         -5    1    3    3    0  503  0.40986786934E+02 -0.83461495389E+01 -0.21930450297E+03  0.22330725456E+03  0.47000000000E+01 0. -1.
<mgrwt>
<rscale>  0 0.92373286E+02</rscale>
<asrwt>0</asrwt>
<pdfrwt beam="1">  1        1 0.75928217E-01 0.92573677E+02</pdfrwt>
<pdfrwt beam="2">  1       -1 0.37090350E-02 0.92573677E+02</pdfrwt>
<totfact> 0.11643135E+04</totfact>
</mgrwt>
</event>
<event>
 8    1  0.3177960E-004  0.9435613E+02  0.7546771E-02  0.1292800E+00
          1   -1    0    0  501    0  0.00000000000E+00  0.00000000000E+00  0.94909198846E+03  0.94909198846E+03  0.00000000000E+00 0. -1.
         -1   -1    0    0    0  501 -0.00000000000E+00 -0.00000000000E+00 -0.94086985207E+01  0.94086985207E+01  0.00000000000E+00 0.  1.
         23    2    1    2    0    0 -0.20434407406E+02 -0.87113156742E+01  0.50649026184E+03  0.51515062448E+03  0.91402016044E+02 0.  0.
         23    2    1    2    0    0  0.20434407406E+02  0.87113156742E+01  0.43319302810E+03  0.44335006250E+03  0.91704014625E+02 0.  0.
          5    1    4    4  502    0 -0.22113033968E+02 -0.29164806790E+02  0.15305126160E+03  0.15743681559E+03  0.47000000000E+01 0. -1.
         -5    1    4    4    0  502  0.42547441374E+02  0.37876122464E+02  0.28014176650E+03  0.28591324690E+03  0.47000000000E+01 0.  1.
          5    1    3    3  503    0 -0.47613675105E+02  0.14469058678E+02  0.39069521483E+03  0.39387974892E+03  0.47000000000E+01 0. -1.
         -5    1    3    3    0  503  0.27179267699E+02 -0.23180374352E+02  0.11579504701E+03  0.12127087556E+03  0.47000000000E+01 0.  1.
<mgrwt>
<rscale>  0 0.94282668E+02</rscale>
<asrwt>0</asrwt>
<pdfrwt beam="1">  1        1 0.14601408E+00 0.94356125E+02</pdfrwt>
<pdfrwt beam="2">  1       -1 0.14474928E-02 0.94356125E+02</pdfrwt>
<totfact> 0.17821609E+04</totfact>
</mgrwt>
</event>
<event>
 8    1  0.3177960E-004  0.9783505E+02  0.7546771E-02  0.1287277E+00
          3   -1    0    0  501    0  0.00000000000E+00  0.00000000000E+00  0.17884191045E+03  0.17884191045E+03  0.00000000000E+00 0. -1.
         -3   -1    0    0    0  501 -0.00000000000E+00 -0.00000000000E+00 -0.52272189397E+02  0.52272189397E+02  0.00000000000E+00 0.  1.
         23    2    1    2    0    0  0.75891013036E+01  0.36579894967E+02  0.81086675182E+02  0.12706984403E+03  0.90421309406E+02 0.  0.
         23    2    1    2    0    0 -0.75891013036E+01 -0.36579894967E+02  0.45483045868E+02  0.10404425582E+03  0.85795201104E+02 0.  0.
          5    1    3    3  502    0 -0.15136779724E+02  0.57393283231E+02  0.28671090027E+02  0.66085039636E+02  0.47000000000E+01 0. -1.
         -5    1    4    4    0  503  0.29670604247E+02 -0.43042796006E+02  0.13256374897E+02  0.54137311716E+02  0.47000000000E+01 0.  1.
          5    1    4    4  503    0 -0.37259705551E+02  0.64629010388E+01  0.32226670971E+02  0.49906944100E+02  0.47000000000E+01 0. -1.
         -5    1    3    3    0  502  0.22725881028E+02 -0.20813388264E+02  0.52415585155E+02  0.60984804391E+02  0.47000000000E+01 0.  1.
<mgrwt>
<rscale>  0 0.96752492E+02</rscale>
<asrwt>0</asrwt>
<pdfrwt beam="1">  1        3 0.27514140E-01 0.97835047E+02</pdfrwt>
<pdfrwt beam="2">  1       -3 0.80418754E-02 0.97835047E+02</pdfrwt>
<totfact> 0.28586996E+03</totfact>
</mgrwt>
</event>
<event>
 8    1  0.3177960E-004  0.1396157E+03  0.7546771E-02  0.1219638E+00
         -1   -1    0    0    0  501 -0.00000000000E+00  0.00000000000E+00  0.17032985996E+02  0.17032985996E+02  0.00000000000E+00 0.  1.
          1   -1    0    0  501    0  0.00000000000E+00 -0.00000000000E+00 -0.10170558951E+04  0.10170558951E+04  0.00000000000E+00 0. -1.
         23    2    1    2    0    0 -0.65386136588E+02  0.20298398782E+02 -0.51835365036E+03  0.53682682839E+03  0.12167647673E+03 0.  0.
         23    2    1    2    0    0  0.65386136588E+02 -0.20298398782E+02 -0.48166925879E+03  0.49726205275E+03  0.10284406833E+03 0.  0.
          5    1    3    3  502    0 -0.93389938132E+02 -0.14089171383E+02 -0.33139090422E+03  0.34461892968E+03  0.47000000000E+01 0. -1.
         -5    1    4    4    0  503  0.79091188903E+02  0.14624792061E+02 -0.38747245303E+03  0.39576039792E+03  0.47000000000E+01 0.  1.
          5    1    4    4  503    0 -0.13705052315E+02 -0.34923190843E+02 -0.94196805754E+02  0.10150165482E+03  0.47000000000E+01 0. -1.
         -5    1    3    3    0  502  0.28003801545E+02  0.34387570165E+02 -0.18696274614E+03  0.19220789871E+03  0.47000000000E+01 0.  1.
<mgrwt>
<rscale>  0 0.13541294E+03</rscale>
<asrwt>0</asrwt>
<pdfrwt beam="1">  1        1 0.15647016E+00 0.13961568E+03</pdfrwt>
<pdfrwt beam="2">  1       -1 0.26204590E-02 0.13961568E+03</pdfrwt>
<totfact> 0.69548091E+03</totfact>
</mgrwt>
</event>
<event>
 8    1  0.3177960E-004  0.9740316E+02  0.7546771E-02  0.1294074E+00
          1   -1    0    0  501    0  0.00000000000E+00  0.00000000000E+00  0.38152769602E+02  0.38152769602E+02  0.00000000000E+00 0. -1.
         -1   -1    0    0    0  501 -0.00000000000E+00 -0.00000000000E+00 -0.28449883268E+03  0.28449883268E+03  0.00000000000E+00 0.  1.
         23    2    1    2    0    0  0.22923054874E+01  0.23871494443E+02 -0.36164872084E+02  0.90997745723E+02  0.79984928846E+02 0.  0.
         23    2    1    2    0    0 -0.22923054874E+01 -0.23871494443E+02 -0.21018119100E+03  0.23165385656E+03  0.94404837267E+02 0.  0.
          5    1    3    3  502    0  0.15070558185E+02 -0.19984037337E+02  0.85886023578E+01  0.26876338344E+02  0.47000000000E+01 0. -1.
         -5    1    3    3    0  502 -0.12778252698E+02  0.43855531780E+02 -0.44753474441E+02  0.64121407379E+02  0.47000000000E+01 0.  1.
          5    1    4    4  503    0 -0.46007330577E+02 -0.20970530687E+02 -0.85821822143E+02  0.99719169572E+02  0.47000000000E+01 0. -1.
         -5    1    4    4    0  503  0.43715025089E+02 -0.29009637554E+01 -0.12435936886E+03  0.13193468699E+03  0.47000000000E+01 0.  1.
<mgrwt>
<rscale>  0 0.93724872E+02</rscale>
<asrwt>0</asrwt>
<pdfrwt beam="1">  1        1 0.58696569E-02 0.97403163E+02</pdfrwt>
<pdfrwt beam="2">  1       -1 0.43769051E-01 0.97403163E+02</pdfrwt>
<totfact> 0.64574911E+03</totfact>
</mgrwt>
</event>
<event>
 8    1  0.3177960E-004  0.1086435E+03  0.7546771E-02  0.1263461E+00
          1   -1    0    0  501    0  0.00000000000E+00  0.00000000000E+00  0.18587696204E+03  0.18587696204E+03  0.00000000000E+00 0. -1.
         -1   -1    0    0    0  501 -0.00000000000E+00 -0.00000000000E+00 -0.73956928911E+02  0.73956928911E+02  0.00000000000E+00 0.  1.
         23    2    1    2    0    0 -0.27508524033E+02  0.53828045095E+02  0.59221178134E+01  0.10804799471E+03  0.89359500603E+02 0.  0.
         23    2    1    2    0    0  0.27508524033E+02 -0.53828045095E+02  0.10599791532E+03  0.15178589625E+03  0.90273046443E+02 0.  0.
          5    1    3    3  502    0 -0.39801395007E+02 -0.99498046504E+01 -0.63507463472E+01  0.41780038730E+02  0.47000000000E+01 0. -1.
         -5    1    3    3    0  502  0.12292870974E+02  0.63777849745E+02  0.12272864161E+02  0.66267955979E+02  0.47000000000E+01 0.  1.
          5    1    4    4  503    0 -0.17584230876E+02 -0.41355636093E+02  0.92370844929E+02  0.10282974669E+03  0.47000000000E+01 0. -1.
         -5    1    4    4    0  503  0.45092754909E+02 -0.12472409001E+02  0.13627070390E+02  0.48956149553E+02  0.47000000000E+01 0.  1.
<mgrwt>
<rscale>  0 0.10845349E+03</rscale>
<asrwt>0</asrwt>
<pdfrwt beam="1">  1        1 0.28596456E-01 0.10864345E+03</pdfrwt>
<pdfrwt beam="2">  1       -1 0.11377989E-01 0.10864345E+03</pdfrwt>
<totfact> 0.74759082E+03</totfact>
</mgrwt>
</event>
<event>
 8    1  0.3177960E-004  0.1113045E+03  0.7546771E-02  0.1263452E+00
         -2   -1    0    0    0  501 -0.00000000000E+00  0.00000000000E+00  0.17769481233E+02  0.17769481233E+02  0.00000000000E+00 0.  1.
          2   -1    0    0  501    0  0.00000000000E+00 -0.00000000000E+00 -0.65483942096E+03  0.65483942096E+03  0.00000000000E+00 0. -1.
         23    2    1    2    0    0 -0.34407585152E+02  0.27018914916E+02 -0.36774635203E+03  0.38119188297E+03  0.90310400987E+02 0.  0.
         23    2    1    2    0    0  0.34407585152E+02 -0.27018914916E+02 -0.26932358769E+03  0.29141701922E+03  0.10234637525E+03 0.  0.
          5    1    4    4  502    0  0.15199115697E+02 -0.35677743401E+02 -0.26684301819E+03  0.26968722782E+03  0.47000000000E+01 0. -1.
         -5    1    3    3    0  503 -0.64601695027E+02  0.14359580750E+02 -0.26866159573E+03  0.27673221637E+03  0.47000000000E+01 0.  1.
          5    1    3    3  503    0  0.30194109875E+02  0.12659334166E+02 -0.99084756307E+02  0.10445966659E+03  0.47000000000E+01 0. -1.
         -5    1    4    4    0  502  0.19208469455E+02  0.86588284854E+01 -0.24805695032E+01  0.21729791407E+02  0.47000000000E+01 0.  1.
<mgrwt>
<rscale>  0 0.10845821E+03</rscale>
<asrwt>0</asrwt>
<pdfrwt beam="1">  1        2 0.10074450E+00 0.11130447E+03</pdfrwt>
<pdfrwt beam="2">  1       -2 0.27337670E-02 0.11130447E+03</pdfrwt>
<totfact> 0.20542901E+04</totfact>
</mgrwt>
</event>
<event>
 8    1  0.3177960E-004  0.1602744E+03  0.7546771E-02  0.1194388E+00
         -2   -1    0    0    0  501 -0.00000000000E+00  0.00000000000E+00  0.80015078030E+03  0.80015078030E+03  0.00000000000E+00 0.  1.
          2   -1    0    0  501    0  0.00000000000E+00 -0.00000000000E+00 -0.28584480809E+02  0.28584480809E+02  0.00000000000E+00 0. -1.
         23    2    1    2    0    0  0.10017893415E+03  0.37162649551E+02  0.36622294151E+03  0.39975882675E+03  0.11946127115E+03 0.  0.
         23    2    1    2    0    0 -0.10017893415E+03 -0.37162649551E+02  0.40534335798E+03  0.42897643436E+03  0.91107968954E+02 0.  0.
          5    1    3    3  502    0  0.10800843623E+03  0.68143076256E+02  0.28444750285E+03  0.31183613168E+03  0.47000000000E+01 0. -1.
         -5    1    3    3    0  502 -0.78295020753E+01 -0.30980426705E+02  0.81775438655E+02  0.87922695073E+02  0.47000000000E+01 0.  1.
          5    1    4    4  503    0 -0.82801129505E+02  0.12410700514E+02  0.19790514664E+03  0.21493857169E+03  0.47000000000E+01 0. -1.
         -5    1    4    4    0  503 -0.17377804649E+02 -0.49573350064E+02  0.20743821134E+03  0.21403786267E+03  0.47000000000E+01 0.  1.
<mgrwt>
<rscale>  0 0.15506175E+03</rscale>
<asrwt>0</asrwt>
<pdfrwt beam="1">  1        2 0.43976130E-02 0.16027438E+03</pdfrwt>
<pdfrwt beam="2">  1       -2 0.12310010E+00 0.16027438E+03</pdfrwt>
<totfact> 0.95235234E+02</totfact>
</mgrwt>
</event>
<event>
 8    1  0.3177960E-004  0.9263548E+02  0.7546771E-02  0.1297335E+00
         -1   -1    0    0    0  501 -0.00000000000E+00  0.00000000000E+00  0.56287923064E+02  0.56287923064E+02  0.00000000000E+00 0.  1.
          1   -1    0    0  501    0  0.00000000000E+00 -0.00000000000E+00 -0.15669309097E+03  0.15669309097E+03  0.00000000000E+00 0. -1.
         23    2    1    2    0    0  0.18082965102E+02  0.25616425324E+01 -0.71912996264E+02  0.11727237837E+03  0.90817267398E+02 0.  0.
         23    2    1    2    0    0 -0.18082965102E+02 -0.25616425324E+01 -0.28492171644E+02  0.95708635667E+02  0.89525322992E+02 0.  0.
          5    1    3    3  502    0  0.11285214633E+02  0.28958386265E+02 -0.82009499379E+02  0.87827058432E+02  0.47000000000E+01 0. -1.
         -5    1    4    4    0  503  0.33333961904E+02 -0.16377557240E+02 -0.69136909313E+01  0.38069233242E+02  0.47000000000E+01 0.  1.
          5    1    4    4  503    0 -0.51416927006E+02  0.13815914707E+02 -0.21578480713E+02  0.57639402424E+02  0.47000000000E+01 0. -1.
         -5    1    3    3    0  502  0.67977504685E+01 -0.26396743733E+02  0.10096503115E+02  0.29445319938E+02  0.47000000000E+01 0.  1.
<mgrwt>
<rscale>  0 0.92317284E+02</rscale>
<asrwt>0</asrwt>
<pdfrwt beam="1">  1        1 0.24106629E-01 0.92635478E+02</pdfrwt>
<pdfrwt beam="2">  1       -1 0.86596805E-02 0.92635478E+02</pdfrwt>
<totfact> 0.13771641E+04</totfact>
</mgrwt>
</event>
<event>
 8    1  0.3177960E-004  0.1054863E+03  0.7546771E-02  0.1269587E+00
          4   -1    0    0  501    0  0.00000000000E+00  0.00000000000E+00  0.16407226954E+03  0.16407226954E+03  0.00000000000E+00 0. -1.
         -4   -1    0    0    0  501 -0.00000000000E+00 -0.00000000000E+00 -0.74269535449E+02  0.74269535449E+02  0.00000000000E+00 0.  1.
         23    2    1    2    0    0  0.33630869283E+02  0.39557809236E+02  0.81655842238E+02  0.13339805382E+03  0.91823246248E+02 0.  0.
         23    2    1    2    0    0 -0.33630869283E+02 -0.39557809236E+02  0.81468918521E+01  0.10494375117E+03  0.90834813930E+02 0.  0.
          5    1    4    4  502    0  0.77829727106E+01  0.21542484031E+02 -0.14595292161E+02  0.27563850161E+02  0.47000000000E+01 0. -1.
         -5    1    4    4    0  502 -0.41413841994E+02 -0.61100293267E+02  0.22742184013E+02  0.77379901006E+02  0.47000000000E+01 0.  1.
          5    1    3    3  503    0  0.54175656408E+02  0.37505618429E+02  0.89131244607E+02  0.11094206563E+03  0.47000000000E+01 0. -1.
         -5    1    3    3    0  503 -0.20544787124E+02  0.20521908072E+01 -0.74754023694E+01  0.22455988192E+02  0.47000000000E+01 0.  1.
<mgrwt>
<rscale>  0 0.10527084E+03</rscale>
<asrwt>0</asrwt>
<pdfrwt beam="1">  1        4 0.25241888E-01 0.10548632E+03</pdfrwt>
<pdfrwt beam="2">  1       -4 0.11426082E-01 0.10548632E+03</pdfrwt>
<totfact> 0.13829144E+03</totfact>
</mgrwt>
</event>
<event>
 8    1  0.3177960E-004  0.1076569E+03  0.7546771E-02  0.1266248E+00
          2   -1    0    0  501    0  0.00000000000E+00  0.00000000000E+00  0.43172327002E+03  0.43172327002E+03  0.00000000000E+00 0. -1.
         -2   -1    0    0    0  501 -0.00000000000E+00 -0.00000000000E+00 -0.27880408959E+02  0.27880408959E+02  0.00000000000E+00 0.  1.
         23    2    1    2    0    0  0.48391746175E+02 -0.19652274441E+02  0.25612998287E+03  0.27682209826E+03  0.91103967946E+02 0.  0.
         23    2    1    2    0    0 -0.48391746175E+02  0.19652274441E+02  0.14771287820E+03  0.18278158072E+03  0.94138402770E+02 0.  0.
          5    1    3    3  502    0  0.70365777315E+02  0.56004160564E+01  0.18511028132E+03  0.19816814458E+03  0.47000000000E+01 0. -1.
         -5    1    3    3    0  502 -0.21974031140E+02 -0.25252690497E+02  0.71019701547E+02  0.78653953682E+02  0.47000000000E+01 0.  1.
          5    1    4    4  503    0 -0.34301617806E+02  0.57357564813E+02  0.96422587381E+02  0.11741335777E+03  0.47000000000E+01 0. -1.
         -5    1    4    4    0  503 -0.14090128369E+02 -0.37705290373E+02  0.51290290817E+02  0.65368222950E+02  0.47000000000E+01 0.  1.
<mgrwt>
<rscale>  0 0.10698998E+03</rscale>
<asrwt>0</asrwt>
<pdfrwt beam="1">  1        2 0.66418960E-01 0.10765692E+03</pdfrwt>
<pdfrwt beam="2">  1       -2 0.42892940E-02 0.10765692E+03</pdfrwt>
<totfact> 0.16737651E+04</totfact>
</mgrwt>
</event>
<event>
 8    1  0.3177960E-004  0.9800352E+02  0.7546771E-02  0.1288163E+00
         -2   -1    0    0    0  501 -0.00000000000E+00  0.00000000000E+00  0.19251476773E+02  0.19251476773E+02  0.00000000000E+00 0.  1.
          2   -1    0    0  501    0  0.00000000000E+00 -0.00000000000E+00 -0.73622494019E+03  0.73622494019E+03  0.00000000000E+00 0. -1.
         23    2    1    2    0    0  0.18986385249E+02 -0.23653622323E+02 -0.12226354424E+03  0.15274548405E+03  0.86387684156E+02 0.  0.
         23    2    1    2    0    0 -0.18986385249E+02  0.23653622323E+02 -0.59470991918E+03  0.60273093292E+03  0.93191806760E+02 0.  0.
          5    1    4    4  502    0 -0.24640503185E+02  0.53648195150E+02 -0.48987546054E+03  0.49344233713E+03  0.47000000000E+01 0. -1.
         -5    1    3    3    0  503 -0.24349193408E+02 -0.13312975887E+01 -0.45455186815E+01  0.25246926802E+02  0.47000000000E+01 0.  1.
          5    1    3    3  503    0  0.43335578657E+02 -0.22322324734E+02 -0.11771802556E+03  0.12749855725E+03  0.47000000000E+01 0. -1.
         -5    1    4    4    0  502  0.56541179356E+01 -0.29994572827E+02 -0.10483445865E+03  0.10928859578E+03  0.47000000000E+01 0.  1.
<mgrwt>
<rscale>  0 0.96350715E+02</rscale>
<asrwt>0</asrwt>
<pdfrwt beam="1">  1        2 0.11326537E+00 0.98003518E+02</pdfrwt>
<pdfrwt beam="2">  1       -2 0.29617657E-02 0.98003518E+02</pdfrwt>
<totfact> 0.15761734E+04</totfact>
</mgrwt>
</event>
<event>
 8    1  0.3177960E-004  0.1223126E+03  0.7546771E-02  0.1241555E+00
          1   -1    0    0  501    0  0.00000000000E+00  0.00000000000E+00  0.14588400183E+03  0.14588400183E+03  0.00000000000E+00 0. -1.
         -1   -1    0    0    0  501 -0.00000000000E+00 -0.00000000000E+00 -0.10765568753E+03  0.10765568753E+03  0.00000000000E+00 0.  1.
         23    2    1    2    0    0 -0.73223620301E+02  0.97595638727E+00 -0.19093613381E+02  0.11846128700E+03  0.91136487673E+02 0.  0.
         23    2    1    2    0    0  0.73223620301E+02 -0.97595638727E+00  0.57321927676E+02  0.13507840235E+03  0.97967955625E+02 0.  0.
          5    1    3    3  502    0 -0.74540010172E+02 -0.29422094141E+02  0.33777438457E+01  0.80345329009E+02  0.47000000000E+01 0. -1.
         -5    1    4    4    0  503  0.10399307797E+02 -0.26665213635E+02 -0.17558475247E+02  0.33905298610E+02  0.47000000000E+01 0.  1.
          5    1    4    4  503    0  0.62824312504E+02  0.25689257247E+02  0.74880402922E+02  0.10117310374E+03  0.47000000000E+01 0. -1.
         -5    1    3    3    0  502  0.13163898705E+01  0.30398050528E+02 -0.22471357226E+02  0.38115957994E+02  0.47000000000E+01 0.  1.
<mgrwt>
<rscale>  0 0.12093960E+03</rscale>
<asrwt>0</asrwt>
<pdfrwt beam="1">  1        1 0.22443693E-01 0.12231260E+03</pdfrwt>
<pdfrwt beam="2">  1       -1 0.16562413E-01 0.12231260E+03</pdfrwt>
<totfact> 0.56991285E+03</totfact>
</mgrwt>
</event>
<event>
 8    1  0.3177960E-004  0.1107086E+03  0.7546771E-02  0.1260359E+00
         -1   -1    0    0    0  501 -0.00000000000E+00  0.00000000000E+00  0.49335162160E+02  0.49335162160E+02  0.00000000000E+00 0.  1.
          1   -1    0    0  501    0  0.00000000000E+00 -0.00000000000E+00 -0.27954114634E+03  0.27954114634E+03  0.00000000000E+00 0. -1.
         23    2    1    2    0    0  0.52244364782E+02 -0.30886235289E+02 -0.17549514158E+03  0.20749684277E+03  0.92590290301E+02 0.  0.
         23    2    1    2    0    0 -0.52244364782E+02  0.30886235289E+02 -0.54710842605E+02  0.12137946574E+03  0.89756700155E+02 0.  0.
          5    1    4    4  502    0 -0.44501905353E+02 -0.20433579386E+01 -0.70678324013E+02  0.83678613618E+02  0.47000000000E+01 0. -1.
         -5    1    4    4    0  502 -0.77424594290E+01  0.32929593227E+02  0.15967481409E+02  0.37700852121E+02  0.47000000000E+01 0.  1.
          5    1    3    3  503    0 -0.15550941398E+02 -0.35515301311E+02 -0.90558357451E+02  0.98620862447E+02  0.47000000000E+01 0. -1.
         -5    1    3    3    0  503  0.67795306180E+02  0.46290660223E+01 -0.84936784129E+02  0.10887598032E+03  0.47000000000E+01 0.  1.
<mgrwt>
<rscale>  0 0.11011415E+03</rscale>
<asrwt>0</asrwt>
<pdfrwt beam="1">  1        1 0.43006331E-01 0.11070860E+03</pdfrwt>
<pdfrwt beam="2">  1       -1 0.75900249E-02 0.11070860E+03</pdfrwt>
<totfact> 0.83563053E+03</totfact>
</mgrwt>
</event>
<event>
 8    1  0.3177960E-004  0.3327562E+03  0.7546771E-02  0.1069998E+00
          1   -1    0    0  501    0  0.00000000000E+00  0.00000000000E+00  0.19008740931E+04  0.19008740931E+04  0.00000000000E+00 0. -1.
         -1   -1    0    0    0  501 -0.00000000000E+00 -0.00000000000E+00 -0.68567843372E+02  0.68567843372E+02  0.00000000000E+00 0.  1.
         23    2    1    2    0    0 -0.24405550570E+03  0.20552849332E+03  0.12995189863E+04  0.13412787529E+04  0.92054580510E+02 0.  0.
         23    2    1    2    0    0  0.24405550570E+03 -0.20552849332E+03  0.53278726336E+03  0.62816318351E+03  0.94454569429E+02 0.  0.
          5    1    3    3  502    0 -0.70675638372E+02  0.11698760152E+03  0.49727483680E+03  0.51573781913E+03  0.47000000000E+01 0. -1.
         -5    1    4    4    0  503  0.18288082885E+03 -0.15388126809E+03  0.31058654108E+03  0.39193230503E+03  0.47000000000E+01 0.  1.
          5    1    4    4  503    0  0.61174676849E+02 -0.51647225229E+02  0.22220072228E+03  0.23623087847E+03  0.47000000000E+01 0. -1.
         -5    1    3    3    0  502 -0.17337986733E+03  0.88540891797E+02  0.80224414955E+03  0.82554093381E+03  0.47000000000E+01 0.  1.
<mgrwt>
<rscale>  0 0.33258780E+03</rscale>
<asrwt>0</asrwt>
<pdfrwt beam="1">  1        1 0.29244213E+00 0.33275624E+03</pdfrwt>
<pdfrwt beam="2">  1       -1 0.10548900E-01 0.33275624E+03</pdfrwt>
<totfact> 0.21737295E+02</totfact>
</mgrwt>
</event>
<event>
 8    1  0.3177960E-004  0.1224605E+03  0.7546771E-02  0.1239587E+00
         -2   -1    0    0    0  501 -0.00000000000E+00  0.00000000000E+00  0.29354787276E+02  0.29354787276E+02  0.00000000000E+00 0.  1.
          2   -1    0    0  501    0  0.00000000000E+00 -0.00000000000E+00 -0.50623913039E+03  0.50623913039E+03  0.00000000000E+00 0. -1.
         23    2    1    2    0    0 -0.43030646446E+02 -0.68217978424E+02 -0.24535992034E+03  0.27367765074E+03  0.90513186282E+02 0.  0.
         23    2    1    2    0    0  0.43030646446E+02  0.68217978424E+02 -0.23152442277E+03  0.26191626693E+03  0.92147943150E+02 0.  0.
          5    1    4    4  502    0  0.15595720861E+02 -0.22365323493E+02 -0.49967951015E+02  0.57116725509E+02  0.47000000000E+01 0. -1.
         -5    1    3    3    0  503 -0.38548990177E+02  0.10942307988E+02 -0.10366997944E+03  0.11124438586E+03  0.47000000000E+01 0.  1.
          5    1    3    3  503    0 -0.44816562696E+01 -0.79160286412E+02 -0.14168994090E+03  0.16243326488E+03  0.47000000000E+01 0. -1.
         -5    1    4    4    0  502  0.27434925585E+02  0.90583301918E+02 -0.18155647176E+03  0.20479954142E+03  0.47000000000E+01 0.  1.
<mgrwt>
<rscale>  0 0.12215301E+03</rscale>
<asrwt>0</asrwt>
<pdfrwt beam="1">  1        2 0.77882944E-01 0.12246049E+03</pdfrwt>
<pdfrwt beam="2">  1       -2 0.45161211E-02 0.12246049E+03</pdfrwt>
<totfact> 0.13195399E+04</totfact>
</mgrwt>
</event>
<event>
 8    1  0.3177960E-004  0.1009486E+03  0.7546771E-02  0.1281439E+00
          1   -1    0    0  501    0  0.00000000000E+00  0.00000000000E+00  0.16079203121E+02  0.16079203121E+02  0.00000000000E+00 0. -1.
         -1   -1    0    0    0  501 -0.00000000000E+00 -0.00000000000E+00 -0.61308204935E+03  0.61308204935E+03  0.00000000000E+00 0.  1.
         23    2    1    2    0    0  0.81710870888E+01 -0.43517043687E+02 -0.35695338050E+03  0.37095326996E+03  0.90719969648E+02 0.  0.
         23    2    1    2    0    0 -0.81710870888E+01  0.43517043687E+02 -0.24004946573E+03  0.25820798250E+03  0.84185013373E+02 0.  0.
          5    1    4    4  502    0  0.18549854429E+02  0.10612812517E+02 -0.96855123325E+01  0.23929647678E+02  0.47000000000E+01 0. -1.
         -5    1    3    3    0  503  0.38767778410E+01 -0.71749127911E+02 -0.25426518185E+03  0.26426471475E+03  0.47000000000E+01 0.  1.
          5    1    3    3  503    0  0.42943092479E+01  0.28232084223E+02 -0.10268819864E+03  0.10668855521E+03  0.47000000000E+01 0. -1.
         -5    1    4    4    0  502 -0.26720941518E+02  0.32904231171E+02 -0.23036395340E+03  0.23427833483E+03  0.47000000000E+01 0.  1.
<mgrwt>
<rscale>  0 0.99458495E+02</rscale>
<asrwt>0</asrwt>
<pdfrwt beam="1">  1        1 0.24737234E-02 0.10094856E+03</pdfrwt>
<pdfrwt beam="2">  1       -1 0.94320320E-01 0.10094856E+03</pdfrwt>
<totfact> 0.47942510E+03</totfact>
</mgrwt>
</event>
<event>
 8    1  0.3177960E-004  0.1470348E+03  0.7546771E-02  0.1204839E+00
          1   -1    0    0  501    0  0.00000000000E+00  0.00000000000E+00  0.54027457481E+02  0.54027457481E+02  0.00000000000E+00 0. -1.
         -1   -1    0    0    0  501 -0.00000000000E+00 -0.00000000000E+00 -0.40043834869E+03  0.40043834869E+03  0.00000000000E+00 0.  1.
         23    2    1    2    0    0 -0.42356921889E+02 -0.10360867039E+03 -0.14405270154E+03  0.20432970645E+03  0.92035768624E+02 0.  0.
         23    2    1    2    0    0  0.42356921889E+02  0.10360867039E+03 -0.20235818967E+03  0.25013609972E+03  0.95343411125E+02 0.  0.
          5    1    4    4  502    0  0.20987647072E+02  0.11699503859E+03 -0.14682710038E+03  0.18896721353E+03  0.47000000000E+01 0. -1.
         -5    1    4    4    0  502  0.21369274817E+02 -0.13386368200E+02 -0.55531089289E+02  0.61168886187E+02  0.47000000000E+01 0.  1.
          5    1    3    3  503    0  0.15110310583E+02 -0.81308463784E+02 -0.88464109776E+02  0.12119148686E+03  0.47000000000E+01 0. -1.
         -5    1    3    3    0  503 -0.57467232472E+02 -0.22300206603E+02 -0.55588591762E+02  0.83138219590E+02  0.47000000000E+01 0.  1.
<mgrwt>
<rscale>  0 0.14650117E+03</rscale>
<asrwt>0</asrwt>
<pdfrwt beam="1">  1        1 0.83119163E-02 0.14703480E+03</pdfrwt>
<pdfrwt beam="2">  1       -1 0.61605901E-01 0.14703480E+03</pdfrwt>
<totfact> 0.22177921E+03</totfact>
</mgrwt>
</event>
<event>
 8    1  0.3177960E-004  0.2061169E+03  0.7546771E-02  0.1144680E+00
         -1   -1    0    0    0  501 -0.00000000000E+00  0.00000000000E+00  0.49354537186E+03  0.49354537186E+03  0.00000000000E+00 0.  1.
          1   -1    0    0  501    0  0.00000000000E+00 -0.00000000000E+00 -0.86085491851E+02  0.86085491851E+02  0.00000000000E+00 0. -1.
         23    2    1    2    0    0 -0.17693911972E+03 -0.54544939221E+02  0.20682705999E+03  0.29198927186E+03  0.90541148960E+02 0.  0.
         23    2    1    2    0    0  0.17693911972E+03  0.54544939221E+02  0.20063282001E+03  0.28764159184E+03  0.90562433770E+02 0.  0.
          5    1    4    4  502    0  0.14385676129E+03  0.78434372156E+01  0.11434429570E+03  0.18399183469E+03  0.47000000000E+01 0. -1.
         -5    1    4    4    0  502  0.33082358434E+02  0.46701502005E+02  0.86288524312E+02  0.10364975715E+03  0.47000000000E+01 0.  1.
          5    1    3    3  503    0 -0.29662823506E+02 -0.47193471101E+02  0.78884442517E+02  0.96705491490E+02  0.47000000000E+01 0. -1.
         -5    1    3    3    0  503 -0.14727629621E+03 -0.73514681198E+01  0.12794261748E+03  0.19528378037E+03  0.47000000000E+01 0.  1.
<mgrwt>
<rscale>  0 0.20611451E+03</rscale>
<asrwt>0</asrwt>
<pdfrwt beam="1">  1        1 0.13243922E-01 0.20611685E+03</pdfrwt>
<pdfrwt beam="2">  1       -1 0.75930056E-01 0.20611685E+03</pdfrwt>
<totfact> 0.79706955E+02</totfact>
</mgrwt>
</event>
<event>
 8    1  0.3177960E-004  0.2080615E+03  0.7546771E-02  0.1143289E+00
          1   -1    0    0  501    0  0.00000000000E+00  0.00000000000E+00  0.20972099232E+03  0.20972099232E+03  0.00000000000E+00 0. -1.
         -1   -1    0    0    0  501 -0.00000000000E+00 -0.00000000000E+00 -0.20855445448E+03  0.20855445448E+03  0.00000000000E+00 0.  1.
         23    2    1    2    0    0 -0.17762945959E+03  0.54865733318E+02  0.25755440777E+02  0.20876603287E+03  0.91419036001E+02 0.  0.
         23    2    1    2    0    0  0.17762945959E+03 -0.54865733318E+02 -0.24588902936E+02  0.20950941392E+03  0.93418985041E+02 0.  0.
          5    1    3    3  502    0 -0.13581293406E+03  0.44627048620E+02  0.58436662770E+02  0.15451103547E+03  0.47000000000E+01 0. -1.
         -5    1    3    3    0  502 -0.41816525533E+02  0.10238684698E+02 -0.32681221993E+02  0.54254997401E+02  0.47000000000E+01 0.  1.
          5    1    4    4  503    0  0.11177605884E+03  0.10560309150E+02  0.34477306728E+01  0.11242501637E+03  0.47000000000E+01 0. -1.
         -5    1    4    4    0  503  0.65853400756E+02 -0.65426042468E+02 -0.28036633609E+02  0.97084397553E+02  0.47000000000E+01 0.  1.
<mgrwt>
<rscale>  0 0.20783856E+03</rscale>
<asrwt>0</asrwt>
<pdfrwt beam="1">  1        1 0.32264768E-01 0.20806148E+03</pdfrwt>
<pdfrwt beam="2">  1       -1 0.32085301E-01 0.20806148E+03</pdfrwt>
<totfact> 0.12506579E+03</totfact>
</mgrwt>
</event>
<event>
 8    1  0.3177960E-004  0.1039187E+03  0.7546771E-02  0.1273880E+00
          3   -1    0    0  501    0  0.00000000000E+00  0.00000000000E+00  0.14659065653E+02  0.14659065653E+02  0.00000000000E+00 0. -1.
         -3   -1    0    0    0  501 -0.00000000000E+00 -0.00000000000E+00 -0.72261090251E+03  0.72261090251E+03  0.00000000000E+00 0.  1.
         23    2    1    2    0    0 -0.35177441245E+01  0.43787791156E+02 -0.30904500224E+03  0.32504943664E+03  0.90656371368E+02 0.  0.
         23    2    1    2    0    0  0.35177441245E+01 -0.43787791156E+02 -0.39890683462E+03  0.41222053153E+03  0.94177272894E+02 0.  0.
          5    1    4    4  502    0  0.38542697281E+02  0.54050317406E+01 -0.21648239270E+03  0.22000334140E+03  0.47000000000E+01 0. -1.
         -5    1    4    4    0  502 -0.35024953157E+02 -0.49192822896E+02 -0.18242444192E+03  0.19221719012E+03  0.47000000000E+01 0.  1.
          5    1    3    3  503    0  0.26487289866E+02  0.53425306519E+02 -0.25825761671E+03  0.26509418419E+03  0.47000000000E+01 0. -1.
         -5    1    3    3    0  503 -0.30005033991E+02 -0.96375153635E+01 -0.50787385528E+02  0.59955252447E+02  0.47000000000E+01 0.  1.
<mgrwt>
<rscale>  0 0.10311449E+03</rscale>
<asrwt>0</asrwt>
<pdfrwt beam="1">  1        3 0.22552407E-02 0.10391874E+03</pdfrwt>
<pdfrwt beam="2">  1       -3 0.11117092E+00 0.10391874E+03</pdfrwt>
<totfact> 0.12355607E+03</totfact>
</mgrwt>
</event>
<event>
 8    1  0.3177960E-004  0.1303457E+03  0.7546771E-02  0.1227546E+00
          2   -1    0    0  501    0  0.00000000000E+00  0.00000000000E+00  0.32755853661E+03  0.32755853661E+03  0.00000000000E+00 0. -1.
         -2   -1    0    0    0  501 -0.00000000000E+00 -0.00000000000E+00 -0.51447238395E+02  0.51447238395E+02  0.00000000000E+00 0.  1.
         23    2    1    2    0    0 -0.23714427440E+02 -0.89194188928E+02  0.12477581918E+03  0.17927486588E+03  0.89735695669E+02 0.  0.
         23    2    1    2    0    0  0.23714427440E+02  0.89194188928E+02  0.15133547903E+03  0.19973090912E+03  0.92043638766E+02 0.  0.
          5    1    4    4  502    0  0.24065458447E+02  0.85909915562E+01  0.10167101762E+03  0.10493825447E+03  0.47000000000E+01 0. -1.
         -5    1    3    3    0  503 -0.56772921982E+02 -0.60610090545E+02  0.94549773639E+02  0.12593052625E+03  0.47000000000E+01 0.  1.
          5    1    3    3  503    0  0.33058494542E+02 -0.28584098383E+02  0.30226045545E+02  0.53344339634E+02  0.47000000000E+01 0. -1.
         -5    1    4    4    0  502 -0.35103100642E+00  0.80603197372E+02  0.49664461408E+02  0.94792654654E+02  0.47000000000E+01 0.  1.
<mgrwt>
<rscale>  0 0.12993898E+03</rscale>
<asrwt>0</asrwt>
<pdfrwt beam="1">  1        2 0.50393620E-01 0.13034573E+03</pdfrwt>
<pdfrwt beam="2">  1       -2 0.79149599E-02 0.13034573E+03</pdfrwt>
<totfact> 0.90378142E+03</totfact>
</mgrwt>
</event>
<event>
 8    1  0.3177960E-004  0.3524363E+03  0.7546771E-02  0.1061648E+00
          1   -1    0    0  501    0  0.00000000000E+00  0.00000000000E+00  0.40293205920E+03  0.40293205920E+03  0.00000000000E+00 0. -1.
         -1   -1    0    0    0  501 -0.00000000000E+00 -0.00000000000E+00 -0.12220372528E+04  0.12220372528E+04  0.00000000000E+00 0.  1.
         23    2    1    2    0    0 -0.33842694831E+03 -0.34885232869E+02 -0.11121774230E+04  0.11665997585E+04  0.90920831029E+02 0.  0.
         23    2    1    2    0    0  0.33842694831E+03  0.34885232869E+02  0.29307222940E+03  0.45836955349E+03  0.91986613748E+02 0.  0.
          5    1    4    4  502    0  0.29557605524E+03  0.14268729733E+02  0.21125362641E+03  0.36361928683E+03  0.47000000000E+01 0. -1.
         -5    1    3    3    0  503 -0.26689459165E+03  0.88372971007E+01 -0.80481341658E+03  0.84797260945E+03  0.47000000000E+01 0.  1.
          5    1    3    3  503    0 -0.71532356658E+02 -0.43722529970E+02 -0.30736400640E+03  0.31862714905E+03  0.47000000000E+01 0. -1.
         -5    1    4    4    0  502  0.42850893068E+02  0.20616503136E+02  0.81818602987E+02  0.94750266665E+02  0.47000000000E+01 0.  1.
<mgrwt>
<rscale>  0 0.35236707E+03</rscale>
<asrwt>0</asrwt>
<pdfrwt beam="1">  1        1 0.61989548E-01 0.35243626E+03</pdfrwt>
<pdfrwt beam="2">  1       -1 0.18800573E+00 0.35243626E+03</pdfrwt>
<totfact> 0.11961979E+01</totfact>
</mgrwt>
</event>
<event>
 8    1  0.3177960E-004  0.1320189E+03  0.7546771E-02  0.1225082E+00
          2   -1    0    0  501    0  0.00000000000E+00  0.00000000000E+00  0.10076955567E+04  0.10076955567E+04  0.00000000000E+00 0. -1.
         -2   -1    0    0    0  501 -0.00000000000E+00 -0.00000000000E+00 -0.19713614708E+02  0.19713614708E+02  0.00000000000E+00 0.  1.
         23    2    1    2    0    0 -0.12702460015E+02 -0.94437563205E+02  0.68421575989E+03  0.69683584392E+03  0.91373855361E+02 0.  0.
         23    2    1    2    0    0  0.12702460015E+02  0.94437563205E+02  0.30376618207E+03  0.33057332747E+03  0.89022613011E+02 0.  0.
          5    1    4    4  502    0  0.33195086393E+02  0.39100957852E+02  0.23148317584E+03  0.23714415313E+03  0.47000000000E+01 0. -1.
         -5    1    4    4    0  502 -0.20492626378E+02  0.55336605352E+02  0.72283006232E+02  0.93429174340E+02  0.47000000000E+01 0.  1.
          5    1    3    3  503    0  0.38780659528E+02 -0.29551404618E+02  0.24288098924E+03  0.24777104351E+03  0.47000000000E+01 0. -1.
         -5    1    3    3    0  503 -0.51483119543E+02 -0.64886158586E+02  0.44133477065E+03  0.44906480040E+03  0.47000000000E+01 0.  1.
<mgrwt>
<rscale>  0 0.13161294E+03</rscale>
<asrwt>0</asrwt>
<pdfrwt beam="1">  1        2 0.15503005E+00 0.13201889E+03</pdfrwt>
<pdfrwt beam="2">  1       -2 0.30328646E-02 0.13201889E+03</pdfrwt>
<totfact> 0.10415735E+04</totfact>
</mgrwt>
</event>
<event>
 8    1  0.3177960E-004  0.1316637E+03  0.7546771E-02  0.1231356E+00
         -1   -1    0    0    0  501 -0.00000000000E+00  0.00000000000E+00  0.25082323274E+02  0.25082323274E+02  0.00000000000E+00 0.  1.
          1   -1    0    0  501    0  0.00000000000E+00 -0.00000000000E+00 -0.10600894741E+04  0.10600894741E+04  0.00000000000E+00 0. -1.
         23    2    1    2    0    0 -0.69010573252E+02  0.18043814504E+02 -0.85165489552E+03  0.85944326182E+03  0.90766848437E+02 0.  0.
         23    2    1    2    0    0  0.69010573252E+02 -0.18043814504E+02 -0.18335225532E+03  0.22572853556E+03  0.11066744676E+03 0.  0.
          5    1    3    3  502    0 -0.48761396442E+02  0.54322406947E+02 -0.50323576222E+03  0.50852425709E+03  0.47000000000E+01 0. -1.
         -5    1    4    4    0  503  0.92992865905E+02  0.69899314591E+01 -0.15383564582E+03  0.17995562835E+03  0.47000000000E+01 0.  1.
          5    1    4    4  503    0 -0.23982292654E+02 -0.25033745963E+02 -0.29516609499E+02  0.45772907207E+02  0.47000000000E+01 0. -1.
         -5    1    3    3    0  502 -0.20249176810E+02 -0.36278592443E+02 -0.34841913330E+03  0.35091900473E+03  0.47000000000E+01 0.  1.
<mgrwt>
<rscale>  0 0.12740593E+03</rscale>
<asrwt>0</asrwt>
<pdfrwt beam="1">  1        1 0.16309067E+00 0.13166367E+03</pdfrwt>
<pdfrwt beam="2">  1       -1 0.38588194E-02 0.13166367E+03</pdfrwt>
<totfact> 0.36740494E+03</totfact>
</mgrwt>
</event>
<event>
 8    1  0.3177960E-004  0.9774233E+02  0.7546771E-02  0.1285926E+00
          3   -1    0    0  501    0  0.00000000000E+00  0.00000000000E+00  0.28210001166E+03  0.28210001166E+03  0.00000000000E+00 0. -1.
         -3   -1    0    0    0  501 -0.00000000000E+00 -0.00000000000E+00 -0.39749533498E+02  0.39749533498E+02  0.00000000000E+00 0.  1.
         23    2    1    2    0    0 -0.25338883433E+02  0.20799131699E+02  0.55851725326E+02  0.11128993836E+03  0.90506200152E+02 0.  0.
         23    2    1    2    0    0  0.25338883433E+02 -0.20799131699E+02  0.18649875284E+03  0.21055960680E+03  0.92080944343E+02 0.  0.
          5    1    3    3  502    0  0.31638660745E+02  0.14496989764E+02  0.36383948700E+02  0.50567274882E+02  0.47000000000E+01 0. -1.
         -5    1    4    4    0  503 -0.18716376566E+02 -0.27612783701E+02  0.22416125440E+02  0.40464073636E+02  0.47000000000E+01 0.  1.
          5    1    4    4  503    0  0.44055259999E+02  0.68136520023E+01  0.16408262740E+03  0.17009553316E+03  0.47000000000E+01 0. -1.
         -5    1    3    3    0  502 -0.56977544178E+02  0.63021419349E+01  0.19467776626E+02  0.60722663482E+02  0.47000000000E+01 0.  1.
<mgrwt>
<rscale>  0 0.97369684E+02</rscale>
<asrwt>0</asrwt>
<pdfrwt beam="1">  1        3 0.43400000E-01 0.97742331E+02</pdfrwt>
<pdfrwt beam="2">  1       -3 0.61153130E-02 0.97742331E+02</pdfrwt>
<totfact> 0.18875070E+03</totfact>
</mgrwt>
</event>
<event>
 8    1  0.3177960E-004  0.1025069E+03  0.7546771E-02  0.1278551E+00
          3   -1    0    0  501    0  0.00000000000E+00  0.00000000000E+00  0.19968768380E+02  0.19968768380E+02  0.00000000000E+00 0. -1.
         -3   -1    0    0    0  501 -0.00000000000E+00 -0.00000000000E+00 -0.49491093994E+03  0.49491093994E+03  0.00000000000E+00 0.  1.
         23    2    1    2    0    0  0.74165191598E+01  0.45154070618E+02 -0.24469727014E+03  0.26284720625E+03  0.84368269944E+02 0.  0.
         23    2    1    2    0    0 -0.74165191598E+01 -0.45154070618E+02 -0.23024490142E+03  0.25203250206E+03  0.91726618907E+02 0.  0.
          5    1    4    4  502    0  0.20252033507E+02 -0.31634535686E+02 -0.27204109942E+02  0.46615901868E+02  0.47000000000E+01 0. -1.
         -5    1    3    3    0  503  0.24648639088E+02 -0.15477185849E+02 -0.48894963661E+02  0.57095587939E+02  0.47000000000E+01 0.  1.
          5    1    3    3  503    0 -0.17232119928E+02  0.60631256468E+02 -0.19580230648E+03  0.20575161832E+03  0.47000000000E+01 0. -1.
         -5    1    4    4    0  502 -0.27668552667E+02 -0.13519534932E+02 -0.20304079148E+03  0.20541660019E+03  0.47000000000E+01 0.  1.
<mgrwt>
<rscale>  0 0.10083435E+03</rscale>
<asrwt>0</asrwt>
<pdfrwt beam="1">  1        3 0.30721184E-02 0.10250691E+03</pdfrwt>
<pdfrwt beam="2">  1       -3 0.76140140E-01 0.10250691E+03</pdfrwt>
<totfact> 0.17792848E+03</totfact>
</mgrwt>
</event>
<event>
 8    1  0.3177960E-004  0.1143148E+03  0.7546771E-02  0.1253315E+00
         -1   -1    0    0    0  501 -0.00000000000E+00  0.00000000000E+00  0.10921461607E+03  0.10921461607E+03  0.00000000000E+00 0.  1.
          1   -1    0    0  501    0  0.00000000000E+00 -0.00000000000E+00 -0.14938183224E+03  0.14938183224E+03  0.00000000000E+00 0. -1.
         23    2    1    2    0    0  0.31848256414E+02 -0.57205973777E+02  0.38720459434E+02  0.12069441393E+03  0.93707164630E+02 0.  0.
         23    2    1    2    0    0 -0.31848256414E+02  0.57205973777E+02 -0.78887675600E+02  0.13790203438E+03  0.92232699471E+02 0.  0.
          5    1    4    4  502    0 -0.18572260384E+02  0.72377579669E+02 -0.23030253273E+02  0.78332148320E+02  0.47000000000E+01 0. -1.
         -5    1    3    3    0  503  0.62182100095E+02 -0.55013610742E+02  0.32589759065E+02  0.89315694785E+02  0.47000000000E+01 0.  1.
          5    1    3    3  503    0 -0.30333843682E+02 -0.21923630351E+01  0.61307003691E+01  0.31378719145E+02  0.47000000000E+01 0. -1.
         -5    1    4    4    0  502 -0.13275996029E+02 -0.15171605893E+02 -0.55857422328E+02  0.59569886058E+02  0.47000000000E+01 0.  1.
<mgrwt>
<rscale>  0 0.11401220E+03</rscale>
<asrwt>0</asrwt>
<pdfrwt beam="1">  1        1 0.22981820E-01 0.11431477E+03</pdfrwt>
<pdfrwt beam="2">  1       -1 0.16802249E-01 0.11431477E+03</pdfrwt>
<totfact> 0.53835106E+03</totfact>
</mgrwt>
</event>
<event>
 8    1  0.3177960E-004  0.9380942E+02  0.7546771E-02  0.1294894E+00
          1   -1    0    0  501    0  0.00000000000E+00  0.00000000000E+00  0.29574644584E+02  0.29574644584E+02  0.00000000000E+00 0. -1.
         -1   -1    0    0    0  501 -0.00000000000E+00 -0.00000000000E+00 -0.34738105044E+03  0.34738105044E+03  0.00000000000E+00 0.  1.
         23    2    1    2    0    0 -0.12901909076E+02  0.36337278761E+01 -0.82409189667E+02  0.12355471362E+03  0.91075954457E+02 0.  0.
         23    2    1    2    0    0  0.12901909076E+02 -0.36337278761E+01 -0.23539721618E+03  0.25340098140E+03  0.92846888750E+02 0.  0.
          5    1    4    4  502    0 -0.31508476758E+02  0.18740833380E+02 -0.55370010457E+02  0.66572749691E+02  0.47000000000E+01 0. -1.
         -5    1    4    4    0  502  0.44410385833E+02 -0.22374561256E+02 -0.18002720573E+03  0.18682823171E+03  0.47000000000E+01 0.  1.
          5    1    3    3  503    0  0.60650456838E+01  0.43398576811E+02 -0.23814245015E+02  0.50094206391E+02  0.47000000000E+01 0. -1.
         -5    1    3    3    0  503 -0.18966954760E+02 -0.39764848935E+02 -0.58594944652E+02  0.73460507229E+02  0.47000000000E+01 0.  1.
<mgrwt>
<rscale>  0 0.93368217E+02</rscale>
<asrwt>0</asrwt>
<pdfrwt beam="1">  1        1 0.45499453E-02 0.93809424E+02</pdfrwt>
<pdfrwt beam="2">  1       -1 0.53443239E-01 0.93809424E+02</pdfrwt>
<totfact> 0.63417758E+03</totfact>
</mgrwt>
</event>
<event>
 8    1  0.3177960E-004  0.1016451E+03  0.7546771E-02  0.1281827E+00
          2   -1    0    0  501    0  0.00000000000E+00  0.00000000000E+00  0.33849061734E+03  0.33849061734E+03  0.00000000000E+00 0. -1.
         -2   -1    0    0    0  501 -0.00000000000E+00 -0.00000000000E+00 -0.30753469833E+02  0.30753469833E+02  0.00000000000E+00 0.  1.
         23    2    1    2    0    0  0.15255348025E+02 -0.57624264465E+01  0.90497848302E+02  0.12940115324E+03  0.91043213428E+02 0.  0.
         23    2    1    2    0    0 -0.15255348025E+02  0.57624264465E+01  0.21723929921E+03  0.23984293393E+03  0.10032840393E+03 0.  0.
          5    1    4    4  502    0  0.50481051025E+01  0.47345531723E+02  0.65358300434E+02  0.80999260336E+02  0.47000000000E+01 0. -1.
         -5    1    4    4    0  502 -0.20303453128E+02 -0.41583105276E+02  0.15188099877E+03  0.15884367360E+03  0.47000000000E+01 0.  1.
          5    1    3    3  503    0 -0.28169210428E+02  0.25840123574E+02  0.35303561860E+02  0.52246032217E+02  0.47000000000E+01 0. -1.
         -5    1    3    3    0  503  0.43424558453E+02 -0.31602550021E+02  0.55194286442E+02  0.77155121026E+02  0.47000000000E+01 0.  1.
<mgrwt>
<rscale>  0 0.99275242E+02</rscale>
<asrwt>0</asrwt>
<pdfrwt beam="1">  1        2 0.52075477E-01 0.10164507E+03</pdfrwt>
<pdfrwt beam="2">  1       -2 0.47313033E-02 0.10164507E+03</pdfrwt>
<totfact> 0.18611211E+04</totfact>
</mgrwt>
</event>
<event>
 8    1  0.3177960E-004  0.1139938E+03  0.7546771E-02  0.1255653E+00
         -2   -1    0    0    0  501 -0.00000000000E+00  0.00000000000E+00  0.16280591483E+02  0.16280591483E+02  0.00000000000E+00 0.  1.
          2   -1    0    0  501    0  0.00000000000E+00 -0.00000000000E+00 -0.76352955702E+03  0.76352955702E+03  0.00000000000E+00 0. -1.
         23    2    1    2    0    0 -0.60483726235E+02  0.33122980549E+02 -0.39339775935E+03  0.40958072983E+03  0.90769841941E+02 0.  0.
         23    2    1    2    0    0  0.60483726235E+02 -0.33122980549E+02 -0.35385120619E+03  0.37022941867E+03  0.84283648185E+02 0.  0.
          5    1    4    4  502    0  0.11568533568E+02  0.22876556294E+02 -0.40639512429E+02  0.48278647115E+02  0.47000000000E+01 0. -1.
         -5    1    3    3    0  503 -0.31331468756E+02 -0.21791486413E+02 -0.66733602434E+02  0.77019435913E+02  0.47000000000E+01 0.  1.
          5    1    3    3  503    0 -0.29152257479E+02  0.54914466962E+02 -0.32666415692E+03  0.33256129392E+03  0.47000000000E+01 0. -1.
         -5    1    4    4    0  502  0.48915192666E+02 -0.55999536843E+02 -0.31321169376E+03  0.32195077156E+03  0.47000000000E+01 0.  1.
<mgrwt>
<rscale>  0 0.11269833E+03</rscale>
<asrwt>0</asrwt>
<pdfrwt beam="1">  1        2 0.11746605E+00 0.11399376E+03</pdfrwt>
<pdfrwt beam="2">  1       -2 0.25047071E-02 0.11399376E+03</pdfrwt>
<totfact> 0.19499952E+04</totfact>
</mgrwt>
</event>
<event>
 8    1  0.3177960E-004  0.1036905E+03  0.7546771E-02  0.1273520E+00
         -2   -1    0    0    0  501 -0.00000000000E+00  0.00000000000E+00  0.19304403838E+02  0.19304403838E+02  0.00000000000E+00 0.  1.
          2   -1    0    0  501    0  0.00000000000E+00 -0.00000000000E+00 -0.73890486972E+03  0.73890486972E+03  0.00000000000E+00 0. -1.
         23    2    1    2    0    0  0.14511052212E+02 -0.47086311035E+02 -0.55019044133E+03  0.55958530446E+03  0.89434332930E+02 0.  0.
         23    2    1    2    0    0 -0.14511052212E+02  0.47086311035E+02 -0.16941002455E+03  0.19862396910E+03  0.91236140651E+02 0.  0.
          5    1    4    4  502    0  0.19090581264E+02 -0.20002706609E+02 -0.54722408660E+02  0.61491386179E+02  0.47000000000E+01 0. -1.
         -5    1    4    4    0  502 -0.33601633477E+02  0.67089017644E+02 -0.11468761589E+03  0.13713258292E+03  0.47000000000E+01 0.  1.
          5    1    3    3  503    0  0.43825308657E+02 -0.27857395266E+02 -0.45601245452E+03  0.45898381325E+03  0.47000000000E+01 0. -1.
         -5    1    3    3    0  503 -0.29314256445E+02 -0.19228915769E+02 -0.94177986818E+02  0.10060149121E+03  0.47000000000E+01 0.  1.
<mgrwt>
<rscale>  0 0.10329279E+03</rscale>
<asrwt>0</asrwt>
<pdfrwt beam="1">  1        2 0.11367765E+00 0.10369052E+03</pdfrwt>
<pdfrwt beam="2">  1       -2 0.29699089E-02 0.10369052E+03</pdfrwt>
<totfact> 0.15703811E+04</totfact>
</mgrwt>
</event>
<event>
 8    1  0.3177960E-004  0.2164408E+03  0.7546771E-02  0.1136658E+00
         -2   -1    0    0    0  501 -0.00000000000E+00  0.00000000000E+00  0.51729761775E+02  0.51729761775E+02  0.00000000000E+00 0.  1.
          2   -1    0    0  501    0  0.00000000000E+00 -0.00000000000E+00 -0.15312945009E+04  0.15312945009E+04  0.00000000000E+00 0. -1.
         23    2    1    2    0    0  0.19478457790E+03  0.22447468951E+02 -0.12470592092E+04  0.12657026888E+04  0.91660813030E+02 0.  0.
         23    2    1    2    0    0 -0.19478457790E+03 -0.22447468951E+02 -0.23250552994E+03  0.31732157384E+03  0.90494414871E+02 0.  0.
          5    1    3    3  502    0  0.20325915249E+02  0.17065482668E+02 -0.58793668221E+02  0.64677344970E+02  0.47000000000E+01 0.  1.
         -5    1    4    4    0  503 -0.13964141174E+03 -0.20420017892E+02 -0.98053382750E+02  0.17191060722E+03  0.47000000000E+01 0.  1.
          5    1    4    4  503    0 -0.55143166159E+02 -0.20274510588E+01 -0.13445214719E+03  0.14541096663E+03  0.47000000000E+01 0. -1.
         -5    1    3    3    0  502  0.17445866265E+03  0.53819862828E+01 -0.11882655409E+04  0.12010253438E+04  0.47000000000E+01 0. -1.
<mgrwt>
<rscale>  0 0.21631786E+03</rscale>
<asrwt>0</asrwt>
<pdfrwt beam="1">  1        2 0.23558376E+00 0.21644081E+03</pdfrwt>
<pdfrwt beam="2">  1       -2 0.79584250E-02 0.21644081E+03</pdfrwt>
<totfact> 0.12574162E+03</totfact>
</mgrwt>
</event>
<event>
 8    1  0.3177960E-004  0.9392770E+02  0.7546771E-02  0.1294118E+00
          2   -1    0    0  501    0  0.00000000000E+00  0.00000000000E+00  0.70639708874E+03  0.70639708874E+03  0.00000000000E+00 0. -1.
         -2   -1    0    0    0  501 -0.00000000000E+00 -0.00000000000E+00 -0.12570072145E+02  0.12570072145E+02  0.00000000000E+00 0.  1.
         23    2    1    2    0    0 -0.87853922189E+01 -0.15580744024E+02  0.30339054317E+03  0.31759759825E+03  0.92208839208E+02 0.  0.
         23    2    1    2    0    0  0.87853922189E+01  0.15580744024E+02  0.39043647342E+03  0.40136956264E+03  0.91306863540E+02 0.  0.
          5    1    4    4  502    0 -0.21318790774E+01 -0.36187310719E+02  0.21442668262E+03  0.21752001882E+03  0.47000000000E+01 0. -1.
         -5    1    3    3    0  503  0.13048543932E+02  0.26874939907E+02  0.21420030408E+03  0.21632472620E+03  0.47000000000E+01 0.  1.
          5    1    3    3  503    0 -0.21833936151E+02 -0.42455683931E+02  0.89190239085E+02  0.10127287205E+03  0.47000000000E+01 0. -1.
         -5    1    4    4    0  502  0.10917271296E+02  0.51768054743E+02  0.17600979080E+03  0.18384954382E+03  0.47000000000E+01 0.  1.
<mgrwt>
<rscale>  0 0.93705585E+02</rscale>
<asrwt>0</asrwt>
<pdfrwt beam="1">  1        2 0.10867644E+00 0.93927699E+02</pdfrwt>
<pdfrwt beam="2">  1       -2 0.19338578E-02 0.93927699E+02</pdfrwt>
<totfact> 0.30533295E+04</totfact>
</mgrwt>
</event>
<event>
 8    1  0.3177960E-004  0.1152173E+03  0.7546771E-02  0.1251769E+00
         -2   -1    0    0    0  501 -0.00000000000E+00  0.00000000000E+00  0.21297778745E+03  0.21297778745E+03  0.00000000000E+00 0.  1.
          2   -1    0    0  501    0  0.00000000000E+00 -0.00000000000E+00 -0.11388817160E+03  0.11388817160E+03  0.00000000000E+00 0. -1.
         23    2    1    2    0    0 -0.65567741385E+02 -0.23816245443E+02  0.16040066795E+03  0.19749276875E+03  0.91698839532E+02 0.  0.
         23    2    1    2    0    0  0.65567741385E+02  0.23816245443E+02 -0.61311052106E+02  0.12937319030E+03  0.90066836301E+02 0.  0.
          5    1    4    4  502    0  0.51982439588E+02 -0.17640832449E+02 -0.65154761696E+02  0.85326466977E+02  0.47000000000E+01 0. -1.
         -5    1    4    4    0  502  0.13585301797E+02  0.41457077892E+02  0.38437095906E+01  0.44046723325E+02  0.47000000000E+01 0.  1.
          5    1    3    3  503    0  0.16378544828E+02 -0.17488965001E+02  0.10721100402E+02  0.26667444971E+02  0.47000000000E+01 0. -1.
         -5    1    3    3    0  503 -0.81946286213E+02 -0.63272804426E+01  0.14967956755E+03  0.17082532377E+03  0.47000000000E+01 0.  1.
<mgrwt>
<rscale>  0 0.11489225E+03</rscale>
<asrwt>0</asrwt>
<pdfrwt beam="1">  1        2 0.17521257E-01 0.11521727E+03</pdfrwt>
<pdfrwt beam="2">  1       -2 0.32765813E-01 0.11521727E+03</pdfrwt>
<totfact> 0.26928319E+03</totfact>
</mgrwt>
</event>
<event>
 8    1  0.3177960E-004  0.1484187E+03  0.7546771E-02  0.1205575E+00
         -1   -1    0    0    0  501 -0.00000000000E+00  0.00000000000E+00  0.87202374857E+02  0.87202374857E+02  0.00000000000E+00 0.  1.
          1   -1    0    0  501    0  0.00000000000E+00 -0.00000000000E+00 -0.32787299053E+03  0.32787299053E+03  0.00000000000E+00 0. -1.
         23    2    1    2    0    0 -0.74213759334E+02 -0.74091022938E+02 -0.13648364736E+02  0.14904496869E+03  0.10502839177E+03 0.  0.
         23    2    1    2    0    0  0.74213759334E+02  0.74091022938E+02 -0.22702225094E+03  0.26603039669E+03  0.90751902400E+02 0.  0.
          5    1    4    4  502    0  0.36227030797E+02  0.65344794471E+02 -0.21053024735E+03  0.22344443375E+03  0.47000000000E+01 0. -1.
         -5    1    3    3    0  503 -0.74167554222E+02 -0.31861516438E+02  0.31746179076E+02  0.86867095122E+02  0.47000000000E+01 0.  1.
          5    1    3    3  503    0 -0.46205111407E-01 -0.42229506501E+02 -0.45394543811E+02  0.62177873573E+02  0.47000000000E+01 0. -1.
         -5    1    4    4    0  502  0.37986728537E+02  0.87462284676E+01 -0.16492003586E+02  0.42585962941E+02  0.47000000000E+01 0.  1.
<mgrwt>
<rscale>  0 0.14592263E+03</rscale>
<asrwt>0</asrwt>
<pdfrwt beam="1">  1        1 0.50441999E-01 0.14841875E+03</pdfrwt>
<pdfrwt beam="2">  1       -1 0.13415750E-01 0.14841875E+03</pdfrwt>
<totfact> 0.29272590E+03</totfact>
</mgrwt>
</event>
<event>
 8    1  0.3177960E-004  0.1302991E+03  0.7546771E-02  0.1227594E+00
         -1   -1    0    0    0  501 -0.00000000000E+00  0.00000000000E+00  0.22207166113E+02  0.22207166113E+02  0.00000000000E+00 0.  1.
          1   -1    0    0  501    0  0.00000000000E+00 -0.00000000000E+00 -0.75671773052E+03  0.75671773052E+03  0.00000000000E+00 0. -1.
         23    2    1    2    0    0 -0.38045244390E+02 -0.84649208617E+02 -0.34872090611E+03  0.37172530569E+03  0.89221653156E+02 0.  0.
         23    2    1    2    0    0  0.38045244390E+02  0.84649208617E+02 -0.38578965829E+03  0.40719959094E+03  0.91459921688E+02 0.  0.
          5    1    3    3  502    0 -0.17237569157E+02  0.13663898563E+02 -0.11647819902E+03  0.11863008371E+03  0.47000000000E+01 0. -1.
         -5    1    4    4    0  503  0.33875928269E+02  0.36580977536E+02 -0.61516206384E+02  0.79322632845E+02  0.47000000000E+01 0.  1.
          5    1    4    4  503    0  0.41693161216E+01  0.48068231080E+02 -0.32427345191E+03  0.32787695810E+03  0.47000000000E+01 0. -1.
         -5    1    3    3    0  502 -0.20807675233E+02 -0.98313107180E+02 -0.23224270709E+03  0.25309522198E+03  0.47000000000E+01 0.  1.
<mgrwt>
<rscale>  0 0.12990699E+03</rscale>
<asrwt>0</asrwt>
<pdfrwt beam="1">  1        1 0.11641812E+00 0.13029907E+03</pdfrwt>
<pdfrwt beam="2">  1       -1 0.34164870E-02 0.13029907E+03</pdfrwt>
<totfact> 0.75071438E+03</totfact>
</mgrwt>
</event>
<event>
 8    1  0.3177960E-004  0.9626592E+02  0.7546771E-02  0.1288872E+00
          3   -1    0    0  501    0  0.00000000000E+00  0.00000000000E+00  0.47363069345E+02  0.47363069345E+02  0.00000000000E+00 0. -1.
         -3   -1    0    0    0  501 -0.00000000000E+00 -0.00000000000E+00 -0.21023965730E+03  0.21023965730E+03  0.00000000000E+00 0.  1.
         23    2    1    2    0    0 -0.13474269062E+02  0.29063620397E+02 -0.45742710716E+02  0.10658106673E+03  0.90779283126E+02 0.  0.
         23    2    1    2    0    0  0.13474269062E+02 -0.29063620397E+02 -0.11713387724E+03  0.15102165992E+03  0.89782774566E+02 0.  0.
          5    1    3    3  502    0  0.70806618225E+01 -0.23983654432E+02  0.94835204490E+01  0.27154716199E+02  0.47000000000E+01 0. -1.
         -5    1    4    4    0  503  0.17365039792E+02  0.29109892861E+02 -0.61046415392E+02  0.69983464487E+02  0.47000000000E+01 0.  1.
          5    1    4    4  503    0 -0.38907707301E+01 -0.58173513258E+02 -0.56087461850E+02  0.81038195429E+02  0.47000000000E+01 0. -1.
         -5    1    3    3    0  502 -0.20554930885E+02  0.53047274829E+02 -0.55226231165E+02  0.79426350534E+02  0.47000000000E+01 0.  1.
<mgrwt>
<rscale>  0 0.96030277E+02</rscale>
<asrwt>0</asrwt>
<pdfrwt beam="1">  1        3 0.72866261E-02 0.96265924E+02</pdfrwt>
<pdfrwt beam="2">  1       -3 0.32344562E-01 0.96265924E+02</pdfrwt>
<totfact> 0.24819682E+03</totfact>
</mgrwt>
</event>
<event>
 8    1  0.3177960E-004  0.1057493E+03  0.7546771E-02  0.1269540E+00
          4   -1    0    0  501    0  0.00000000000E+00  0.00000000000E+00  0.41917992774E+02  0.41917992774E+02  0.00000000000E+00 0. -1.
         -4   -1    0    0    0  501 -0.00000000000E+00 -0.00000000000E+00 -0.40512642554E+03  0.40512642554E+03  0.00000000000E+00 0.  1.
         23    2    1    2    0    0 -0.36591990236E+02 -0.28993005091E+02 -0.49876190541E+02  0.11692113404E+03  0.94885979511E+02 0.  0.
         23    2    1    2    0    0  0.36591990236E+02  0.28993005091E+02 -0.31333224222E+03  0.33012328428E+03  0.92869374453E+02 0.  0.
          5    1    4    4  502    0  0.75856147445E+01 -0.32153539281E+02 -0.14155699980E+03  0.14543681044E+03  0.47000000000E+01 0. -1.
         -5    1    4    4    0  502  0.29006375492E+02  0.61146544372E+02 -0.17177524243E+03  0.18468647384E+03  0.47000000000E+01 0.  1.
          5    1    3    3  503    0 -0.53838796062E+02 -0.70583906914E+01 -0.65008426952E+02  0.84832908799E+02  0.47000000000E+01 0.  1.
         -5    1    3    3    0  503  0.17246805826E+02 -0.21934614399E+02  0.15132236411E+02  0.32088225237E+02  0.47000000000E+01 0. -1.
<mgrwt>
<rscale>  0 0.10529499E+03</rscale>
<asrwt>0</asrwt>
<pdfrwt beam="1">  1        4 0.64489219E-02 0.10574931E+03</pdfrwt>
<pdfrwt beam="2">  1       -4 0.62327143E-01 0.10574931E+03</pdfrwt>
<totfact> 0.60721087E+02</totfact>
</mgrwt>
</event>
<event>
 8    1  0.3177960E-004  0.9530427E+02  0.7546771E-02  0.1292132E+00
         -2   -1    0    0    0  501 -0.00000000000E+00  0.00000000000E+00  0.47109027827E+02  0.47109027827E+02  0.00000000000E+00 0. -1.
          2   -1    0    0  501    0  0.00000000000E+00 -0.00000000000E+00 -0.19326850592E+03  0.19326850592E+03  0.00000000000E+00 0.  1.
         23    2    1    2    0    0 -0.46119123353E+01  0.54093025546E+01 -0.95755277746E+02  0.13509987778E+03  0.95038799813E+02 0.  0.
         23    2    1    2    0    0  0.46119123353E+01 -0.54093025546E+01 -0.50404200344E+02  0.10527765597E+03  0.92153519433E+02 0.  0.
          5    1    4    4  502    0 -0.33455358249E+01  0.39323664491E+02 -0.43767369703E+02  0.59120350554E+02  0.47000000000E+01 0. -1.
         -5    1    4    4    0  502  0.79574481602E+01 -0.44732967046E+02 -0.66368306418E+01  0.46157305412E+02  0.47000000000E+01 0.  1.
          5    1    3    3  503    0  0.35321989930E+01  0.35590637155E+02 -0.19661779280E+01  0.36126524030E+02  0.47000000000E+01 0. -1.
         -5    1    3    3    0  503 -0.81441113283E+01 -0.30181334600E+02 -0.93789099818E+02  0.98973353748E+02  0.47000000000E+01 0.  1.
<mgrwt>
<rscale>  0 0.94576733E+02</rscale>
<asrwt>0</asrwt>
<pdfrwt beam="1">  1        2 0.29733616E-01 0.95304269E+02</pdfrwt>
<pdfrwt beam="2">  1       -2 0.72475428E-02 0.95304269E+02</pdfrwt>
<totfact> 0.17605292E+04</totfact>
</mgrwt>
</event>
<event>
 8    1  0.3177960E-004  0.9600647E+02  0.7546771E-02  0.1290997E+00
         -1   -1    0    0    0  501 -0.00000000000E+00  0.00000000000E+00  0.11966350378E+03  0.11966350378E+03  0.00000000000E+00 0.  1.
          1   -1    0    0  501    0  0.00000000000E+00 -0.00000000000E+00 -0.74893722253E+02  0.74893722253E+02  0.00000000000E+00 0. -1.
         23    2    1    2    0    0  0.26109508197E+02 -0.69076791452E+00  0.32683514361E+02  0.10141722559E+03  0.92385377394E+02 0.  0.
         23    2    1    2    0    0 -0.26109508197E+02  0.69076791452E+00  0.12086267164E+02  0.93140000445E+02  0.88582155372E+02 0.  0.
          5    1    4    4  502    0  0.26941300456E+02  0.28374447483E+01 -0.17091858488E+02  0.32374471263E+02  0.47000000000E+01 0. -1.
         -5    1    3    3    0  503 -0.28634760889E+02  0.99769847309E+00 -0.11156705149E+02  0.31104774604E+02  0.47000000000E+01 0.  1.
          5    1    3    3  503    0  0.54744269086E+02 -0.16884663876E+01  0.43840219510E+02  0.70312450983E+02  0.47000000000E+01 0. -1.
         -5    1    4    4    0  502 -0.53050808654E+02 -0.21466768338E+01  0.29178125652E+02  0.60765529182E+02  0.47000000000E+01 0.  1.
<mgrwt>
<rscale>  0 0.95079636E+02</rscale>
<asrwt>0</asrwt>
<pdfrwt beam="1">  1        1 0.11522111E-01 0.96006466E+02</pdfrwt>
<pdfrwt beam="2">  1       -1 0.18409770E-01 0.96006466E+02</pdfrwt>
<totfact> 0.11102847E+04</totfact>
</mgrwt>
</event>
<event>
 8    1  0.3177960E-004  0.9400753E+02  0.7546771E-02  0.1296899E+00
         -2   -1    0    0    0  501 -0.00000000000E+00  0.00000000000E+00  0.40761166081E+02  0.40761166081E+02  0.00000000000E+00 0.  1.
          2   -1    0    0  501    0  0.00000000000E+00 -0.00000000000E+00 -0.27986851290E+03  0.27986851290E+03  0.00000000000E+00 0. -1.
         23    2    1    2    0    0  0.81502326670E+01 -0.92532068251E+01 -0.38631418725E+02  0.10163563056E+03  0.93195315101E+02 0.  0.
         23    2    1    2    0    0 -0.81502326670E+01  0.92532068251E+01 -0.20047592809E+03  0.21899404842E+03  0.87268249500E+02 0.  0.
          5    1    3    3  502    0  0.13199703598E+02  0.35529388437E+02 -0.41292142421E+02  0.56246783406E+02  0.47000000000E+01 0. -1.
         -5    1    3    3    0  502 -0.50494709312E+01 -0.44782595262E+02  0.26607236958E+01  0.45388847151E+02  0.47000000000E+01 0.  1.
          5    1    4    4  503    0 -0.74948663515E+01  0.45151266393E+02 -0.71442328567E+02  0.84975915350E+02  0.47000000000E+01 0. -1.
         -5    1    4    4    0  503 -0.65536631544E+00 -0.35898059568E+02 -0.12903359952E+03  0.13401813307E+03  0.47000000000E+01 0.  1.
<mgrwt>
<rscale>  0 0.92503718E+02</rscale>
<asrwt>0</asrwt>
<pdfrwt beam="1">  1        2 0.43056695E-01 0.94007526E+02</pdfrwt>
<pdfrwt beam="2">  1       -2 0.62709486E-02 0.94007526E+02</pdfrwt>
<totfact> 0.14793487E+04</totfact>
</mgrwt>
</event>
<event>
 8    1  0.3177960E-004  0.9680316E+02  0.7546771E-02  0.1287766E+00
         -1   -1    0    0    0  501 -0.00000000000E+00  0.00000000000E+00  0.26081707184E+02  0.26081707184E+02  0.00000000000E+00 0.  1.
          1   -1    0    0  501    0  0.00000000000E+00 -0.00000000000E+00 -0.43006043924E+03  0.43006043924E+03  0.00000000000E+00 0. -1.
         23    2    1    2    0    0 -0.10465955119E+02 -0.28849272577E+02 -0.29804194983E+03  0.31336856099E+03  0.91809772984E+02 0.  0.
         23    2    1    2    0    0  0.10465955119E+02  0.28849272577E+02 -0.10593678222E+03  0.14277358543E+03  0.90663543520E+02 0.  0.
          5    1    4    4  502    0 -0.40952376606E+01 -0.23960402322E+02 -0.76502407547E+02  0.80408831675E+02  0.47000000000E+01 0. -1.
         -5    1    4    4    0  502  0.14561192779E+02  0.52809674899E+02 -0.29434374676E+02  0.62364753753E+02  0.47000000000E+01 0.  1.
          5    1    3    3  503    0 -0.49075789290E+02 -0.23197917598E+02 -0.13334887818E+03  0.14405065008E+03  0.47000000000E+01 0. -1.
         -5    1    3    3    0  503  0.38609834171E+02 -0.56513549791E+01 -0.16469307165E+03  0.16931791091E+03  0.47000000000E+01 0.  1.
<mgrwt>
<rscale>  0 0.96530403E+02</rscale>
<asrwt>0</asrwt>
<pdfrwt beam="1">  1        1 0.66163137E-01 0.96803157E+02</pdfrwt>
<pdfrwt beam="2">  1       -1 0.40125708E-02 0.96803157E+02</pdfrwt>
<totfact> 0.12415416E+04</totfact>
</mgrwt>
</event>
<event>
 8    1  0.3177960E-004  0.9485832E+02  0.7546771E-02  0.1292409E+00
          1   -1    0    0  501    0  0.00000000000E+00  0.00000000000E+00  0.18627988099E+03  0.18627988099E+03  0.00000000000E+00 0. -1.
         -1   -1    0    0    0  501 -0.00000000000E+00 -0.00000000000E+00 -0.47796279225E+02  0.47796279225E+02  0.00000000000E+00 0.  1.
         23    2    1    2    0    0  0.14761509504E+02 -0.14024399577E+02  0.59295733901E+02  0.11050909818E+03  0.91003795394E+02 0.  0.
         23    2    1    2    0    0 -0.14761509504E+02  0.14024399577E+02  0.79187867859E+02  0.12356706203E+03  0.92647258220E+02 0.  0.
          5    1    3    3  502    0 -0.21125581110E+02 -0.30957247276E+01  0.68241211535E+02  0.71657704684E+02  0.47000000000E+01 0. -1.
         -5    1    3    3    0  502  0.35887090614E+02 -0.10928674850E+02 -0.89454776341E+01  0.38851393499E+02  0.47000000000E+01 0.  1.
          5    1    4    4  503    0 -0.16728123853E+02  0.34109239669E+02  0.91694570766E+02  0.99364252457E+02  0.47000000000E+01 0. -1.
         -5    1    4    4    0  503  0.19666143492E+01 -0.20084840092E+02 -0.12506702907E+02  0.24202809570E+02  0.47000000000E+01 0.  1.
<mgrwt>
<rscale>  0 0.94454626E+02</rscale>
<asrwt>0</asrwt>
<pdfrwt beam="1">  1        1 0.28658443E-01 0.94858318E+02</pdfrwt>
<pdfrwt beam="2">  1       -1 0.73532738E-02 0.94858318E+02</pdfrwt>
<totfact> 0.14226868E+04</totfact>
</mgrwt>
</event>
<event>
 8    1  0.3177960E-004  0.1192015E+03  0.7546771E-02  0.1244771E+00
         -1   -1    0    0    0  501 -0.00000000000E+00  0.00000000000E+00  0.74463413907E+02  0.74463413907E+02  0.00000000000E+00 0.  1.
          1   -1    0    0  501    0  0.00000000000E+00 -0.00000000000E+00 -0.19216714556E+03  0.19216714556E+03  0.00000000000E+00 0. -1.
         23    2    1    2    0    0  0.13738168970E+02 -0.74316460863E+02 -0.42865925941E+02  0.12588361541E+03  0.91090742555E+02 0.  0.
         23    2    1    2    0    0 -0.13738168970E+02  0.74316460863E+02 -0.74837805708E+02  0.14074694406E+03  0.92180971228E+02 0.  0.
          5    1    3    3  502    0  0.24779658065E+02  0.31576455583E+01 -0.40049910236E+02  0.47435087111E+02  0.47000000000E+01 0. -1.
         -5    1    3    3    0  502 -0.11041489096E+02 -0.77474106422E+02 -0.28160157049E+01  0.78448528295E+02  0.47000000000E+01 0.  1.
          5    1    4    4  503    0  0.11887945223E+02  0.57192303686E+02 -0.88953705969E+02  0.10652293015E+03  0.47000000000E+01 0. -1.
         -5    1    4    4    0  503 -0.25626114192E+02  0.17124157178E+02  0.14115900261E+02  0.34224013906E+02  0.47000000000E+01 0.  1.
<mgrwt>
<rscale>  0 0.11899070E+03</rscale>
<asrwt>0</asrwt>
<pdfrwt beam="1">  1        1 0.29564176E-01 0.11920153E+03</pdfrwt>
<pdfrwt beam="2">  1       -1 0.11455910E-01 0.11920153E+03</pdfrwt>
<totfact> 0.71485194E+03</totfact>
</mgrwt>
</event>
<event>
 8    1  0.3177960E-004  0.9405294E+02  0.7546771E-02  0.1293449E+00
          2   -1    0    0  501    0  0.00000000000E+00  0.00000000000E+00  0.26143493239E+03  0.26143493239E+03  0.00000000000E+00 0. -1.
         -2   -1    0    0    0  501 -0.00000000000E+00 -0.00000000000E+00 -0.17500859436E+03  0.17500859436E+03  0.00000000000E+00 0.  1.
         23    2    1    2    0    0 -0.80590504953E+01  0.17793873528E+02 -0.15282626629E+03  0.17944866218E+03  0.92002089443E+02 0.  0.
         23    2    1    2    0    0  0.80590504953E+01 -0.17793873528E+02  0.23925260432E+03  0.25699486457E+03  0.91776802698E+02 0.  0.
          5    1    3    3  502    0  0.32641234899E+02 -0.18573604063E+02 -0.47578054605E+02  0.60796301398E+02  0.47000000000E+01 0. -1.
         -5    1    4    4    0  503  0.46096823770E+02  0.46132062100E+01  0.15384236704E+03  0.16073507000E+03  0.47000000000E+01 0.  1.
          5    1    4    4  503    0 -0.38037773275E+02 -0.22407079738E+02  0.85410237278E+02  0.96259794566E+02  0.47000000000E+01 0. -1.
         -5    1    3    3    0  502 -0.40700285395E+02  0.36367477592E+02 -0.10524821168E+03  0.11865236079E+03  0.47000000000E+01 0.  1.
<mgrwt>
<rscale>  0 0.93997796E+02</rscale>
<asrwt>0</asrwt>
<pdfrwt beam="1">  1        2 0.40220759E-01 0.94052936E+02</pdfrwt>
<pdfrwt beam="2">  1       -2 0.26924399E-01 0.94052936E+02</pdfrwt>
<totfact> 0.15304715E+03</totfact>
</mgrwt>
</event>
<event>
 8    1  0.3177960E-004  0.1083048E+03  0.7546771E-02  0.1263951E+00
          1   -1    0    0  501    0  0.00000000000E+00  0.00000000000E+00  0.36647587241E+03  0.36647587241E+03  0.00000000000E+00 0. -1.
         -1   -1    0    0    0  501 -0.00000000000E+00 -0.00000000000E+00 -0.37428467191E+02  0.37428467191E+02  0.00000000000E+00 0.  1.
         23    2    1    2    0    0  0.40403601688E+02 -0.37887856136E+02  0.86459074562E+02  0.13823718307E+03  0.92554883913E+02 0.  0.
         23    2    1    2    0    0 -0.40403601688E+02  0.37887856136E+02  0.24258833066E+03  0.26566715654E+03  0.93069862031E+02 0.  0.
          5    1    3    3  502    0 -0.22478432187E+02  0.13180482720E+01 -0.15923015026E+01  0.23057376019E+02  0.47000000000E+01 0. -1.
         -5    1    3    3    0  502  0.62882033875E+02 -0.39205904407E+02  0.88051376065E+02  0.11517980705E+03  0.47000000000E+01 0.  1.
          5    1    4    4  503    0 -0.25484269909E+02  0.66078182158E+02  0.20021339939E+03  0.21242238457E+03  0.47000000000E+01 0. -1.
         -5    1    4    4    0  503 -0.14919331779E+02 -0.28190326023E+02  0.42374931269E+02  0.53244771969E+02  0.47000000000E+01 0.  1.
<mgrwt>
<rscale>  0 0.10819412E+03</rscale>
<asrwt>0</asrwt>
<pdfrwt beam="1">  1        1 0.56380901E-01 0.10830485E+03</pdfrwt>
<pdfrwt beam="2">  1       -1 0.57582260E-02 0.10830485E+03</pdfrwt>
<totfact> 0.90090005E+03</totfact>
</mgrwt>
</event>
<event>
 8    1  0.3177960E-004  0.1047428E+03  0.7546771E-02  0.1270840E+00
         -2   -1    0    0    0  501 -0.00000000000E+00  0.00000000000E+00  0.12815228284E+02  0.12815228284E+02  0.00000000000E+00 0.  1.
          2   -1    0    0  501    0  0.00000000000E+00 -0.00000000000E+00 -0.90237293770E+03  0.90237293770E+03  0.00000000000E+00 0. -1.
         23    2    1    2    0    0  0.83378164536E+01 -0.50401907399E+02 -0.33816532529E+03  0.35401532473E+03  0.91439550865E+02 0.  0.
         23    2    1    2    0    0 -0.83378164536E+01  0.50401907399E+02 -0.55139238413E+03  0.56117284125E+03  0.90947924861E+02 0.  0.
          5    1    3    3  502    0 -0.25674886808E+02 -0.14747579268E+01 -0.28666236621E+02  0.38797137080E+02  0.47000000000E+01 0. -1.
         -5    1    4    4    0  503  0.33270982040E+02  0.84061134314E+01 -0.98465714358E+02  0.10438011254E+03  0.47000000000E+01 0.  1.
          5    1    4    4  503    0 -0.41608798494E+02  0.41995793967E+02 -0.45292666977E+03  0.45679272872E+03  0.47000000000E+01 0. -1.
         -5    1    3    3    0  502  0.34012703262E+02 -0.48927149472E+02 -0.30949908866E+03  0.31521818765E+03  0.47000000000E+01 0.  1.
<mgrwt>
<rscale>  0 0.10463545E+03</rscale>
<asrwt>0</asrwt>
<pdfrwt beam="1">  1        2 0.13882668E+00 0.10474284E+03</pdfrwt>
<pdfrwt beam="2">  1       -2 0.19715725E-02 0.10474284E+03</pdfrwt>
<totfact> 0.22214473E+04</totfact>
</mgrwt>
</event>
<event>
 8    1  0.3177960E-004  0.1342953E+03  0.7546771E-02  0.1221826E+00
          1   -1    0    0  501    0  0.00000000000E+00  0.00000000000E+00  0.53932610693E+02  0.53932610693E+02  0.00000000000E+00 0. -1.
         -1   -1    0    0    0  501 -0.00000000000E+00 -0.00000000000E+00 -0.41817805133E+03  0.41817805133E+03  0.00000000000E+00 0.  1.
         23    2    1    2    0    0  0.66420667719E+02  0.71081281367E+02 -0.72925896053E+02  0.15132677348E+03  0.90096350624E+02 0.  0.
         23    2    1    2    0    0 -0.66420667719E+02 -0.71081281367E+02 -0.29131954459E+03  0.32078388855E+03  0.92579546506E+02 0.  0.
          5    1    3    3  502    0  0.45814026427E+02  0.15684143732E+02  0.97185728233E+01  0.49613083353E+02  0.47000000000E+01 0. -1.
         -5    1    3    3    0  502  0.20606641291E+02  0.55397137634E+02 -0.82644468876E+02  0.10171369013E+03  0.47000000000E+01 0.  1.
          5    1    4    4  503    0 -0.30105454595E+02  0.25217317003E+01 -0.17900625898E+03  0.18159853601E+03  0.47000000000E+01 0. -1.
         -5    1    4    4    0  503 -0.36315213124E+02 -0.73603013067E+02 -0.11231328561E+03  0.13918535254E+03  0.47000000000E+01 0.  1.
<mgrwt>
<rscale>  0 0.13386835E+03</rscale>
<asrwt>0</asrwt>
<pdfrwt beam="1">  1        1 0.82973251E-02 0.13429529E+03</pdfrwt>
<pdfrwt beam="2">  1       -1 0.64335082E-01 0.13429529E+03</pdfrwt>
<totfact> 0.20371110E+03</totfact>
</mgrwt>
</event>
<event>
 8    1  0.3177960E-004  0.1104177E+03  0.7546771E-02  0.1259844E+00
         -2   -1    0    0    0  501 -0.00000000000E+00  0.00000000000E+00  0.11212048352E+02  0.11212048352E+02  0.00000000000E+00 0.  1.
          2   -1    0    0  501    0  0.00000000000E+00 -0.00000000000E+00 -0.11599986003E+04  0.11599986003E+04  0.00000000000E+00 0. -1.
         23    2    1    2    0    0 -0.39638047049E+02  0.50327012240E+02 -0.42716282042E+03  0.44120305346E+03  0.89933732810E+02 0.  0.
         23    2    1    2    0    0  0.39638047049E+02 -0.50327012240E+02 -0.72162373148E+03  0.73000759514E+03  0.89812561487E+02 0.  0.
          5    1    3    3  502    0 -0.65936647188E+02  0.22624349230E+02 -0.23245102760E+03  0.24272427331E+03  0.47000000000E+01 0. -1.
         -5    1    3    3    0  502  0.26298600138E+02  0.27702663010E+02 -0.19471179282E+03  0.19847878015E+03  0.47000000000E+01 0.  1.
          5    1    4    4  503    0 -0.27708192274E+02 -0.22694282918E+02 -0.29338293275E+03  0.29559839246E+03  0.47000000000E+01 0. -1.
         -5    1    4    4    0  503  0.67346239324E+02 -0.27632729322E+02 -0.42824079873E+03  0.43440920268E+03  0.47000000000E+01 0.  1.
<mgrwt>
<rscale>  0 0.11039298E+03</rscale>
<asrwt>0</asrwt>
<pdfrwt beam="1">  1        2 0.17846117E+00 0.11041766E+03</pdfrwt>
<pdfrwt beam="2">  1       -2 0.17249320E-02 0.11041766E+03</pdfrwt>
<totfact> 0.19118336E+04</totfact>
</mgrwt>
</event>
<event>
 8    1  0.3177960E-004  0.9849726E+02  0.7546771E-02  0.1285701E+00
         -2   -1    0    0    0  501 -0.00000000000E+00  0.00000000000E+00  0.19918626244E+03  0.19918626244E+03  0.00000000000E+00 0.  1.
          2   -1    0    0  501    0  0.00000000000E+00 -0.00000000000E+00 -0.46807795909E+02  0.46807795909E+02  0.00000000000E+00 0. -1.
         23    2    1    2    0    0 -0.29235056744E+01  0.11599529996E+02  0.69680303013E+02  0.11738342258E+03  0.93703934208E+02 0.  0.
         23    2    1    2    0    0  0.29235056744E+01 -0.11599529996E+02  0.82698163516E+02  0.12861063577E+03  0.97768161499E+02 0.  0.
          5    1    4    4  502    0  0.30394750958E+02  0.70020479769E+01  0.89080590498E+02  0.94500323625E+02  0.47000000000E+01 0. -1.
         -5    1    4    4    0  502 -0.27471245284E+02 -0.18601577973E+02 -0.63824269823E+01  0.34110312146E+02  0.47000000000E+01 0.  1.
          5    1    3    3  503    0  0.64312001500E+01 -0.31406430413E+02 -0.27310982283E+01  0.32515736255E+02  0.47000000000E+01 0. -1.
         -5    1    3    3    0  503 -0.93547058245E+01  0.43005960409E+02  0.72411401241E+02  0.84867686321E+02  0.47000000000E+01 0.  1.
<mgrwt>
<rscale>  0 0.97473182E+02</rscale>
<asrwt>0</asrwt>
<pdfrwt beam="1">  1        2 0.72011995E-02 0.98497256E+02</pdfrwt>
<pdfrwt beam="2">  1       -2 0.30644040E-01 0.98497256E+02</pdfrwt>
<totfact> 0.87395990E+03</totfact>
</mgrwt>
</event>
<event>
 8    1  0.3177960E-004  0.1380545E+03  0.7546771E-02  0.1216332E+00
         -1   -1    0    0    0  501 -0.00000000000E+00  0.00000000000E+00  0.52285983696E+02  0.52285983696E+02  0.00000000000E+00 0.  1.
          1   -1    0    0  501    0  0.00000000000E+00 -0.00000000000E+00 -0.48547345246E+03  0.48547345246E+03  0.00000000000E+00 0. -1.
         23    2    1    2    0    0  0.91846669054E+02  0.46541753040E+02 -0.80239344830E+02  0.15877207783E+03  0.90378508767E+02 0.  0.
         23    2    1    2    0    0 -0.91846669054E+02 -0.46541753040E+02 -0.35294812394E+03  0.37898735833E+03  0.91962460776E+02 0.  0.
          5    1    3    3  502    0  0.65866729945E+02 -0.13999763684E+02 -0.58248632751E+02  0.89159479105E+02  0.47000000000E+01 0. -1.
         -5    1    3    3    0  502  0.25979939109E+02  0.60541516724E+02 -0.21990712080E+02  0.69612598724E+02  0.47000000000E+01 0.  1.
          5    1    4    4  503    0 -0.10442793970E+03 -0.21925844098E+02 -0.24148714277E+03  0.26405315251E+03  0.47000000000E+01 0. -1.
         -5    1    4    4    0  503  0.12581270646E+02 -0.24615908942E+02 -0.11146098117E+03  0.11493420582E+03  0.47000000000E+01 0. -1.
<mgrwt>
<rscale>  0 0.13779122E+03</rscale>
<asrwt>0</asrwt>
<pdfrwt beam="1">  1        1 0.74688222E-01 0.13805448E+03</pdfrwt>
<pdfrwt beam="2">  1       -1 0.80439977E-02 0.13805448E+03</pdfrwt>
<totfact> 0.38876864E+03</totfact>
</mgrwt>
</event>
<event>
 8    1  0.3177960E-004  0.1657309E+03  0.7546771E-02  0.1183012E+00
         -4   -1    0    0    0  501 -0.00000000000E+00  0.00000000000E+00  0.13882862581E+03  0.13882862581E+03  0.00000000000E+00 0.  1.
          4   -1    0    0  501    0  0.00000000000E+00 -0.00000000000E+00 -0.20037310063E+03  0.20037310063E+03  0.00000000000E+00 0. -1.
         23    2    1    2    0    0 -0.11964457251E+03 -0.64166542827E+02 -0.58624447368E+02  0.17579411277E+03  0.95050382991E+02 0.  0.
         23    2    1    2    0    0  0.11964457251E+03  0.64166542827E+02 -0.29200274470E+01  0.16340761367E+03  0.90891983674E+02 0.  0.
          5    1    4    4  502    0  0.58972335350E+02 -0.16918157903E+02 -0.71137233157E+01  0.61940741543E+02  0.47000000000E+01 0. -1.
         -5    1    3    3    0  503 -0.53760963336E+02 -0.45386091470E+02  0.18127858119E+02  0.72806920809E+02  0.47000000000E+01 0.  1.
          5    1    3    3  503    0 -0.65883609173E+02 -0.18780451357E+02 -0.76752305486E+02  0.10298719196E+03  0.47000000000E+01 0. -1.
         -5    1    4    4    0  502  0.60672237159E+02  0.81084700730E+02  0.41936958686E+01  0.10146687213E+03  0.47000000000E+01 0.  1.
<mgrwt>
<rscale>  0 0.16514044E+03</rscale>
<asrwt>0</asrwt>
<pdfrwt beam="1">  1        4 0.30826631E-01 0.16573094E+03</pdfrwt>
<pdfrwt beam="2">  1       -4 0.21358250E-01 0.16573094E+03</pdfrwt>
<totfact> 0.34845877E+02</totfact>
</mgrwt>
</event>
<event>
 8    1  0.3177960E-004  0.1068649E+03  0.7546771E-02  0.1271337E+00
         -2   -1    0    0    0  501 -0.00000000000E+00  0.00000000000E+00  0.26742275136E+02  0.26742275136E+02  0.00000000000E+00 0.  1.
          2   -1    0    0  501    0  0.00000000000E+00 -0.00000000000E+00 -0.50456798144E+03  0.50456798144E+03  0.00000000000E+00 0. -1.
         23    2    1    2    0    0  0.12536331487E+02  0.27025656531E+02 -0.10355952956E+03  0.14208630991E+03  0.92608841822E+02 0.  0.
         23    2    1    2    0    0 -0.12536331487E+02 -0.27025656531E+02 -0.37426617674E+03  0.38922394666E+03  0.10262828014E+03 0.  0.
          5    1    3    3  502    0 -0.29533791413E+02  0.14634990077E+02 -0.89969147053E+02  0.95932086349E+02  0.47000000000E+01 0. -1.
         -5    1    3    3    0  502  0.42070122900E+02  0.12390666454E+02 -0.13590382505E+02  0.46154223562E+02  0.47000000000E+01 0.  1.
          5    1    4    4  503    0 -0.35067815292E+02  0.43724889183E+01 -0.32243841086E+03  0.32440328162E+03  0.47000000000E+01 0. -1.
         -5    1    4    4    0  503  0.22531483805E+02 -0.31398145450E+02 -0.51827765886E+02  0.64820665045E+02  0.47000000000E+01 0.  1.
<mgrwt>
<rscale>  0 0.10438434E+03</rscale>
<asrwt>0</asrwt>
<pdfrwt beam="1">  1        2 0.77625832E-01 0.10686491E+03</pdfrwt>
<pdfrwt beam="2">  1       -2 0.41141968E-02 0.10686491E+03</pdfrwt>
<totfact> 0.15039411E+04</totfact>
</mgrwt>
</event>
<event>
 7    1  0.3177960E-004  0.1812296E+03  0.7546771E-02  0.1174623E+00
         -2   -1    0    0    0  501 -0.00000000000E+00  0.00000000000E+00  0.55499823143E+02  0.55499823143E+02  0.00000000000E+00 0.  1.
          2   -1    0    0  501    0  0.00000000000E+00 -0.00000000000E+00 -0.53492892837E+03  0.53492892837E+03  0.00000000000E+00 0. -1.
         23    2    1    2    0    0  0.63616786536E+02 -0.10224477763E+03 -0.29769975717E+03  0.33377778686E+03  0.91002063194E+02 0.  0.
          5    1    3    3  502    0 -0.76610403826E+01 -0.73195391087E+02 -0.15096177216E+03  0.16801131947E+03  0.47000000000E+01 0. -1.
         -5    1    1    2    0  503 -0.88520179917E+02  0.10639883699E+03 -0.99555702446E+02  0.17055779858E+03  0.47000000000E+01 0.  1.
          5    1    1    2  503    0  0.24903393381E+02 -0.41540593644E+01 -0.82173645620E+02  0.86093166079E+02  0.47000000000E+01 0. -1.
         -5    1    3    3    0  502  0.71277826919E+02 -0.29049386538E+02 -0.14673798501E+03  0.16576646739E+03  0.47000000000E+01 0.  1.
<mgrwt>
<rscale>  0 0.17312983E+03</rscale>
<asrwt>0</asrwt>
<pdfrwt beam="1">  1        2 0.82296761E-01 0.18122958E+03</pdfrwt>
<pdfrwt beam="2">  1       -2 0.85384341E-02 0.18122958E+03</pdfrwt>
<totfact> 0.48156634E+03</totfact>
</mgrwt>
</event>
<event>
 8    1  0.3177960E-004  0.9754138E+02  0.7546771E-02  0.1286221E+00
         -2   -1    0    0    0  501 -0.00000000000E+00  0.00000000000E+00  0.32402108966E+02  0.32402108966E+02  0.00000000000E+00 0.  1.
          2   -1    0    0  501    0  0.00000000000E+00 -0.00000000000E+00 -0.52030346550E+03  0.52030346550E+03  0.00000000000E+00 0. -1.
         23    2    1    2    0    0  0.71210573829E+01 -0.32813314148E+02 -0.42867726358E+03  0.43963452576E+03  0.91580002642E+02 0.  0.
         23    2    1    2    0    0 -0.71210573829E+01  0.32813314148E+02 -0.59224092956E+02  0.11307104871E+03  0.90278158080E+02 0.  0.
          5    1    4    4  502    0  0.39217969616E+02  0.24060521121E+02 -0.42508952084E+02  0.62817663318E+02  0.47000000000E+01 0. -1.
         -5    1    4    4    0  502 -0.46339026999E+02  0.87527930270E+01 -0.16715140872E+02  0.50253385392E+02  0.47000000000E+01 0.  1.
          5    1    3    3  503    0  0.31401189797E+01  0.31728757793E+02 -0.12255907964E+03  0.12672565810E+03  0.47000000000E+01 0. -1.
         -5    1    3    3    0  503  0.39809384032E+01 -0.64542071941E+02 -0.30611818394E+03  0.31290886766E+03  0.47000000000E+01 0.  1.
<mgrwt>
<rscale>  0 0.97234622E+02</rscale>
<asrwt>0</asrwt>
<pdfrwt beam="1">  1        2 0.80046695E-01 0.97541375E+02</pdfrwt>
<pdfrwt beam="2">  1       -2 0.49849393E-02 0.97541375E+02</pdfrwt>
<totfact> 0.10857307E+04</totfact>
</mgrwt>
</event>
<event>
 8    1  0.3177960E-004  0.1206986E+03  0.7546771E-02  0.1242926E+00
          1   -1    0    0  501    0  0.00000000000E+00  0.00000000000E+00  0.37545790318E+03  0.37545790318E+03  0.00000000000E+00 0. -1.
         -1   -1    0    0    0  501 -0.00000000000E+00 -0.00000000000E+00 -0.38409792955E+02  0.38409792955E+02  0.00000000000E+00 0.  1.
         23    2    1    2    0    0  0.75767573932E+02  0.92632378536E+01  0.15002592569E+03  0.19255111276E+03  0.93496629936E+02 0.  0.
         23    2    1    2    0    0 -0.75767573932E+02 -0.92632378536E+01  0.18702218453E+03  0.22131658337E+03  0.90427870345E+02 0.  0.
          5    1    3    3  502    0  0.31500844304E+02  0.33048457649E+02  0.13066832588E+03  0.13849478378E+03  0.47000000000E+01 0. -1.
         -5    1    4    4    0  503  0.84335077918E+01 -0.25652347154E+02  0.21528656050E+02  0.34853120370E+02  0.47000000000E+01 0.  1.
          5    1    4    4  503    0 -0.84201081724E+02  0.16389109300E+02  0.16549352848E+03  0.18646346300E+03  0.47000000000E+01 0. -1.
         -5    1    3    3    0  502  0.44266729627E+02 -0.23785219795E+02  0.19357599814E+02  0.54056328984E+02  0.47000000000E+01 0.  1.
<mgrwt>
<rscale>  0 0.12010391E+03</rscale>
<asrwt>0</asrwt>
<pdfrwt beam="1">  1        1 0.57762752E-01 0.12069860E+03</pdfrwt>
<pdfrwt beam="2">  1       -1 0.59091992E-02 0.12069860E+03</pdfrwt>
<totfact> 0.84804513E+03</totfact>
</mgrwt>
</event>
<event>
 8    1  0.3177960E-004  0.9386288E+02  0.7546771E-02  0.1294491E+00
          4   -1    0    0  501    0  0.00000000000E+00  0.00000000000E+00  0.10336030065E+03  0.10336030065E+03  0.00000000000E+00 0. -1.
         -4   -1    0    0    0  501 -0.00000000000E+00 -0.00000000000E+00 -0.99784185095E+02  0.99784185095E+02  0.00000000000E+00 0.  1.
         23    2    1    2    0    0  0.11236339011E+02  0.16612013448E+01  0.42083078257E+02  0.10286508686E+03  0.93173095447E+02 0.  0.
         23    2    1    2    0    0 -0.11236339011E+02 -0.16612013448E+01 -0.38506962698E+02  0.10027939889E+03  0.91892093028E+02 0.  0.
          5    1    4    4  502    0 -0.31353226241E+02 -0.32447572054E+02 -0.43522612018E+02  0.62866346202E+02  0.47000000000E+01 0.  1.
         -5    1    3    3    0  503  0.58366231150E+01 -0.41202074780E+02 -0.69785084480E+00  0.41883817058E+02  0.47000000000E+01 0.  1.
          5    1    3    3  503    0  0.53997158958E+01  0.42863276125E+02  0.42780929102E+02  0.60981269803E+02  0.47000000000E+01 0. -1.
         -5    1    4    4    0  502  0.20116887230E+02  0.30786370709E+02  0.50156493206E+01  0.37413052687E+02  0.47000000000E+01 0. -1.
<mgrwt>
<rscale>  0 0.93543390E+02</rscale>
<asrwt>0</asrwt>
<pdfrwt beam="1">  1        4 0.15901585E-01 0.93862882E+02</pdfrwt>
<pdfrwt beam="2">  1       -4 0.15351413E-01 0.93862882E+02</pdfrwt>
<totfact> 0.18500908E+03</totfact>
</mgrwt>
</event>
<event>
 8    1  0.3177960E-004  0.9521634E+02  0.7546771E-02  0.1291043E+00
          2   -1    0    0  501    0  0.00000000000E+00  0.00000000000E+00  0.24569676820E+03  0.24569676820E+03  0.00000000000E+00 0. -1.
         -2   -1    0    0    0  501 -0.00000000000E+00 -0.00000000000E+00 -0.36963456661E+02  0.36963456661E+02  0.00000000000E+00 0.  1.
         23    2    1    2    0    0 -0.17583599104E+02 -0.15982068178E+02  0.11689093003E+03  0.15036821882E+03  0.91556006075E+02 0.  0.
         23    2    1    2    0    0  0.17583599104E+02  0.15982068178E+02  0.91842381508E+02  0.13229200603E+03  0.92203808810E+02 0.  0.
          5    1    3    3  502    0  0.23369644540E+01  0.37207085668E+02  0.48052731716E+02  0.60999866001E+02  0.47000000000E+01 0. -1.
         -5    1    3    3    0  502 -0.19920563558E+02 -0.53189153846E+02  0.68838198311E+02  0.89368352821E+02  0.47000000000E+01 0.  1.
          5    1    4    4  503    0  0.31147429191E+02  0.39361673894E+02  0.91942274992E+02  0.10485692942E+03  0.47000000000E+01 0. -1.
         -5    1    4    4    0  503 -0.13563830088E+02 -0.23379605716E+02 -0.99893484241E-01  0.27435076614E+02  0.47000000000E+01 0.  1.
<mgrwt>
<rscale>  0 0.95059161E+02</rscale>
<asrwt>0</asrwt>
<pdfrwt beam="1">  1        2 0.37799502E-01 0.95216342E+02</pdfrwt>
<pdfrwt beam="2">  1       -2 0.56866858E-02 0.95216342E+02</pdfrwt>
<totfact> 0.19668515E+04</totfact>
</mgrwt>
</event>
<event>
 8    1  0.3177960E-004  0.9263928E+02  0.7546771E-02  0.1301400E+00
          1   -1    0    0  501    0  0.00000000000E+00  0.00000000000E+00  0.36946115993E+03  0.36946115993E+03  0.00000000000E+00 0. -1.
         -1   -1    0    0    0  501 -0.00000000000E+00 -0.00000000000E+00 -0.35136143248E+02  0.35136143248E+02  0.00000000000E+00 0.  1.
         23    2    1    2    0    0 -0.15319840898E+00 -0.17935584813E+02  0.29856552874E+03  0.31260743832E+03  0.90886340384E+02 0.  0.
         23    2    1    2    0    0  0.15319840898E+00  0.17935584813E+02  0.35759487946E+02  0.91989864863E+02  0.82835291917E+02 0.  0.
          5    1    4    4  502    0  0.58163575847E+01 -0.29980903566E+02  0.30177966455E+02  0.43191252049E+02  0.47000000000E+01 0. -1.
         -5    1    4    4    0  502 -0.56631591757E+01  0.47916488379E+02  0.55815214911E+01  0.48798612814E+02  0.47000000000E+01 0.  1.
          5    1    3    3  503    0  0.22060255040E+02 -0.44574496225E+02  0.23288030588E+03  0.23817822620E+03  0.47000000000E+01 0. -1.
         -5    1    3    3    0  503 -0.22213453449E+02  0.26638911412E+02  0.65685222853E+02  0.74429212119E+02  0.47000000000E+01 0.  1.
<mgrwt>
<rscale>  0 0.90601957E+02</rscale>
<asrwt>0</asrwt>
<pdfrwt beam="1">  1        1 0.56840176E-01 0.92639276E+02</pdfrwt>
<pdfrwt beam="2">  1       -1 0.54055608E-02 0.92639276E+02</pdfrwt>
<totfact> 0.96672199E+03</totfact>
</mgrwt>
</event>
<event>
 8    1  0.3177960E-004  0.9271172E+02  0.7546771E-02  0.1296971E+00
         -1   -1    0    0    0  501 -0.00000000000E+00  0.00000000000E+00  0.66765452194E+03  0.66765452194E+03  0.00000000000E+00 0.  1.
          1   -1    0    0  501    0  0.00000000000E+00 -0.00000000000E+00 -0.12998203062E+02  0.12998203062E+02  0.00000000000E+00 0. -1.
         23    2    1    2    0    0  0.86104829256E+01  0.12640069349E+02  0.37341178966E+03  0.38452108531E+03  0.90477558662E+02 0.  0.
         23    2    1    2    0    0 -0.86104829256E+01 -0.12640069349E+02  0.28124452922E+03  0.29613163969E+03  0.91441517060E+02 0.  0.
          5    1    4    4  502    0  0.29837066710E+02 -0.34961682024E+02  0.11378503902E+03  0.12280755214E+03  0.47000000000E+01 0. -1.
         -5    1    4    4    0  502 -0.38447549636E+02  0.22321612675E+02  0.16745949020E+03  0.17332408755E+03  0.47000000000E+01 0.  1.
          5    1    3    3  503    0 -0.24622498457E+02  0.42230370879E+00  0.29306224792E+02  0.38566703025E+02  0.47000000000E+01 0. -1.
         -5    1    3    3    0  503  0.33232981383E+02  0.12217765640E+02  0.34410556487E+03  0.34595438228E+03  0.47000000000E+01 0.  1.
<mgrwt>
<rscale>  0 0.92473146E+02</rscale>
<asrwt>0</asrwt>
<pdfrwt beam="1">  1        1 0.19997241E-02 0.92711719E+02</pdfrwt>
<pdfrwt beam="2">  1       -1 0.10271605E+00 0.92711719E+02</pdfrwt>
<totfact> 0.53052898E+03</totfact>
</mgrwt>
</event>
<event>
 8    1  0.3177960E-004  0.1433880E+03  0.7546771E-02  0.1209516E+00
          1   -1    0    0  501    0  0.00000000000E+00  0.00000000000E+00  0.51112694745E+02  0.51112694745E+02  0.00000000000E+00 0. -1.
         -1   -1    0    0    0  501 -0.00000000000E+00 -0.00000000000E+00 -0.42078303445E+03  0.42078303445E+03  0.00000000000E+00 0.  1.
         23    2    1    2    0    0  0.88432016550E+02  0.58499950540E+02 -0.24024355213E+03  0.27873414270E+03  0.93452085059E+02 0.  0.
         23    2    1    2    0    0 -0.88432016550E+02 -0.58499950540E+02 -0.12942678758E+03  0.19316158650E+03  0.96527920268E+02 0.  0.
          5    1    4    4  502    0 -0.59912664642E+02 -0.26163760271E+02 -0.10254507996E+02  0.66342404767E+02  0.47000000000E+01 0. -1.
         -5    1    3    3    0  503  0.98526467309E+02  0.20011471349E+02 -0.18317268508E+03  0.20900298157E+03  0.47000000000E+01 0.  1.
          5    1    3    3  503    0 -0.10094450758E+02  0.38488479191E+02 -0.57070867051E+02  0.69731161129E+02  0.47000000000E+01 0. -1.
         -5    1    4    4    0  502 -0.28519351909E+02 -0.32336190270E+02 -0.11917227958E+03  0.12681918173E+03  0.47000000000E+01 0.  1.
<mgrwt>
<rscale>  0 0.14287209E+03</rscale>
<asrwt>0</asrwt>
<pdfrwt beam="1">  1        1 0.78634914E-02 0.14338795E+03</pdfrwt>
<pdfrwt beam="2">  1       -1 0.64735852E-01 0.14338795E+03</pdfrwt>
<totfact> 0.21693320E+03</totfact>
</mgrwt>
</event>
<event>
 8    1  0.3177960E-004  0.8991550E+02  0.7546771E-02  0.1306185E+00
         -2   -1    0    0    0  501 -0.00000000000E+00  0.00000000000E+00  0.86608230338E+02  0.86608230338E+02  0.00000000000E+00 0.  1.
          2   -1    0    0  501    0  0.00000000000E+00 -0.00000000000E+00 -0.12338215539E+03  0.12338215539E+03  0.00000000000E+00 0. -1.
         23    2    1    2    0    0  0.14298052397E+02  0.80828710698E+01  0.37266419418E+02  0.97332336316E+02  0.88402661551E+02 0.  0.
         23    2    1    2    0    0 -0.14298052397E+02 -0.80828710698E+01 -0.74040344471E+02  0.11265804941E+03  0.83307240870E+02 0.  0.
          5    1    4    4  502    0 -0.43418472045E+02  0.29870531283E+00 -0.68884973698E+02  0.81562752166E+02  0.47000000000E+01 0. -1.
         -5    1    4    4    0  502  0.29120419648E+02 -0.83815763826E+01 -0.51553707729E+01  0.31095297248E+02  0.47000000000E+01 0.  1.
          5    1    3    3  503    0 -0.35444229685E+02  0.18138771201E+01  0.20015869324E+01  0.35856379047E+02  0.47000000000E+01 0. -1.
         -5    1    3    3    0  503  0.49742282081E+02  0.62689939496E+01  0.35264832485E+02  0.61475957268E+02  0.47000000000E+01 0.  1.
<mgrwt>
<rscale>  0 0.88637360E+02</rscale>
<asrwt>0</asrwt>
<pdfrwt beam="1">  1        2 0.18981870E-01 0.89915503E+02</pdfrwt>
<pdfrwt beam="2">  1       -2 0.13324343E-01 0.89915503E+02</pdfrwt>
<totfact> 0.11106212E+04</totfact>
</mgrwt>
</event>
<event>
 8    1  0.3177960E-004  0.9488916E+02  0.7546771E-02  0.1291832E+00
          2   -1    0    0  501    0  0.00000000000E+00  0.00000000000E+00  0.39627734668E+03  0.39627734668E+03  0.00000000000E+00 0. -1.
         -2   -1    0    0    0  501 -0.00000000000E+00 -0.00000000000E+00 -0.29739698291E+02  0.29739698291E+02  0.00000000000E+00 0.  1.
         23    2    1    2    0    0  0.26847798235E+02 -0.16936502338E+02  0.78009883097E+02  0.12228653155E+03  0.88661178402E+02 0.  0.
         23    2    1    2    0    0 -0.26847798235E+02  0.16936502338E+02  0.28852776529E+03  0.30373051342E+03  0.89422055773E+02 0.  0.
          5    1    4    4  502    0 -0.36143877326E+02  0.40701189590E+02  0.25773887497E+03  0.26346609720E+03  0.47000000000E+01 0. -1.
         -5    1    4    4    0  502  0.92960790908E+01 -0.23764687252E+02  0.30788890320E+02  0.40264416223E+02  0.47000000000E+01 0.  1.
          5    1    3    3  503    0  0.14011145807E+02  0.24313268937E+02  0.73236568769E+02  0.78569283173E+02  0.47000000000E+01 0. -1.
         -5    1    3    3    0  503  0.12836652428E+02 -0.41249771275E+02  0.47733143282E+01  0.43717248375E+02  0.47000000000E+01 0.  1.
<mgrwt>
<rscale>  0 0.94709481E+02</rscale>
<asrwt>0</asrwt>
<pdfrwt beam="1">  1        2 0.60965742E-01 0.94889164E+02</pdfrwt>
<pdfrwt beam="2">  1       -2 0.45753385E-02 0.94889164E+02</pdfrwt>
<totfact> 0.16462566E+04</totfact>
</mgrwt>
</event>
<event>
 8    1  0.3177960E-004  0.1212656E+03  0.7546771E-02  0.1243890E+00
         -2   -1    0    0    0  501 -0.00000000000E+00  0.00000000000E+00  0.44906747547E+03  0.44906747547E+03  0.00000000000E+00 0.  1.
          2   -1    0    0  501    0  0.00000000000E+00 -0.00000000000E+00 -0.31752805580E+02  0.31752805580E+02  0.00000000000E+00 0. -1.
         23    2    1    2    0    0 -0.32097824763E+02  0.61480260518E+02  0.24150760689E+03  0.26724718317E+03  0.91022194758E+02 0.  0.
         23    2    1    2    0    0  0.32097824763E+02 -0.61480260518E+02  0.17580706300E+03  0.21357309788E+03  0.99474880996E+02 0.  0.
          5    1    3    3  502    0  0.24101033388E+02  0.30218014363E+01  0.21689059506E+02  0.32901312991E+02  0.47000000000E+01 0. -1.
         -5    1    4    4    0  503  0.36716017647E+02  0.16793981960E+02  0.79546144948E+02  0.89329630907E+02  0.47000000000E+01 0.  1.
          5    1    4    4  503    0 -0.46181928835E+01 -0.78274242478E+02  0.96260918048E+02  0.12424346697E+03  0.47000000000E+01 0. -1.
         -5    1    3    3    0  502 -0.56198858151E+02  0.58458459082E+02  0.21981854738E+03  0.23434587018E+03  0.47000000000E+01 0.  1.
<mgrwt>
<rscale>  0 0.11952037E+03</rscale>
<asrwt>0</asrwt>
<pdfrwt beam="1">  1        2 0.48850473E-02 0.12126560E+03</pdfrwt>
<pdfrwt beam="2">  1       -2 0.69087299E-01 0.12126560E+03</pdfrwt>
<totfact> 0.30151439E+03</totfact>
</mgrwt>
</event>
<event>
 8    1  0.3177960E-004  0.1405402E+03  0.7546771E-02  0.1212869E+00
          1   -1    0    0  501    0  0.00000000000E+00  0.00000000000E+00  0.14810673780E+03  0.14810673780E+03  0.00000000000E+00 0. -1.
         -1   -1    0    0    0  501 -0.00000000000E+00 -0.00000000000E+00 -0.17305636597E+03  0.17305636597E+03  0.00000000000E+00 0.  1.
         23    2    1    2    0    0 -0.22264061844E+02 -0.10483450692E+03 -0.90077136688E+02  0.16626587017E+03  0.89691062748E+02 0.  0.
         23    2    1    2    0    0  0.22264061844E+02  0.10483450692E+03  0.65127508517E+02  0.15489723360E+03  0.90915335992E+02 0.  0.
          5    1    3    3  502    0 -0.55500038638E+02 -0.60758498035E+02 -0.40140830513E+02  0.91680017706E+02  0.47000000000E+01 0. -1.
         -5    1    3    3    0  502  0.33235976794E+02 -0.44076008889E+02 -0.49936306175E+02  0.74585852462E+02  0.47000000000E+01 0.  1.
          5    1    4    4  503    0  0.87080015224E+01  0.59224255528E+02  0.84202498755E+02  0.10341901435E+03  0.47000000000E+01 0. -1.
         -5    1    4    4    0  503  0.13556060322E+02  0.45610251395E+02 -0.19074990238E+02  0.51478219243E+02  0.47000000000E+01 0.  1.
<mgrwt>
<rscale>  0 0.14034261E+03</rscale>
<asrwt>0</asrwt>
<pdfrwt beam="1">  1        1 0.22785652E-01 0.14054025E+03</pdfrwt>
<pdfrwt beam="2">  1       -1 0.26624056E-01 0.14054025E+03</pdfrwt>
<totfact> 0.26208151E+03</totfact>
</mgrwt>
</event>
<event>
 8    1  0.3177960E-004  0.9737581E+02  0.7546771E-02  0.1286825E+00
          1   -1    0    0  501    0  0.00000000000E+00  0.00000000000E+00  0.60330507429E+03  0.60330507429E+03  0.00000000000E+00 0. -1.
         -1   -1    0    0    0  501 -0.00000000000E+00 -0.00000000000E+00 -0.61034458720E+02  0.61034458720E+02  0.00000000000E+00 0.  1.
         23    2    1    2    0    0  0.62725041350E+01 -0.18936866304E+02 -0.15337088292E+02  0.98576240010E+02  0.95310542983E+02 0.  0.
         23    2    1    2    0    0 -0.62725041350E+01  0.18936866304E+02  0.55760770386E+03  0.56576329299E+03  0.93615186189E+02 0.  0.
          5    1    3    3  502    0  0.28250710233E+01  0.37049644899E+02  0.68458566905E+01  0.38073783202E+02  0.47000000000E+01 0. -1.
         -5    1    3    3    0  502  0.34474331117E+01 -0.55986511203E+02 -0.22182944983E+02  0.60502456809E+02  0.47000000000E+01 0.  1.
          5    1    4    4  503    0 -0.30417636291E+02 -0.27922153134E+02  0.29113925426E+03  0.29409018107E+03  0.47000000000E+01 0. -1.
         -5    1    4    4    0  503  0.24145132156E+02  0.46859019438E+02  0.26646844960E+03  0.27167311192E+03  0.47000000000E+01 0.  1.
<mgrwt>
<rscale>  0 0.96958444E+02</rscale>
<asrwt>0</asrwt>
<pdfrwt beam="1">  1        1 0.92816161E-01 0.97375812E+02</pdfrwt>
<pdfrwt beam="2">  1       -1 0.93899171E-02 0.97375812E+02</pdfrwt>
<totfact> 0.22785208E+03</totfact>
</mgrwt>
</event>
<event>
 8    1  0.3177960E-004  0.1184729E+03  0.7546771E-02  0.1246044E+00
         -1   -1    0    0    0  501 -0.00000000000E+00  0.00000000000E+00  0.17218352791E+03  0.17218352791E+03  0.00000000000E+00 0.  1.
          1   -1    0    0  501    0  0.00000000000E+00 -0.00000000000E+00 -0.16976648236E+03  0.16976648236E+03  0.00000000000E+00 0. -1.
         23    2    1    2    0    0  0.70295411779E+02  0.23723809988E+02 -0.12252688183E+03  0.16976754290E+03  0.91125834826E+02 0.  0.
         23    2    1    2    0    0 -0.70295411779E+02 -0.23723809988E+02  0.12494392738E+03  0.17218246737E+03  0.92366406238E+02 0.  0.
          5    1    3    3  502    0  0.69394424724E+02 -0.20090069098E+02 -0.86819635607E+02  0.11304395688E+03  0.47000000000E+01 0. -1.
         -5    1    4    4    0  503 -0.53853656718E+02  0.25329446761E+02  0.95062068113E+02  0.11225276838E+03  0.47000000000E+01 0.  1.
          5    1    4    4  503    0 -0.16441755061E+02 -0.49053256749E+02  0.29881859269E+02  0.59929698986E+02  0.47000000000E+01 0. -1.
         -5    1    3    3    0  502  0.90098705495E+00  0.43813879086E+02 -0.35707246225E+02  0.56723586022E+02  0.47000000000E+01 0.  1.
<mgrwt>
<rscale>  0 0.11823096E+03</rscale>
<asrwt>0</asrwt>
<pdfrwt beam="1">  1        1 0.26117920E-01 0.11847285E+03</pdfrwt>
<pdfrwt beam="2">  1       -1 0.26489774E-01 0.11847285E+03</pdfrwt>
<totfact> 0.22101428E+03</totfact>
</mgrwt>
</event>
<event>
 8    1  0.3177960E-004  0.2557904E+03  0.7546771E-02  0.1109953E+00
         -2   -1    0    0    0  501 -0.00000000000E+00  0.00000000000E+00  0.62492648814E+02  0.62492648814E+02  0.00000000000E+00 0.  1.
          2   -1    0    0  501    0  0.00000000000E+00 -0.00000000000E+00 -0.18962164013E+04  0.18962164013E+04  0.00000000000E+00 0. -1.
         23    2    1    2    0    0 -0.20027476219E+03 -0.12256575009E+03 -0.26048941656E+03  0.36508006569E+03  0.10147105379E+03 0.  0.
         23    2    1    2    0    0  0.20027476219E+03  0.12256575009E+03 -0.15732343359E+04  0.15936289844E+04  0.97235388646E+02 0.  0.
          5    1    3    3  502    0 -0.16815422623E+03 -0.11490648962E+03 -0.26177177267E+03  0.33170151662E+03  0.47000000000E+01 0. -1.
         -5    1    3    3    0  502 -0.32120535956E+02 -0.76592604675E+01  0.12823561114E+01  0.33378549073E+02  0.47000000000E+01 0.  1.
          5    1    4    4  503    0  0.12815443001E+03  0.43240362196E+02 -0.11048969796E+04  0.11131543974E+04  0.47000000000E+01 0. -1.
         -5    1    4    4    0  503  0.72120332179E+02  0.79325387890E+02 -0.46833735633E+03  0.48047458706E+03  0.47000000000E+01 0.  1.
<mgrwt>
<rscale>  0 0.25537675E+03</rscale>
<asrwt>0</asrwt>
<pdfrwt beam="1">  1        2 0.29172558E+00 0.25579038E+03</pdfrwt>
<pdfrwt beam="2">  1       -2 0.96142544E-02 0.25579038E+03</pdfrwt>
<totfact> 0.59777938E+02</totfact>
</mgrwt>
</event>
<event>
 8    1  0.3177960E-004  0.1212036E+03  0.7546771E-02  0.1241451E+00
          2   -1    0    0  501    0  0.00000000000E+00  0.00000000000E+00  0.18985398568E+03  0.18985398568E+03  0.00000000000E+00 0. -1.
         -2   -1    0    0    0  501 -0.00000000000E+00 -0.00000000000E+00 -0.13037221703E+03  0.13037221703E+03  0.00000000000E+00 0.  1.
         23    2    1    2    0    0  0.32024136296E+02  0.73587841823E+02  0.13237028254E+03  0.17947756185E+03  0.90827241158E+02 0.  0.
         23    2    1    2    0    0 -0.32024136296E+02 -0.73587841823E+02 -0.72888513890E+02  0.14074864087E+03  0.89759281854E+02 0.  0.
          5    1    3    3  502    0 -0.66311516151E+01  0.69682345243E+02  0.11896504996E+03  0.13811000877E+03  0.47000000000E+01 0. -1.
         -5    1    4    4    0  503 -0.72119228802E+01 -0.69745879131E+02 -0.86784298950E+02  0.11166962000E+03  0.47000000000E+01 0.  1.
          5    1    4    4  503    0 -0.24812213416E+02 -0.38419626919E+01  0.13895785060E+02  0.29079020863E+02  0.47000000000E+01 0. -1.
         -5    1    3    3    0  502  0.38655287911E+02  0.39054965795E+01  0.13405232584E+02  0.41367553078E+02  0.47000000000E+01 0.  1.
<mgrwt>
<rscale>  0 0.12100351E+03</rscale>
<asrwt>0</asrwt>
<pdfrwt beam="1">  1        2 0.29208306E-01 0.12120356E+03</pdfrwt>
<pdfrwt beam="2">  1       -2 0.20057264E-01 0.12120356E+03</pdfrwt>
<totfact> 0.36124031E+03</totfact>
</mgrwt>
</event>
<event>
 8    1  0.3177960E-004  0.1089424E+03  0.7546771E-02  0.1264033E+00
         -2   -1    0    0    0  501 -0.00000000000E+00  0.00000000000E+00  0.18508423512E+03  0.18508423512E+03  0.00000000000E+00 0.  1.
          2   -1    0    0  501    0  0.00000000000E+00 -0.00000000000E+00 -0.12183405108E+03  0.12183405108E+03  0.00000000000E+00 0. -1.
         23    2    1    2    0    0  0.41604098971E+02  0.39517815513E+02  0.13866127265E+03  0.17442191799E+03  0.88901620614E+02 0.  0.
         23    2    1    2    0    0 -0.41604098971E+02 -0.39517815513E+02 -0.75411088614E+02  0.13249636822E+03  0.92606136463E+02 0.  0.
          5    1    4    4  502    0 -0.58929574432E+02  0.47433577234E-02 -0.20654745546E+02  0.62621108891E+02  0.47000000000E+01 0. -1.
         -5    1    4    4    0  502  0.17325475460E+02 -0.39522558871E+02 -0.54756343067E+02  0.69875259325E+02  0.47000000000E+01 0.  1.
          5    1    3    3  503    0 -0.19090194782E+02  0.39012726746E+02  0.45028130248E+02  0.62737954212E+02  0.47000000000E+01 0. -1.
         -5    1    3    3    0  503  0.60694293754E+02  0.50508876704E+00  0.93633142399E+02  0.11168396377E+03  0.47000000000E+01 0.  1.
<mgrwt>
<rscale>  0 0.10815111E+03</rscale>
<asrwt>0</asrwt>
<pdfrwt beam="1">  1        2 0.18743700E-01 0.10894244E+03</pdfrwt>
<pdfrwt beam="2">  1       -2 0.28474498E-01 0.10894244E+03</pdfrwt>
<totfact> 0.31988988E+03</totfact>
</mgrwt>
</event>
<event>
 8    1  0.3177960E-004  0.9409460E+02  0.7546771E-02  0.1293649E+00
          3   -1    0    0  501    0  0.00000000000E+00  0.00000000000E+00  0.24740572764E+02  0.24740572764E+02  0.00000000000E+00 0. -1.
         -3   -1    0    0    0  501 -0.00000000000E+00 -0.00000000000E+00 -0.37265028004E+03  0.37265028004E+03  0.00000000000E+00 0.  1.
         23    2    1    2    0    0 -0.15105108894E+02  0.35292798871E+01 -0.21775477264E+03  0.23721495502E+03  0.92807185850E+02 0.  0.
         23    2    1    2    0    0  0.15105108894E+02 -0.35292798871E+01 -0.13015493464E+03  0.16017589779E+03  0.92061887286E+02 0.  0.
          5    1    3    3  502    0 -0.22000731729E+02  0.45283664608E+02 -0.13477613122E+03  0.14394908136E+03  0.47000000000E+01 0. -1.
         -5    1    3    3    0  502  0.68956228355E+01 -0.41754384721E+02 -0.82978641414E+02  0.93265873655E+02  0.47000000000E+01 0.  1.
          5    1    4    4  503    0 -0.96202695701E+01 -0.20123182658E+02  0.35902266099E+01  0.23075350355E+02  0.47000000000E+01 0. -1.
         -5    1    4    4    0  503  0.24725378464E+02  0.16593902771E+02 -0.13374516125E+03  0.13710054743E+03  0.47000000000E+01 0.  1.
<mgrwt>
<rscale>  0 0.93910305E+02</rscale>
<asrwt>0</asrwt>
<pdfrwt beam="1">  1        3 0.38062416E-02 0.94094601E+02</pdfrwt>
<pdfrwt beam="2">  1       -3 0.57330818E-01 0.94094601E+02</pdfrwt>
<totfact> 0.22685495E+03</totfact>
</mgrwt>
</event>
<event>
 8    1  0.3177960E-004  0.1190247E+03  0.7546771E-02  0.1244852E+00
          1   -1    0    0  501    0  0.00000000000E+00  0.00000000000E+00  0.18100692338E+02  0.18100692338E+02  0.00000000000E+00 0. -1.
         -1   -1    0    0    0  501 -0.00000000000E+00 -0.00000000000E+00 -0.78052019230E+03  0.78052019230E+03  0.00000000000E+00 0.  1.
         23    2    1    2    0    0  0.16516620347E+02 -0.73532214789E+02 -0.38000325600E+03  0.39810988673E+03  0.91701810131E+02 0.  0.
         23    2    1    2    0    0 -0.16516620347E+02  0.73532214789E+02 -0.38241624397E+03  0.40051099791E+03  0.92125406051E+02 0.  0.
          5    1    4    4  502    0 -0.40474786681E+02  0.44190028735E+02 -0.10927992602E+03  0.12472032404E+03  0.47000000000E+01 0. -1.
         -5    1    4    4    0  502  0.23958166334E+02  0.29342186054E+02 -0.27313631795E+03  0.27579067388E+03  0.47000000000E+01 0.  1.
          5    1    3    3  503    0 -0.28037219007E+02  0.39151813924E+01 -0.77034837618E+02  0.82206268020E+02  0.47000000000E+01 0. -1.
         -5    1    3    3    0  503  0.44553839354E+02 -0.77447396181E+02 -0.30296841838E+03  0.31590361871E+03  0.47000000000E+01 0.  1.
<mgrwt>
<rscale>  0 0.11894271E+03</rscale>
<asrwt>0</asrwt>
<pdfrwt beam="1">  1        1 0.27847222E-02 0.11902469E+03</pdfrwt>
<pdfrwt beam="2">  1       -1 0.12008001E+00 0.11902469E+03</pdfrwt>
<totfact> 0.23993481E+03</totfact>
</mgrwt>
</event>
<event>
 8    1  0.3177960E-004  0.9716342E+02  0.7546771E-02  0.1286532E+00
          1   -1    0    0  501    0  0.00000000000E+00  0.00000000000E+00  0.87777496545E+02  0.87777496545E+02  0.00000000000E+00 0. -1.
         -1   -1    0    0    0  501 -0.00000000000E+00 -0.00000000000E+00 -0.11372461606E+03  0.11372461606E+03  0.00000000000E+00 0.  1.
         23    2    1    2    0    0 -0.14368465539E+01 -0.26671466539E+02  0.11103157146E+02  0.97514360494E+02  0.93125392609E+02 0.  0.
         23    2    1    2    0    0  0.14368465539E+01  0.26671466539E+02 -0.37050276663E+02  0.10398775211E+03  0.93420008207E+02 0.  0.
          5    1    3    3  502    0 -0.25097890683E+02  0.76993845644E+00  0.42336653823E+02  0.49446730720E+02  0.47000000000E+01 0. -1.
         -5    1    3    3    0  502  0.23661044130E+02 -0.27441404996E+02 -0.31233496677E+02  0.48067629774E+02  0.47000000000E+01 0.  1.
          5    1    4    4  503    0 -0.44910173705E+02  0.73640435212E+01 -0.10269857476E+02  0.46890434118E+02  0.47000000000E+01 0. -1.
         -5    1    4    4    0  503  0.46347020259E+02  0.19307423018E+02 -0.26780419187E+02  0.57097317996E+02  0.47000000000E+01 0.  1.
<mgrwt>
<rscale>  0 0.97092532E+02</rscale>
<asrwt>0</asrwt>
<pdfrwt beam="1">  1        1 0.13504230E-01 0.97163417E+02</pdfrwt>
<pdfrwt beam="2">  1       -1 0.17496095E-01 0.97163417E+02</pdfrwt>
<totfact> 0.98044852E+03</totfact>
</mgrwt>
</event>
<event>
 8    1  0.3177960E-004  0.1362678E+03  0.7546771E-02  0.1219427E+00
         -2   -1    0    0    0  501 -0.00000000000E+00  0.00000000000E+00  0.66275261230E+02  0.66275261230E+02  0.00000000000E+00 0.  1.
          2   -1    0    0  501    0  0.00000000000E+00 -0.00000000000E+00 -0.41496475320E+03  0.41496475320E+03  0.00000000000E+00 0. -1.
         23    2    1    2    0    0  0.17096287425E+02 -0.96316516477E+02 -0.31315934403E+03  0.34041637021E+03  0.90804052571E+02 0.  0.
         23    2    1    2    0    0 -0.17096287425E+02  0.96316516477E+02 -0.35530147940E+02  0.14082364422E+03  0.94867027827E+02 0.  0.
          5    1    3    3  502    0 -0.29127915050E+02 -0.10385951474E+02 -0.43269917519E+02  0.53391752034E+02  0.47000000000E+01 0. -1.
         -5    1    4    4    0  503 -0.55156522291E+01  0.58318751828E+02  0.28509831330E+02  0.65317683033E+02  0.47000000000E+01 0.  1.
          5    1    4    4  503    0 -0.11580635196E+02  0.37997764649E+02 -0.64039979270E+02  0.75505961187E+02  0.47000000000E+01 0. -1.
         -5    1    3    3    0  502  0.46224202476E+02 -0.85930565003E+02 -0.26988942651E+03  0.28702461817E+03  0.47000000000E+01 0.  1.
<mgrwt>
<rscale>  0 0.13556316E+03</rscale>
<asrwt>0</asrwt>
<pdfrwt beam="1">  1        2 0.63840731E-01 0.13626778E+03</pdfrwt>
<pdfrwt beam="2">  1       -2 0.10196194E-01 0.13626778E+03</pdfrwt>
<totfact> 0.47497637E+03</totfact>
</mgrwt>
</event>
<event>
 8    1  0.3177960E-004  0.9648336E+02  0.7546771E-02  0.1288280E+00
         -2   -1    0    0    0  501 -0.00000000000E+00  0.00000000000E+00  0.26741882600E+03  0.26741882600E+03  0.00000000000E+00 0.  1.
          2   -1    0    0  501    0  0.00000000000E+00 -0.00000000000E+00 -0.38783873211E+02  0.38783873211E+02  0.00000000000E+00 0. -1.
         23    2    1    2    0    0  0.24929518636E+01  0.35437649684E+02  0.64089043761E+02  0.11582937884E+03  0.89705059209E+02 0.  0.
         23    2    1    2    0    0 -0.24929518636E+01 -0.35437649684E+02  0.16454590903E+03  0.19037332037E+03  0.88907834905E+02 0.  0.
          5    1    3    3  502    0  0.19632157799E+01  0.65660245706E+02  0.42293241026E+02  0.78268322576E+02  0.47000000000E+01 0. -1.
         -5    1    4    4    0  503  0.27871215163E+02  0.18419258579E+02  0.58344119904E+02  0.67395845930E+02  0.47000000000E+01 0.  1.
          5    1    4    4  503    0 -0.30364167027E+02 -0.53856908264E+02  0.10620178912E+03  0.12297747444E+03  0.47000000000E+01 0. -1.
         -5    1    3    3    0  502  0.52973608364E+00 -0.30222596022E+02  0.21795802735E+02  0.37561056262E+02  0.47000000000E+01 0.  1.
<mgrwt>
<rscale>  0 0.96297637E+02</rscale>
<asrwt>0</asrwt>
<pdfrwt beam="1">  1        2 0.59667499E-02 0.96483364E+02</pdfrwt>
<pdfrwt beam="2">  1       -2 0.41141357E-01 0.96483364E+02</pdfrwt>
<totfact> 0.64379388E+03</totfact>
</mgrwt>
</event>
<event>
 8    1  0.3177960E-004  0.9956202E+02  0.7546771E-02  0.1283162E+00
         -1   -1    0    0    0  501 -0.00000000000E+00  0.00000000000E+00  0.95025893328E+02  0.95025893328E+02  0.00000000000E+00 0.  1.
          1   -1    0    0  501    0  0.00000000000E+00 -0.00000000000E+00 -0.14914390756E+03  0.14914390756E+03  0.00000000000E+00 0. -1.
         23    2    1    2    0    0 -0.26346307435E+02  0.10593953190E+01  0.42265304147E+02  0.10816169455E+03  0.96007010155E+02 0.  0.
         23    2    1    2    0    0  0.26346307435E+02 -0.10593953190E+01 -0.96383318375E+02  0.13600810634E+03  0.92267061806E+02 0.  0.
          5    1    3    3  502    0 -0.32885727783E+02 -0.26876790569E+02 -0.13885595528E+02  0.44930309661E+02  0.47000000000E+01 0. -1.
         -5    1    3    3    0  502  0.65394203480E+01  0.27936185888E+02  0.56150899675E+02  0.63231384887E+02  0.47000000000E+01 0.  1.
          5    1    4    4  503    0 -0.68786040024E+01 -0.41911123335E+02 -0.37242258476E+02  0.56682742247E+02  0.47000000000E+01 0. -1.
         -5    1    4    4    0  503  0.33224911437E+02  0.40851728016E+02 -0.59141059899E+02  0.79325364089E+02  0.47000000000E+01 0.  1.
<mgrwt>
<rscale>  0 0.98649222E+02</rscale>
<asrwt>0</asrwt>
<pdfrwt beam="1">  1        1 0.22945217E-01 0.99562022E+02</pdfrwt>
<pdfrwt beam="2">  1       -1 0.14619368E-01 0.99562022E+02</pdfrwt>
<totfact> 0.66370892E+03</totfact>
</mgrwt>
</event>
<event>
 8    1  0.3177960E-004  0.9626994E+02  0.7546771E-02  0.1290214E+00
         -2   -1    0    0    0  501 -0.00000000000E+00  0.00000000000E+00  0.57794928832E+02  0.57794928832E+02  0.00000000000E+00 0.  1.
          2   -1    0    0  501    0  0.00000000000E+00 -0.00000000000E+00 -0.30303964102E+03  0.30303964102E+03  0.00000000000E+00 0. -1.
         23    2    1    2    0    0 -0.19753675580E+02 -0.30668261137E+01  0.46228013584E+01  0.93062885498E+02  0.90772888262E+02 0.  0.
         23    2    1    2    0    0  0.19753675580E+02  0.30668261137E+01 -0.24986751354E+03  0.26777168435E+03  0.94171585387E+02 0.  0.
          5    1    4    4  502    0  0.53362982969E+02  0.11727872595E+02 -0.10193584530E+03  0.11575041038E+03  0.47000000000E+01 0. -1.
         -5    1    4    4    0  502 -0.33609307389E+02 -0.86610464813E+01 -0.14793166825E+03  0.15202127397E+03  0.47000000000E+01 0.  1.
          5    1    3    3  503    0 -0.43669795729E+02  0.13706994151E+02 -0.24001598228E+02  0.51895081319E+02  0.47000000000E+01 0. -1.
         -5    1    3    3    0  503  0.23916120149E+02 -0.16773820264E+02  0.28624399586E+02  0.41167804179E+02  0.47000000000E+01 0.  1.
<mgrwt>
<rscale>  0 0.95428484E+02</rscale>
<asrwt>0</asrwt>
<pdfrwt beam="1">  1        2 0.46621483E-01 0.96269936E+02</pdfrwt>
<pdfrwt beam="2">  1       -2 0.88915275E-02 0.96269936E+02</pdfrwt>
<totfact> 0.80131144E+03</totfact>
</mgrwt>
</event>
<event>
 8    1  0.3177960E-004  0.1202728E+03  0.7546771E-02  0.1242986E+00
          2   -1    0    0  501    0  0.00000000000E+00  0.00000000000E+00  0.57719744953E+03  0.57719744953E+03  0.00000000000E+00 0. -1.
         -2   -1    0    0    0  501 -0.00000000000E+00 -0.00000000000E+00 -0.26780707706E+02  0.26780707706E+02  0.00000000000E+00 0.  1.
         23    2    1    2    0    0  0.71500997910E+02  0.16919099635E+02  0.19411448236E+03  0.22792384405E+03  0.94181727480E+02 0.  0.
         23    2    1    2    0    0 -0.71500997910E+02 -0.16919099635E+02  0.35630225947E+03  0.37605431319E+03  0.95220259030E+02 0.  0.
          5    1    4    4  502    0 -0.11439405353E+02 -0.42160405778E+02  0.22674109419E+03  0.23095881366E+03  0.47000000000E+01 0. -1.
         -5    1    4    4    0  502 -0.60061592557E+02  0.25241306143E+02  0.12956116528E+03  0.14509549953E+03  0.47000000000E+01 0.  1.
          5    1    3    3  503    0 -0.17215722971E+02 -0.15395659252E+02  0.26315034467E+02  0.35326738885E+02  0.47000000000E+01 0. -1.
         -5    1    3    3    0  503  0.88716720881E+02  0.32314758887E+02  0.16779944789E+03  0.19259710517E+03  0.47000000000E+01 0.  1.
<mgrwt>
<rscale>  0 0.12006714E+03</rscale>
<asrwt>0</asrwt>
<pdfrwt beam="1">  1        2 0.88799598E-01 0.12027280E+03</pdfrwt>
<pdfrwt beam="2">  1       -2 0.41201093E-02 0.12027280E+03</pdfrwt>
<totfact> 0.13059672E+04</totfact>
</mgrwt>
</event>
<event>
 8    1  0.3177960E-004  0.1016002E+03  0.7546771E-02  0.1278075E+00
          1   -1    0    0  501    0  0.00000000000E+00  0.00000000000E+00  0.93454705947E+02  0.93454705947E+02  0.00000000000E+00 0. -1.
         -1   -1    0    0    0  501 -0.00000000000E+00 -0.00000000000E+00 -0.35917585154E+03  0.35917585154E+03  0.00000000000E+00 0.  1.
         23    2    1    2    0    0  0.71623936658E+01 -0.46161562844E+02 -0.32163201581E+03  0.33666236402E+03  0.87819155030E+02 0.  0.
         23    2    1    2    0    0 -0.71623936658E+01  0.46161562844E+02  0.55910870209E+02  0.11596819347E+03  0.90224202527E+02 0.  0.
          5    1    3    3  502    0 -0.27722161870E+02  0.97711748252E+01 -0.62360622459E+02  0.69100878068E+02  0.47000000000E+01 0. -1.
         -5    1    3    3    0  502  0.34884555536E+02 -0.55932737669E+02 -0.25927139335E+03  0.26756148595E+03  0.47000000000E+01 0.  1.
          5    1    4    4  503    0  0.41023906852E+02  0.20777236887E+02  0.18833439695E+02  0.49914356219E+02  0.47000000000E+01 0. -1.
         -5    1    4    4    0  503 -0.48186300518E+02  0.25384325957E+02  0.37077430514E+02  0.66053837249E+02  0.47000000000E+01 0.  1.
<mgrwt>
<rscale>  0 0.10106354E+03</rscale>
<asrwt>0</asrwt>
<pdfrwt beam="1">  1        1 0.14377647E-01 0.10160018E+03</pdfrwt>
<pdfrwt beam="2">  1       -1 0.55257823E-01 0.10160018E+03</pdfrwt>
<totfact> 0.13045814E+03</totfact>
</mgrwt>
</event>
<event>
 8    1  0.3177960E-004  0.9819655E+02  0.7546771E-02  0.1284776E+00
          1   -1    0    0  501    0  0.00000000000E+00  0.00000000000E+00  0.60529240901E+03  0.60529240901E+03  0.00000000000E+00 0. -1.
         -1   -1    0    0    0  501 -0.00000000000E+00 -0.00000000000E+00 -0.16820801612E+02  0.16820801612E+02  0.00000000000E+00 0.  1.
         23    2    1    2    0    0 -0.22582462517E+02  0.19721926070E+02  0.37477993663E+03  0.38743072157E+03  0.93507438904E+02 0.  0.
         23    2    1    2    0    0  0.22582462517E+02 -0.19721926070E+02  0.21369167076E+03  0.23468248905E+03  0.92264936641E+02 0.  0.
          5    1    3    3  502    0 -0.32124683764E+02 -0.31863593185E+02  0.16850424261E+03  0.17453668284E+03  0.47000000000E+01 0. -1.
         -5    1    4    4    0  503  0.54602147684E+02 -0.21921718958E+02  0.96828859621E+02  0.11340138601E+03  0.47000000000E+01 0.  1.
          5    1    4    4  503    0 -0.32019685167E+02  0.21997928878E+01  0.11686281114E+03  0.12128110304E+03  0.47000000000E+01 0. -1.
         -5    1    3    3    0  502  0.95422212468E+01  0.51585519255E+02  0.20627569402E+03  0.21289403873E+03  0.47000000000E+01 0.  1.
<mgrwt>
<rscale>  0 0.97899602E+02</rscale>
<asrwt>0</asrwt>
<pdfrwt beam="1">  1        1 0.93121893E-01 0.98196553E+02</pdfrwt>
<pdfrwt beam="2">  1       -1 0.25878161E-02 0.98196553E+02</pdfrwt>
<totfact> 0.15051982E+04</totfact>
</mgrwt>
</event>
<event>
 8    1  0.3177960E-004  0.1104300E+03  0.7546771E-02  0.1265936E+00
          1   -1    0    0  501    0  0.00000000000E+00  0.00000000000E+00  0.37737545119E+03  0.37737545119E+03  0.00000000000E+00 0. -1.
         -1   -1    0    0    0  501 -0.00000000000E+00 -0.00000000000E+00 -0.35606780599E+02  0.35606780599E+02  0.00000000000E+00 0.  1.
         23    2    1    2    0    0  0.14887612383E+02 -0.33340726825E+02  0.88706123008E+02  0.14164592235E+03  0.10421874108E+03 0.  0.
         23    2    1    2    0    0 -0.14887612383E+02  0.33340726825E+02  0.25306254758E+03  0.27133630943E+03  0.90826729328E+02 0.  0.
          5    1    3    3  502    0 -0.39932287768E+02 -0.26541330464E+02  0.66053788060E+02  0.81757096000E+02  0.47000000000E+01 0. -1.
         -5    1    4    4    0  503  0.16787897095E+02 -0.21177381825E+02  0.13132132432E+03  0.13415548894E+03  0.47000000000E+01 0.  1.
          5    1    4    4  503    0 -0.31675509478E+02  0.54518108651E+02  0.12174122326E+03  0.13718082050E+03  0.47000000000E+01 0. -1.
         -5    1    3    3    0  502  0.54819900151E+02 -0.67993963613E+01  0.22652334947E+02  0.59888826354E+02  0.47000000000E+01 0.  1.
<mgrwt>
<rscale>  0 0.10715232E+03</rscale>
<asrwt>0</asrwt>
<pdfrwt beam="1">  1        1 0.58057759E-01 0.11043003E+03</pdfrwt>
<pdfrwt beam="2">  1       -1 0.54779665E-02 0.11043003E+03</pdfrwt>
<totfact> 0.93652315E+03</totfact>
</mgrwt>
</event>
<event>
 8    1  0.3177960E-004  0.1229797E+03  0.7546771E-02  0.1239553E+00
          1   -1    0    0  501    0  0.00000000000E+00  0.00000000000E+00  0.13241482117E+03  0.13241482117E+03  0.00000000000E+00 0. -1.
         -1   -1    0    0    0  501 -0.00000000000E+00 -0.00000000000E+00 -0.16536167998E+03  0.16536167998E+03  0.00000000000E+00 0.  1.
         23    2    1    2    0    0 -0.61847678983E+02  0.47522124756E+02 -0.10176723411E+03  0.15962638538E+03  0.95081676644E+02 0.  0.
         23    2    1    2    0    0  0.61847678983E+02 -0.47522124756E+02  0.68820375294E+02  0.13815011577E+03  0.90916020016E+02 0.  0.
          5    1    3    3  502    0  0.12691712691E+02  0.37017542595E+02 -0.64279725814E+02  0.75401267772E+02  0.47000000000E+01 0. -1.
         -5    1    4    4    0  503  0.43193677653E+02 -0.71863027620E+02  0.31673068174E+02  0.89751110162E+02  0.47000000000E+01 0.  1.
          5    1    4    4  503    0  0.18654001330E+02  0.24340902863E+02  0.37147307120E+02  0.48399005611E+02  0.47000000000E+01 0. -1.
         -5    1    3    3    0  502 -0.74539391674E+02  0.10504582161E+02 -0.37487508297E+02  0.84225117607E+02  0.47000000000E+01 0.  1.
<mgrwt>
<rscale>  0 0.12217396E+03</rscale>
<asrwt>0</asrwt>
<pdfrwt beam="1">  1        1 0.20371511E-01 0.12297973E+03</pdfrwt>
<pdfrwt beam="2">  1       -1 0.25440259E-01 0.12297973E+03</pdfrwt>
<totfact> 0.32333130E+03</totfact>
</mgrwt>
</event>
<event>
 8    1  0.3177960E-004  0.1057907E+03  0.7546771E-02  0.1275268E+00
         -1   -1    0    0    0  501 -0.00000000000E+00  0.00000000000E+00  0.14660455245E+03  0.14660455245E+03  0.00000000000E+00 0.  1.
          1   -1    0    0  501    0  0.00000000000E+00 -0.00000000000E+00 -0.15816425993E+03  0.15816425993E+03  0.00000000000E+00 0. -1.
         23    2    1    2    0    0  0.34741992616E+02  0.37269595780E+02  0.10973193899E+03  0.14382367153E+03  0.77769667847E+02 0.  0.
         23    2    1    2    0    0 -0.34741992616E+02 -0.37269595780E+02 -0.12129164648E+03  0.16094514085E+03  0.92712706998E+02 0.  0.
          5    1    3    3  502    0  0.22870145510E+02 -0.12314117838E+02  0.44735569992E+01  0.26772817670E+02  0.47000000000E+01 0. -1.
         -5    1    4    4    0  503 -0.54463784286E+02 -0.41702035413E+02 -0.12215310753E+03  0.14017430305E+03  0.47000000000E+01 0.  1.
          5    1    4    4  503    0  0.19721791671E+02  0.44324396332E+01  0.86146105683E+00  0.20770837801E+02  0.47000000000E+01 0. -1.
         -5    1    3    3    0  502  0.11871847105E+02  0.49583713618E+02  0.10525838199E+03  0.11705085386E+03  0.47000000000E+01 0.  1.
<mgrwt>
<rscale>  0 0.10242971E+03</rscale>
<asrwt>0</asrwt>
<pdfrwt beam="1">  1        1 0.24332963E-01 0.10579071E+03</pdfrwt>
<pdfrwt beam="2">  1       -1 0.22554547E-01 0.10579071E+03</pdfrwt>
<totfact> 0.31206783E+03</totfact>
</mgrwt>
</event>
<event>
 8    1  0.3177960E-004  0.9625669E+02  0.7546771E-02  0.1288565E+00
         -1   -1    0    0    0  501 -0.00000000000E+00  0.00000000000E+00  0.69465992511E+03  0.69465992511E+03  0.00000000000E+00 0.  1.
          1   -1    0    0  501    0  0.00000000000E+00 -0.00000000000E+00 -0.23314047185E+02  0.23314047185E+02  0.00000000000E+00 0. -1.
         23    2    1    2    0    0 -0.29830726518E+02 -0.93453648008E+01  0.57072209877E+03  0.57872421584E+03  0.90668604737E+02 0.  0.
         23    2    1    2    0    0  0.29830726518E+02  0.93453648008E+01  0.10062377915E+03  0.13924975645E+03  0.91039231399E+02 0.  0.
          5    1    4    4  502    0  0.32734070005E+02  0.46716544756E+02  0.49430555937E+02  0.75626878510E+02  0.47000000000E+01 0. -1.
         -5    1    3    3    0  503 -0.33866173008E+02  0.30461358165E+02  0.42745542448E+03  0.42990120020E+03  0.47000000000E+01 0.  1.
          5    1    3    3  503    0  0.40354464896E+01 -0.39806722966E+02  0.14326667429E+03  0.14882301563E+03  0.47000000000E+01 0. -1.
         -5    1    4    4    0  502 -0.29033434865E+01 -0.37371179955E+02  0.51193223215E+02  0.63622877943E+02  0.47000000000E+01 0.  1.
<mgrwt>
<rscale>  0 0.96168951E+02</rscale>
<asrwt>0</asrwt>
<pdfrwt beam="1">  1        1 0.35867770E-02 0.96256687E+02</pdfrwt>
<pdfrwt beam="2">  1       -1 0.10687074E+00 0.96256687E+02</pdfrwt>
<totfact> 0.21840083E+03</totfact>
</mgrwt>
</event>
<event>
 8    1  0.3177960E-004  0.1818964E+03  0.7546771E-02  0.1171936E+00
         -1   -1    0    0    0  501 -0.00000000000E+00  0.00000000000E+00  0.42381454047E+02  0.42381454047E+02  0.00000000000E+00 0.  1.
          1   -1    0    0  501    0  0.00000000000E+00 -0.00000000000E+00 -0.81191151548E+03  0.81191151548E+03  0.00000000000E+00 0. -1.
         23    2    1    2    0    0  0.51710527665E+02  0.11948805354E+03 -0.23782362365E+03  0.29941004547E+03  0.12702332758E+03 0.  0.
         23    2    1    2    0    0 -0.51710527665E+02 -0.11948805354E+03 -0.53170643778E+03  0.55488292405E+03  0.90730093257E+02 0.  0.
          5    1    4    4  502    0 -0.96388925197E+01 -0.32494737694E+02 -0.35400043133E+02  0.49234838078E+02  0.47000000000E+01 0. -1.
         -5    1    4    4    0  502 -0.42071635145E+02 -0.86993315850E+02 -0.49630639464E+03  0.50564808598E+03  0.47000000000E+01 0.  1.
          5    1    3    3  503    0 -0.36935364662E+02  0.48988238658E+02 -0.12577480873E+03  0.14001950293E+03  0.47000000000E+01 0.  1.
         -5    1    3    3    0  503  0.88645892327E+02  0.70499814886E+02 -0.11204881492E+03  0.15939054254E+03  0.47000000000E+01 0.  1.
<mgrwt>
<rscale>  0 0.17579528E+03</rscale>
<asrwt>0</asrwt>
<pdfrwt beam="1">  1        1 0.12490945E+00 0.18189640E+03</pdfrwt>
<pdfrwt beam="2">  1       -1 0.65202244E-02 0.18189640E+03</pdfrwt>
<totfact> 0.26267347E+03</totfact>
</mgrwt>
</event>
<event>
 8    1  0.3177960E-004  0.1007008E+03  0.7546771E-02  0.1279277E+00
          2   -1    0    0  501    0  0.00000000000E+00  0.00000000000E+00  0.13645508205E+03  0.13645508205E+03  0.00000000000E+00 0. -1.
         -2   -1    0    0    0  501 -0.00000000000E+00 -0.00000000000E+00 -0.77303089487E+02  0.77303089487E+02  0.00000000000E+00 0.  1.
         23    2    1    2    0    0 -0.10574106776E+02  0.42765857548E+02  0.65715386654E+01  0.10091501986E+03  0.90553441721E+02 0.  0.
         23    2    1    2    0    0  0.10574106776E+02 -0.42765857548E+02  0.52580453898E+02  0.11284315168E+03  0.89599902020E+02 0.  0.
          5    1    4    4  502    0  0.22595484549E+02 -0.66418114283E+02  0.48904703136E+02  0.85648594943E+02  0.47000000000E+01 0. -1.
         -5    1    3    3    0  503 -0.45451957150E+02  0.33033119996E+01 -0.69500491619E+01  0.46337732597E+02  0.47000000000E+01 0.  1.
          5    1    3    3  503    0  0.34877850374E+02  0.39462545548E+02  0.13521587827E+02  0.54577287265E+02  0.47000000000E+01 0. -1.
         -5    1    4    4    0  502 -0.12021377773E+02  0.23652256735E+02  0.36757507627E+01  0.27194556733E+02  0.47000000000E+01 0.  1.
<mgrwt>
<rscale>  0 0.10048599E+03</rscale>
<asrwt>0</asrwt>
<pdfrwt beam="1">  1        2 0.20993090E-01 0.10070082E+03</pdfrwt>
<pdfrwt beam="2">  1       -2 0.11892783E-01 0.10070082E+03</pdfrwt>
<totfact> 0.12015949E+04</totfact>
</mgrwt>
</event>
<event>
 8    1  0.3177960E-004  0.1187482E+03  0.7546771E-02  0.1251418E+00
         -2   -1    0    0    0  501 -0.00000000000E+00  0.00000000000E+00  0.51688192446E+02  0.51688192446E+02  0.00000000000E+00 0.  1.
          2   -1    0    0  501    0  0.00000000000E+00 -0.00000000000E+00 -0.34497281321E+03  0.34497281321E+03  0.00000000000E+00 0. -1.
         23    2    1    2    0    0  0.61952018652E+02 -0.25466066664E+02 -0.31852750774E+02  0.10952384228E+03  0.80587226837E+02 0.  0.
         23    2    1    2    0    0 -0.61952018652E+02  0.25466066664E+02 -0.26143186999E+03  0.28713716338E+03  0.98053836127E+02 0.  0.
          5    1    4    4  502    0 -0.25072915105E+02 -0.36648134847E+02 -0.12419711437E+03  0.13198011244E+03  0.47000000000E+01 0. -1.
         -5    1    3    3    0  503  0.30632037142E+02 -0.37915721087E+02 -0.50812666243E+02  0.70568694588E+02  0.47000000000E+01 0.  1.
          5    1    3    3  503    0  0.31319981510E+02  0.12449654423E+02  0.18959915470E+02  0.38955147691E+02  0.47000000000E+01 0. -1.
         -5    1    4    4    0  502 -0.36879103547E+02  0.62114201511E+02 -0.13723475562E+03  0.15515705094E+03  0.47000000000E+01 0.  1.
<mgrwt>
<rscale>  0 0.11509324E+03</rscale>
<asrwt>0</asrwt>
<pdfrwt beam="1">  1        2 0.53072741E-01 0.11874817E+03</pdfrwt>
<pdfrwt beam="2">  1       -2 0.79520296E-02 0.11874817E+03</pdfrwt>
<totfact> 0.84370079E+03</totfact>
</mgrwt>
</event>
<event>
 8    1  0.3177960E-004  0.1139244E+03  0.7546771E-02  0.1254562E+00
         -1   -1    0    0    0  501 -0.00000000000E+00  0.00000000000E+00  0.31242988400E+02  0.31242988400E+02  0.00000000000E+00 0.  1.
          1   -1    0    0  501    0  0.00000000000E+00 -0.00000000000E+00 -0.60334584187E+03  0.60334584187E+03  0.00000000000E+00 0. -1.
         23    2    1    2    0    0 -0.55269364242E+02 -0.37552541027E+02 -0.46516413300E+03  0.47833690071E+03  0.89239139355E+02 0.  0.
         23    2    1    2    0    0  0.55269364242E+02  0.37552541027E+02 -0.10693872047E+03  0.15625192956E+03  0.92270686533E+02 0.  0.
          5    1    4    4  502    0 -0.25406495218E+02  0.10015783130E+02 -0.18446298178E+02  0.33289064683E+02  0.47000000000E+01 0. -1.
         -5    1    3    3    0  503  0.20126099425E+02 -0.28423364185E+02 -0.16219542805E+03  0.16595901419E+03  0.47000000000E+01 0.  1.
          5    1    3    3  503    0 -0.75395463666E+02 -0.91291768416E+01 -0.30296870495E+03  0.31237788653E+03  0.47000000000E+01 0. -1.
         -5    1    4    4    0  502  0.80675859460E+02  0.27536757897E+02 -0.88492422294E+02  0.12296286488E+03  0.47000000000E+01 0.  1.
<mgrwt>
<rscale>  0 0.11330917E+03</rscale>
<asrwt>0</asrwt>
<pdfrwt beam="1">  1        1 0.92822429E-01 0.11392443E+03</pdfrwt>
<pdfrwt beam="2">  1       -1 0.48066140E-02 0.11392443E+03</pdfrwt>
<totfact> 0.62143501E+03</totfact>
</mgrwt>
</event>
<event>
 8    1  0.3177960E-004  0.9466935E+02  0.7546771E-02  0.1298639E+00
          1   -1    0    0  501    0  0.00000000000E+00  0.00000000000E+00  0.48062787266E+02  0.48062787266E+02  0.00000000000E+00 0. -1.
         -1   -1    0    0    0  501 -0.00000000000E+00 -0.00000000000E+00 -0.16757713870E+03  0.16757713870E+03  0.00000000000E+00 0.  1.
         23    2    1    2    0    0 -0.10858803559E+02 -0.46765317812E+01 -0.43380001226E+02  0.94154431643E+02  0.82725140843E+02 0.  0.
         23    2    1    2    0    0  0.10858803559E+02  0.46765317812E+01 -0.76134350211E+02  0.12148549432E+03  0.93928177269E+02 0.  0.
          5    1    3    3  502    0  0.43845485155E+00  0.34305542956E+02 -0.90641293978E-01  0.34628900300E+02  0.47000000000E+01 0. -1.
         -5    1    4    4    0  503 -0.16130061425E+02 -0.18811024584E+02 -0.81217782934E+02  0.85043822775E+02  0.47000000000E+01 0.  1.
          5    1    4    4  503    0  0.26988864984E+02  0.23487556365E+02  0.50834327231E+01  0.36441671550E+02  0.47000000000E+01 0. -1.
         -5    1    3    3    0  502 -0.11297258411E+02 -0.38982074737E+02 -0.43289359932E+02  0.59525531343E+02  0.47000000000E+01 0.  1.
<mgrwt>
<rscale>  0 0.91762263E+02</rscale>
<asrwt>0</asrwt>
<pdfrwt beam="1">  1        1 0.73942749E-02 0.94669351E+02</pdfrwt>
<pdfrwt beam="2">  1       -1 0.25781098E-01 0.94669351E+02</pdfrwt>
<totfact> 0.11585022E+04</totfact>
</mgrwt>
</event>
<event>
 8    1  0.3177960E-004  0.1178773E+03  0.7546771E-02  0.1247509E+00
         -1   -1    0    0    0  501 -0.00000000000E+00  0.00000000000E+00  0.14320506043E+02  0.14320506043E+02  0.00000000000E+00 0.  1.
          1   -1    0    0  501    0  0.00000000000E+00 -0.00000000000E+00 -0.99942133932E+03  0.99942133932E+03  0.00000000000E+00 0. -1.
         23    2    1    2    0    0 -0.35853945658E+02 -0.61112117141E+02 -0.60517251021E+03  0.61654587892E+03  0.94206461698E+02 0.  0.
         23    2    1    2    0    0  0.35853945658E+02  0.61112117141E+02 -0.37992832307E+03  0.39719596644E+03  0.91645560749E+02 0.  0.
          5    1    3    3  502    0 -0.36202105945E+01 -0.60747867099E+02 -0.54240232318E+03  0.54582577758E+03  0.47000000000E+01 0. -1.
         -5    1    3    3    0  502 -0.32233735064E+02 -0.36425004196E+00 -0.62770187026E+02  0.70720101340E+02  0.47000000000E+01 0.  1.
          5    1    4    4  503    0  0.61542308476E+02  0.47577743877E+02 -0.33148339245E+03  0.34052081715E+03  0.47000000000E+01 0. -1.
         -5    1    4    4    0  503 -0.25688362818E+02  0.13534373264E+02 -0.48444930625E+02  0.56675149291E+02  0.47000000000E+01 0.  1.
<mgrwt>
<rscale>  0 0.11736485E+03</rscale>
<asrwt>0</asrwt>
<pdfrwt beam="1">  1        1 0.15375711E+00 0.11787728E+03</pdfrwt>
<pdfrwt beam="2">  1       -1 0.22031550E-02 0.11787728E+03</pdfrwt>
<totfact> 0.91234902E+03</totfact>
</mgrwt>
</event>
<event>
 8    1  0.3177960E-004  0.9468637E+02  0.7546771E-02  0.1292109E+00
          2   -1    0    0  501    0  0.00000000000E+00  0.00000000000E+00  0.64154212555E+03  0.64154212555E+03  0.00000000000E+00 0. -1.
         -2   -1    0    0    0  501 -0.00000000000E+00 -0.00000000000E+00 -0.15444527135E+02  0.15444527135E+02  0.00000000000E+00 0.  1.
         23    2    1    2    0    0 -0.30511882714E+01  0.27401765078E+02  0.41696777966E+03  0.42758348635E+03  0.90583343102E+02 0.  0.
         23    2    1    2    0    0  0.30511882714E+01 -0.27401765078E+02  0.20912981875E+03  0.22940316633E+03  0.90168537480E+02 0.  0.
          5    1    3    3  502    0 -0.50126829375E+00  0.60308766757E+02  0.29518208370E+03  0.30131702765E+03  0.47000000000E+01 0. -1.
         -5    1    4    4    0  503  0.18127700081E+02 -0.51779287403E+02  0.18013428111E+03  0.18836177251E+03  0.47000000000E+01 0.  1.
          5    1    4    4  503    0 -0.15076511809E+02  0.24377522326E+02  0.28995537647E+02  0.41041393818E+02  0.47000000000E+01 0. -1.
         -5    1    3    3    0  502 -0.25499199777E+01 -0.32907001680E+02  0.12178569596E+03  0.12626645870E+03  0.47000000000E+01 0.  1.
<mgrwt>
<rscale>  0 0.94587025E+02</rscale>
<asrwt>0</asrwt>
<pdfrwt beam="1">  1        2 0.98698768E-01 0.94686369E+02</pdfrwt>
<pdfrwt beam="2">  1       -2 0.23760816E-02 0.94686369E+02</pdfrwt>
<totfact> 0.25386847E+04</totfact>
</mgrwt>
</event>
<event>
 8    1  0.3177960E-004  0.9372664E+02  0.7546771E-02  0.1295454E+00
          2   -1    0    0  501    0  0.00000000000E+00  0.00000000000E+00  0.10119487545E+03  0.10119487545E+03  0.00000000000E+00 0. -1.
         -2   -1    0    0    0  501 -0.00000000000E+00 -0.00000000000E+00 -0.86871077002E+02  0.86871077002E+02  0.00000000000E+00 0.  1.
         23    2    1    2    0    0  0.81233964586E+01  0.24078076322E+01 -0.80696047359E+01  0.91701293801E+02  0.90951754554E+02 0.  0.
         23    2    1    2    0    0 -0.81233964586E+01 -0.24078076322E+01  0.22393403188E+02  0.96364658655E+02  0.93342893805E+02 0.  0.
          5    1    3    3  502    0 -0.21681327536E+02 -0.36130969021E+02 -0.40380438235E+01  0.42590171214E+02  0.47000000000E+01 0. -1.
         -5    1    4    4    0  503  0.24932705656E+01  0.28096900492E+02 -0.25561886095E+02  0.38355602408E+02  0.47000000000E+01 0.  1.
          5    1    4    4  503    0 -0.10616667024E+02 -0.30504708124E+02  0.47955289283E+02  0.58009056247E+02  0.47000000000E+01 0. -1.
         -5    1    3    3    0  502  0.29804723994E+02  0.38538776654E+02 -0.40315609125E+01  0.49111122587E+02  0.47000000000E+01 0.  1.
<mgrwt>
<rscale>  0 0.93125609E+02</rscale>
<asrwt>0</asrwt>
<pdfrwt beam="1">  1        2 0.15568442E-01 0.93726639E+02</pdfrwt>
<pdfrwt beam="2">  1       -2 0.13364781E-01 0.93726639E+02</pdfrwt>
<totfact> 0.13906183E+04</totfact>
</mgrwt>
</event>
<event>
 8    1  0.3177960E-004  0.1647242E+03  0.7546771E-02  0.1183827E+00
         -1   -1    0    0    0  501 -0.00000000000E+00  0.00000000000E+00  0.83851517202E+02  0.83851517202E+02  0.00000000000E+00 0.  1.
          1   -1    0    0  501    0  0.00000000000E+00 -0.00000000000E+00 -0.35252626909E+03  0.35252626909E+03  0.00000000000E+00 0. -1.
         23    2    1    2    0    0 -0.47085237079E+01 -0.13545510927E+03 -0.69574727604E+02  0.17881475011E+03  0.93615251498E+02 0.  0.
         23    2    1    2    0    0  0.47085237079E+01  0.13545510927E+03 -0.19910002428E+03  0.25756303618E+03  0.91255910031E+02 0.  0.
          5    1    3    3  502    0  0.33547470026E+02 -0.29054033387E+02 -0.44253730154E+02  0.62849440998E+02  0.47000000000E+01 0. -1.
         -5    1    4    4    0  503 -0.40288775757E+02  0.92089789800E+02 -0.11830487674E+03  0.15531210094E+03  0.47000000000E+01 0.  1.
          5    1    4    4  503    0  0.44997299465E+02  0.43365319468E+02 -0.80795147539E+02  0.10225093524E+03  0.47000000000E+01 0. -1.
         -5    1    3    3    0  502 -0.38255993734E+02 -0.10640107588E+03 -0.25320997449E+02  0.11596530911E+03  0.47000000000E+01 0.  1.
<mgrwt>
<rscale>  0 0.16439089E+03</rscale>
<asrwt>0</asrwt>
<pdfrwt beam="1">  1        1 0.54234811E-01 0.16472423E+03</pdfrwt>
<pdfrwt beam="2">  1       -1 0.12900233E-01 0.16472423E+03</pdfrwt>
<totfact> 0.28535863E+03</totfact>
</mgrwt>
</event>
<event>
 8    1  0.3177960E-004  0.2081967E+03  0.7546771E-02  0.1143032E+00
          1   -1    0    0  501    0  0.00000000000E+00  0.00000000000E+00  0.39613874074E+03  0.39613874074E+03  0.00000000000E+00 0. -1.
         -1   -1    0    0    0  501 -0.00000000000E+00 -0.00000000000E+00 -0.10098608420E+04  0.10098608420E+04  0.00000000000E+00 0.  1.
         23    2    1    2    0    0  0.10165387132E+03 -0.15757100467E+03 -0.97070018088E+03  0.99274515220E+03  0.90121945173E+02 0.  0.
         23    2    1    2    0    0 -0.10165387132E+03  0.15757100467E+03  0.35697807961E+03  0.41325443054E+03  0.90464047943E+02 0.  0.
          5    1    4    4  502    0 -0.79904273752E+02  0.16134812264E+03  0.34086083105E+03  0.38552056468E+03  0.47000000000E+01 0. -1.
         -5    1    4    4    0  502 -0.21749597567E+02 -0.37771179736E+01  0.16117248564E+02  0.27733865864E+02  0.47000000000E+01 0.  1.
          5    1    3    3  503    0  0.43477773857E+01 -0.81526628901E+02 -0.31120386781E+03  0.32176922123E+03  0.47000000000E+01 0. -1.
         -5    1    3    3    0  503  0.97306093934E+02 -0.76044375769E+02 -0.65949631307E+03  0.67097593098E+03  0.47000000000E+01 0.  1.
<mgrwt>
<rscale>  0 0.20815961E+03</rscale>
<asrwt>0</asrwt>
<pdfrwt beam="1">  1        1 0.60944423E-01 0.20819672E+03</pdfrwt>
<pdfrwt beam="2">  1       -1 0.15536320E+00 0.20819672E+03</pdfrwt>
<totfact> 0.21880252E+01</totfact>
</mgrwt>
</event>
<event>
 8    1  0.3177960E-004  0.1051757E+03  0.7546771E-02  0.1270108E+00
          2   -1    0    0  501    0  0.00000000000E+00  0.00000000000E+00  0.44866736229E+03  0.44866736229E+03  0.00000000000E+00 0. -1.
         -2   -1    0    0    0  501 -0.00000000000E+00 -0.00000000000E+00 -0.28467527360E+02  0.28467527360E+02  0.00000000000E+00 0.  1.
         23    2    1    2    0    0  0.46101912058E+02 -0.26305924653E+02  0.12041442023E+03  0.15943498508E+03  0.90013853933E+02 0.  0.
         23    2    1    2    0    0 -0.46101912058E+02  0.26305924653E+02  0.29978541470E+03  0.31769990457E+03  0.90799485305E+02 0.  0.
          5    1    3    3  502    0 -0.24166511811E+01 -0.22132560449E+02 -0.62941812058E+01  0.23609259879E+02  0.47000000000E+01 0. -1.
         -5    1    4    4    0  503 -0.34497227713E+02 -0.30479971403E+02  0.11423333610E+03  0.12324947242E+03  0.47000000000E+01 0.  1.
          5    1    4    4  503    0 -0.11604684345E+02  0.56785896056E+02  0.18555207860E+03  0.19445043214E+03  0.47000000000E+01 0. -1.
         -5    1    3    3    0  502  0.48518563239E+02 -0.41733642034E+01  0.12670860144E+03  0.13582572520E+03  0.47000000000E+01 0.  1.
<mgrwt>
<rscale>  0 0.10500595E+03</rscale>
<asrwt>0</asrwt>
<pdfrwt beam="1">  1        2 0.69025743E-01 0.10517573E+03</pdfrwt>
<pdfrwt beam="2">  1       -2 0.43796199E-02 0.10517573E+03</pdfrwt>
<totfact> 0.15541275E+04</totfact>
</mgrwt>
</event>
<event>
 8    1  0.3177960E-004  0.9853097E+02  0.7546771E-02  0.1286466E+00
          1   -1    0    0  501    0  0.00000000000E+00  0.00000000000E+00  0.64277366041E+03  0.64277366041E+03  0.00000000000E+00 0. -1.
         -1   -1    0    0    0  501 -0.00000000000E+00 -0.00000000000E+00 -0.11548935624E+03  0.11548935624E+03  0.00000000000E+00 0.  1.
         23    2    1    2    0    0  0.11586082557E+02  0.36921047770E+02 -0.90337627817E+02  0.13367587209E+03  0.90614296349E+02 0.  0.
         23    2    1    2    0    0 -0.11586082557E+02 -0.36921047770E+02  0.61762193199E+03  0.62458714456E+03  0.84586341718E+02 0.  0.
          5    1    4    4  502    0 -0.46036060954E+02 -0.20880974206E+02  0.43779248756E+03  0.44072631661E+03  0.47000000000E+01 0. -1.
         -5    1    4    4    0  502  0.34449978396E+02 -0.16040073564E+02  0.17982944443E+03  0.18386082795E+03  0.47000000000E+01 0.  1.
          5    1    3    3  503    0 -0.32459188852E+02  0.15007097266E+02 -0.72785327211E+02  0.81231802679E+02  0.47000000000E+01 0. -1.
         -5    1    3    3    0  503  0.44045271409E+02  0.21913950504E+02 -0.17552300606E+02  0.52444069415E+02  0.47000000000E+01 0.  1.
<mgrwt>
<rscale>  0 0.97122689E+02</rscale>
<asrwt>0</asrwt>
<pdfrwt beam="1">  1        1 0.98888253E-01 0.98530969E+02</pdfrwt>
<pdfrwt beam="2">  1       -1 0.17767594E-01 0.98530969E+02</pdfrwt>
<totfact> 0.78394189E+02</totfact>
</mgrwt>
</event>
<event>
 8    1  0.3177960E-004  0.9569901E+02  0.7546771E-02  0.1293051E+00
          1   -1    0    0  501    0  0.00000000000E+00  0.00000000000E+00  0.23825568554E+03  0.23825568554E+03  0.00000000000E+00 0. -1.
         -1   -1    0    0    0  501 -0.00000000000E+00 -0.00000000000E+00 -0.36197827533E+02  0.36197827533E+02  0.00000000000E+00 0.  1.
         23    2    1    2    0    0 -0.19909198657E+02  0.10527945086E+02  0.90009765477E+02  0.12709993709E+03  0.86864390336E+02 0.  0.
         23    2    1    2    0    0  0.19909198657E+02 -0.10527945086E+02  0.11204809253E+03  0.14735357598E+03  0.93011222420E+02 0.  0.
          5    1    4    4  502    0 -0.20371989000E+02 -0.19868659817E+01  0.10275650580E+03  0.10488067056E+03  0.47000000000E+01 0. -1.
         -5    1    3    3    0  503  0.17507655384E+02  0.29448053395E+02  0.89536352926E+01  0.35720630324E+02  0.47000000000E+01 0.  1.
          5    1    3    3  503    0 -0.37416854041E+02 -0.18920108309E+02  0.81056130184E+02  0.91379306767E+02  0.47000000000E+01 0. -1.
         -5    1    4    4    0  502  0.40281187657E+02 -0.85410791043E+01  0.92915867315E+01  0.42472905426E+02  0.47000000000E+01 0.  1.
<mgrwt>
<rscale>  0 0.94172231E+02</rscale>
<asrwt>0</asrwt>
<pdfrwt beam="1">  1        1 0.36654720E-01 0.95699014E+02</pdfrwt>
<pdfrwt beam="2">  1       -1 0.55688967E-02 0.95699014E+02</pdfrwt>
<totfact> 0.15883027E+04</totfact>
</mgrwt>
</event>
<event>
 8    1  0.3177960E-004  0.1022620E+03  0.7546771E-02  0.1275688E+00
         -2   -1    0    0    0  501 -0.00000000000E+00  0.00000000000E+00  0.83898880034E+02  0.83898880034E+02  0.00000000000E+00 0.  1.
          2   -1    0    0  501    0  0.00000000000E+00 -0.00000000000E+00 -0.12555213921E+03  0.12555213921E+03  0.00000000000E+00 0. -1.
         23    2    1    2    0    0 -0.47625571845E+02 -0.76923987010E+01 -0.11061654211E+02  0.10285854724E+03  0.90167358034E+02 0.  0.
         23    2    1    2    0    0  0.47625571845E+02  0.76923987010E+01 -0.30591604965E+02  0.10659247201E+03  0.89993003633E+02 0.  0.
          5    1    4    4  502    0  0.64788056413E+02  0.28911121086E+02 -0.93966239150E+01  0.71719813979E+02  0.47000000000E+01 0. -1.
         -5    1    3    3    0  503 -0.56173026967E+02 -0.36978437911E+02  0.58365135876E+01  0.67668077554E+02  0.47000000000E+01 0.  1.
          5    1    3    3  503    0  0.85474551223E+01  0.29286039210E+02 -0.16898167799E+02  0.35190469685E+02  0.47000000000E+01 0. -1.
         -5    1    4    4    0  502 -0.17162484568E+02 -0.21218722385E+02 -0.21194981051E+02  0.34872658028E+02  0.47000000000E+01 0.  1.
<mgrwt>
<rscale>  0 0.10222357E+03</rscale>
<asrwt>0</asrwt>
<pdfrwt beam="1">  1        2 0.19315714E-01 0.10226202E+03</pdfrwt>
<pdfrwt beam="2">  1       -2 0.12907520E-01 0.10226202E+03</pdfrwt>
<totfact> 0.11596786E+04</totfact>
</mgrwt>
</event>
<event>
 8    1  0.3177960E-004  0.1095987E+03  0.7546771E-02  0.1262520E+00
         -2   -1    0    0    0  501 -0.00000000000E+00  0.00000000000E+00  0.35185293833E+02  0.35185293833E+02  0.00000000000E+00 0.  1.
          2   -1    0    0  501    0  0.00000000000E+00 -0.00000000000E+00 -0.58651625796E+03  0.58651625796E+03  0.00000000000E+00 0. -1.
         23    2    1    2    0    0  0.36605326984E+02 -0.35418191045E+02 -0.69641815805E+02  0.12770124721E+03  0.94144717375E+02 0.  0.
         23    2    1    2    0    0 -0.36605326984E+02  0.35418191045E+02 -0.48168914832E+03  0.49400030458E+03  0.97043635015E+02 0.  0.
          5    1    3    3  502    0  0.25868006487E+02  0.30137774794E+02 -0.31873006380E+02  0.51141155295E+02  0.47000000000E+01 0. -1.
         -5    1    4    4    0  503  0.29896872746E+02  0.13271846597E+02 -0.86140603633E+02  0.92261901705E+02  0.47000000000E+01 0.  1.
          5    1    4    4  503    0 -0.66502199730E+02  0.22146344448E+02 -0.39554854469E+03  0.40173840288E+03  0.47000000000E+01 0. -1.
         -5    1    3    3    0  502  0.10737320496E+02 -0.65555965839E+02 -0.37768809425E+02  0.76560091914E+02  0.47000000000E+01 0.  1.
<mgrwt>
<rscale>  0 0.10895339E+03</rscale>
<asrwt>0</asrwt>
<pdfrwt beam="1">  1        2 0.90233259E-01 0.10959866E+03</pdfrwt>
<pdfrwt beam="2">  1       -2 0.54131228E-02 0.10959866E+03</pdfrwt>
<totfact> 0.84820341E+03</totfact>
</mgrwt>
</event>
<event>
 8    1  0.3177960E-004  0.9927882E+02  0.7546771E-02  0.1283510E+00
         -2   -1    0    0    0  501 -0.00000000000E+00  0.00000000000E+00  0.72986016503E+03  0.72986016503E+03  0.00000000000E+00 0.  1.
          2   -1    0    0  501    0  0.00000000000E+00 -0.00000000000E+00 -0.38685159592E+02  0.38685159592E+02  0.00000000000E+00 0. -1.
         23    2    1    2    0    0 -0.36981283649E+02  0.95818750177E+01  0.65632041682E+03  0.66332590266E+03  0.88234550705E+02 0.  0.
         23    2    1    2    0    0  0.36981283649E+02 -0.95818750177E+01  0.34854588618E+02  0.10521942196E+03  0.91634364410E+02 0.  0.
          5    1    4    4  502    0  0.62297668486E+02  0.12390876656E+02  0.31920027144E+02  0.71242623871E+02  0.47000000000E+01 0. -1.
         -5    1    4    4    0  502 -0.25316384837E+02 -0.21972751674E+02  0.29345614739E+01  0.33976798089E+02  0.47000000000E+01 0.  1.
          5    1    3    3  503    0 -0.20420272205E+02 -0.38361811356E+02  0.24573152879E+03  0.24958904289E+03  0.47000000000E+01 0. -1.
         -5    1    3    3    0  503 -0.16561011444E+02  0.47943686374E+02  0.41058888802E+03  0.41373685977E+03  0.47000000000E+01 0.  1.
<mgrwt>
<rscale>  0 0.98487120E+02</rscale>
<asrwt>0</asrwt>
<pdfrwt beam="1">  1        2 0.59515635E-02 0.99278822E+02</pdfrwt>
<pdfrwt beam="2">  1       -2 0.11228617E+00 0.99278822E+02</pdfrwt>
<totfact> 0.78209910E+02</totfact>
</mgrwt>
</event>
<event>
 8    1  0.3177960E-004  0.9481987E+02  0.7546771E-02  0.1294934E+00
          4   -1    0    0  501    0  0.00000000000E+00  0.00000000000E+00  0.80740337567E+02  0.80740337567E+02  0.00000000000E+00 0. -1.
         -4   -1    0    0    0  501 -0.00000000000E+00 -0.00000000000E+00 -0.10472501484E+03  0.10472501484E+03  0.00000000000E+00 0.  1.
         23    2    1    2    0    0  0.12984697579E+02  0.65457684165E+01 -0.13267205616E+02  0.95743547164E+02  0.93698231698E+02 0.  0.
         23    2    1    2    0    0 -0.12984697579E+02 -0.65457684165E+01 -0.10717471659E+02  0.89721805245E+02  0.87884519014E+02 0.  0.
          5    1    3    3  502    0 -0.35659861041E+02 -0.16591805648E+02  0.16729547380E+01  0.39645964255E+02  0.47000000000E+01 0. -1.
         -5    1    4    4    0  503 -0.12874745555E+01 -0.32949337989E+02  0.26369887315E+02  0.42482672016E+02  0.47000000000E+01 0.  1.
          5    1    4    4  503    0 -0.11697223023E+02  0.26403569572E+02 -0.37087358974E+02  0.47239133229E+02  0.47000000000E+01 0. -1.
         -5    1    3    3    0  502  0.48644558620E+02  0.23137574064E+02 -0.14940160354E+02  0.56097582910E+02  0.47000000000E+01 0.  1.
<mgrwt>
<rscale>  0 0.93350970E+02</rscale>
<asrwt>0</asrwt>
<pdfrwt beam="1">  1        4 0.12421590E-01 0.94819872E+02</pdfrwt>
<pdfrwt beam="2">  1       -4 0.16111541E-01 0.94819872E+02</pdfrwt>
<totfact> 0.26089741E+03</totfact>
</mgrwt>
</event>
<event>
 8    1  0.6236240E-004  0.9737035E+02  0.7546771E-02  0.1286306E+00
          1   -1    0    0  501    0  0.00000000000E+00  0.00000000000E+00  0.54426095617E+03  0.54426095617E+03  0.00000000000E+00 0. -1.
         -1   -1    0    0    0  501 -0.00000000000E+00 -0.00000000000E+00 -0.43584433348E+02  0.43584433348E+02  0.00000000000E+00 0.  1.
         23    2    1    2    0    0 -0.24451238706E+02 -0.27986760478E+02  0.47825363475E+03  0.48792656987E+03  0.89245036825E+02 0.  0.
         23    2    1    2    0    0  0.24451238706E+02  0.27986760478E+02  0.22422888073E+02  0.99918819649E+02  0.89999237631E+02 0.  0.
          5    1    3    3  502    0 -0.34525029812E+02 -0.47532704445E+02  0.43688026004E+03  0.44083759740E+03  0.47000000000E+01 0. -1.
         -5    1    4    4    0  503  0.16678164811E+02  0.57331408319E+02  0.31786473897E+02  0.67805025508E+02  0.47000000000E+01 0.  1.
          5    1    4    4  503    0  0.77730738942E+01 -0.29344647841E+02 -0.93635858235E+01  0.32113794141E+02  0.47000000000E+01 0. -1.
         -5    1    3    3    0  502  0.10073791106E+02  0.19545943967E+02  0.41373374719E+02  0.47088972472E+02  0.47000000000E+01 0.  1.
<mgrwt>
<rscale>  0 0.97195709E+02</rscale>
<asrwt>0</asrwt>
<pdfrwt beam="1">  1        1 0.83732450E-01 0.97370348E+02</pdfrwt>
<pdfrwt beam="2">  1       -1 0.67052978E-02 0.97370348E+02</pdfrwt>
<totfact> 0.43217255E+03</totfact>
</mgrwt>
</event>
<event>
 8    1  0.3177960E-004  0.1056037E+03  0.7546771E-02  0.1270111E+00
         -2   -1    0    0    0  501 -0.00000000000E+00  0.00000000000E+00  0.21207712411E+02  0.21207712411E+02  0.00000000000E+00 0.  1.
          2   -1    0    0  501    0  0.00000000000E+00 -0.00000000000E+00 -0.10135118898E+04  0.10135118898E+04  0.00000000000E+00 0. -1.
         23    2    1    2    0    0 -0.34173524030E+02  0.39966555360E+02 -0.86217616703E+03  0.86861952512E+03  0.91580462681E+02 0.  0.
         23    2    1    2    0    0  0.34173524030E+02 -0.39966555360E+02 -0.13012801039E+03  0.16610007711E+03  0.88830069445E+02 0.  0.
          5    1    4    4  502    0  0.13193126151E+01  0.27516307437E+02 -0.38190205420E+02  0.47323034040E+02  0.47000000000E+01 0. -1.
         -5    1    3    3    0  503  0.71909126204E+01 -0.24555322057E+02 -0.14218138441E+03  0.14454172110E+03  0.47000000000E+01 0.  1.
          5    1    3    3  503    0 -0.41364436650E+02  0.64521877417E+02 -0.71999478262E+03  0.72407780403E+03  0.47000000000E+01 0. -1.
         -5    1    4    4    0  502  0.32854211415E+02 -0.67482862797E+02 -0.91937804968E+02  0.11877704307E+03  0.47000000000E+01 0.  1.
<mgrwt>
<rscale>  0 0.10500458E+03</rscale>
<asrwt>0</asrwt>
<pdfrwt beam="1">  1        2 0.15592491E+00 0.10560368E+03</pdfrwt>
<pdfrwt beam="2">  1       -2 0.32627248E-02 0.10560368E+03</pdfrwt>
<totfact> 0.91646261E+03</totfact>
</mgrwt>
</event>
<event>
 8    1  0.3177960E-004  0.1059506E+03  0.7546771E-02  0.1269209E+00
          1   -1    0    0  501    0  0.00000000000E+00  0.00000000000E+00  0.21201932973E+02  0.21201932973E+02  0.00000000000E+00 0. -1.
         -1   -1    0    0    0  501 -0.00000000000E+00 -0.00000000000E+00 -0.64203592601E+03  0.64203592601E+03  0.00000000000E+00 0.  1.
         23    2    1    2    0    0  0.43021534254E+02  0.23665036901E+02 -0.45277359392E+03  0.46456769397E+03  0.91696938596E+02 0.  0.
         23    2    1    2    0    0 -0.43021534254E+02 -0.23665036901E+02 -0.16806039912E+03  0.19867016502E+03  0.93886369267E+02 0.  0.
          5    1    3    3  502    0  0.60588215145E+02 -0.13471252549E+02 -0.25124255226E+03  0.25883839848E+03  0.47000000000E+01 0. -1.
         -5    1    3    3    0  502 -0.17566680891E+02  0.37136289450E+02 -0.20153104165E+03  0.20572929549E+03  0.47000000000E+01 0.  1.
          5    1    4    4  503    0 -0.65856111028E+02 -0.25516246075E+02 -0.15815548577E+03  0.17327248441E+03  0.47000000000E+01 0. -1.
         -5    1    4    4    0  503  0.22834576775E+02  0.18512091732E+01 -0.99049133516E+01  0.25397680610E+02  0.47000000000E+01 0.  1.
<mgrwt>
<rscale>  0 0.10546349E+03</rscale>
<asrwt>0</asrwt>
<pdfrwt beam="1">  1        1 0.32618351E-02 0.10595063E+03</pdfrwt>
<pdfrwt beam="2">  1       -1 0.98774780E-01 0.10595063E+03</pdfrwt>
<totfact> 0.29771053E+03</totfact>
</mgrwt>
</event>
<event>
 8    1  0.3177960E-004  0.1220285E+03  0.7546771E-02  0.1240131E+00
         -2   -1    0    0    0  501 -0.00000000000E+00  0.00000000000E+00  0.14704413225E+03  0.14704413225E+03  0.00000000000E+00 0.  1.
          2   -1    0    0  501    0  0.00000000000E+00 -0.00000000000E+00 -0.13106380630E+03  0.13106380630E+03  0.00000000000E+00 0. -1.
         23    2    1    2    0    0  0.44712868301E+02  0.66737514986E+02 -0.59109027382E+02  0.13482718792E+03  0.90726826162E+02 0.  0.
         23    2    1    2    0    0 -0.44712868301E+02 -0.66737514986E+02  0.75089353331E+02  0.14328075064E+03  0.91857639976E+02 0.  0.
          5    1    4    4  502    0 -0.19655946120E+02  0.18873972309E+02  0.36952324663E+02  0.46153519331E+02  0.47000000000E+01 0. -1.
         -5    1    3    3    0  503  0.61255453136E+02  0.30901724664E+02 -0.67646505179E+01  0.69101357604E+02  0.47000000000E+01 0.  1.
          5    1    3    3  503    0 -0.16542584835E+02  0.35835790322E+02 -0.52344376864E+02  0.65725830313E+02  0.47000000000E+01 0. -1.
         -5    1    4    4    0  502 -0.25056922181E+02 -0.85611487295E+02  0.38137028668E+02  0.97127231309E+02  0.47000000000E+01 0.  1.
<mgrwt>
<rscale>  0 0.12181574E+03</rscale>
<asrwt>0</asrwt>
<pdfrwt beam="1">  1        2 0.20163663E-01 0.12202853E+03</pdfrwt>
<pdfrwt beam="2">  1       -2 0.22622174E-01 0.12202853E+03</pdfrwt>
<totfact> 0.44313112E+03</totfact>
</mgrwt>
</event>
<event>
 8    1  0.3177960E-004  0.1585424E+03  0.7546771E-02  0.1193736E+00
          1   -1    0    0  501    0  0.00000000000E+00  0.00000000000E+00  0.19279921196E+03  0.19279921196E+03  0.00000000000E+00 0. -1.
         -1   -1    0    0    0  501 -0.00000000000E+00 -0.00000000000E+00 -0.17453735047E+03  0.17453735047E+03  0.00000000000E+00 0.  1.
         23    2    1    2    0    0 -0.77114804251E+02  0.92389535898E+02  0.11086869216E+03  0.19346207257E+03  0.10321427829E+03 0.  0.
         23    2    1    2    0    0  0.77114804251E+02 -0.92389535898E+02 -0.92606830670E+02  0.17387448986E+03  0.84698251225E+02 0.  0.
          5    1    4    4  502    0  0.82037056324E+02 -0.35177390100E+02 -0.52323001583E+02  0.10357274680E+03  0.47000000000E+01 0. -1.
         -5    1    4    4    0  502 -0.49222520724E+01 -0.57212145798E+02 -0.40283829087E+02  0.70301743067E+02  0.47000000000E+01 0.  1.
          5    1    3    3  503    0 -0.32761817656E+02 -0.81664340829E+01 -0.41100068064E+01  0.34336707730E+02  0.47000000000E+01 0. -1.
         -5    1    3    3    0  503 -0.44352986595E+02  0.10055596998E+03  0.11497869897E+03  0.15912536484E+03  0.47000000000E+01 0.  1.
<mgrwt>
<rscale>  0 0.15561707E+03</rscale>
<asrwt>0</asrwt>
<pdfrwt beam="1">  1        1 0.29661417E-01 0.15854244E+03</pdfrwt>
<pdfrwt beam="2">  1       -1 0.26851900E-01 0.15854244E+03</pdfrwt>
<totfact> 0.18641020E+03</totfact>
</mgrwt>
</event>
<event>
 8    1  0.3177960E-004  0.9623174E+02  0.7546771E-02  0.1288624E+00
         -2   -1    0    0    0  501 -0.00000000000E+00  0.00000000000E+00  0.98087378105E+01  0.98087378105E+01  0.00000000000E+00 0.  1.
          2   -1    0    0  501    0  0.00000000000E+00 -0.00000000000E+00 -0.94826194366E+03  0.94826194366E+03  0.00000000000E+00 0. -1.
         23    2    1    2    0    0 -0.26865699063E+02 -0.54112419240E+00 -0.42703966403E+03  0.43774812747E+03  0.92403949274E+02 0.  0.
         23    2    1    2    0    0  0.26865699063E+02  0.54112419240E+00 -0.51141354182E+03  0.52032255401E+03  0.92030923338E+02 0.  0.
          5    1    4    4  502    0 -0.22180966159E+02 -0.22367326255E+02 -0.31257391276E+03  0.31419235108E+03  0.47000000000E+01 0. -1.
         -5    1    4    4    0  502  0.49046665222E+02  0.22908450447E+02 -0.19883962906E+03  0.20613020292E+03  0.47000000000E+01 0.  1.
          5    1    3    3  503    0 -0.52618769955E+02 -0.17367924681E+02 -0.17078259310E+03  0.17960836246E+03  0.47000000000E+01 0. -1.
         -5    1    3    3    0  503  0.25753070891E+02  0.16826800489E+02 -0.25625707093E+03  0.25813976500E+03  0.47000000000E+01 0.  1.
<mgrwt>
<rscale>  0 0.96142085E+02</rscale>
<asrwt>0</asrwt>
<pdfrwt beam="1">  1        2 0.14588648E+00 0.96231743E+02</pdfrwt>
<pdfrwt beam="2">  1       -2 0.15090363E-02 0.96231743E+02</pdfrwt>
<totfact> 0.30324562E+04</totfact>
</mgrwt>
</event>
<event>
 7    1  0.3177960E-004  0.2452741E+03  0.7546771E-02  0.1135651E+00
          2   -1    0    0  501    0  0.00000000000E+00  0.00000000000E+00  0.69984389725E+03  0.69984389725E+03  0.00000000000E+00 0. -1.
         -2   -1    0    0    0  501 -0.00000000000E+00 -0.00000000000E+00 -0.56489122149E+02  0.56489122149E+02  0.00000000000E+00 0.  1.
         23    2    1    2    0    0  0.35329216012E+02 -0.11625804457E+03  0.23166829705E+03  0.27711995510E+03  0.91439505825E+02 0.  0.
          5    1    1    2  502    0 -0.34875282457E+02 -0.25398276406E+02  0.28753664440E+03  0.29079334525E+03  0.47000000000E+01 0. -1.
         -5    1    3    3    0  503  0.60946346817E+02 -0.90822816672E+02  0.20354130795E+03  0.23111554526E+03  0.47000000000E+01 0.  1.
          5    1    3    3  503    0 -0.25617130805E+02 -0.25435227903E+02  0.28126989098E+02  0.46004409841E+02  0.47000000000E+01 0. -1.
         -5    1    1    2    0  502 -0.45393355503E+00  0.14165632098E+03  0.12414983366E+03  0.18841971905E+03  0.47000000000E+01 0.  1.
<mgrwt>
<rscale>  0 0.21764549E+03</rscale>
<asrwt>0</asrwt>
<pdfrwt beam="1">  1        2 0.10766829E+00 0.24527414E+03</pdfrwt>
<pdfrwt beam="2">  1       -2 0.86906347E-02 0.24527414E+03</pdfrwt>
<totfact> 0.34614937E+03</totfact>
</mgrwt>
</event>
<event>
 8    1  0.3177960E-004  0.9606169E+02  0.7546771E-02  0.1296571E+00
         -2   -1    0    0    0  501 -0.00000000000E+00  0.00000000000E+00  0.10938079534E+03  0.10938079534E+03  0.00000000000E+00 0.  1.
          2   -1    0    0  501    0  0.00000000000E+00 -0.00000000000E+00 -0.12455568050E+03  0.12455568050E+03  0.00000000000E+00 0. -1.
         23    2    1    2    0    0 -0.29014776388E+02 -0.19575663678E+01  0.67602945714E+02  0.10712946963E+03  0.77851626054E+02 0.  0.
         23    2    1    2    0    0  0.29014776388E+02  0.19575663678E+01 -0.82777830877E+02  0.12680700621E+03  0.91554127296E+02 0.  0.
          5    1    3    3  502    0  0.69377613147E+01 -0.33049265505E+02  0.19207178245E+02  0.39133006256E+02  0.47000000000E+01 0. -1.
         -5    1    3    3    0  502 -0.35952537703E+02  0.31091699138E+02  0.48395767469E+02  0.67996463375E+02  0.47000000000E+01 0.  1.
          5    1    4    4  503    0  0.53446610291E+02 -0.19737323824E+02 -0.72305972777E+02  0.92175624774E+02  0.47000000000E+01 0. -1.
         -5    1    4    4    0  503 -0.24431833902E+02  0.21694890192E+02 -0.10471858101E+02  0.34631381439E+02  0.47000000000E+01 0.  1.
<mgrwt>
<rscale>  0 0.92644665E+02</rscale>
<asrwt>0</asrwt>
<pdfrwt beam="1">  1        2 0.19162412E-01 0.96061686E+02</pdfrwt>
<pdfrwt beam="2">  1       -2 0.16827815E-01 0.96061686E+02</pdfrwt>
<totfact> 0.75752191E+03</totfact>
</mgrwt>
</event>
<event>
 8    1  0.3177960E-004  0.1000144E+03  0.7546771E-02  0.1280489E+00
         -2   -1    0    0    0  501 -0.00000000000E+00  0.00000000000E+00  0.48201656918E+02  0.48201656918E+02  0.00000000000E+00 0.  1.
          2   -1    0    0  501    0  0.00000000000E+00 -0.00000000000E+00 -0.25582885463E+03  0.25582885463E+03  0.00000000000E+00 0. -1.
         23    2    1    2    0    0 -0.57928167340E+01 -0.38781643983E+02 -0.17028988821E+03  0.19727394764E+03  0.91546664352E+02 0.  0.
         23    2    1    2    0    0  0.57928167340E+01  0.38781643983E+02 -0.37337309499E+02  0.10675656391E+03  0.92007155271E+02 0.  0.
          5    1    3    3  502    0 -0.43421663289E+02 -0.11229770955E+02 -0.12157931120E+03  0.12967331071E+03  0.47000000000E+01 0. -1.
         -5    1    4    4    0  503  0.16641416037E+02 -0.27514018521E+02 -0.92097687444E+01  0.33776734348E+02  0.47000000000E+01 0.  1.
          5    1    4    4  503    0 -0.10848599303E+02  0.66295662504E+02 -0.28127540755E+02  0.72979829560E+02  0.47000000000E+01 0. -1.
         -5    1    3    3    0  502  0.37628846555E+02 -0.27551873028E+02 -0.48710577012E+02  0.67600636929E+02  0.47000000000E+01 0.  1.
<mgrwt>
<rscale>  0 0.99908412E+02</rscale>
<asrwt>0</asrwt>
<pdfrwt beam="1">  1        2 0.39358286E-01 0.10001445E+03</pdfrwt>
<pdfrwt beam="2">  1       -2 0.74156394E-02 0.10001445E+03</pdfrwt>
<totfact> 0.12682225E+04</totfact>
</mgrwt>
</event>
<event>
 8    1  0.3177960E-004  0.9506379E+02  0.7546771E-02  0.1291749E+00
         -1   -1    0    0    0  501 -0.00000000000E+00  0.00000000000E+00  0.97612109638E+01  0.97612109638E+01  0.00000000000E+00 0.  1.
          1   -1    0    0  501    0  0.00000000000E+00 -0.00000000000E+00 -0.10754646066E+04  0.10754646066E+04  0.00000000000E+00 0. -1.
         23    2    1    2    0    0 -0.25776476685E+01 -0.26249983492E+02 -0.74036109558E+03  0.74627930870E+03  0.90014159057E+02 0.  0.
         23    2    1    2    0    0  0.25776476685E+01  0.26249983492E+02 -0.32534230001E+03  0.33894650882E+03  0.91331362462E+02 0.  0.
          5    1    3    3  502    0 -0.73623042781E+01  0.31118257952E+02 -0.17363694741E+03  0.17661944686E+03  0.47000000000E+01 0. -1.
         -5    1    4    4    0  503 -0.39531339324E+02  0.63847868622E+01 -0.84830059106E+02  0.93924018334E+02  0.47000000000E+01 0.  1.
          5    1    4    4  503    0  0.42108986993E+02  0.19865196629E+02 -0.24051224090E+03  0.24502249049E+03  0.47000000000E+01 0. -1.
         -5    1    3    3    0  502  0.47846566096E+01 -0.57368241444E+02 -0.56672414818E+03  0.56965986184E+03  0.47000000000E+01 0.  1.
<mgrwt>
<rscale>  0 0.94746004E+02</rscale>
<asrwt>0</asrwt>
<pdfrwt beam="1">  1        1 0.16545603E+00 0.95063787E+02</pdfrwt>
<pdfrwt beam="2">  1       -1 0.15017253E-02 0.95063787E+02</pdfrwt>
<totfact> 0.13732987E+04</totfact>
</mgrwt>
</event>
<event>
 8    1  0.3177960E-004  0.9728018E+02  0.7546771E-02  0.1288921E+00
          2   -1    0    0  501    0  0.00000000000E+00  0.00000000000E+00  0.16027758014E+03  0.16027758014E+03  0.00000000000E+00 0. -1.
         -2   -1    0    0    0  501 -0.00000000000E+00 -0.00000000000E+00 -0.64449682693E+02  0.64449682693E+02  0.00000000000E+00 0.  1.
         23    2    1    2    0    0 -0.48293565641E+01 -0.15053000603E+02  0.87357925082E+02  0.12707905046E+03  0.90927237281E+02 0.  0.
         23    2    1    2    0    0  0.48293565641E+01  0.15053000603E+02  0.84699723645E+01  0.97648212371E+02  0.95987069105E+02 0.  0.
          5    1    3    3  502    0 -0.27047907778E+02  0.28719694037E+02  0.22686209983E+02  0.45751112163E+02  0.47000000000E+01 0.  1.
         -5    1    3    3    0  502  0.22218551214E+02 -0.43772694640E+02  0.64671715100E+02  0.81327938299E+02  0.47000000000E+01 0. -1.
          5    1    4    4  503    0  0.27972211041E+02  0.37643993757E+02 -0.22851774966E+02  0.52381375274E+02  0.47000000000E+01 0. -1.
         -5    1    4    4    0  503 -0.23142854476E+02 -0.22590993154E+02  0.31321747330E+02  0.45266837097E+02  0.47000000000E+01 0.  1.
<mgrwt>
<rscale>  0 0.96008220E+02</rscale>
<asrwt>0</asrwt>
<pdfrwt beam="1">  1        2 0.24658089E-01 0.97280178E+02</pdfrwt>
<pdfrwt beam="2">  1       -2 0.99153359E-02 0.97280178E+02</pdfrwt>
<totfact> 0.13341422E+04</totfact>
</mgrwt>
</event>
<event>
 8    1  0.3177960E-004  0.1485240E+03  0.7546771E-02  0.1203109E+00
          1   -1    0    0  501    0  0.00000000000E+00  0.00000000000E+00  0.99074207173E+02  0.99074207173E+02  0.00000000000E+00 0. -1.
         -1   -1    0    0    0  501 -0.00000000000E+00 -0.00000000000E+00 -0.22740356610E+03  0.22740356610E+03  0.00000000000E+00 0.  1.
         23    2    1    2    0    0 -0.67142993427E+02  0.91459060432E+02 -0.32960451705E+02  0.15213734506E+03  0.95845913235E+02 0.  0.
         23    2    1    2    0    0  0.67142993427E+02 -0.91459060432E+02 -0.95368907221E+02  0.17434042821E+03  0.91795507206E+02 0.  0.
          5    1    4    4  502    0  0.62384258832E+02 -0.26640226951E+02 -0.84199208513E+02  0.10822704910E+03  0.47000000000E+01 0. -1.
         -5    1    3    3    0  503 -0.60531935277E+02  0.34015334746E+02 -0.56389561369E+02  0.89571372757E+02  0.47000000000E+01 0.  1.
          5    1    3    3  503    0 -0.66110581505E+01  0.57443725686E+02  0.23429109664E+02  0.62565972303E+02  0.47000000000E+01 0. -1.
         -5    1    4    4    0  502  0.47587345951E+01 -0.64818833481E+02 -0.11169698708E+02  0.66113379115E+02  0.47000000000E+01 0.  1.
<mgrwt>
<rscale>  0 0.14787450E+03</rscale>
<asrwt>0</asrwt>
<pdfrwt beam="1">  1        1 0.15242186E-01 0.14852401E+03</pdfrwt>
<pdfrwt beam="2">  1       -1 0.34985164E-01 0.14852401E+03</pdfrwt>
<totfact> 0.27722339E+03</totfact>
</mgrwt>
</event>
<event>
 8    1  0.3177960E-004  0.9584178E+02  0.7546771E-02  0.1290095E+00
          1   -1    0    0  501    0  0.00000000000E+00  0.00000000000E+00  0.28042326926E+03  0.28042326926E+03  0.00000000000E+00 0. -1.
         -1   -1    0    0    0  501 -0.00000000000E+00 -0.00000000000E+00 -0.18982666328E+03  0.18982666328E+03  0.00000000000E+00 0.  1.
         23    2    1    2    0    0 -0.20501995809E+02  0.16536043065E+02 -0.16885311392E+03  0.19415720633E+03  0.92151365365E+02 0.  0.
         23    2    1    2    0    0  0.20501995809E+02 -0.16536043065E+02  0.25944971990E+03  0.27609272620E+03  0.90660155269E+02 0.  0.
          5    1    4    4  502    0  0.54984226782E+02 -0.26899867262E+00  0.17030925792E+03  0.17902701161E+03  0.47000000000E+01 0. -1.
         -5    1    3    3    0  503 -0.32261120785E+02  0.50140122978E+02 -0.11022162660E+03  0.12540218825E+03  0.47000000000E+01 0.  1.
          5    1    3    3  503    0  0.11759124976E+02 -0.33604079912E+02 -0.58631487314E+02  0.68755018083E+02  0.47000000000E+01 0. -1.
         -5    1    4    4    0  502 -0.34482230973E+02 -0.16267044393E+02  0.89140461980E+02  0.97065714586E+02  0.47000000000E+01 0.  1.
<mgrwt>
<rscale>  0 0.95481528E+02</rscale>
<asrwt>0</asrwt>
<pdfrwt beam="1">  1        1 0.43142042E-01 0.95841779E+02</pdfrwt>
<pdfrwt beam="2">  1       -1 0.29204102E-01 0.95841779E+02</pdfrwt>
<totfact> 0.10068289E+03</totfact>
</mgrwt>
</event>
<event>
 8    1  0.3177960E-004  0.2017165E+03  0.7546771E-02  0.1148372E+00
         -2   -1    0    0    0  501 -0.00000000000E+00  0.00000000000E+00  0.29483335163E+02  0.29483335163E+02  0.00000000000E+00 0.  1.
          2   -1    0    0  501    0  0.00000000000E+00 -0.00000000000E+00 -0.13809065676E+04  0.13809065676E+04  0.00000000000E+00 0. -1.
         23    2    1    2    0    0  0.14490994853E+03  0.10436320898E+03 -0.70920031301E+03  0.73723329926E+03  0.93044510833E+02 0.  0.
         23    2    1    2    0    0 -0.14490994853E+03 -0.10436320898E+03 -0.64222291942E+03  0.67315660349E+03  0.93802782630E+02 0.  0.
          5    1    4    4  502    0 -0.13780368044E+03 -0.67442980250E+02 -0.40857376810E+03  0.43645506517E+03  0.47000000000E+01 0. -1.
         -5    1    3    3    0  503  0.89185824059E+02  0.58233823860E+02 -0.24204257906E+03  0.26448438429E+03  0.47000000000E+01 0.  1.
          5    1    3    3  503    0  0.55724124469E+02  0.46129385118E+02 -0.46715773395E+03  0.47274891497E+03  0.47000000000E+01 0. -1.
         -5    1    4    4    0  502 -0.71062680876E+01 -0.36920228728E+02 -0.23364915131E+03  0.23670153832E+03  0.47000000000E+01 0.  1.
<mgrwt>
<rscale>  0 0.20162854E+03</rscale>
<asrwt>0</asrwt>
<pdfrwt beam="1">  1        2 0.21244711E+00 0.20171647E+03</pdfrwt>
<pdfrwt beam="2">  1       -2 0.45358988E-02 0.20171647E+03</pdfrwt>
<totfact> 0.35823588E+03</totfact>
</mgrwt>
</event>
<event>
 8    1  0.3177960E-004  0.9682929E+02  0.7546771E-02  0.1288668E+00
         -1   -1    0    0    0  501 -0.00000000000E+00  0.00000000000E+00  0.31261590177E+02  0.31261590177E+02  0.00000000000E+00 0.  1.
          1   -1    0    0  501    0  0.00000000000E+00 -0.00000000000E+00 -0.44716727842E+03  0.44716727842E+03  0.00000000000E+00 0. -1.
         23    2    1    2    0    0 -0.25523212568E+02 -0.11869779126E+02 -0.64755459735E+02  0.11417292254E+03  0.89721015595E+02 0.  0.
         23    2    1    2    0    0  0.25523212568E+02  0.11869779126E+02 -0.35115022851E+03  0.36425594606E+03  0.92647640129E+02 0.  0.
          5    1    4    4  502    0 -0.22529225639E+02  0.33632348385E+02 -0.19962449469E+03  0.20374182130E+03  0.47000000000E+01 0. -1.
         -5    1    4    4    0  502  0.48052438207E+02 -0.21762569259E+02 -0.15152573382E+03  0.16051412476E+03  0.47000000000E+01 0.  1.
          5    1    3    3  503    0  0.12557223595E+02  0.16000898296E+02 -0.63380018046E+02  0.66729523438E+02  0.47000000000E+01 0. -1.
         -5    1    3    3    0  503 -0.38080436164E+02 -0.27870677422E+02 -0.13754416882E+01  0.47443399101E+02  0.47000000000E+01 0.  1.
<mgrwt>
<rscale>  0 0.96122491E+02</rscale>
<asrwt>0</asrwt>
<pdfrwt beam="1">  1        1 0.68794957E-01 0.96829289E+02</pdfrwt>
<pdfrwt beam="2">  1       -1 0.48094760E-02 0.96829289E+02</pdfrwt>
<totfact> 0.90741992E+03</totfact>
</mgrwt>
</event>
<event>
 8    1  0.3177960E-004  0.1346539E+03  0.7546771E-02  0.1232987E+00
         -1   -1    0    0    0  501 -0.00000000000E+00  0.00000000000E+00  0.29619273920E+02  0.29619273920E+02  0.00000000000E+00 0.  1.
          1   -1    0    0  501    0  0.00000000000E+00 -0.00000000000E+00 -0.87271231084E+03  0.87271231084E+03  0.00000000000E+00 0. -1.
         23    2    1    2    0    0 -0.27800587526E+02  0.43104818897E+02 -0.91562644109E+02  0.13883331434E+03  0.90884945371E+02 0.  0.
         23    2    1    2    0    0  0.27800587526E+02 -0.43104818897E+02 -0.75153039281E+03  0.76349827042E+03  0.12450212665E+03 0.  0.
          5    1    3    3  502    0  0.15602022098E+02  0.24556248903E+02 -0.86198933348E+02  0.91097632044E+02  0.47000000000E+01 0. -1.
         -5    1    4    4    0  503  0.16287003464E+02 -0.83057391089E+02 -0.36523758389E+03  0.37494583526E+03  0.47000000000E+01 0. -1.
          5    1    4    4  503    0  0.11513584061E+02  0.39952572191E+02 -0.38629280892E+03  0.38855243516E+03  0.47000000000E+01 0. -1.
         -5    1    3    3    0  502 -0.43402609624E+02  0.18548569994E+02 -0.53637107616E+01  0.47735682295E+02  0.47000000000E+01 0.  1.
<mgrwt>
<rscale>  0 0.12634195E+03</rscale>
<asrwt>0</asrwt>
<pdfrwt beam="1">  1        1 0.13426344E+00 0.13465392E+03</pdfrwt>
<pdfrwt beam="2">  1       -1 0.45568112E-02 0.13465392E+03</pdfrwt>
<totfact> 0.39695435E+03</totfact>
</mgrwt>
</event>
<event>
 8    1  0.3177960E-004  0.3012550E+03  0.7546771E-02  0.1084792E+00
         -1   -1    0    0    0  501 -0.00000000000E+00  0.00000000000E+00  0.10635540256E+03  0.10635540256E+03  0.00000000000E+00 0.  1.
          1   -1    0    0  501    0  0.00000000000E+00 -0.00000000000E+00 -0.10927047809E+04  0.10927047809E+04  0.00000000000E+00 0. -1.
         23    2    1    2    0    0  0.13154739991E+02  0.28667780465E+03 -0.21112119461E+03  0.36786785864E+03  0.91637283585E+02 0.  0.
         23    2    1    2    0    0 -0.13154739991E+02 -0.28667780465E+03 -0.77522818373E+03  0.83119232481E+03  0.86860423175E+02 0.  0.
          5    1    4    4  502    0  0.69421599546E+01 -0.22949935868E+03 -0.68436476582E+03  0.72186935932E+03  0.47000000000E+01 0. -1.
         -5    1    4    4    0  502 -0.20096899946E+02 -0.57178445973E+02 -0.90863417907E+02  0.10932296550E+03  0.47000000000E+01 0.  1.
          5    1    3    3  503    0  0.43807514407E+02  0.77738973868E+02 -0.51729519805E+02  0.10324959853E+03  0.47000000000E+01 0. -1.
         -5    1    3    3    0  503 -0.30652774415E+02  0.20893883079E+03 -0.15939167481E+03  0.26461826012E+03  0.47000000000E+01 0.  1.
<mgrwt>
<rscale>  0 0.30089979E+03</rscale>
<asrwt>0</asrwt>
<pdfrwt beam="1">  1        1 0.16810842E+00 0.30125505E+03</pdfrwt>
<pdfrwt beam="2">  1       -1 0.16362370E-01 0.30125505E+03</pdfrwt>
<totfact> 0.38254301E+02</totfact>
</mgrwt>
</event>
<event>
 8    1  0.3177960E-004  0.9714763E+02  0.7546771E-02  0.1290814E+00
         -1   -1    0    0    0  501 -0.00000000000E+00  0.00000000000E+00  0.49680086701E+03  0.49680086701E+03  0.00000000000E+00 0.  1.
          1   -1    0    0  501    0  0.00000000000E+00 -0.00000000000E+00 -0.49694420790E+02  0.49694420790E+02  0.00000000000E+00 0. -1.
         23    2    1    2    0    0  0.11903335051E+02  0.13103479952E+02  0.44009856230E+03  0.44909522304E+03  0.87672026565E+02 0.  0.
         23    2    1    2    0    0 -0.11903335051E+02 -0.13103479952E+02  0.70078839106E+01  0.97400064756E+02  0.95521053205E+02 0.  0.
          5    1    3    3  502    0 -0.35062084700E+02  0.90692562385E+01  0.11771656984E+03  0.12325129616E+03  0.47000000000E+01 0. -1.
         -5    1    3    3    0  502  0.46965419751E+02  0.40342237131E+01  0.32238199247E+03  0.32584392688E+03  0.47000000000E+01 0.  1.
          5    1    4    4  503    0 -0.43514804970E+02 -0.13350853892E+02 -0.25021196748E+02  0.52152984937E+02  0.47000000000E+01 0. -1.
         -5    1    4    4    0  503  0.31611469919E+02  0.24737393989E+00  0.32029080659E+02  0.45247079819E+02  0.47000000000E+01 0.  1.
<mgrwt>
<rscale>  0 0.95160974E+02</rscale>
<asrwt>0</asrwt>
<pdfrwt beam="1">  1        1 0.76452958E-02 0.97147631E+02</pdfrwt>
<pdfrwt beam="2">  1       -1 0.76430899E-01 0.97147631E+02</pdfrwt>
<totfact> 0.15958635E+03</totfact>
</mgrwt>
</event>
<event>
 8    1  0.3177960E-004  0.1031816E+03  0.7546771E-02  0.1274808E+00
         -2   -1    0    0    0  501 -0.00000000000E+00  0.00000000000E+00  0.71385319270E+02  0.71385319270E+02  0.00000000000E+00 0.  1.
          2   -1    0    0  501    0  0.00000000000E+00 -0.00000000000E+00 -0.25129422465E+03  0.25129422465E+03  0.00000000000E+00 0. -1.
         23    2    1    2    0    0 -0.29660387975E+02  0.30749490336E+02  0.14944399734E+02  0.10219313340E+03  0.91623313950E+02 0.  0.
         23    2    1    2    0    0  0.29660387975E+02 -0.30749490336E+02 -0.19485330512E+03  0.22048641053E+03  0.93921120846E+02 0.  0.
          5    1    4    4  502    0 -0.29223681999E+01 -0.35501706070E+02 -0.18087172594E+03  0.18440602651E+03  0.47000000000E+01 0. -1.
         -5    1    4    4    0  502  0.32582756175E+02  0.47522157335E+01 -0.13981579179E+02  0.36080384015E+02  0.47000000000E+01 0.  1.
          5    1    3    3  503    0  0.16946832356E+02 -0.15322220951E+02 -0.17264989858E+02  0.29019570234E+02  0.47000000000E+01 0. -1.
         -5    1    3    3    0  503 -0.46607220332E+02  0.46071711287E+02  0.32209389592E+02  0.73173563162E+02  0.47000000000E+01 0.  1.
<mgrwt>
<rscale>  0 0.10265584E+03</rscale>
<asrwt>0</asrwt>
<pdfrwt beam="1">  1        2 0.38660650E-01 0.10318162E+03</pdfrwt>
<pdfrwt beam="2">  1       -2 0.10982357E-01 0.10318162E+03</pdfrwt>
<totfact> 0.70568869E+03</totfact>
</mgrwt>
</event>
<event>
 8    1  0.3177960E-004  0.1598707E+03  0.7546771E-02  0.1189022E+00
         -2   -1    0    0    0  501 -0.00000000000E+00  0.00000000000E+00  0.14224274727E+02  0.14224274727E+02  0.00000000000E+00 0.  1.
          2   -1    0    0  501    0  0.00000000000E+00 -0.00000000000E+00 -0.18248977580E+04  0.18248977580E+04  0.00000000000E+00 0. -1.
         23    2    1    2    0    0 -0.83081008628E+02 -0.10123128314E+03 -0.77590064228E+03  0.79207213478E+03  0.90588262625E+02 0.  0.
         23    2    1    2    0    0  0.83081008628E+02  0.10123128314E+03 -0.10347728410E+04  0.10470498979E+04  0.91697489874E+02 0.  0.
          5    1    3    3  502    0 -0.26039519491E+02  0.11949408932E+02 -0.90736418937E+02  0.95268214377E+02  0.47000000000E+01 0. -1.
         -5    1    4    4    0  503 -0.19006676384E+02  0.74505248507E+01 -0.11833801108E+03  0.12017794696E+03  0.47000000000E+01 0.  1.
          5    1    4    4  503    0  0.10208768501E+03  0.93780758289E+02 -0.91643482991E+03  0.92687195099E+03  0.47000000000E+01 0. -1.
         -5    1    3    3    0  502 -0.57041489137E+02 -0.11318069207E+03 -0.68516422335E+03  0.69680392041E+03  0.47000000000E+01 0.  1.
<mgrwt>
<rscale>  0 0.15971211E+03</rscale>
<asrwt>0</asrwt>
<pdfrwt beam="1">  1        2 0.28075352E+00 0.15987075E+03</pdfrwt>
<pdfrwt beam="2">  1       -2 0.21883498E-02 0.15987075E+03</pdfrwt>
<totfact> 0.61610163E+03</totfact>
</mgrwt>
</event>
<event>
 8    1  0.3177960E-004  0.9897830E+02  0.7546771E-02  0.1286147E+00
         -2   -1    0    0    0  501 -0.00000000000E+00  0.00000000000E+00  0.45597690802E+02  0.45597690802E+02  0.00000000000E+00 0.  1.
          2   -1    0    0  501    0  0.00000000000E+00 -0.00000000000E+00 -0.23534659402E+03  0.23534659402E+03  0.00000000000E+00 0. -1.
         23    2    1    2    0    0 -0.17054360478E+02 -0.13279281971E+02 -0.38133466161E+02  0.99880911306E+02  0.89748786403E+02 0.  0.
         23    2    1    2    0    0  0.17054360478E+02  0.13279281971E+02 -0.15161543706E+03  0.18106337351E+03  0.96589409015E+02 0.  0.
          5    1    3    3  502    0 -0.12256165743E+01  0.28857764675E+02  0.12629966736E+02  0.31872853304E+02  0.47000000000E+01 0. -1.
         -5    1    4    4    0  503  0.39178052959E+02 -0.61192912281E+01 -0.17359949846E+02  0.43541054391E+02  0.47000000000E+01 0.  1.
          5    1    4    4  503    0 -0.22123692481E+02  0.19398573199E+02 -0.13425548721E+03  0.13752231912E+03  0.47000000000E+01 0. -1.
         -5    1    3    3    0  502 -0.15828743904E+02 -0.42137046646E+02 -0.50763432898E+02  0.68008058002E+02  0.47000000000E+01 0.  1.
<mgrwt>
<rscale>  0 0.97268657E+02</rscale>
<asrwt>0</asrwt>
<pdfrwt beam="1">  1        2 0.36207167E-01 0.98978303E+02</pdfrwt>
<pdfrwt beam="2">  1       -2 0.70150295E-02 0.98978303E+02</pdfrwt>
<totfact> 0.15056844E+04</totfact>
</mgrwt>
</event>
<event>
 8    1  0.3177960E-004  0.9693305E+02  0.7546771E-02  0.1288002E+00
         -1   -1    0    0    0  501 -0.00000000000E+00  0.00000000000E+00  0.24124238778E+02  0.24124238778E+02  0.00000000000E+00 0.  1.
          1   -1    0    0  501    0  0.00000000000E+00 -0.00000000000E+00 -0.38438416871E+03  0.38438416871E+03  0.00000000000E+00 0. -1.
         23    2    1    2    0    0 -0.24190648656E+02 -0.88787515625E+01 -0.16401940390E+03  0.19052134186E+03  0.93445155761E+02 0.  0.
         23    2    1    2    0    0  0.24190648656E+02  0.88787515625E+01 -0.19624052603E+03  0.21798706563E+03  0.91345481626E+02 0.  0.
          5    1    4    4  502    0  0.37982532864E+02  0.36449298183E+02 -0.16727549999E+03  0.17542635788E+03  0.47000000000E+01 0. -1.
         -5    1    4    4    0  502 -0.13791884208E+02 -0.27570546621E+02 -0.28965026040E+02  0.42560707754E+02  0.47000000000E+01 0.  1.
          5    1    3    3  503    0 -0.21471824827E+02  0.28692555523E+02 -0.14223016371E+03  0.14675084829E+03  0.47000000000E+01 0. -1.
         -5    1    3    3    0  503 -0.27188238285E+01 -0.37571307086E+02 -0.21789240188E+02  0.43770493567E+02  0.47000000000E+01 0.  1.
<mgrwt>
<rscale>  0 0.96423428E+02</rscale>
<asrwt>0</asrwt>
<pdfrwt beam="1">  1        1 0.59136021E-01 0.96933053E+02</pdfrwt>
<pdfrwt beam="2">  1       -1 0.37114216E-02 0.96933053E+02</pdfrwt>
<totfact> 0.15999806E+04</totfact>
</mgrwt>
</event>
<event>
 8    1  0.3177960E-004  0.1027799E+03  0.7546771E-02  0.1275325E+00
          1   -1    0    0  501    0  0.00000000000E+00  0.00000000000E+00  0.78505425248E+03  0.78505425248E+03  0.00000000000E+00 0. -1.
         -1   -1    0    0    0  501 -0.00000000000E+00 -0.00000000000E+00 -0.25931779786E+02  0.25931779786E+02  0.00000000000E+00 0.  1.
         23    2    1    2    0    0  0.19678802215E+02  0.38763543239E+02  0.66158526208E+03  0.66929193947E+03  0.91470069935E+02 0.  0.
         23    2    1    2    0    0 -0.19678802215E+02 -0.38763543239E+02  0.97537210615E+02  0.14169409280E+03  0.93133457675E+02 0.  0.
          5    1    3    3  502    0 -0.23985545886E+01 -0.29090820909E+02  0.17495771411E+03  0.17743821643E+03  0.47000000000E+01 0. -1.
         -5    1    4    4    0  503  0.36909944736E+02 -0.23259970619E+02  0.39761115566E+02  0.59214918430E+02  0.47000000000E+01 0.  1.
          5    1    4    4  503    0 -0.56588746951E+02 -0.15503572620E+02  0.57776095049E+02  0.82479174369E+02  0.47000000000E+01 0. -1.
         -5    1    3    3    0  502  0.22077356804E+02  0.67854364147E+02  0.48662754797E+03  0.49185372304E+03  0.47000000000E+01 0.  1.
<mgrwt>
<rscale>  0 0.10240161E+03</rscale>
<asrwt>0</asrwt>
<pdfrwt beam="1">  1        1 0.12077756E+00 0.10277990E+03</pdfrwt>
<pdfrwt beam="2">  1       -1 0.39895052E-02 0.10277990E+03</pdfrwt>
<totfact> 0.55976294E+03</totfact>
</mgrwt>
</event>
<event>
 8    1  0.3177960E-004  0.1043003E+03  0.7546771E-02  0.1280021E+00
         -1   -1    0    0    0  501 -0.00000000000E+00  0.00000000000E+00  0.70911751770E+02  0.70911751770E+02  0.00000000000E+00 0.  1.
          1   -1    0    0  501    0  0.00000000000E+00 -0.00000000000E+00 -0.18548817410E+03  0.18548817410E+03  0.00000000000E+00 0. -1.
         23    2    1    2    0    0 -0.99005807571E+00 -0.14800877217E+02 -0.12319452249E+03  0.15174416564E+03  0.87346180538E+02 0.  0.
         23    2    1    2    0    0  0.99005807571E+00  0.14800877217E+02  0.86181001594E+01  0.10465576022E+03  0.10324006159E+03 0.  0.
          5    1    3    3  502    0  0.13060568040E+02  0.34397134759E+02 -0.47714381784E+02  0.60435863080E+02  0.47000000000E+01 0. -1.
         -5    1    4    4    0  503 -0.43091813527E+02 -0.13223972717E+02  0.22219844623E+02  0.50473649982E+02  0.47000000000E+01 0.  1.
          5    1    4    4  503    0  0.44081871602E+02  0.28024849933E+02 -0.13601744464E+02  0.54182110241E+02  0.47000000000E+01 0. -1.
         -5    1    3    3    0  502 -0.14050626116E+02 -0.49198011975E+02 -0.75480140702E+02  0.91308302564E+02  0.47000000000E+01 0.  1.
<mgrwt>
<rscale>  0 0.10013106E+03</rscale>
<asrwt>0</asrwt>
<pdfrwt beam="1">  1        1 0.28536642E-01 0.10430032E+03</pdfrwt>
<pdfrwt beam="2">  1       -1 0.10909500E-01 0.10430032E+03</pdfrwt>
<totfact> 0.79659381E+03</totfact>
</mgrwt>
</event>
<event>
 8    1  0.3177960E-004  0.3402215E+03  0.7546771E-02  0.1066942E+00
          1   -1    0    0  501    0  0.00000000000E+00  0.00000000000E+00  0.11832493505E+04  0.11832493505E+04  0.00000000000E+00 0. -1.
         -1   -1    0    0    0  501 -0.00000000000E+00 -0.00000000000E+00 -0.12160595013E+03  0.12160595013E+03  0.00000000000E+00 0.  1.
         23    2    1    2    0    0 -0.28201554296E+03  0.16389836148E+03  0.23982069736E+03  0.41625068235E+03  0.96722408497E+02 0.  0.
         23    2    1    2    0    0  0.28201554296E+03 -0.16389836148E+03  0.82182270300E+03  0.88860461826E+03  0.88488265097E+02 0.  0.
          5    1    3    3  502    0 -0.35349166934E+01  0.30495052857E+02  0.27517219388E+02  0.41493749501E+02  0.47000000000E+01 0. -1.
         -5    1    3    3    0  502 -0.27848062627E+03  0.13340330862E+03  0.21230347797E+03  0.37475693285E+03  0.47000000000E+01 0.  1.
          5    1    4    4  503    0  0.16728732900E+03 -0.10917025138E+03  0.60594021974E+03  0.63803513550E+03  0.47000000000E+01 0. -1.
         -5    1    4    4    0  503  0.11472821396E+03 -0.54728110097E+02  0.21588248326E+03  0.25056948276E+03  0.47000000000E+01 0.  1.
<mgrwt>
<rscale>  0 0.33965792E+03</rscale>
<asrwt>0</asrwt>
<pdfrwt beam="1">  1        1 0.18203835E+00 0.34022149E+03</pdfrwt>
<pdfrwt beam="2">  1       -1 0.18708608E-01 0.34022149E+03</pdfrwt>
<totfact> 0.26389181E+02</totfact>
</mgrwt>
</event>
<event>
 8    1  0.3177960E-004  0.1191941E+03  0.7546771E-02  0.1253807E+00
          2   -1    0    0  501    0  0.00000000000E+00  0.00000000000E+00  0.52153943152E+03  0.52153943152E+03  0.00000000000E+00 0. -1.
         -2   -1    0    0    0  501 -0.00000000000E+00 -0.00000000000E+00 -0.69480976648E+02  0.69480976648E+02  0.00000000000E+00 0.  1.
         23    2    1    2    0    0  0.13641100975E+02 -0.37717449121E+02 -0.22821658194E+02  0.10140998574E+03  0.90302112500E+02 0.  0.
         23    2    1    2    0    0 -0.13641100975E+02  0.37717449121E+02  0.47488011307E+03  0.48961042243E+03  0.11224329983E+03 0.  0.
          5    1    4    4  502    0 -0.38224277370E+02  0.24543703151E+02  0.44886389207E+03  0.45118108598E+03  0.47000000000E+01 0. -1.
         -5    1    3    3    0  503  0.51981996899E+02 -0.17158635056E+02 -0.15059936330E+02  0.56968749687E+02  0.47000000000E+01 0.  1.
          5    1    3    3  503    0 -0.38340895924E+02 -0.20558814066E+02 -0.77617218644E+01  0.44441236058E+02  0.47000000000E+01 0. -1.
         -5    1    4    4    0  502  0.24583176394E+02  0.13173745970E+02  0.26016221000E+02  0.38429336446E+02  0.47000000000E+01 0.  1.
<mgrwt>
<rscale>  0 0.11373391E+03</rscale>
<asrwt>0</asrwt>
<pdfrwt beam="1">  1        2 0.80236833E-01 0.11919414E+03</pdfrwt>
<pdfrwt beam="2">  1       -2 0.10689381E-01 0.11919414E+03</pdfrwt>
<totfact> 0.34186607E+03</totfact>
</mgrwt>
</event>
<event>
 8    1  0.3177960E-004  0.1591114E+03  0.7546771E-02  0.1189998E+00
          3   -1    0    0  501    0  0.00000000000E+00  0.00000000000E+00  0.17156402827E+02  0.17156402827E+02  0.00000000000E+00 0. -1.
         -3   -1    0    0    0  501 -0.00000000000E+00 -0.00000000000E+00 -0.14706444304E+04  0.14706444304E+04  0.00000000000E+00 0.  1.
         23    2    1    2    0    0 -0.73089718438E+02  0.10668299985E+03 -0.77059247649E+03  0.78684762869E+03  0.92698740840E+02 0.  0.
         23    2    1    2    0    0  0.73089718438E+02 -0.10668299985E+03 -0.68289555110E+03  0.70095320456E+03  0.90915850457E+02 0.  0.
          5    1    3    3  502    0 -0.92951767591E+02  0.88632843943E+02 -0.56351880898E+03  0.57798905716E+03  0.47000000000E+01 0. -1.
         -5    1    3    3    0  502  0.19862049154E+02  0.18050155904E+02 -0.20707366751E+03  0.20885857153E+03  0.47000000000E+01 0.  1.
          5    1    4    4  503    0  0.21629515324E+02 -0.99601640855E+01 -0.28509070845E+02  0.37441927330E+02  0.47000000000E+01 0. -1.
         -5    1    4    4    0  503  0.51460203114E+02 -0.96722835762E+02 -0.65438648026E+03  0.66351127723E+03  0.47000000000E+01 0.  1.
<mgrwt>
<rscale>  0 0.15885271E+03</rscale>
<asrwt>0</asrwt>
<pdfrwt beam="1">  1        3 0.26394472E-02 0.15911136E+03</pdfrwt>
<pdfrwt beam="2">  1       -3 0.22625294E+00 0.15911136E+03</pdfrwt>
<totfact> 0.16713379E+02</totfact>
</mgrwt>
</event>
<event>
 8    1  0.3177960E-004  0.9487992E+02  0.7546771E-02  0.1293373E+00
         -3   -1    0    0    0  501 -0.00000000000E+00  0.00000000000E+00  0.23650159626E+03  0.23650159626E+03  0.00000000000E+00 0.  1.
          3   -1    0    0  501    0  0.00000000000E+00 -0.00000000000E+00 -0.39375878442E+02  0.39375878442E+02  0.00000000000E+00 0. -1.
         23    2    1    2    0    0 -0.15629388154E+02 -0.24874217143E+01  0.61174804064E+02  0.11009191791E+03  0.90152141944E+02 0.  0.
         23    2    1    2    0    0  0.15629388154E+02  0.24874217143E+01  0.13595091375E+03  0.16578555679E+03  0.93550707361E+02 0.  0.
          5    1    4    4  502    0 -0.12773359163E+02 -0.36031428493E+02  0.28031640784E+02  0.47637017419E+02  0.47000000000E+01 0. -1.
         -5    1    4    4    0  502  0.28402747317E+02  0.38518850207E+02  0.10791927297E+03  0.11814853937E+03  0.47000000000E+01 0.  1.
          5    1    3    3  503    0  0.27516908654E+02 -0.28963475328E+02  0.32561400644E+02  0.51753241221E+02  0.47000000000E+01 0. -1.
         -5    1    3    3    0  503 -0.43146296807E+02  0.26476053614E+02  0.28613403420E+02  0.58338676694E+02  0.47000000000E+01 0.  1.
<mgrwt>
<rscale>  0 0.94031307E+02</rscale>
<asrwt>0</asrwt>
<pdfrwt beam="1">  1        3 0.60578276E-02 0.94879924E+02</pdfrwt>
<pdfrwt beam="2">  1       -3 0.36384860E-01 0.94879924E+02</pdfrwt>
<totfact> 0.26662250E+03</totfact>
</mgrwt>
</event>
<event>
 8    1  0.3177960E-004  0.1522896E+03  0.7546771E-02  0.1198121E+00
          1   -1    0    0  501    0  0.00000000000E+00  0.00000000000E+00  0.22173002074E+03  0.22173002074E+03  0.00000000000E+00 0. -1.
         -1   -1    0    0    0  501 -0.00000000000E+00 -0.00000000000E+00 -0.10515773700E+03  0.10515773700E+03  0.00000000000E+00 0.  1.
         23    2    1    2    0    0 -0.29152019076E+02  0.11641429227E+03  0.38214294288E+02  0.15562157144E+03  0.91409045213E+02 0.  0.
         23    2    1    2    0    0  0.29152019076E+02 -0.11641429227E+03  0.78357989450E+02  0.17126618630E+03  0.93755023324E+02 0.  0.
          5    1    4    4  502    0  0.57065673421E+02 -0.10614830981E+03  0.72090691224E+02  0.14051018653E+03  0.47000000000E+01 0. -1.
         -5    1    3    3    0  503  0.13902867039E+02  0.81263397292E+02  0.52738182325E+02  0.97981811201E+02  0.47000000000E+01 0.  1.
          5    1    3    3  503    0 -0.43054886114E+02  0.35150894983E+02 -0.14523888037E+02  0.57639760237E+02  0.47000000000E+01 0. -1.
         -5    1    4    4    0  502 -0.27913654345E+02 -0.10265982465E+02  0.62672982262E+01  0.30755999771E+02  0.47000000000E+01 0.  1.
<mgrwt>
<rscale>  0 0.15193013E+03</rscale>
<asrwt>0</asrwt>
<pdfrwt beam="1">  1        1 0.34112311E-01 0.15228963E+03</pdfrwt>
<pdfrwt beam="2">  1       -1 0.16178113E-01 0.15228963E+03</pdfrwt>
<totfact> 0.35503555E+03</totfact>
</mgrwt>
</event>
<event>
 8    1  0.3177960E-004  0.1002344E+03  0.7546771E-02  0.1280610E+00
          1   -1    0    0  501    0  0.00000000000E+00  0.00000000000E+00  0.17203687614E+03  0.17203687614E+03  0.00000000000E+00 0. -1.
         -1   -1    0    0    0  501 -0.00000000000E+00 -0.00000000000E+00 -0.73209533812E+02  0.73209533812E+02  0.00000000000E+00 0.  1.
         23    2    1    2    0    0 -0.14884494718E+02 -0.35001201756E+02  0.10648749123E+03  0.14624133617E+03  0.92737858014E+02 0.  0.
         23    2    1    2    0    0  0.14884494718E+02  0.35001201756E+02 -0.76601489019E+01  0.99005073781E+02  0.91086192399E+02 0.  0.
          5    1    3    3  502    0 -0.17634099291E+02 -0.12750305212E+02  0.11836311054E+03  0.12043856391E+03  0.47000000000E+01 0. -1.
         -5    1    3    3    0  502  0.27496045737E+01 -0.22250896545E+02 -0.11875619307E+02  0.25802772260E+02  0.47000000000E+01 0.  1.
          5    1    4    4  503    0 -0.98618134077E+01  0.19205500463E+02 -0.45678392708E+02  0.50741621694E+02  0.47000000000E+01 0. -1.
         -5    1    4    4    0  503  0.24746308125E+02  0.15795701294E+02  0.38018243806E+02  0.48263452087E+02  0.47000000000E+01 0.  1.
<mgrwt>
<rscale>  0 0.99850704E+02</rscale>
<asrwt>0</asrwt>
<pdfrwt beam="1">  1        1 0.26467212E-01 0.10023444E+03</pdfrwt>
<pdfrwt beam="2">  1       -1 0.11263005E-01 0.10023444E+03</pdfrwt>
<totfact> 0.83020964E+03</totfact>
</mgrwt>
</event>
<event>
 8    1  0.3177960E-004  0.1452124E+03  0.7546771E-02  0.1206634E+00
          1   -1    0    0  501    0  0.00000000000E+00  0.00000000000E+00  0.42561954289E+03  0.42561954289E+03  0.00000000000E+00 0. -1.
         -1   -1    0    0    0  501 -0.00000000000E+00 -0.00000000000E+00 -0.50816413974E+02  0.50816413974E+02  0.00000000000E+00 0.  1.
         23    2    1    2    0    0  0.78711658757E+02 -0.79509258670E+02  0.22771458545E+03  0.27007511941E+03  0.92571001182E+02 0.  0.
         23    2    1    2    0    0 -0.78711658757E+02  0.79509258670E+02  0.14708854346E+03  0.20636083745E+03  0.91828689289E+02 0.  0.
          5    1    4    4  502    0  0.26585589542E+01  0.51469005025E+02  0.87209576946E+02  0.10140871129E+03  0.47000000000E+01 0. -1.
         -5    1    3    3    0  503 -0.18104222152E+02 -0.13277120813E+02  0.15922853631E+02  0.27922608484E+02  0.47000000000E+01 0.  1.
          5    1    3    3  503    0  0.96815880909E+02 -0.66232137857E+02  0.21179173182E+03  0.24215251093E+03  0.47000000000E+01 0. -1.
         -5    1    4    4    0  502 -0.81370217711E+02  0.28040253645E+02  0.59878966518E+02  0.10495212616E+03  0.47000000000E+01 0.  1.
<mgrwt>
<rscale>  0 0.14509422E+03</rscale>
<asrwt>0</asrwt>
<pdfrwt beam="1">  1        1 0.65479927E-01 0.14521239E+03</pdfrwt>
<pdfrwt beam="2">  1       -1 0.78179101E-02 0.14521239E+03</pdfrwt>
<totfact> 0.48177794E+03</totfact>
</mgrwt>
</event>
<event>
 8    1  0.3177960E-004  0.9956005E+02  0.7546771E-02  0.1286042E+00
          1   -1    0    0  501    0  0.00000000000E+00  0.00000000000E+00  0.70335231367E+02  0.70335231367E+02  0.00000000000E+00 0. -1.
         -1   -1    0    0    0  501 -0.00000000000E+00 -0.00000000000E+00 -0.13031074568E+03  0.13031074568E+03  0.00000000000E+00 0.  1.
         23    2    1    2    0    0 -0.95503614361E+01 -0.17136433564E+02 -0.18269497256E+02  0.92703418894E+02  0.88742788923E+02 0.  0.
         23    2    1    2    0    0  0.95503614361E+01  0.17136433564E+02 -0.41706017052E+02  0.10794255815E+03  0.97608079801E+02 0.  0.
          5    1    4    4  502    0  0.36830571052E+01  0.49758982336E+02 -0.52681847919E+02  0.72711679481E+02  0.47000000000E+01 0. -1.
         -5    1    3    3    0  503  0.39201806523E+02 -0.77282156916E+01 -0.14199231890E+02  0.42663979405E+02  0.47000000000E+01 0.  1.
          5    1    3    3  503    0 -0.48752167959E+02 -0.94082178726E+01 -0.40702653665E+01  0.50039439489E+02  0.47000000000E+01 0. -1.
         -5    1    4    4    0  502  0.58673043309E+01 -0.32622548772E+02  0.10975830867E+02  0.35230878668E+02  0.47000000000E+01 0.  1.
<mgrwt>
<rscale>  0 0.97316689E+02</rscale>
<asrwt>0</asrwt>
<pdfrwt beam="1">  1        1 0.10820805E-01 0.99560052E+02</pdfrwt>
<pdfrwt beam="2">  1       -1 0.20047807E-01 0.99560052E+02</pdfrwt>
<totfact> 0.10563499E+04</totfact>
</mgrwt>
</event>
<event>
 8    1  0.3177960E-004  0.1729296E+03  0.7546771E-02  0.1174961E+00
         -1   -1    0    0    0  501 -0.00000000000E+00  0.00000000000E+00  0.49033302215E+02  0.49033302215E+02  0.00000000000E+00 0.  1.
          1   -1    0    0  501    0  0.00000000000E+00 -0.00000000000E+00 -0.73232803340E+03  0.73232803340E+03  0.00000000000E+00 0. -1.
         23    2    1    2    0    0  0.38819875733E+02 -0.14169982144E+03 -0.18026183648E+03  0.24943396610E+03  0.90206161675E+02 0.  0.
         23    2    1    2    0    0 -0.38819875733E+02  0.14169982144E+03 -0.50303289471E+03  0.53192736952E+03  0.91207516877E+02 0.  0.
          5    1    3    3  502    0  0.80461445102E+01 -0.84780887940E+02 -0.16026273941E+03  0.18154551783E+03  0.47000000000E+01 0. -1.
         -5    1    4    4    0  503 -0.64992830741E+02  0.80301200626E+02 -0.34877179822E+03  0.36378043942E+03  0.47000000000E+01 0.  1.
          5    1    4    4  503    0  0.26172955009E+02  0.61398620818E+02 -0.15426109648E+03  0.16814693009E+03  0.47000000000E+01 0. -1.
         -5    1    3    3    0  502  0.30773731222E+02 -0.56918933504E+02 -0.19999097067E+02  0.67888448267E+02  0.47000000000E+01 0.  1.
<mgrwt>
<rscale>  0 0.17279790E+03</rscale>
<asrwt>0</asrwt>
<pdfrwt beam="1">  1        1 0.11266586E+00 0.17292956E+03</pdfrwt>
<pdfrwt beam="2">  1       -1 0.75435846E-02 0.17292956E+03</pdfrwt>
<totfact> 0.24574035E+03</totfact>
</mgrwt>
</event>
<event>
 8    1  0.3177960E-004  0.1350836E+03  0.7546771E-02  0.1222596E+00
         -1   -1    0    0    0  501 -0.00000000000E+00  0.00000000000E+00  0.12419461948E+04  0.12419461948E+04  0.00000000000E+00 0.  1.
          1   -1    0    0  501    0  0.00000000000E+00 -0.00000000000E+00 -0.14273196980E+02  0.14273196980E+02  0.00000000000E+00 0. -1.
         23    2    1    2    0    0 -0.61983846536E+02  0.66058854956E+02  0.53563743719E+03  0.55240840702E+03  0.10020885428E+03 0.  0.
         23    2    1    2    0    0  0.61983846536E+02 -0.66058854956E+02  0.69203556066E+03  0.70381098479E+03  0.90724393328E+02 0.  0.
          5    1    3    3  502    0 -0.18583948161E+02 -0.26423198234E+02  0.14191158657E+03  0.14561777685E+03  0.47000000000E+01 0. -1.
         -5    1    3    3    0  502 -0.43399898374E+02  0.92482053189E+02  0.39372585062E+03  0.40679063016E+03  0.47000000000E+01 0.  1.
          5    1    4    4  503    0  0.20318811745E+02 -0.81039127280E+02  0.45301951664E+03  0.46068315220E+03  0.47000000000E+01 0. -1.
         -5    1    4    4    0  503  0.41665034791E+02  0.14980272324E+02  0.23901604402E+03  0.24312783259E+03  0.47000000000E+01 0.  1.
<mgrwt>
<rscale>  0 0.13333028E+03</rscale>
<asrwt>0</asrwt>
<pdfrwt beam="1">  1        1 0.21958774E-02 0.13508362E+03</pdfrwt>
<pdfrwt beam="2">  1       -1 0.19106856E+00 0.13508362E+03</pdfrwt>
<totfact> 0.99718743E+02</totfact>
</mgrwt>
</event>
<event>
 8    1  0.3177960E-004  0.1035449E+03  0.7546771E-02  0.1273931E+00
         -3   -1    0    0    0  501 -0.00000000000E+00  0.00000000000E+00  0.41265991417E+02  0.41265991417E+02  0.00000000000E+00 0.  1.
          3   -1    0    0  501    0  0.00000000000E+00 -0.00000000000E+00 -0.31349352607E+03  0.31349352607E+03  0.00000000000E+00 0. -1.
         23    2    1    2    0    0  0.38728457304E+02 -0.27963897154E+02 -0.58707569291E+02  0.11745733383E+03  0.89820786180E+02 0.  0.
         23    2    1    2    0    0 -0.38728457304E+02  0.27963897154E+02 -0.21351996537E+03  0.23730218366E+03  0.91867719081E+02 0.  0.
          5    1    3    3  502    0  0.47780224871E+02  0.11475676493E+02 -0.43857969276E+01  0.49557706307E+02  0.47000000000E+01 0. -1.
         -5    1    4    4    0  503 -0.55591792570E+02  0.43087209341E+02 -0.10584428343E+03  0.12716940412E+03  0.47000000000E+01 0.  1.
          5    1    4    4  503    0  0.16863335265E+02 -0.15123312187E+02 -0.10767568193E+03  0.11013277953E+03  0.47000000000E+01 0. -1.
         -5    1    3    3    0  502 -0.90517675668E+01 -0.39439573647E+02 -0.54321772363E+02  0.67899627527E+02  0.47000000000E+01 0.  1.
<mgrwt>
<rscale>  0 0.10308899E+03</rscale>
<asrwt>0</asrwt>
<pdfrwt beam="1">  1        3 0.48229773E-01 0.10354492E+03</pdfrwt>
<pdfrwt beam="2">  1       -3 0.63486141E-02 0.10354492E+03</pdfrwt>
<totfact> 0.14632150E+03</totfact>
</mgrwt>
</event>
<event>
 8    1  0.3177960E-004  0.9925659E+02  0.7546771E-02  0.1283511E+00
          4   -1    0    0  501    0  0.00000000000E+00  0.00000000000E+00  0.27249216422E+03  0.27249216422E+03  0.00000000000E+00 0. -1.
         -4   -1    0    0    0  501 -0.00000000000E+00 -0.00000000000E+00 -0.57998716074E+02  0.57998716074E+02  0.00000000000E+00 0.  1.
         23    2    1    2    0    0  0.18112721971E+02 -0.26060594146E+02  0.23105191886E+01  0.96240018937E+02  0.90827184706E+02 0.  0.
         23    2    1    2    0    0 -0.18112721971E+02  0.26060594146E+02  0.21218292896E+03  0.23425086136E+03  0.94045975147E+02 0.  0.
          5    1    3    3  502    0  0.36550829604E+02  0.23037662719E+02 -0.10913759243E+01  0.43473878936E+02  0.47000000000E+01 0. -1.
         -5    1    4    4    0  503  0.65103539345E+01 -0.28765473144E+02  0.29910694640E+02  0.42267916999E+02  0.47000000000E+01 0.  1.
          5    1    4    4  503    0 -0.24623075906E+02  0.54826067290E+02  0.18227223432E+03  0.19198294436E+03  0.47000000000E+01 0. -1.
         -5    1    3    3    0  502 -0.18438107633E+02 -0.49098256865E+02  0.34018951128E+01  0.52766140001E+02  0.47000000000E+01 0.  1.
<mgrwt>
<rscale>  0 0.98486599E+02</rscale>
<asrwt>0</asrwt>
<pdfrwt beam="1">  1        4 0.41921871E-01 0.99256590E+02</pdfrwt>
<pdfrwt beam="2">  1       -4 0.89228795E-02 0.99256590E+02</pdfrwt>
<totfact> 0.78675254E+02</totfact>
</mgrwt>
</event>
<event>
 8    1  0.3177960E-004  0.2604424E+03  0.7546771E-02  0.1106948E+00
         -2   -1    0    0    0  501 -0.00000000000E+00  0.00000000000E+00  0.10035236424E+03  0.10035236424E+03  0.00000000000E+00 0.  1.
          2   -1    0    0  501    0  0.00000000000E+00 -0.00000000000E+00 -0.80254808676E+03  0.80254808676E+03  0.00000000000E+00 0. -1.
         23    2    1    2    0    0  0.18611248453E+03  0.15747512651E+03 -0.17118469200E+03  0.31166398646E+03  0.91618607901E+02 0.  0.
         23    2    1    2    0    0 -0.18611248453E+03 -0.15747512651E+03 -0.53101103051E+03  0.59123646454E+03  0.90286046066E+02 0.  0.
          5    1    3    3  502    0  0.28061243155E+02  0.68891369070E+02 -0.77929945988E+02  0.10783608200E+03  0.47000000000E+01 0. -1.
         -5    1    3    3    0  502  0.15805124137E+03  0.88583757436E+02 -0.93254746012E+02  0.20382790445E+03  0.47000000000E+01 0.  1.
          5    1    4    4  503    0 -0.97773736915E+02 -0.31241727388E+02 -0.16916488936E+03  0.19792574101E+03  0.47000000000E+01 0. -1.
         -5    1    4    4    0  503 -0.88338747612E+02 -0.12623339912E+03 -0.36184614115E+03  0.39331072353E+03  0.47000000000E+01 0.  1.
<mgrwt>
<rscale>  0 0.26032587E+03</rscale>
<asrwt>0</asrwt>
<pdfrwt beam="1">  1        2 0.12346894E+00 0.26044240E+03</pdfrwt>
<pdfrwt beam="2">  1       -2 0.15438825E-01 0.26044240E+03</pdfrwt>
<totfact> 0.11540850E+03</totfact>
</mgrwt>
</event>
<event>
 8    1  0.3177960E-004  0.1098079E+03  0.7546771E-02  0.1266843E+00
          1   -1    0    0  501    0  0.00000000000E+00  0.00000000000E+00  0.82278619944E+03  0.82278619944E+03  0.00000000000E+00 0. -1.
         -1   -1    0    0    0  501 -0.00000000000E+00 -0.00000000000E+00 -0.13691413318E+02  0.13691413318E+02  0.00000000000E+00 0.  1.
         23    2    1    2    0    0 -0.35411306764E+02  0.10205376050E+02  0.34002420053E+03  0.35731531996E+03  0.10343921202E+03 0.  0.
         23    2    1    2    0    0  0.35411306764E+02 -0.10205376050E+02  0.46907058560E+03  0.47916229280E+03  0.90615551782E+02 0.  0.
          5    1    4    4  502    0  0.47223661568E+01  0.38596958747E+02  0.22041481751E+03  0.22386783544E+03  0.47000000000E+01 0. -1.
         -5    1    4    4    0  502  0.30688940607E+02 -0.48802334797E+02  0.24865576809E+03  0.25529445737E+03  0.47000000000E+01 0.  1.
          5    1    3    3  503    0 -0.50228541841E+02  0.38922827323E+02  0.13008815605E+03  0.14485479367E+03  0.47000000000E+01 0. -1.
         -5    1    3    3    0  503  0.14817235076E+02 -0.28717451273E+02  0.20993604447E+03  0.21246052629E+03  0.47000000000E+01 0.  1.
<mgrwt>
<rscale>  0 0.10668055E+03</rscale>
<asrwt>0</asrwt>
<pdfrwt beam="1">  1        1 0.12658245E+00 0.10980793E+03</pdfrwt>
<pdfrwt beam="2">  1       -1 0.21063719E-02 0.10980793E+03</pdfrwt>
<totfact> 0.13195210E+04</totfact>
</mgrwt>
</event>
<event>
 8    1  0.3177960E-004  0.1080876E+03  0.7546771E-02  0.1264228E+00
          2   -1    0    0  501    0  0.00000000000E+00  0.00000000000E+00  0.14946228420E+03  0.14946228420E+03  0.00000000000E+00 0. -1.
         -2   -1    0    0    0  501 -0.00000000000E+00 -0.00000000000E+00 -0.97154570517E+02  0.97154570517E+02  0.00000000000E+00 0.  1.
         23    2    1    2    0    0  0.33946143656E+02  0.48004909984E+02  0.80814917902E+02  0.13483319692E+03  0.90510375010E+02 0.  0.
         23    2    1    2    0    0 -0.33946143656E+02 -0.48004909984E+02 -0.28507204222E+02  0.11178365779E+03  0.90697923931E+02 0.  0.
          5    1    4    4  502    0  0.18107900016E+01  0.25590013121E+02 -0.83458124763E+01  0.27383760112E+02  0.47000000000E+01 0. -1.
         -5    1    3    3    0  503  0.26754301658E+02 -0.13804946192E+02  0.62926702264E+02  0.69915871263E+02  0.47000000000E+01 0.  1.
          5    1    3    3  503    0  0.71918419983E+01  0.61809856176E+02  0.17888215638E+02  0.64917325658E+02  0.47000000000E+01 0. -1.
         -5    1    4    4    0  502 -0.35756933658E+02 -0.73594923105E+02 -0.20161391746E+02  0.84399897681E+02  0.47000000000E+01 0.  1.
<mgrwt>
<rscale>  0 0.10804823E+03</rscale>
<asrwt>0</asrwt>
<pdfrwt beam="1">  1        2 0.22994198E-01 0.10808758E+03</pdfrwt>
<pdfrwt beam="2">  1       -2 0.14946857E-01 0.10808758E+03</pdfrwt>
<totfact> 0.75754563E+03</totfact>
</mgrwt>
</event>
<event>
 8    1  0.3177960E-004  0.2992671E+03  0.7546771E-02  0.1085680E+00
         -2   -1    0    0    0  501 -0.00000000000E+00  0.00000000000E+00  0.11493613269E+03  0.11493613269E+03  0.00000000000E+00 0.  1.
          2   -1    0    0  501    0  0.00000000000E+00 -0.00000000000E+00 -0.83324135731E+03  0.83324135731E+03  0.00000000000E+00 0. -1.
         23    2    1    2    0    0 -0.75167899820E+02  0.27527098505E+03 -0.23709265356E+03  0.38180327577E+03  0.90202475833E+02 0.  0.
         23    2    1    2    0    0  0.75167899820E+02 -0.27527098505E+03 -0.48121257105E+03  0.56637421423E+03  0.88260317415E+02 0.  0.
          5    1    3    3  502    0 -0.53801832676E+02  0.18091047181E+03 -0.20746051840E+03  0.28050881039E+03  0.47000000000E+01 0. -1.
         -5    1    4    4    0  503  0.33017785408E+02 -0.23293220250E+03 -0.34549776514E+03  0.41801720160E+03  0.47000000000E+01 0.  1.
          5    1    4    4  503    0  0.42150114413E+02 -0.42338782547E+02 -0.13571480591E+03  0.14835701263E+03  0.47000000000E+01 0. -1.
         -5    1    3    3    0  502 -0.21366067144E+02  0.94360513237E+02 -0.29632135160E+02  0.10129446539E+03  0.47000000000E+01 0.  1.
<mgrwt>
<rscale>  0 0.29912211E+03</rscale>
<asrwt>0</asrwt>
<pdfrwt beam="1">  1        2 0.12819097E+00 0.29926713E+03</pdfrwt>
<pdfrwt beam="2">  1       -2 0.17682483E-01 0.29926713E+03</pdfrwt>
<totfact> 0.87497893E+02</totfact>
</mgrwt>
</event>
<event>
 8    1  0.3177960E-004  0.1019201E+03  0.7546771E-02  0.1276797E+00
          1   -1    0    0  501    0  0.00000000000E+00  0.00000000000E+00  0.68786573645E+02  0.68786573645E+02  0.00000000000E+00 0. -1.
         -1   -1    0    0    0  501 -0.00000000000E+00 -0.00000000000E+00 -0.19228787779E+03  0.19228787779E+03  0.00000000000E+00 0.  1.
         23    2    1    2    0    0 -0.14806961780E+02  0.40156453780E+02 -0.33009664885E-01  0.10097408322E+03  0.91454783883E+02 0.  0.
         23    2    1    2    0    0  0.14806961780E+02 -0.40156453780E+02 -0.12346829448E+03  0.16010036821E+03  0.92498223029E+02 0.  0.
          5    1    4    4  502    0 -0.21345804879E+02  0.14709452151E+02 -0.71486649521E+02  0.76186891446E+02  0.47000000000E+01 0. -1.
         -5    1    3    3    0  503 -0.29622066884E+01  0.69083375524E+02  0.15681716481E+01  0.69324141571E+02  0.47000000000E+01 0.  1.
          5    1    3    3  503    0 -0.11844755091E+02 -0.28926921744E+02 -0.16011813130E+01  0.31649941648E+02  0.47000000000E+01 0. -1.
         -5    1    4    4    0  502  0.36152766659E+02 -0.54865905931E+02 -0.51981644956E+02  0.83913476767E+02  0.47000000000E+01 0.  1.
<mgrwt>
<rscale>  0 0.10168277E+03</rscale>
<asrwt>0</asrwt>
<pdfrwt beam="1">  1        1 0.10582550E-01 0.10192011E+03</pdfrwt>
<pdfrwt beam="2">  1       -1 0.29582750E-01 0.10192011E+03</pdfrwt>
<totfact> 0.57882351E+03</totfact>
</mgrwt>
</event>
<event>
 8    1  0.3177960E-004  0.9963382E+02  0.7546771E-02  0.1281898E+00
         -1   -1    0    0    0  501 -0.00000000000E+00  0.00000000000E+00  0.31678045835E+02  0.31678045835E+02  0.00000000000E+00 0.  1.
          1   -1    0    0  501    0  0.00000000000E+00 -0.00000000000E+00 -0.78448186540E+03  0.78448186540E+03  0.00000000000E+00 0. -1.
         23    2    1    2    0    0 -0.98487420524E+01 -0.33890351236E+02 -0.57364239356E+02  0.11361944383E+03  0.91505018620E+02 0.  0.
         23    2    1    2    0    0  0.98487420524E+01  0.33890351236E+02 -0.69543958021E+03  0.70254046740E+03  0.93173735531E+02 0.  0.
          5    1    3    3  502    0 -0.44354826378E+02  0.60285905537E+01 -0.28806943356E+02  0.53438043682E+02  0.47000000000E+01 0. -1.
         -5    1    3    3    0  502  0.34506084325E+02 -0.39918941789E+02 -0.28557296000E+02  0.60181400149E+02  0.47000000000E+01 0.  1.
          5    1    4    4  503    0 -0.22216771674E+00  0.64240979976E+02 -0.53610055320E+03  0.53995633713E+03  0.47000000000E+01 0. -1.
         -5    1    4    4    0  503  0.10070909769E+02 -0.30350628741E+02 -0.15933902700E+03  0.16258413027E+03  0.47000000000E+01 0.  1.
<mgrwt>
<rscale>  0 0.99241831E+02</rscale>
<asrwt>0</asrwt>
<pdfrwt beam="1">  1        1 0.12068952E+00 0.99633823E+02</pdfrwt>
<pdfrwt beam="2">  1       -1 0.48735455E-02 0.99633823E+02</pdfrwt>
<totfact> 0.41759613E+03</totfact>
</mgrwt>
</event>
<event>
 8    1  0.3177960E-004  0.9671145E+02  0.7546771E-02  0.1289942E+00
          2   -1    0    0  501    0  0.00000000000E+00  0.00000000000E+00  0.11825055607E+03  0.11825055607E+03  0.00000000000E+00 0. -1.
         -2   -1    0    0    0  501 -0.00000000000E+00 -0.00000000000E+00 -0.12648466840E+03  0.12648466840E+03  0.00000000000E+00 0.  1.
         23    2    1    2    0    0 -0.15235824907E+02 -0.91780212240E+01  0.73689127250E+02  0.11798932669E+03  0.90415857594E+02 0.  0.
         23    2    1    2    0    0  0.15235824907E+02  0.91780212240E+01 -0.81923239585E+02  0.12674589778E+03  0.95061764059E+02 0.  0.
          5    1    3    3  502    0  0.14369668531E+02  0.35363322616E+02  0.30865161403E+02  0.49313285721E+02  0.47000000000E+01 0.  1.
         -5    1    3    3    0  502 -0.29605493438E+02 -0.44541343840E+02  0.42823965847E+02  0.68676040973E+02  0.47000000000E+01 0. -1.
          5    1    4    4  503    0  0.52066308781E+02  0.79364635980E+01 -0.24319052074E+02  0.58201325228E+02  0.47000000000E+01 0. -1.
         -5    1    4    4    0  503 -0.36830483874E+02  0.12415576260E+01 -0.57604187511E+02  0.68544572553E+02  0.47000000000E+01 0.  1.
<mgrwt>
<rscale>  0 0.95550026E+02</rscale>
<asrwt>0</asrwt>
<pdfrwt beam="1">  1        2 0.18192393E-01 0.96711454E+02</pdfrwt>
<pdfrwt beam="2">  1       -2 0.19459180E-01 0.96711454E+02</pdfrwt>
<totfact> 0.63177362E+03</totfact>
</mgrwt>
</event>
<event>
 8    1  0.3177960E-004  0.1040534E+03  0.7546771E-02  0.1272285E+00
          2   -1    0    0  501    0  0.00000000000E+00  0.00000000000E+00  0.33927445044E+02  0.33927445044E+02  0.00000000000E+00 0. -1.
         -2   -1    0    0    0  501 -0.00000000000E+00 -0.00000000000E+00 -0.41973033841E+03  0.41973033841E+03  0.00000000000E+00 0.  1.
         23    2    1    2    0    0  0.43669092441E+02 -0.17047362117E+02 -0.30451920016E+03  0.32161937868E+03  0.92246838878E+02 0.  0.
         23    2    1    2    0    0 -0.43669092441E+02  0.17047362117E+02 -0.81283693203E+02  0.13203840478E+03  0.92895098715E+02 0.  0.
          5    1    3    3  502    0  0.10462251699E+02  0.27738961502E+02 -0.33911559978E+02  0.45287885753E+02  0.47000000000E+01 0. -1.
         -5    1    4    4    0  503 -0.10543010098E+02 -0.23669352617E+02 -0.74360408056E+02  0.78885699601E+02  0.47000000000E+01 0.  1.
          5    1    4    4  503    0 -0.33126082343E+02  0.40716714734E+02 -0.69232851465E+01  0.53152705175E+02  0.47000000000E+01 0. -1.
         -5    1    3    3    0  502  0.33206840742E+02 -0.44786323619E+02 -0.27060764018E+03  0.27633149292E+03  0.47000000000E+01 0.  1.
<mgrwt>
<rscale>  0 0.10390847E+03</rscale>
<asrwt>0</asrwt>
<pdfrwt beam="1">  1        2 0.52196067E-02 0.10405336E+03</pdfrwt>
<pdfrwt beam="2">  1       -2 0.64573901E-01 0.10405336E+03</pdfrwt>
<totfact> 0.31513776E+03</totfact>
</mgrwt>
</event>
<event>
 8    1  0.3177960E-004  0.9741484E+02  0.7546771E-02  0.1287643E+00
         -1   -1    0    0    0  501 -0.00000000000E+00  0.00000000000E+00  0.30500900207E+03  0.30500900207E+03  0.00000000000E+00 0.  1.
          1   -1    0    0  501    0  0.00000000000E+00 -0.00000000000E+00 -0.22746453847E+03  0.22746453847E+03  0.00000000000E+00 0. -1.
         23    2    1    2    0    0  0.21459492989E+02 -0.67230933554E+01  0.28669123569E+03  0.30175287879E+03  0.91417861570E+02 0.  0.
         23    2    1    2    0    0 -0.21459492989E+02  0.67230933554E+01 -0.20914677209E+03  0.23072066174E+03  0.94783657112E+02 0.  0.
          5    1    4    4  502    0 -0.40632294219E+02  0.13318537503E+02 -0.20504305612E+03  0.20950682958E+03  0.47000000000E+01 0. -1.
         -5    1    3    3    0  503  0.48585311515E+02  0.26475992082E+01  0.25099090527E+03  0.25570699405E+03  0.47000000000E+01 0.  1.
          5    1    3    3  503    0 -0.27125818526E+02 -0.93706925637E+01  0.35700330421E+02  0.46045884745E+02  0.47000000000E+01 0. -1.
         -5    1    4    4    0  502  0.19172801230E+02 -0.65954441475E+01 -0.41037159684E+01  0.21213832168E+02  0.47000000000E+01 0.  1.
<mgrwt>
<rscale>  0 0.96586415E+02</rscale>
<asrwt>0</asrwt>
<pdfrwt beam="1">  1        1 0.34994544E-01 0.97414842E+02</pdfrwt>
<pdfrwt beam="2">  1       -1 0.46924462E-01 0.97414842E+02</pdfrwt>
<totfact> 0.57594031E+02</totfact>
</mgrwt>
</event>
<event>
 8    1  0.3177960E-004  0.9470025E+02  0.7546771E-02  0.1292501E+00
         -1   -1    0    0    0  501 -0.00000000000E+00  0.00000000000E+00  0.14321283436E+02  0.14321283436E+02  0.00000000000E+00 0.  1.
          1   -1    0    0  501    0  0.00000000000E+00 -0.00000000000E+00 -0.75577109654E+03  0.75577109654E+03  0.00000000000E+00 0. -1.
         23    2    1    2    0    0  0.19039635474E+02  0.12173466295E+01 -0.20858405169E+03  0.22907519400E+03  0.92758548047E+02 0.  0.
         23    2    1    2    0    0 -0.19039635474E+02 -0.12173466295E+01 -0.53286576142E+03  0.54101718598E+03  0.91595230117E+02 0.  0.
          5    1    4    4  502    0 -0.51069969010E+02  0.31293753313E+01 -0.43077211860E+03  0.43382559040E+03  0.47000000000E+01 0. -1.
         -5    1    3    3    0  503 -0.76970709506E+00 -0.32611330386E+02 -0.25196299971E+02  0.41485357065E+02  0.47000000000E+01 0.  1.
          5    1    3    3  503    0  0.19809342569E+02  0.33828677015E+02 -0.18338775171E+03  0.18758983693E+03  0.47000000000E+01 0. -1.
         -5    1    4    4    0  502  0.32030333536E+02 -0.43467219608E+01 -0.10209364282E+03  0.10719159558E+03  0.47000000000E+01 0.  1.
<mgrwt>
<rscale>  0 0.94414166E+02</rscale>
<asrwt>0</asrwt>
<pdfrwt beam="1">  1        1 0.11627246E+00 0.94700253E+02</pdfrwt>
<pdfrwt beam="2">  1       -1 0.22032746E-02 0.94700253E+02</pdfrwt>
<totfact> 0.13866796E+04</totfact>
</mgrwt>
</event>
<event>
 8    1  0.3177960E-004  0.9935258E+02  0.7546771E-02  0.1284010E+00
         -1   -1    0    0    0  501 -0.00000000000E+00  0.00000000000E+00  0.52388547676E+03  0.52388547676E+03  0.00000000000E+00 0.  1.
          1   -1    0    0  501    0  0.00000000000E+00 -0.00000000000E+00 -0.26835479744E+02  0.26835479744E+02  0.00000000000E+00 0. -1.
         23    2    1    2    0    0 -0.58646616827E+01  0.32598921365E+02  0.40993007104E+03  0.42179805278E+03  0.93668832892E+02 0.  0.
         23    2    1    2    0    0  0.58646616827E+01 -0.32598921365E+02  0.87119925981E+02  0.12892290373E+03  0.89073843927E+02 0.  0.
          5    1    3    3  502    0 -0.40879873615E+02  0.44247302992E+01  0.94739512452E+02  0.10338475480E+03  0.47000000000E+01 0. -1.
         -5    1    3    3    0  502  0.35015211932E+02  0.28174191066E+02  0.31519055859E+03  0.31841329798E+03  0.47000000000E+01 0.  1.
          5    1    4    4  503    0 -0.99645024660E+01 -0.60951642909E+02  0.52140668167E+02  0.80963778071E+02  0.47000000000E+01 0. -1.
         -5    1    4    4    0  503  0.15829164149E+02  0.28352721543E+02  0.34979257814E+02  0.47959125657E+02  0.47000000000E+01 0.  1.
<mgrwt>
<rscale>  0 0.98254563E+02</rscale>
<asrwt>0</asrwt>
<pdfrwt beam="1">  1        1 0.41285357E-02 0.99352575E+02</pdfrwt>
<pdfrwt beam="2">  1       -1 0.80597758E-01 0.99352575E+02</pdfrwt>
<totfact> 0.32932331E+03</totfact>
</mgrwt>
</event>
<event>
 8    1  0.3177960E-004  0.8632632E+02  0.7546771E-02  0.1326476E+00
         -3   -1    0    0    0  501 -0.00000000000E+00  0.00000000000E+00  0.23822411678E+03  0.23822411678E+03  0.00000000000E+00 0.  1.
          3   -1    0    0  501    0  0.00000000000E+00 -0.00000000000E+00 -0.78017567969E+02  0.78017567969E+02  0.00000000000E+00 0. -1.
         23    2    1    2    0    0  0.30401195030E+01 -0.20545024579E+02  0.21390394809E+03  0.23066671361E+03  0.83790771561E+02 0.  0.
         23    2    1    2    0    0 -0.30401195030E+01  0.20545024579E+02 -0.53697399275E+02  0.85574971140E+02  0.63311331017E+02 0.  0.
          5    1    3    3  502    0  0.77109795787E+01 -0.52515682991E+02  0.12177365235E+03  0.13292203946E+03  0.47000000000E+01 0. -1.
         -5    1    4    4    0  503 -0.10801573260E+02 -0.19850404139E+02 -0.93473215371E+01  0.24903312014E+02  0.47000000000E+01 0.  1.
          5    1    4    4  503    0  0.77614537567E+01  0.40395428718E+02 -0.44350077738E+02  0.60671659126E+02  0.47000000000E+01 0. -1.
         -5    1    3    3    0  502 -0.46708600757E+01  0.31970658412E+02  0.92130295734E+02  0.97744674152E+02  0.47000000000E+01 0.  1.
<mgrwt>
<rscale>  0 0.80914471E+02</rscale>
<asrwt>0</asrwt>
<pdfrwt beam="1">  1        3 0.12002703E-01 0.86326321E+02</pdfrwt>
<pdfrwt beam="2">  1       -3 0.36649864E-01 0.86326321E+02</pdfrwt>
<totfact> 0.85307760E+02</totfact>
</mgrwt>
</event>
<event>
 8    1  0.3177960E-004  0.1009282E+03  0.7546771E-02  0.1278929E+00
          1   -1    0    0  501    0  0.00000000000E+00  0.00000000000E+00  0.69938871463E+03  0.69938871463E+03  0.00000000000E+00 0. -1.
         -1   -1    0    0    0  501 -0.00000000000E+00 -0.00000000000E+00 -0.15050610940E+02  0.15050610940E+02  0.00000000000E+00 0.  1.
         23    2    1    2    0    0 -0.73851858945E+01 -0.37934604409E+02  0.41425396779E+03  0.42611322256E+03  0.92046474283E+02 0.  0.
         23    2    1    2    0    0  0.73851858945E+01  0.37934604409E+02  0.27008413590E+03  0.28832610301E+03  0.93235862358E+02 0.  0.
          5    1    3    3  502    0  0.24630988429E+02  0.12785854292E+02  0.24247161427E+03  0.24409985126E+03  0.47000000000E+01 0. -1.
         -5    1    3    3    0  502 -0.32016174323E+02 -0.50720458701E+02  0.17178235353E+03  0.18201337130E+03  0.47000000000E+01 0.  1.
          5    1    4    4  503    0 -0.18303762967E+01  0.68036861514E+02  0.20097630932E+03  0.21224026883E+03  0.47000000000E+01 0. -1.
         -5    1    4    4    0  503  0.92155621912E+01 -0.30102257105E+02  0.69107826575E+02  0.76085834182E+02  0.47000000000E+01 0.  1.
<mgrwt>
<rscale>  0 0.10065265E+03</rscale>
<asrwt>0</asrwt>
<pdfrwt beam="1">  1        1 0.10759824E+00 0.10092820E+03</pdfrwt>
<pdfrwt beam="2">  1       -1 0.23154791E-02 0.10092820E+03</pdfrwt>
<totfact> 0.14504347E+04</totfact>
</mgrwt>
</event>
<event>
 8    1  0.3177960E-004  0.9298484E+02  0.7546771E-02  0.1296506E+00
          2   -1    0    0  501    0  0.00000000000E+00  0.00000000000E+00  0.24342167831E+03  0.24342167831E+03  0.00000000000E+00 0. -1.
         -2   -1    0    0    0  501 -0.00000000000E+00 -0.00000000000E+00 -0.36147280447E+02  0.36147280447E+02  0.00000000000E+00 0.  1.
         23    2    1    2    0    0  0.16881189155E+02 -0.47305725103E+00  0.78559430977E+02  0.12078066333E+03  0.90173089714E+02 0.  0.
         23    2    1    2    0    0 -0.16881189155E+02  0.47305725103E+00  0.12871496688E+03  0.15878829542E+03  0.91438404041E+02 0.  0.
          5    1    4    4  502    0  0.23302318649E+02  0.33142719268E+02  0.61744799969E+02  0.73999650121E+02  0.47000000000E+01 0. -1.
         -5    1    3    3    0  503 -0.33302478827E+02  0.16971837066E+02  0.25124820956E+02  0.45281839379E+02  0.47000000000E+01 0.  1.
          5    1    3    3  503    0  0.50183667983E+02 -0.17444894317E+02  0.53434610021E+02  0.75498823951E+02  0.47000000000E+01 0. -1.
         -5    1    4    4    0  502 -0.40183507804E+02 -0.32669662017E+02  0.66970166915E+02  0.84788645303E+02  0.47000000000E+01 0.  1.
<mgrwt>
<rscale>  0 0.92672270E+02</rscale>
<asrwt>0</asrwt>
<pdfrwt beam="1">  1        2 0.37449488E-01 0.92984838E+02</pdfrwt>
<pdfrwt beam="2">  1       -2 0.55611202E-02 0.92984838E+02</pdfrwt>
<totfact> 0.20486391E+04</totfact>
</mgrwt>
</event>
<event>
 8    1  0.3177960E-004  0.1059442E+03  0.7546771E-02  0.1269629E+00
         -2   -1    0    0    0  501 -0.00000000000E+00  0.00000000000E+00  0.29781333258E+02  0.29781333258E+02  0.00000000000E+00 0.  1.
          2   -1    0    0  501    0  0.00000000000E+00 -0.00000000000E+00 -0.38507522678E+03  0.38507522678E+03  0.00000000000E+00 0. -1.
         23    2    1    2    0    0  0.27600759845E+02 -0.43074582946E+02 -0.13067779084E+03  0.16650887416E+03  0.89617512319E+02 0.  0.
         23    2    1    2    0    0 -0.27600759845E+02  0.43074582946E+02 -0.22461610267E+03  0.24834768587E+03  0.92773691629E+02 0.  0.
          5    1    4    4  502    0 -0.51796832377E+02 -0.57920346848E+00 -0.81278875813E+02  0.96496595662E+02  0.47000000000E+01 0. -1.
         -5    1    4    4    0  502  0.24196072532E+02  0.43653786414E+02 -0.14333722686E+03  0.15185109021E+03  0.47000000000E+01 0.  1.
          5    1    3    3  503    0  0.35289880944E+02 -0.35503855423E+01 -0.11908761345E+03  0.12434601164E+03  0.47000000000E+01 0. -1.
         -5    1    3    3    0  503 -0.76891210989E+01 -0.39524197404E+02 -0.11590177397E+02  0.42162862519E+02  0.47000000000E+01 0.  1.
<mgrwt>
<rscale>  0 0.10524928E+03</rscale>
<asrwt>0</asrwt>
<pdfrwt beam="1">  1        2 0.59242335E-01 0.10594423E+03</pdfrwt>
<pdfrwt beam="2">  1       -2 0.45817442E-02 0.10594423E+03</pdfrwt>
<totfact> 0.17109964E+04</totfact>
</mgrwt>
</event>
<event>
 8    1  0.3177960E-004  0.1398740E+03  0.7546771E-02  0.1215512E+00
         -1   -1    0    0    0  501 -0.00000000000E+00  0.00000000000E+00  0.29544604959E+03  0.29544604959E+03  0.00000000000E+00 0.  1.
          1   -1    0    0  501    0  0.00000000000E+00 -0.00000000000E+00 -0.72831504623E+02  0.72831504623E+02  0.00000000000E+00 0. -1.
         23    2    1    2    0    0  0.10307115539E+03  0.10498194413E+02  0.47419742916E+02  0.14769345653E+03  0.93972601980E+02 0.  0.
         23    2    1    2    0    0 -0.10307115539E+03 -0.10498194413E+02  0.17519480205E+03  0.22058409769E+03  0.85030878664E+02 0.  0.
          5    1    3    3  502    0  0.11059262769E+03  0.31842248692E+02  0.47470182422E+02  0.12457995955E+03  0.47000000000E+01 0. -1.
         -5    1    3    3    0  502 -0.75214722978E+01 -0.21344054279E+02 -0.50439505305E-01  0.23113496982E+02  0.47000000000E+01 0.  1.
          5    1    4    4  503    0 -0.41053298428E+01  0.26387455609E+02  0.48580198822E+02  0.55635216044E+02  0.47000000000E+01 0. -1.
         -5    1    4    4    0  503 -0.98965825551E+02 -0.36885650022E+02  0.12661460323E+03  0.16494888164E+03  0.47000000000E+01 0.  1.
<mgrwt>
<rscale>  0 0.13838959E+03</rscale>
<asrwt>0</asrwt>
<pdfrwt beam="1">  1        1 0.11204847E-01 0.13987396E+03</pdfrwt>
<pdfrwt beam="2">  1       -1 0.45453238E-01 0.13987396E+03</pdfrwt>
<totfact> 0.26110109E+03</totfact>
</mgrwt>
</event>
<event>
 8    1  0.3177960E-004  0.1646837E+03  0.7546771E-02  0.1183773E+00
          1   -1    0    0  501    0  0.00000000000E+00  0.00000000000E+00  0.37462020212E+02  0.37462020212E+02  0.00000000000E+00 0. -1.
         -1   -1    0    0    0  501 -0.00000000000E+00 -0.00000000000E+00 -0.73117075360E+03  0.73117075360E+03  0.00000000000E+00 0.  1.
         23    2    1    2    0    0  0.38006720770E+02  0.12932717911E+03 -0.39603140483E+03  0.42890744759E+03  0.94608112268E+02 0.  0.
         23    2    1    2    0    0 -0.38006720770E+02 -0.12932717911E+03 -0.29767732855E+03  0.33972532622E+03  0.92905733181E+02 0.  0.
          5    1    3    3  502    0  0.57028269801E+02  0.10944579829E+03 -0.23501744365E+03  0.26549179863E+03  0.47000000000E+01 0. -1.
         -5    1    4    4    0  503 -0.63024125229E+02 -0.64962682881E+02 -0.20422146737E+03  0.22342938093E+03  0.47000000000E+01 0.  1.
          5    1    4    4  503    0  0.25017404459E+02 -0.64364496228E+02 -0.93455861185E+02  0.11629594529E+03  0.47000000000E+01 0. -1.
         -5    1    3    3    0  502 -0.19021549031E+02  0.19881380823E+02 -0.16101396118E+03  0.16341564896E+03  0.47000000000E+01 0.  1.
<mgrwt>
<rscale>  0 0.16444016E+03</rscale>
<asrwt>0</asrwt>
<pdfrwt beam="1">  1        1 0.57633878E-02 0.16468371E+03</pdfrwt>
<pdfrwt beam="2">  1       -1 0.11248781E+00 0.16468371E+03</pdfrwt>
<totfact> 0.10399587E+03</totfact>
</mgrwt>
</event>
<event>
 8    1  0.3177960E-004  0.9814411E+02  0.7546771E-02  0.1284335E+00
         -1   -1    0    0    0  501 -0.00000000000E+00  0.00000000000E+00  0.36742635025E+03  0.36742635025E+03  0.00000000000E+00 0.  1.
          1   -1    0    0  501    0  0.00000000000E+00 -0.00000000000E+00 -0.38686152907E+02  0.38686152907E+02  0.00000000000E+00 0. -1.
         23    2    1    2    0    0  0.35961860667E+01 -0.34298436799E+02  0.27976612420E+03  0.29642783918E+03  0.91711854580E+02 0.  0.
         23    2    1    2    0    0 -0.35961860667E+01  0.34298436799E+02  0.48974073143E+02  0.10968466398E+03  0.91885528513E+02 0.  0.
          5    1    4    4  502    0 -0.46130573761E+02  0.59356418653E+01  0.25211763201E+02  0.53112942712E+02  0.47000000000E+01 0. -1.
         -5    1    4    4    0  502  0.42534387694E+02  0.28362794934E+02  0.23762309943E+02  0.56571721264E+02  0.47000000000E+01 0.  1.
          5    1    3    3  503    0  0.41632732704E+01  0.31425095216E+02  0.95629264800E+02  0.10085591574E+03  0.47000000000E+01 0. -1.
         -5    1    3    3    0  503 -0.56708720362E+00 -0.65723532015E+02  0.18413685940E+03  0.19557192344E+03  0.47000000000E+01 0.  1.
<mgrwt>
<rscale>  0 0.98103436E+02</rscale>
<asrwt>0</asrwt>
<pdfrwt beam="1">  1        1 0.59517161E-02 0.98144107E+02</pdfrwt>
<pdfrwt beam="2">  1       -1 0.56527128E-01 0.98144107E+02</pdfrwt>
<totfact> 0.39925223E+03</totfact>
</mgrwt>
</event>
<event>
 8    1  0.3177960E-004  0.1492856E+03  0.7546771E-02  0.1201665E+00
          1   -1    0    0  501    0  0.00000000000E+00  0.00000000000E+00  0.46795251206E+03  0.46795251206E+03  0.00000000000E+00 0. -1.
         -1   -1    0    0    0  501 -0.00000000000E+00 -0.00000000000E+00 -0.54679833342E+02  0.54679833342E+02  0.00000000000E+00 0.  1.
         23    2    1    2    0    0  0.10115612888E+03 -0.58203021188E+02  0.11127441337E+03  0.18619391629E+03  0.93091488917E+02 0.  0.
         23    2    1    2    0    0 -0.10115612888E+03  0.58203021188E+02  0.30199826535E+03  0.33643842911E+03  0.91475189095E+02 0.  0.
          5    1    4    4  502    0 -0.59526018877E+02 -0.15707087681E+02  0.15181886817E+03  0.16389361873E+03  0.47000000000E+01 0. -1.
         -5    1    4    4    0  502 -0.41630110005E+02  0.73910108869E+02  0.15017939718E+03  0.17254481038E+03  0.47000000000E+01 0.  1.
          5    1    3    3  503    0  0.48710021856E+01 -0.32316959535E+02  0.71482454910E+02  0.78739722477E+02  0.47000000000E+01 0. -1.
         -5    1    3    3    0  503  0.96285126697E+02 -0.25886061653E+02  0.39791958457E+02  0.10745419382E+03  0.47000000000E+01 0.  1.
<mgrwt>
<rscale>  0 0.14903430E+03</rscale>
<asrwt>0</asrwt>
<pdfrwt beam="1">  1        1 0.71992692E-01 0.14928556E+03</pdfrwt>
<pdfrwt beam="2">  1       -1 0.84122824E-02 0.14928556E+03</pdfrwt>
<totfact> 0.38235751E+03</totfact>
</mgrwt>
</event>
<event>
 8    1  0.3177960E-004  0.1038615E+03  0.7546771E-02  0.1274221E+00
          1   -1    0    0  501    0  0.00000000000E+00  0.00000000000E+00  0.16063571407E+03  0.16063571407E+03  0.00000000000E+00 0. -1.
         -1   -1    0    0    0  501 -0.00000000000E+00 -0.00000000000E+00 -0.65097739721E+02  0.65097739721E+02  0.00000000000E+00 0.  1.
         23    2    1    2    0    0  0.34718507606E+02 -0.24690977998E+02  0.55767145787E+02  0.11788636505E+03  0.94721704744E+02 0.  0.
         23    2    1    2    0    0 -0.34718507606E+02  0.24690977998E+02  0.39770828557E+02  0.10784708874E+03  0.90742804568E+02 0.  0.
          5    1    4    4  502    0 -0.39409084312E+02  0.48622785204E+02  0.21915912857E+01  0.62802422243E+02  0.47000000000E+01 0. -1.
         -5    1    3    3    0  503  0.58235363634E+02 -0.36143065969E+02  0.16809289726E+02  0.70727088278E+02  0.47000000000E+01 0.  1.
          5    1    3    3  503    0 -0.23516856028E+02  0.11452087971E+02  0.38957856061E+02  0.47159276767E+02  0.47000000000E+01 0. -1.
         -5    1    4    4    0  502  0.46905767061E+01 -0.23931807206E+02  0.37579237272E+02  0.45044666498E+02  0.47000000000E+01 0.  1.
<mgrwt>
<rscale>  0 0.10294563E+03</rscale>
<asrwt>0</asrwt>
<pdfrwt beam="1">  1        1 0.24713187E-01 0.10386154E+03</pdfrwt>
<pdfrwt beam="2">  1       -1 0.10015037E-01 0.10386154E+03</pdfrwt>
<totfact> 0.10840520E+04</totfact>
</mgrwt>
</event>
<event>
 8    1  0.3177960E-004  0.9567584E+02  0.7546771E-02  0.1290342E+00
          2   -1    0    0  501    0  0.00000000000E+00  0.00000000000E+00  0.10622573715E+03  0.10622573715E+03  0.00000000000E+00 0. -1.
         -2   -1    0    0    0  501 -0.00000000000E+00 -0.00000000000E+00 -0.14944263076E+03  0.14944263076E+03  0.00000000000E+00 0.  1.
         23    2    1    2    0    0 -0.17611519447E+02 -0.19641912078E+02 -0.10557546633E+03  0.14247822629E+03  0.91966817652E+02 0.  0.
         23    2    1    2    0    0  0.17611519447E+02  0.19641912078E+02  0.62358572713E+02  0.11319014162E+03  0.90705271307E+02 0.  0.
          5    1    3    3  502    0 -0.48697944096E+02 -0.45505176379E+01 -0.25986620442E+02  0.55584093156E+02  0.47000000000E+01 0. -1.
         -5    1    3    3    0  502  0.31086424649E+02 -0.15091394440E+02 -0.79588845886E+02  0.86894133134E+02  0.47000000000E+01 0.  1.
          5    1    4    4  503    0  0.52133111425E+02  0.26708483997E+02  0.41915951653E+02  0.72182002101E+02  0.47000000000E+01 0. -1.
         -5    1    4    4    0  503 -0.34521591978E+02 -0.70665719190E+01  0.20442621059E+02  0.41008139524E+02  0.47000000000E+01 0.  1.
<mgrwt>
<rscale>  0 0.95371387E+02</rscale>
<asrwt>0</asrwt>
<pdfrwt beam="1">  1        2 0.16342421E-01 0.95675837E+02</pdfrwt>
<pdfrwt beam="2">  1       -2 0.22991174E-01 0.95675837E+02</pdfrwt>
<totfact> 0.53794601E+03</totfact>
</mgrwt>
</event>
<event>
 8    1  0.3177960E-004  0.1171348E+03  0.7546771E-02  0.1248089E+00
          1   -1    0    0  501    0  0.00000000000E+00  0.00000000000E+00  0.31977774698E+03  0.31977774698E+03  0.00000000000E+00 0. -1.
         -1   -1    0    0    0  501 -0.00000000000E+00 -0.00000000000E+00 -0.43728118233E+02  0.43728118233E+02  0.00000000000E+00 0.  1.
         23    2    1    2    0    0 -0.67458054198E+02  0.24904527892E+02  0.11050324547E+03  0.16070997508E+03  0.91901600880E+02 0.  0.
         23    2    1    2    0    0  0.67458054198E+02 -0.24904527892E+02  0.16554638327E+03  0.20279589013E+03  0.92464822792E+02 0.  0.
          5    1    3    3  502    0 -0.11661495098E+01  0.43497337234E+02  0.63849546987E+02  0.77409514284E+02  0.47000000000E+01 0. -1.
         -5    1    4    4    0  503  0.36574193058E+02 -0.12336791741E+02  0.55302469674E+01  0.39275204135E+02  0.47000000000E+01 0.  1.
          5    1    4    4  503    0  0.30883861140E+02 -0.12567736151E+02  0.16001613631E+03  0.16352068600E+03  0.47000000000E+01 0. -1.
         -5    1    3    3    0  502 -0.66291904688E+02 -0.18592809342E+02  0.46653698484E+02  0.83300460795E+02  0.47000000000E+01 0.  1.
<mgrwt>
<rscale>  0 0.11702365E+03</rscale>
<asrwt>0</asrwt>
<pdfrwt beam="1">  1        1 0.49196575E-01 0.11713483E+03</pdfrwt>
<pdfrwt beam="2">  1       -1 0.67274030E-02 0.11713483E+03</pdfrwt>
<totfact> 0.85158475E+03</totfact>
</mgrwt>
</event>
<event>
 8    1  0.3177960E-004  0.1013494E+03  0.7546771E-02  0.1279093E+00
         -1   -1    0    0    0  501 -0.00000000000E+00  0.00000000000E+00  0.63462976164E+03  0.63462976164E+03  0.00000000000E+00 0.  1.
          1   -1    0    0  501    0  0.00000000000E+00 -0.00000000000E+00 -0.18637512121E+02  0.18637512121E+02  0.00000000000E+00 0. -1.
         23    2    1    2    0    0 -0.13322741586E+02  0.35113344011E+02  0.43368640959E+03  0.44468364910E+03  0.90825126178E+02 0.  0.
         23    2    1    2    0    0  0.13322741586E+02 -0.35113344011E+02  0.18230583993E+03  0.20858362466E+03  0.94134302104E+02 0.  0.
          5    1    4    4  502    0  0.15238665937E+02 -0.63948001108E+02  0.88694116909E+02  0.11050022697E+03  0.47000000000E+01 0. -1.
         -5    1    4    4    0  502 -0.19159243513E+01  0.28834657097E+02  0.93611723026E+02  0.98083397698E+02  0.47000000000E+01 0.  1.
          5    1    3    3  503    0  0.35014418292E+02 -0.29314235244E+01  0.12706062498E+03  0.13191321068E+03  0.47000000000E+01 0. -1.
         -5    1    3    3    0  503 -0.48337159878E+02  0.38044767535E+02  0.30662578461E+03  0.31277043842E+03  0.47000000000E+01 0.  1.
<mgrwt>
<rscale>  0 0.10057410E+03</rscale>
<asrwt>0</asrwt>
<pdfrwt beam="1">  1        1 0.28673100E-02 0.10134944E+03</pdfrwt>
<pdfrwt beam="2">  1       -1 0.97635331E-01 0.10134944E+03</pdfrwt>
<totfact> 0.36334217E+03</totfact>
</mgrwt>
</event>
<event>
 8    1  0.3177960E-004  0.1154474E+03  0.7546771E-02  0.1251103E+00
         -3   -1    0    0    0  501 -0.00000000000E+00  0.00000000000E+00  0.12502154478E+04  0.12502154478E+04  0.00000000000E+00 0.  1.
          3   -1    0    0  501    0  0.00000000000E+00 -0.00000000000E+00 -0.17710098033E+02  0.17710098033E+02  0.00000000000E+00 0. -1.
         23    2    1    2    0    0  0.61460494323E+02 -0.19010214315E+02  0.10191337637E+04  0.10256518572E+04  0.95860958421E+02 0.  0.
         23    2    1    2    0    0 -0.61460494323E+02  0.19010214315E+02  0.21337158606E+03  0.24227368858E+03  0.95028026549E+02 0.  0.
          5    1    4    4  502    0 -0.47593591881E+02  0.34017069819E+02  0.48673324695E+02  0.76246269181E+02  0.47000000000E+01 0. -1.
         -5    1    3    3    0  503  0.46394108061E+02 -0.57371882644E+02  0.64092331678E+03  0.64517341404E+03  0.47000000000E+01 0.  1.
          5    1    3    3  503    0  0.15066386262E+02  0.38361668329E+02  0.37821044688E+03  0.38047844318E+03  0.47000000000E+01 0. -1.
         -5    1    4    4    0  502 -0.13866902442E+02 -0.15006855504E+02  0.16469826137E+03  0.16602741940E+03  0.47000000000E+01 0.  1.
<mgrwt>
<rscale>  0 0.11527435E+03</rscale>
<asrwt>0</asrwt>
<pdfrwt beam="1">  1        3 0.27246315E-02 0.11544741E+03</pdfrwt>
<pdfrwt beam="2">  1       -3 0.19234077E+00 0.11544741E+03</pdfrwt>
<totfact> 0.24259678E+02</totfact>
</mgrwt>
</event>
<event>
 8    1  0.3177960E-004  0.9681177E+02  0.7546771E-02  0.1287732E+00
         -2   -1    0    0    0  501 -0.00000000000E+00  0.00000000000E+00  0.30119669333E+02  0.30119669333E+02  0.00000000000E+00 0.  1.
          2   -1    0    0  501    0  0.00000000000E+00 -0.00000000000E+00 -0.71061930587E+03  0.71061930587E+03  0.00000000000E+00 0. -1.
         23    2    1    2    0    0  0.16273785575E+02  0.25360585703E+02 -0.60582482552E+02  0.11330786630E+03  0.90886962598E+02 0.  0.
         23    2    1    2    0    0 -0.16273785575E+02 -0.25360585703E+02 -0.61991715399E+03  0.62743110890E+03  0.92002843455E+02 0.  0.
          5    1    3    3  502    0  0.20162703828E+02 -0.24348929052E+02  0.33034849364E+01  0.32131106180E+02  0.47000000000E+01 0. -1.
         -5    1    4    4    0  503 -0.12867508065E+02  0.33844341076E+02 -0.19763894784E+03  0.20098322291E+03  0.47000000000E+01 0.  1.
          5    1    4    4  503    0 -0.34062775104E+01 -0.59204926778E+02 -0.42227820615E+03  0.42644788599E+03  0.47000000000E+01 0. -1.
         -5    1    3    3    0  502 -0.38889182526E+01  0.49709514755E+02 -0.63885967488E+02  0.81176760124E+02  0.47000000000E+01 0.  1.
<mgrwt>
<rscale>  0 0.96545719E+02</rscale>
<asrwt>0</asrwt>
<pdfrwt beam="1">  1        2 0.10932603E+00 0.96811769E+02</pdfrwt>
<pdfrwt beam="2">  1       -2 0.46337958E-02 0.96811769E+02</pdfrwt>
<totfact> 0.85088888E+03</totfact>
</mgrwt>
</event>
<event>
 8    1  0.3177960E-004  0.1025144E+03  0.7546771E-02  0.1275517E+00
          4   -1    0    0  501    0  0.00000000000E+00  0.00000000000E+00  0.92787843038E+02  0.92787843038E+02  0.00000000000E+00 0. -1.
         -4   -1    0    0    0  501 -0.00000000000E+00 -0.00000000000E+00 -0.19312621618E+03  0.19312621618E+03  0.00000000000E+00 0.  1.
         23    2    1    2    0    0  0.45198756043E+02  0.14600785206E+02 -0.14250454800E+03  0.17506644200E+03  0.89914417284E+02 0.  0.
         23    2    1    2    0    0 -0.45198756043E+02 -0.14600785206E+02  0.42166174857E+02  0.11084761723E+03  0.90846560011E+02 0.  0.
          5    1    3    3  502    0 -0.31216523873E+01  0.41890561423E+02 -0.85468627486E+02  0.95349568086E+02  0.47000000000E+01 0.  1.
         -5    1    3    3    0  502  0.48320408431E+02 -0.27289776218E+02 -0.57035920517E+02  0.79716873911E+02  0.47000000000E+01 0. -1.
          5    1    4    4  503    0 -0.21186365511E+02 -0.28271006276E+02  0.65374515737E+02  0.74458237874E+02  0.47000000000E+01 0. -1.
         -5    1    4    4    0  503 -0.24012390532E+02  0.13670221071E+02 -0.23208340880E+02  0.36389379351E+02  0.47000000000E+01 0.  1.
<mgrwt>
<rscale>  0 0.10230752E+03</rscale>
<asrwt>0</asrwt>
<pdfrwt beam="1">  1        4 0.14275053E-01 0.10251443E+03</pdfrwt>
<pdfrwt beam="2">  1       -4 0.29711726E-01 0.10251443E+03</pdfrwt>
<totfact> 0.69351099E+02</totfact>
</mgrwt>
</event>
<event>
 8    1  0.3177960E-004  0.9418194E+02  0.7546771E-02  0.1294576E+00
         -3   -1    0    0    0  501 -0.00000000000E+00  0.00000000000E+00  0.23851024616E+03  0.23851024616E+03  0.00000000000E+00 0.  1.
          3   -1    0    0  501    0  0.00000000000E+00 -0.00000000000E+00 -0.75673213006E+02  0.75673213006E+02  0.00000000000E+00 0. -1.
         23    2    1    2    0    0  0.93839688706E+01 -0.17314358549E+02  0.19551412197E+03  0.21701614895E+03  0.92099897571E+02 0.  0.
         23    2    1    2    0    0 -0.93839688706E+01  0.17314358549E+02 -0.32677088823E+02  0.97167310208E+02  0.89363572866E+02 0.  0.
          5    1    4    4  502    0  0.14636335419E+02  0.48202990686E+02 -0.96000095416E+01  0.51497580610E+02  0.47000000000E+01 0. -1.
         -5    1    4    4    0  502 -0.24020304289E+02 -0.30888632136E+02 -0.23077079281E+02  0.45669729598E+02  0.47000000000E+01 0.  1.
          5    1    3    3  503    0 -0.19264009765E+02  0.16765447491E+02  0.12900076664E+02  0.28994556036E+02  0.47000000000E+01 0. -1.
         -5    1    3    3    0  503  0.28647978636E+02 -0.34079806040E+02  0.18261404531E+03  0.18802159292E+03  0.47000000000E+01 0.  1.
<mgrwt>
<rscale>  0 0.93506186E+02</rscale>
<asrwt>0</asrwt>
<pdfrwt beam="1">  1        3 0.11642033E-01 0.94181936E+02</pdfrwt>
<pdfrwt beam="2">  1       -3 0.36693884E-01 0.94181936E+02</pdfrwt>
<totfact> 0.90975128E+02</totfact>
</mgrwt>
</event>
<event>
 8    1  0.3177960E-004  0.9877176E+02  0.7546771E-02  0.1283585E+00
         -2   -1    0    0    0  501 -0.00000000000E+00  0.00000000000E+00  0.21629523527E+03  0.21629523527E+03  0.00000000000E+00 0.  1.
          2   -1    0    0  501    0  0.00000000000E+00 -0.00000000000E+00 -0.97649031407E+02  0.97649031407E+02  0.00000000000E+00 0. -1.
         23    2    1    2    0    0 -0.31733653634E+02  0.15134767607E+02  0.17492636742E+03  0.20026349582E+03  0.90940352865E+02 0.  0.
         23    2    1    2    0    0  0.31733653634E+02 -0.15134767607E+02 -0.56280163553E+02  0.11368077085E+03  0.92302626661E+02 0.  0.
          5    1    3    3  502    0  0.29830457928E+02 -0.23326624553E+01  0.34739613557E+02  0.46089351096E+02  0.47000000000E+01 0. -1.
         -5    1    4    4    0  503  0.50270365168E+02 -0.40438676447E+02 -0.25648976977E+02  0.69587040366E+02  0.47000000000E+01 0. -1.
          5    1    4    4  503    0 -0.18536711534E+02  0.25303908841E+02 -0.30631186576E+02  0.44093730486E+02  0.47000000000E+01 0.  1.
         -5    1    3    3    0  502 -0.61564111563E+02  0.17467430062E+02  0.14018675386E+03  0.15417414473E+03  0.47000000000E+01 0.  1.
<mgrwt>
<rscale>  0 0.98452253E+02</rscale>
<asrwt>0</asrwt>
<pdfrwt beam="1">  1        2 0.15022928E-01 0.98771761E+02</pdfrwt>
<pdfrwt beam="2">  1       -2 0.33276190E-01 0.98771761E+02</pdfrwt>
<totfact> 0.30968334E+03</totfact>
</mgrwt>
</event>
<event>
 8    1  0.3177960E-004  0.1097100E+03  0.7546771E-02  0.1261500E+00
          2   -1    0    0  501    0  0.00000000000E+00  0.00000000000E+00  0.42266411486E+03  0.42266411486E+03  0.00000000000E+00 0. -1.
         -2   -1    0    0    0  501 -0.00000000000E+00 -0.00000000000E+00 -0.44232624945E+02  0.44232624945E+02  0.00000000000E+00 0.  1.
         23    2    1    2    0    0  0.18943422468E+02 -0.55801882983E+02  0.49395368377E+02  0.12031703361E+03  0.92539628052E+02 0.  0.
         23    2    1    2    0    0 -0.18943422468E+02  0.55801882983E+02  0.32903612153E+03  0.34657970619E+03  0.91542449561E+02 0.  0.
          5    1    3    3  502    0 -0.35552387829E+02 -0.73616120211E+01  0.17958198340E+02  0.40776862306E+02  0.47000000000E+01 0. -1.
         -5    1    4    4    0  503  0.15638987841E+02 -0.19031030357E+02  0.10059937453E+03  0.10367778071E+03  0.47000000000E+01 0.  1.
          5    1    4    4  503    0 -0.34582410309E+02  0.74832913340E+02  0.22843674701E+03  0.24290192549E+03  0.47000000000E+01 0. -1.
         -5    1    3    3    0  502  0.54495810297E+02 -0.48440270962E+02  0.31437170038E+02  0.79540171302E+02  0.47000000000E+01 0.  1.
<mgrwt>
<rscale>  0 0.10949946E+03</rscale>
<asrwt>0</asrwt>
<pdfrwt beam="1">  1        2 0.65025246E-01 0.10971001E+03</pdfrwt>
<pdfrwt beam="2">  1       -2 0.68050195E-02 0.10971001E+03</pdfrwt>
<totfact> 0.85832983E+03</totfact>
</mgrwt>
</event>
<event>
 8    1  0.3177960E-004  0.1077937E+03  0.7546771E-02  0.1265371E+00
         -1   -1    0    0    0  501 -0.00000000000E+00  0.00000000000E+00  0.21772041191E+02  0.21772041191E+02  0.00000000000E+00 0.  1.
          1   -1    0    0  501    0  0.00000000000E+00 -0.00000000000E+00 -0.76792151500E+03  0.76792151500E+03  0.00000000000E+00 0. -1.
         23    2    1    2    0    0  0.26416326334E+02 -0.49303077468E+02 -0.59592885234E+03  0.60559943383E+03  0.92145870541E+02 0.  0.
         23    2    1    2    0    0 -0.26416326334E+02  0.49303077468E+02 -0.15022062147E+03  0.18409412237E+03  0.90530630337E+02 0.  0.
          5    1    4    4  502    0 -0.40460894318E+02 -0.55939574400E+01 -0.10041201443E+03  0.10850363575E+03  0.47000000000E+01 0. -1.
         -5    1    3    3    0  503 -0.34335264159E+02 -0.21008125418E+02 -0.21264557339E+03  0.21647281950E+03  0.47000000000E+01 0.  1.
          5    1    3    3  503    0  0.60751590493E+02 -0.28294952050E+02 -0.38328327894E+03  0.38912661433E+03  0.47000000000E+01 0. -1.
         -5    1    4    4    0  502  0.14044567984E+02  0.54897034908E+02 -0.49808607044E+02  0.75590486618E+02  0.47000000000E+01 0.  1.
<mgrwt>
<rscale>  0 0.10744765E+03</rscale>
<asrwt>0</asrwt>
<pdfrwt beam="1">  1        1 0.11814177E+00 0.10779368E+03</pdfrwt>
<pdfrwt beam="2">  1       -1 0.33495447E-02 0.10779368E+03</pdfrwt>
<totfact> 0.74774282E+03</totfact>
</mgrwt>
</event>
<event>
 8    1  0.3177960E-004  0.9426176E+02  0.7546771E-02  0.1295382E+00
          3   -1    0    0  501    0  0.00000000000E+00  0.00000000000E+00  0.89321801038E+02  0.89321801038E+02  0.00000000000E+00 0. -1.
         -3   -1    0    0    0  501 -0.00000000000E+00 -0.00000000000E+00 -0.95866015207E+02  0.95866015207E+02  0.00000000000E+00 0.  1.
         23    2    1    2    0    0  0.61721480821E+01 -0.19043311187E+02 -0.12268232192E+02  0.90752417419E+02  0.87662698072E+02 0.  0.
         23    2    1    2    0    0 -0.61721480821E+01  0.19043311187E+02  0.57240180236E+01  0.94435398826E+02  0.92111546812E+02 0.  0.
          5    1    3    3  502    0 -0.33025175242E+02  0.11795605917E+02  0.87155026104E+01  0.36439655658E+02  0.47000000000E+01 0.  1.
         -5    1    4    4    0  503  0.29868349364E+02  0.34617942291E+02  0.22866928503E+02  0.51337185756E+02  0.47000000000E+01 0.  1.
          5    1    4    4  503    0 -0.36040497446E+02 -0.15574631104E+02 -0.17142910479E+02  0.43098213070E+02  0.47000000000E+01 0. -1.
         -5    1    3    3    0  502  0.39197323324E+02 -0.30838917103E+02 -0.20983734803E+02  0.54312761761E+02  0.47000000000E+01 0. -1.
<mgrwt>
<rscale>  0 0.93156889E+02</rscale>
<asrwt>0</asrwt>
<pdfrwt beam="1">  1        3 0.13741815E-01 0.94261764E+02</pdfrwt>
<pdfrwt beam="2">  1       -3 0.14748618E-01 0.94261764E+02</pdfrwt>
<totfact> 0.34958701E+03</totfact>
</mgrwt>
</event>
<event>
 8    1  0.3177960E-004  0.9251061E+02  0.7546771E-02  0.1297355E+00
          2   -1    0    0  501    0  0.00000000000E+00  0.00000000000E+00  0.36425523837E+02  0.36425523837E+02  0.00000000000E+00 0. -1.
         -2   -1    0    0    0  501 -0.00000000000E+00 -0.00000000000E+00 -0.35502715575E+03  0.35502715575E+03  0.00000000000E+00 0.  1.
         23    2    1    2    0    0 -0.11949226243E+02  0.52267102851E+01 -0.27454585291E+03  0.28971302823E+03  0.91586630384E+02 0.  0.
         23    2    1    2    0    0  0.11949226243E+02 -0.52267102851E+01 -0.44055779004E+02  0.10173965136E+03  0.90774128955E+02 0.  0.
          5    1    4    4  502    0 -0.22091128007E+01 -0.24475727488E+02  0.20752451708E+02  0.32506855697E+02  0.47000000000E+01 0. -1.
         -5    1    4    4    0  502  0.14158339044E+02  0.19249017202E+02 -0.64808230711E+02  0.69232795666E+02  0.47000000000E+01 0.  1.
          5    1    3    3  503    0  0.22740000555E+02  0.17541095193E+02 -0.27980291507E+02  0.40370587791E+02  0.47000000000E+01 0. -1.
         -5    1    3    3    0  503 -0.34689226798E+02 -0.12314384908E+02 -0.24656556140E+03  0.24934244043E+03  0.47000000000E+01 0.  1.
<mgrwt>
<rscale>  0 0.92308875E+02</rscale>
<asrwt>0</asrwt>
<pdfrwt beam="1">  1        2 0.56039270E-02 0.92510612E+02</pdfrwt>
<pdfrwt beam="2">  1       -2 0.54619560E-01 0.92510612E+02</pdfrwt>
<totfact> 0.40074765E+03</totfact>
</mgrwt>
</event>
<event>
 8    1  0.3177960E-004  0.1026033E+03  0.7546771E-02  0.1274999E+00
         -1   -1    0    0    0  501 -0.00000000000E+00  0.00000000000E+00  0.36275710487E+02  0.36275710487E+02  0.00000000000E+00 0.  1.
          1   -1    0    0  501    0  0.00000000000E+00 -0.00000000000E+00 -0.32651758035E+03  0.32651758035E+03  0.00000000000E+00 0. -1.
         23    2    1    2    0    0  0.12973458192E+02  0.44001062667E+02 -0.84136250788E+02  0.13256089286E+03  0.91591907316E+02 0.  0.
         23    2    1    2    0    0 -0.12973458192E+02 -0.44001062667E+02 -0.20610561908E+03  0.23023239798E+03  0.91777049043E+02 0.  0.
          5    1    4    4  502    0 -0.47523618071E+02 -0.45720153092E+02 -0.15307820900E+03  0.16674487921E+03  0.47000000000E+01 0. -1.
         -5    1    4    4    0  502  0.34550159879E+02  0.17190904251E+01 -0.53027410078E+02  0.63487518767E+02  0.47000000000E+01 0.  1.
          5    1    3    3  503    0 -0.31541531711E+02  0.26126863302E+01 -0.45661243046E+01  0.32320795840E+02  0.47000000000E+01 0. -1.
         -5    1    3    3    0  503  0.44514989904E+02  0.41388376337E+02 -0.79570126483E+02  0.10024009702E+03  0.47000000000E+01 0.  1.
<mgrwt>
<rscale>  0 0.10256185E+03</rscale>
<asrwt>0</asrwt>
<pdfrwt beam="1">  1        1 0.50233472E-01 0.10260327E+03</pdfrwt>
<pdfrwt beam="2">  1       -1 0.55808787E-02 0.10260327E+03</pdfrwt>
<totfact> 0.10833651E+04</totfact>
</mgrwt>
</event>
<event>
 8    1  0.3177960E-004  0.1389460E+03  0.7546771E-02  0.1215543E+00
          3   -1    0    0  501    0  0.00000000000E+00  0.00000000000E+00  0.88625748753E+03  0.88625748753E+03  0.00000000000E+00 0. -1.
         -3   -1    0    0    0  501 -0.00000000000E+00 -0.00000000000E+00 -0.39002339477E+02  0.39002339477E+02  0.00000000000E+00 0.  1.
         23    2    1    2    0    0 -0.34576733875E+02 -0.98680106713E+02  0.11111539300E+03  0.17612183182E+03  0.87971331092E+02 0.  0.
         23    2    1    2    0    0  0.34576733875E+02  0.98680106713E+02  0.73613975505E+03  0.74913799519E+03  0.91502365468E+02 0.  0.
          5    1    3    3  502    0 -0.31105358130E+02 -0.65944939941E+02  0.12107254595E+03  0.14141050099E+03  0.47000000000E+01 0. -1.
         -5    1    4    4    0  503 -0.27473752820E+02  0.58006873977E+02  0.36399861890E+03  0.36964400318E+03  0.47000000000E+01 0.  1.
          5    1    4    4  503    0  0.62050486694E+02  0.40673232737E+02  0.37214113615E+03  0.37949399201E+03  0.47000000000E+01 0. -1.
         -5    1    3    3    0  502 -0.34713757447E+01 -0.32735166772E+02 -0.99571529421E+01  0.34711330828E+02  0.47000000000E+01 0.  1.
<mgrwt>
<rscale>  0 0.13836754E+03</rscale>
<asrwt>0</asrwt>
<pdfrwt beam="1">  1        3 0.13634729E+00 0.13894602E+03</pdfrwt>
<pdfrwt beam="2">  1       -3 0.60003606E-02 0.13894602E+03</pdfrwt>
<totfact> 0.17424742E+02</totfact>
</mgrwt>
</event>
<event>
 8    1  0.3177960E-004  0.9674515E+02  0.7546771E-02  0.1287710E+00
         -1   -1    0    0    0  501 -0.00000000000E+00  0.00000000000E+00  0.10416614685E+02  0.10416614685E+02  0.00000000000E+00 0.  1.
          1   -1    0    0  501    0  0.00000000000E+00 -0.00000000000E+00 -0.90148177570E+03  0.90148177570E+03  0.00000000000E+00 0. -1.
         23    2    1    2    0    0  0.62333018496E+00 -0.33302436910E+02 -0.39934785287E+03  0.41089941736E+03  0.90830516628E+02 0.  0.
         23    2    1    2    0    0 -0.62333018496E+00  0.33302436910E+02 -0.49171730815E+03  0.50099897303E+03  0.90025657436E+02 0.  0.
          5    1    3    3  502    0  0.15814116087E+02  0.25411339653E+02 -0.20579149788E+03  0.20800974268E+03  0.47000000000E+01 0. -1.
         -5    1    3    3    0  502 -0.15190785902E+02 -0.58713776563E+02 -0.19355635499E+03  0.20288967468E+03  0.47000000000E+01 0.  1.
          5    1    4    4  503    0  0.40917818592E+02  0.13661957593E+02 -0.32911633657E+03  0.33196471192E+03  0.47000000000E+01 0. -1.
         -5    1    4    4    0  503 -0.41541148777E+02  0.19640479317E+02 -0.16260097158E+03  0.16903426111E+03  0.47000000000E+01 0.  1.
<mgrwt>
<rscale>  0 0.96555779E+02</rscale>
<asrwt>0</asrwt>
<pdfrwt beam="1">  1        1 0.13868951E+00 0.96745148E+02</pdfrwt>
<pdfrwt beam="2">  1       -1 0.16025560E-02 0.96745148E+02</pdfrwt>
<totfact> 0.16773130E+04</totfact>
</mgrwt>
</event>
<event>
 8    1  0.3177960E-004  0.1189580E+03  0.7546771E-02  0.1245463E+00
         -2   -1    0    0    0  501 -0.00000000000E+00  0.00000000000E+00  0.72363925264E+02  0.72363925264E+02  0.00000000000E+00 0.  1.
          2   -1    0    0  501    0  0.00000000000E+00 -0.00000000000E+00 -0.22462472711E+03  0.22462472711E+03  0.00000000000E+00 0. -1.
         23    2    1    2    0    0 -0.45460807229E+02  0.59904704418E+02 -0.20056156980E+02  0.11914303258E+03  0.90208393042E+02 0.  0.
         23    2    1    2    0    0  0.45460807229E+02 -0.59904704418E+02 -0.13220464487E+03  0.17784561979E+03  0.92172326371E+02 0.  0.
          5    1    3    3  502    0 -0.70553467155E+02  0.48739134833E+02 -0.19293075496E+01  0.85901730014E+02  0.47000000000E+01 0. -1.
         -5    1    3    3    0  502  0.25092659925E+02  0.11165569585E+02 -0.18126849431E+02  0.33241302570E+02  0.47000000000E+01 0.  1.
          5    1    4    4  503    0  0.12675906319E+02  0.23003675208E+02 -0.49060761446E+02  0.55847076806E+02  0.47000000000E+01 0. -1.
         -5    1    4    4    0  503  0.32784900910E+02 -0.82908379626E+02 -0.83143883420E+02  0.12199854298E+03  0.47000000000E+01 0.  1.
<mgrwt>
<rscale>  0 0.11857735E+03</rscale>
<asrwt>0</asrwt>
<pdfrwt beam="1">  1        2 0.34557650E-01 0.11895796E+03</pdfrwt>
<pdfrwt beam="2">  1       -2 0.11132912E-01 0.11895796E+03</pdfrwt>
<totfact> 0.78635889E+03</totfact>
</mgrwt>
</event>
<event>
 8    1  0.3177960E-004  0.1266203E+03  0.7546771E-02  0.1232626E+00
          1   -1    0    0  501    0  0.00000000000E+00  0.00000000000E+00  0.74421530918E+03  0.74421530918E+03  0.00000000000E+00 0. -1.
         -1   -1    0    0    0  501 -0.00000000000E+00 -0.00000000000E+00 -0.27388533747E+02  0.27388533747E+02  0.00000000000E+00 0.  1.
         23    2    1    2    0    0 -0.88031179178E+02 -0.39430681943E+00  0.17953177147E+03  0.21959059548E+03  0.90767442790E+02 0.  0.
         23    2    1    2    0    0  0.88031179178E+02  0.39430681943E+00  0.53729500395E+03  0.55201324744E+03  0.91011318464E+02 0.  0.
          5    1    3    3  502    0 -0.72042606768E+01 -0.36325391129E+02  0.62777438865E+02  0.73037882246E+02  0.47000000000E+01 0. -1.
         -5    1    3    3    0  502 -0.80826918501E+02  0.35931084309E+02  0.11675433261E+03  0.14655271324E+03  0.47000000000E+01 0.  1.
          5    1    4    4  503    0  0.26728301605E+02 -0.38558437260E+02  0.30380211786E+03  0.30743937940E+03  0.47000000000E+01 0. -1.
         -5    1    4    4    0  503  0.61302877573E+02  0.38952744079E+02  0.23349288609E+03  0.24457386804E+03  0.47000000000E+01 0.  1.
<mgrwt>
<rscale>  0 0.12657650E+03</rscale>
<asrwt>0</asrwt>
<pdfrwt beam="1">  1        1 0.11449465E+00 0.12662031E+03</pdfrwt>
<pdfrwt beam="2">  1       -1 0.42136211E-02 0.12662031E+03</pdfrwt>
<totfact> 0.56503685E+03</totfact>
</mgrwt>
</event>
<event>
 8    1  0.3177960E-004  0.9192519E+02  0.7546771E-02  0.1298420E+00
         -1   -1    0    0    0  501 -0.00000000000E+00  0.00000000000E+00  0.14023721682E+03  0.14023721682E+03  0.00000000000E+00 0.  1.
          1   -1    0    0  501    0  0.00000000000E+00 -0.00000000000E+00 -0.93132906998E+02  0.93132906998E+02  0.00000000000E+00 0. -1.
         23    2    1    2    0    0 -0.89967061947E+01 -0.29976727299E+01 -0.45990437625E+02  0.10253865569E+03  0.91154422789E+02 0.  0.
         23    2    1    2    0    0  0.89967061947E+01  0.29976727299E+01  0.93094747442E+02  0.13083146812E+03  0.91434754255E+02 0.  0.
          5    1    4    4  502    0  0.42264139984E+02  0.27098280095E+02  0.54883068680E+02  0.74530634912E+02  0.47000000000E+01 0. -1.
         -5    1    3    3    0  503  0.22877374288E+02  0.17308747640E+02  0.13381552598E+02  0.32001921022E+02  0.47000000000E+01 0.  1.
          5    1    3    3  503    0 -0.31874080483E+02 -0.20306420370E+02 -0.59371990223E+02  0.70536734669E+02  0.47000000000E+01 0. -1.
         -5    1    4    4    0  502 -0.33267433790E+02 -0.24100607365E+02  0.38211678762E+02  0.56300833210E+02  0.47000000000E+01 0.  1.
<mgrwt>
<rscale>  0 0.91855405E+02</rscale>
<asrwt>0</asrwt>
<pdfrwt beam="1">  1        1 0.14328140E-01 0.91925193E+02</pdfrwt>
<pdfrwt beam="2">  1       -1 0.21574956E-01 0.91925193E+02</pdfrwt>
<totfact> 0.64854709E+03</totfact>
</mgrwt>
</event>
<event>
 8    1  0.3177960E-004  0.9906768E+02  0.7546771E-02  0.1282886E+00
          1   -1    0    0  501    0  0.00000000000E+00  0.00000000000E+00  0.61191119013E+03  0.61191119013E+03  0.00000000000E+00 0. -1.
         -1   -1    0    0    0  501 -0.00000000000E+00 -0.00000000000E+00 -0.23005962762E+02  0.23005962762E+02  0.00000000000E+00 0.  1.
         23    2    1    2    0    0  0.23360106077E+02  0.23209355464E+02  0.11625165052E+03  0.15199292578E+03  0.92211900002E+02 0.  0.
         23    2    1    2    0    0 -0.23360106077E+02 -0.23209355464E+02  0.47265357685E+03  0.48292422711E+03  0.93434665327E+02 0.  0.
          5    1    4    4  502    0 -0.31410046438E+02 -0.52048630573E+02  0.39295289302E+03  0.39765527420E+03  0.47000000000E+01 0. -1.
         -5    1    4    4    0  502  0.80499403604E+01  0.28839275108E+02  0.79700683831E+02  0.85268952918E+02  0.47000000000E+01 0.  1.
          5    1    3    3  503    0  0.52152174251E+02 -0.47762432134E+01  0.41403927278E+02  0.66925607748E+02  0.47000000000E+01 0. -1.
         -5    1    3    3    0  503 -0.28792068174E+02  0.27985598678E+02  0.74847723238E+02  0.85067318031E+02  0.47000000000E+01 0.  1.
<mgrwt>
<rscale>  0 0.98778317E+02</rscale>
<asrwt>0</asrwt>
<pdfrwt beam="1">  1        1 0.94140171E-01 0.99067681E+02</pdfrwt>
<pdfrwt beam="2">  1       -1 0.35393793E-02 0.99067681E+02</pdfrwt>
<totfact> 0.94436581E+03</totfact>
</mgrwt>
</event>
<event>
 8    1  0.3177960E-004  0.1718371E+03  0.7546771E-02  0.1175952E+00
         -1   -1    0    0    0  501 -0.00000000000E+00  0.00000000000E+00  0.25679900981E+03  0.25679900981E+03  0.00000000000E+00 0.  1.
          1   -1    0    0  501    0  0.00000000000E+00 -0.00000000000E+00 -0.26120954805E+03  0.26120954805E+03  0.00000000000E+00 0. -1.
         23    2    1    2    0    0  0.13039865914E+03 -0.66148550431E+02 -0.19600255949E+03  0.26066263190E+03  0.90269392993E+02 0.  0.
         23    2    1    2    0    0 -0.13039865914E+03  0.66148550431E+02  0.19159202125E+03  0.25734592596E+03  0.90221848650E+02 0.  0.
          5    1    3    3  502    0  0.13294117021E+03 -0.34448677710E+02 -0.17395680029E+03  0.22168248577E+03  0.47000000000E+01 0. -1.
         -5    1    4    4    0  503 -0.12047914450E+03  0.27385724980E+02  0.10644780488E+03  0.16315154721E+03  0.47000000000E+01 0.  1.
          5    1    4    4  503    0 -0.99195146350E+01  0.38762825451E+02  0.85144216370E+02  0.94194378754E+02  0.47000000000E+01 0. -1.
         -5    1    3    3    0  502 -0.25425110690E+01 -0.31699872721E+02 -0.22045759206E+02  0.38980146127E+02  0.47000000000E+01 0.  1.
<mgrwt>
<rscale>  0 0.17183090E+03</rscale>
<asrwt>0</asrwt>
<pdfrwt beam="1">  1        1 0.40186084E-01 0.17183714E+03</pdfrwt>
<pdfrwt beam="2">  1       -1 0.39507540E-01 0.17183714E+03</pdfrwt>
<totfact> 0.66103598E+02</totfact>
</mgrwt>
</event>
<event>
 8    1  0.3177960E-004  0.9218050E+02  0.7546771E-02  0.1315616E+00
          2   -1    0    0  501    0  0.00000000000E+00  0.00000000000E+00  0.12500135255E+03  0.12500135255E+03  0.00000000000E+00 0. -1.
         -2   -1    0    0    0  501 -0.00000000000E+00 -0.00000000000E+00 -0.10397955787E+03  0.10397955787E+03  0.00000000000E+00 0.  1.
         23    2    1    2    0    0  0.31739999437E+01  0.91385177530E+01 -0.72042650263E+02  0.97991463620E+02  0.65716030792E+02 0.  0.
         23    2    1    2    0    0 -0.31739999437E+01 -0.91385177530E+01  0.93064444941E+02  0.13098944680E+03  0.91671464907E+02 0.  0.
          5    1    4    4  502    0  0.39132208271E+02 -0.21885960118E+02  0.62481107419E+02  0.77047412408E+02  0.47000000000E+01 0. -1.
         -5    1    3    3    0  503  0.30454994951E+02  0.17163730008E+02 -0.52194981943E+02  0.62996083095E+02  0.47000000000E+01 0.  1.
          5    1    3    3  503    0 -0.27280995008E+02 -0.80252122547E+01 -0.19847668320E+02  0.34995380525E+02  0.47000000000E+01 0. -1.
         -5    1    4    4    0  502 -0.42306208214E+02  0.12747442365E+02  0.30583337522E+02  0.53942034392E+02  0.47000000000E+01 0.  1.
<mgrwt>
<rscale>  0 0.84929973E+02</rscale>
<asrwt>0</asrwt>
<pdfrwt beam="1">  1        2 0.19230977E-01 0.92180498E+02</pdfrwt>
<pdfrwt beam="2">  1       -2 0.15996855E-01 0.92180498E+02</pdfrwt>
<totfact> 0.81681452E+03</totfact>
</mgrwt>
</event>
<event>
 8    1  0.3177960E-004  0.9363982E+02  0.7546771E-02  0.1295032E+00
          1   -1    0    0  501    0  0.00000000000E+00  0.00000000000E+00  0.97591591195E+02  0.97591591195E+02  0.00000000000E+00 0. -1.
         -1   -1    0    0    0  501 -0.00000000000E+00 -0.00000000000E+00 -0.92272175463E+02  0.92272175463E+02  0.00000000000E+00 0.  1.
         23    2    1    2    0    0 -0.97317748549E+01  0.27478618360E+00 -0.16291804500E+02  0.95046511515E+02  0.93132344049E+02 0.  0.
         23    2    1    2    0    0  0.97317748549E+01 -0.27478618360E+00  0.21611220232E+02  0.94817255143E+02  0.91806775804E+02 0.  0.
          5    1    4    4  502    0 -0.27132502674E+00 -0.28786636966E+02  0.46836196634E+02  0.55176656298E+02  0.47000000000E+01 0. -1.
         -5    1    3    3    0  503  0.39974105785E+02  0.10962766559E+02 -0.13754293845E+02  0.43924730883E+02  0.47000000000E+01 0.  1.
          5    1    3    3  503    0 -0.49705880640E+02 -0.10687980375E+02 -0.25375106550E+01  0.51121780633E+02  0.47000000000E+01 0. -1.
         -5    1    4    4    0  502  0.10003099882E+02  0.28511850782E+02 -0.25224976402E+02  0.39640598845E+02  0.47000000000E+01 0.  1.
<mgrwt>
<rscale>  0 0.93308498E+02</rscale>
<asrwt>0</asrwt>
<pdfrwt beam="1">  1        1 0.15014091E-01 0.93639823E+02</pdfrwt>
<pdfrwt beam="2">  1       -1 0.14195719E-01 0.93639823E+02</pdfrwt>
<totfact> 0.11810595E+04</totfact>
</mgrwt>
</event>
<event>
 8    1  0.3177960E-004  0.1102241E+03  0.7546771E-02  0.1261135E+00
         -1   -1    0    0    0  501 -0.00000000000E+00  0.00000000000E+00  0.81407773414E+02  0.81407773414E+02  0.00000000000E+00 0.  1.
          1   -1    0    0  501    0  0.00000000000E+00 -0.00000000000E+00 -0.28352272871E+03  0.28352272871E+03  0.00000000000E+00 0. -1.
         23    2    1    2    0    0 -0.61644501844E+02 -0.10867847241E+02 -0.22744104673E+03  0.25183426390E+03  0.88164119815E+02 0.  0.
         23    2    1    2    0    0  0.61644501844E+02  0.10867847241E+02  0.25326091440E+02  0.11309623822E+03  0.90725925078E+02 0.  0.
          5    1    3    3  502    0 -0.16352118007E+02 -0.35102559539E+02 -0.17091367816E+03  0.17530874717E+03  0.47000000000E+01 0. -1.
         -5    1    3    3    0  502 -0.45292383837E+02  0.24234712297E+02 -0.56527368571E+02  0.76525516734E+02  0.47000000000E+01 0.  1.
          5    1    4    4  503    0  0.63162617423E+02 -0.29231863523E+02  0.17888414595E+02  0.72014605890E+02  0.47000000000E+01 0. -1.
         -5    1    4    4    0  503 -0.15181155780E+01  0.40099710764E+02  0.74376768449E+01  0.41081632333E+02  0.47000000000E+01 0.  1.
<mgrwt>
<rscale>  0 0.10969558E+03</rscale>
<asrwt>0</asrwt>
<pdfrwt beam="1">  1        1 0.43618882E-01 0.11022408E+03</pdfrwt>
<pdfrwt beam="2">  1       -1 0.12524273E-01 0.11022408E+03</pdfrwt>
<totfact> 0.38416529E+03</totfact>
</mgrwt>
</event>
<event>
 8    1  0.3177960E-004  0.9879984E+02  0.7546771E-02  0.1283439E+00
         -2   -1    0    0    0  501 -0.00000000000E+00  0.00000000000E+00  0.28203687608E+02  0.28203687608E+02  0.00000000000E+00 0.  1.
          2   -1    0    0  501    0  0.00000000000E+00 -0.00000000000E+00 -0.75069426601E+03  0.75069426601E+03  0.00000000000E+00 0. -1.
         23    2    1    2    0    0  0.63481981741E+01  0.37198163674E+02 -0.74900739366E+02  0.12398196825E+03  0.91309389950E+02 0.  0.
         23    2    1    2    0    0 -0.63481981741E+01 -0.37198163674E+02 -0.64758983904E+03  0.65491598537E+03  0.90101860508E+02 0.  0.
          5    1    4    4  502    0  0.16741398885E+02 -0.57926147781E+02 -0.52080257828E+03  0.52430251628E+03  0.47000000000E+01 0. -1.
         -5    1    4    4    0  502 -0.23089597059E+02  0.20727984107E+02 -0.12678726076E+03  0.13061346909E+03  0.47000000000E+01 0.  1.
          5    1    3    3  503    0  0.29984626960E+02 -0.16828095198E+02 -0.47396242659E+02  0.58743139685E+02  0.47000000000E+01 0. -1.
         -5    1    3    3    0  503 -0.23636428786E+02  0.54026258873E+02 -0.27504496707E+02  0.65238828566E+02  0.47000000000E+01 0.  1.
<mgrwt>
<rscale>  0 0.98519926E+02</rscale>
<asrwt>0</asrwt>
<pdfrwt beam="1">  1        2 0.11549143E+00 0.98799837E+02</pdfrwt>
<pdfrwt beam="2">  1       -2 0.43390286E-02 0.98799837E+02</pdfrwt>
<totfact> 0.87995682E+03</totfact>
</mgrwt>
</event>
<event>
 8    1  0.3177960E-004  0.8915800E+02  0.7546771E-02  0.1315346E+00
          1   -1    0    0  501    0  0.00000000000E+00  0.00000000000E+00  0.53375247828E+03  0.53375247828E+03  0.00000000000E+00 0. -1.
         -1   -1    0    0    0  501 -0.00000000000E+00 -0.00000000000E+00 -0.12702707488E+02  0.12702707488E+02  0.00000000000E+00 0.  1.
         23    2    1    2    0    0  0.32193195914E+01  0.34384845178E+01  0.24498939591E+03  0.26070855852E+03  0.89033483501E+02 0.  0.
         23    2    1    2    0    0 -0.32193195914E+01 -0.34384845178E+01  0.27606037488E+03  0.28574662725E+03  0.73618049465E+02 0.  0.
          5    1    3    3  502    0  0.43732013658E+02 -0.11918007752E+02  0.12344277371E+03  0.13158547150E+03  0.47000000000E+01 0. -1.
         -5    1    4    4    0  503 -0.23991545171E+02  0.26750980880E+02  0.15465293178E+03  0.15884214972E+03  0.47000000000E+01 0.  1.
          5    1    4    4  503    0  0.20772225580E+02 -0.30189465397E+02  0.12140744310E+03  0.12690447753E+03  0.47000000000E+01 0. -1.
         -5    1    3    3    0  502 -0.40512694067E+02  0.15356492270E+02  0.12154662220E+03  0.12912308703E+03  0.47000000000E+01 0.  1.
<mgrwt>
<rscale>  0 0.85033116E+02</rscale>
<asrwt>0</asrwt>
<pdfrwt beam="1">  1        1 0.82115749E-01 0.89157997E+02</pdfrwt>
<pdfrwt beam="2">  1       -1 0.19542631E-02 0.89157997E+02</pdfrwt>
<totfact> 0.26324731E+04</totfact>
</mgrwt>
</event>
<event>
 8    1  0.3177960E-004  0.1052590E+03  0.7546771E-02  0.1270797E+00
          1   -1    0    0  501    0  0.00000000000E+00  0.00000000000E+00  0.36899262384E+03  0.36899262384E+03  0.00000000000E+00 0. -1.
         -1   -1    0    0    0  501 -0.00000000000E+00 -0.00000000000E+00 -0.39896216240E+02  0.39896216240E+02  0.00000000000E+00 0.  1.
         23    2    1    2    0    0 -0.89650417700E+01  0.48888328709E+02  0.58047813103E+02  0.11811951204E+03  0.90067918048E+02 0.  0.
         23    2    1    2    0    0  0.89650417700E+01 -0.48888328709E+02  0.27104859450E+03  0.29076932804E+03  0.92784809589E+02 0.  0.
          5    1    3    3  502    0 -0.47754580256E+02  0.12757070808E+02  0.28357375091E+02  0.57179310184E+02  0.47000000000E+01 0. -1.
         -5    1    4    4    0  503  0.25943941171E+02 -0.71711829991E+02  0.19412814212E+03  0.20862286598E+03  0.47000000000E+01 0.  1.
          5    1    4    4  503    0 -0.16978899401E+02  0.22823501282E+02  0.76920452373E+02  0.82146462060E+02  0.47000000000E+01 0. -1.
         -5    1    3    3    0  502  0.38789538486E+02  0.36131257901E+02  0.29690438012E+02  0.60940201860E+02  0.47000000000E+01 0.  1.
<mgrwt>
<rscale>  0 0.10465715E+03</rscale>
<asrwt>0</asrwt>
<pdfrwt beam="1">  1        1 0.56768093E-01 0.10525902E+03</pdfrwt>
<pdfrwt beam="2">  1       -1 0.61378797E-02 0.10525902E+03</pdfrwt>
<totfact> 0.81096849E+03</totfact>
</mgrwt>
</event>
<event>
 8    1  0.3177960E-004  0.3284869E+03  0.7546771E-02  0.1071846E+00
          1   -1    0    0  501    0  0.00000000000E+00  0.00000000000E+00  0.47527506199E+03  0.47527506199E+03  0.00000000000E+00 0. -1.
         -1   -1    0    0    0  501 -0.00000000000E+00 -0.00000000000E+00 -0.64775194145E+03  0.64775194145E+03  0.00000000000E+00 0.  1.
         23    2    1    2    0    0 -0.26045138049E+03  0.17807159922E+03 -0.53891408285E+03  0.63113549813E+03  0.91428727730E+02 0.  0.
         23    2    1    2    0    0  0.26045138049E+03 -0.17807159922E+03  0.36643720339E+03  0.49189150532E+03  0.90203175810E+02 0.  0.
          5    1    3    3  502    0 -0.16980672056E+03  0.99469198888E+02 -0.41092139587E+03  0.45563903197E+03  0.47000000000E+01 0. -1.
         -5    1    3    3    0  502 -0.90644659928E+02  0.78602400335E+02 -0.12799268698E+03  0.17549646615E+03  0.47000000000E+01 0.  1.
          5    1    4    4  503    0  0.25650490832E+03 -0.15718164810E+03  0.31284257096E+03  0.43404308852E+03  0.47000000000E+01 0. -1.
         -5    1    4    4    0  503  0.39464721779E+01 -0.20889951124E+02  0.53594632430E+02  0.57848416797E+02  0.47000000000E+01 0.  1.
<mgrwt>
<rscale>  0 0.32840209E+03</rscale>
<asrwt>0</asrwt>
<pdfrwt beam="1">  1        1 0.73119240E-01 0.32848688E+03</pdfrwt>
<pdfrwt beam="2">  1       -1 0.99654145E-01 0.32848688E+03</pdfrwt>
<totfact> 0.49165015E+01</totfact>
</mgrwt>
</event>
<event>
 8    1  0.3177960E-004  0.1197905E+03  0.7546771E-02  0.1243698E+00
          2   -1    0    0  501    0  0.00000000000E+00  0.00000000000E+00  0.37298794824E+03  0.37298794824E+03  0.00000000000E+00 0. -1.
         -2   -1    0    0    0  501 -0.00000000000E+00 -0.00000000000E+00 -0.41195431988E+02  0.41195431988E+02  0.00000000000E+00 0.  1.
         23    2    1    2    0    0  0.37216364299E+02 -0.66761141614E+02  0.11036585756E+03  0.16243046160E+03  0.91438091304E+02 0.  0.
         23    2    1    2    0    0 -0.37216364299E+02  0.66761141614E+02  0.22142665870E+03  0.25175291863E+03  0.92236972274E+02 0.  0.
          5    1    3    3  502    0 -0.24903340208E+02 -0.58490891068E+01  0.64031035897E+01  0.26785778549E+02  0.47000000000E+01 0. -1.
         -5    1    3    3    0  502  0.62119704507E+02 -0.60912052507E+02  0.10396275397E+03  0.13564468305E+03  0.47000000000E+01 0.  1.
          5    1    4    4  503    0  0.11362549617E+02  0.66741941027E+02  0.15604596316E+03  0.17016470505E+03  0.47000000000E+01 0. -1.
         -5    1    4    4    0  503 -0.48578913915E+02  0.19200586083E-01  0.65380695535E+02  0.81588213576E+02  0.47000000000E+01 0.  1.
<mgrwt>
<rscale>  0 0.11963671E+03</rscale>
<asrwt>0</asrwt>
<pdfrwt beam="1">  1        2 0.57382759E-01 0.11979051E+03</pdfrwt>
<pdfrwt beam="2">  1       -2 0.63377590E-02 0.11979051E+03</pdfrwt>
<totfact> 0.10991401E+04</totfact>
</mgrwt>
</event>
<event>
 8    1  0.3177960E-004  0.9391621E+02  0.7546771E-02  0.1294585E+00
         -1   -1    0    0    0  501 -0.00000000000E+00  0.00000000000E+00  0.95365488801E+02  0.95365488801E+02  0.00000000000E+00 0.  1.
          1   -1    0    0  501    0  0.00000000000E+00 -0.00000000000E+00 -0.25509532380E+03  0.25509532380E+03  0.00000000000E+00 0. -1.
         23    2    1    2    0    0 -0.14415340268E+02 -0.24966843349E+02  0.60979332675E+02  0.11060087089E+03  0.87652315006E+02 0.  0.
         23    2    1    2    0    0  0.14415340268E+02  0.24966843349E+02 -0.22070916768E+03  0.23985994171E+03  0.89381819411E+02 0.  0.
          5    1    3    3  502    0 -0.43861430696E+02  0.10566850196E+02  0.24269131339E+02  0.51444768070E+02  0.47000000000E+01 0. -1.
         -5    1    3    3    0  502  0.29446090428E+02 -0.35533693546E+02  0.36710201336E+02  0.59156102818E+02  0.47000000000E+01 0.  1.
          5    1    4    4  503    0 -0.15221663111E+02  0.47889427645E+02 -0.83666848176E+02  0.97710428265E+02  0.47000000000E+01 0. -1.
         -5    1    4    4    0  503  0.29637003379E+02 -0.22922584295E+02 -0.13704231950E+03  0.14214951345E+03  0.47000000000E+01 0.  1.
<mgrwt>
<rscale>  0 0.93502366E+02</rscale>
<asrwt>0</asrwt>
<pdfrwt beam="1">  1        1 0.39245435E-01 0.93916212E+02</pdfrwt>
<pdfrwt beam="2">  1       -1 0.14671614E-01 0.93916212E+02</pdfrwt>
<totfact> 0.33933032E+03</totfact>
</mgrwt>
</event>
<event>
 8    1  0.3177960E-004  0.9415506E+02  0.7546771E-02  0.1294354E+00
          1   -1    0    0  501    0  0.00000000000E+00  0.00000000000E+00  0.19078362506E+03  0.19078362506E+03  0.00000000000E+00 0. -1.
         -1   -1    0    0    0  501 -0.00000000000E+00 -0.00000000000E+00 -0.20265305436E+03  0.20265305436E+03  0.00000000000E+00 0.  1.
         23    2    1    2    0    0  0.65802766920E+01  0.89032483469E+01 -0.17920811202E+03  0.20142779926E+03  0.91296456819E+02 0.  0.
         23    2    1    2    0    0 -0.65802766920E+01 -0.89032483469E+01  0.16733868272E+03  0.19200888016E+03  0.93501911510E+02 0.  0.
          5    1    4    4  502    0 -0.28573476457E+02 -0.12976854777E+02  0.16611685986E+03  0.16912049979E+03  0.47000000000E+01 0. -1.
         -5    1    3    3    0  503  0.25718690277E+02  0.40511990526E+02 -0.13646111389E+03  0.14472870485E+03  0.47000000000E+01 0.  1.
          5    1    3    3  503    0 -0.19138413585E+02 -0.31608742179E+02 -0.42746998134E+02  0.56699094403E+02  0.47000000000E+01 0. -1.
         -5    1    4    4    0  502  0.21993199765E+02  0.40736064305E+01  0.12218228533E+01  0.22888380379E+02  0.47000000000E+01 0.  1.
<mgrwt>
<rscale>  0 0.93602772E+02</rscale>
<asrwt>0</asrwt>
<pdfrwt beam="1">  1        1 0.29351327E-01 0.94155060E+02</pdfrwt>
<pdfrwt beam="2">  1       -1 0.31177393E-01 0.94155060E+02</pdfrwt>
<totfact> 0.14463196E+03</totfact>
</mgrwt>
</event>
<event>
 8    1  0.3177960E-004  0.1087086E+03  0.7546771E-02  0.1263248E+00
         -2   -1    0    0    0  501 -0.00000000000E+00  0.00000000000E+00  0.21593108280E+02  0.21593108280E+02  0.00000000000E+00 0.  1.
          2   -1    0    0  501    0  0.00000000000E+00 -0.00000000000E+00 -0.64782710872E+03  0.64782710872E+03  0.00000000000E+00 0. -1.
         23    2    1    2    0    0  0.13625563863E+02 -0.57565441257E+02 -0.17870433736E+03  0.20887666544E+03  0.90525052649E+02 0.  0.
         23    2    1    2    0    0 -0.13625563863E+02  0.57565441257E+02 -0.44752966308E+03  0.46054355156E+03  0.91203769261E+02 0.  0.
          5    1    3    3  502    0  0.39904743543E+02 -0.53946673948E+02 -0.16596029935E+03  0.17907412753E+03  0.47000000000E+01 0. -1.
         -5    1    3    3    0  502 -0.26279179680E+02 -0.36187673096E+01 -0.12744038004E+02  0.29802537915E+02  0.47000000000E+01 0.  1.
          5    1    4    4  503    0  0.20980935509E+02  0.68421417398E+02 -0.31487833734E+03  0.32294294750E+03  0.47000000000E+01 0. -1.
         -5    1    4    4    0  503 -0.34606499372E+02 -0.10855976141E+02 -0.13265132574E+03  0.13760060406E+03  0.47000000000E+01 0.  1.
<mgrwt>
<rscale>  0 0.10856614E+03</rscale>
<asrwt>0</asrwt>
<pdfrwt beam="1">  1        2 0.99665712E-01 0.10870862E+03</pdfrwt>
<pdfrwt beam="2">  1       -2 0.33220165E-02 0.10870862E+03</pdfrwt>
<totfact> 0.15611086E+04</totfact>
</mgrwt>
</event>
<event>
 8    1  0.3177960E-004  0.1543050E+03  0.7546771E-02  0.1200416E+00
         -2   -1    0    0    0  501 -0.00000000000E+00  0.00000000000E+00  0.54395482422E+02  0.54395482422E+02  0.00000000000E+00 0.  1.
          2   -1    0    0  501    0  0.00000000000E+00 -0.00000000000E+00 -0.50671809981E+03  0.50671809981E+03  0.00000000000E+00 0. -1.
         23    2    1    2    0    0 -0.47615160487E+02 -0.92280776039E+02 -0.36894349298E+03  0.39991164591E+03  0.11413622735E+03 0.  0.
         23    2    1    2    0    0  0.47615160487E+02  0.92280776039E+02 -0.83379124408E+02  0.16120193631E+03  0.90835239583E+02 0.  0.
          5    1    4    4  502    0  0.18656548088E+02 -0.99663052777E+01  0.57578087331E+01  0.22419553717E+02  0.47000000000E+01 0. -1.
         -5    1    4    4    0  502  0.28958612399E+02  0.10224708132E+03 -0.89136933141E+02  0.13878238260E+03  0.47000000000E+01 0.  1.
          5    1    3    3  503    0  0.17426863611E+02 -0.61550477106E+02 -0.26986000902E+03  0.27737820981E+03  0.47000000000E+01 0. -1.
         -5    1    3    3    0  503 -0.65042024097E+02 -0.30730298933E+02 -0.99083483951E+02  0.12253343610E+03  0.47000000000E+01 0.  1.
<mgrwt>
<rscale>  0 0.15004660E+03</rscale>
<asrwt>0</asrwt>
<pdfrwt beam="1">  1        2 0.77956631E-01 0.15430497E+03</pdfrwt>
<pdfrwt beam="2">  1       -2 0.83685358E-02 0.15430497E+03</pdfrwt>
<totfact> 0.52387344E+03</totfact>
</mgrwt>
</event>
<event>
 8    1  0.3177960E-004  0.1245241E+03  0.7546771E-02  0.1235990E+00
         -3   -1    0    0    0  501 -0.00000000000E+00  0.00000000000E+00  0.42529226874E+03  0.42529226874E+03  0.00000000000E+00 0.  1.
          3   -1    0    0  501    0  0.00000000000E+00 -0.00000000000E+00 -0.17058616591E+03  0.17058616591E+03  0.00000000000E+00 0. -1.
         23    2    1    2    0    0 -0.37957744138E+01 -0.83942748647E+02  0.39161999642E+03  0.41080636537E+03  0.91295428554E+02 0.  0.
         23    2    1    2    0    0  0.37957744138E+01  0.83942748647E+02 -0.13691389359E+03  0.18507206928E+03  0.91899203563E+02 0.  0.
          5    1    4    4  502    0 -0.32486580403E+02  0.79253908698E+02 -0.80295911716E+02  0.11749929101E+03  0.47000000000E+01 0. -1.
         -5    1    4    4    0  502  0.36282354817E+02  0.46888399494E+01 -0.56617981877E+02  0.67572778269E+02  0.47000000000E+01 0.  1.
          5    1    3    3  503    0  0.38443532702E+02 -0.25474222484E+02  0.97865213377E+02  0.10828910937E+03  0.47000000000E+01 0. -1.
         -5    1    3    3    0  503 -0.42239307116E+02 -0.58468526163E+02  0.29375478304E+03  0.30251725600E+03  0.47000000000E+01 0.  1.
<mgrwt>
<rscale>  0 0.12441274E+03</rscale>
<asrwt>0</asrwt>
<pdfrwt beam="1">  1        3 0.26244026E-01 0.12452412E+03</pdfrwt>
<pdfrwt beam="2">  1       -3 0.65429579E-01 0.12452412E+03</pdfrwt>
<totfact> 0.73746777E+01</totfact>
</mgrwt>
</event>
<event>
 8    1  0.3177960E-004  0.1471278E+03  0.7546771E-02  0.1204187E+00
         -2   -1    0    0    0  501 -0.00000000000E+00  0.00000000000E+00  0.26313234908E+02  0.26313234908E+02  0.00000000000E+00 0.  1.
          2   -1    0    0  501    0  0.00000000000E+00 -0.00000000000E+00 -0.10493707806E+04  0.10493707806E+04  0.00000000000E+00 0. -1.
         23    2    1    2    0    0  0.41673099880E+01  0.11470188038E+03 -0.26077515159E+03  0.29941655869E+03  0.92047314453E+02 0.  0.
         23    2    1    2    0    0 -0.41673099880E+01 -0.11470188038E+03 -0.76228239408E+03  0.77626745679E+03  0.91339084242E+02 0.  0.
          5    1    4    4  502    0  0.40022246062E+02 -0.53942797061E+02 -0.45181572806E+03  0.45680537175E+03  0.47000000000E+01 0. -1.
         -5    1    4    4    0  502 -0.44189556050E+02 -0.60759083324E+02 -0.31046666602E+03  0.31946208504E+03  0.47000000000E+01 0.  1.
          5    1    3    3  503    0  0.43949714964E+02  0.44282711601E+02 -0.82024529943E+02  0.10316321779E+03  0.47000000000E+01 0. -1.
         -5    1    3    3    0  503 -0.39782404976E+02  0.70419168783E+02 -0.17875062164E+03  0.19625334090E+03  0.47000000000E+01 0.  1.
<mgrwt>
<rscale>  0 0.14701718E+03</rscale>
<asrwt>0</asrwt>
<pdfrwt beam="1">  1        2 0.16144161E+00 0.14712782E+03</pdfrwt>
<pdfrwt beam="2">  1       -2 0.40481912E-02 0.14712782E+03</pdfrwt>
<totfact> 0.64545482E+03</totfact>
</mgrwt>
</event>
<event>
 7    1  0.3177960E-004  0.7697335E+02  0.7546771E-02  0.1355391E+00
         -3   -1    0    0    0  501 -0.00000000000E+00  0.00000000000E+00  0.37441800159E+02  0.37441800159E+02  0.00000000000E+00 0.  1.
          3   -1    0    0  501    0  0.00000000000E+00 -0.00000000000E+00 -0.47411427953E+03  0.47411427953E+03  0.00000000000E+00 0. -1.
         23    2    1    2    0    0 -0.12081969743E+02  0.29417416976E+02 -0.44704942508E+03  0.45362769390E+03  0.70096631817E+02 0.  0.
          5    1    1    2  502    0  0.25112640026E+02 -0.52467899106E+01 -0.43095765784E+01  0.26435505362E+02  0.47000000000E+01 0. -1.
         -5    1    3    3    0  503 -0.38327397687E+02  0.25996346068E+01 -0.20146463776E+03  0.20514833117E+03  0.47000000000E+01 0.  1.
          5    1    3    3  503    0  0.26245427944E+02  0.26817782370E+02 -0.24558478732E+03  0.24847936273E+03  0.47000000000E+01 0. -1.
         -5    1    1    2    0  502 -0.13030670283E+02 -0.24170627066E+02  0.14686522288E+02  0.31492880428E+02  0.47000000000E+01 0.  1.
<mgrwt>
<rscale>  0 0.71401538E+02</rscale>
<asrwt>0</asrwt>
<pdfrwt beam="1">  1        3 0.72940656E-01 0.76973347E+02</pdfrwt>
<pdfrwt beam="2">  1       -3 0.57602771E-02 0.76973347E+02</pdfrwt>
<totfact> 0.69567346E+02</totfact>
</mgrwt>
</event>
<event>
 8    1  0.3177960E-004  0.1819300E+03  0.7546771E-02  0.1167056E+00
          2   -1    0    0  501    0  0.00000000000E+00  0.00000000000E+00  0.79044194699E+03  0.79044194699E+03  0.00000000000E+00 0. -1.
         -2   -1    0    0    0  501 -0.00000000000E+00 -0.00000000000E+00 -0.74907490575E+02  0.74907490575E+02  0.00000000000E+00 0.  1.
         23    2    1    2    0    0  0.14724776155E+03  0.53336199217E+02  0.63446926895E+02  0.18835855344E+03  0.83227271337E+02 0.  0.
         23    2    1    2    0    0 -0.14724776155E+03 -0.53336199217E+02  0.65208752952E+03  0.67699088412E+03  0.92584326981E+02 0.  0.
          5    1    3    3  502    0  0.30984243042E+02  0.48748266179E+02  0.37581876278E+02  0.69071732257E+02  0.47000000000E+01 0. -1.
         -5    1    4    4    0  503 -0.61413622995E+02 -0.31509514884E+02  0.12846507236E+03  0.14591040893E+03  0.47000000000E+01 0.  1.
          5    1    4    4  503    0 -0.85834138555E+02 -0.21826684333E+02  0.52362245715E+03  0.53108047519E+03  0.47000000000E+01 0. -1.
         -5    1    3    3    0  502  0.11626351851E+03  0.45879330382E+01  0.25865050617E+02  0.11928682119E+03  0.47000000000E+01 0.  1.
<mgrwt>
<rscale>  0 0.18077430E+03</rscale>
<asrwt>0</asrwt>
<pdfrwt beam="1">  1        2 0.12160645E+00 0.18192996E+03</pdfrwt>
<pdfrwt beam="2">  1       -2 0.11524230E-01 0.18192996E+03</pdfrwt>
<totfact> 0.18912586E+03</totfact>
</mgrwt>
</event>
<event>
 8    1  0.3177960E-004  0.1181544E+03  0.7546771E-02  0.1251563E+00
          1   -1    0    0  501    0  0.00000000000E+00  0.00000000000E+00  0.16061760057E+03  0.16061760057E+03  0.00000000000E+00 0. -1.
         -1   -1    0    0    0  501 -0.00000000000E+00 -0.00000000000E+00 -0.78256859129E+02  0.78256859129E+02  0.00000000000E+00 0.  1.
         23    2    1    2    0    0  0.21031403873E+01  0.56924466152E+02  0.38774998234E+02  0.11293728067E+03  0.89479108352E+02 0.  0.
         23    2    1    2    0    0 -0.21031403873E+01 -0.56924466152E+02  0.43585743212E+02  0.12593717903E+03  0.10351636588E+03 0.  0.
          5    1    3    3  502    0 -0.20924255237E+02  0.50353289364E+02  0.59556069132E+02  0.80884445832E+02  0.47000000000E+01 0. -1.
         -5    1    3    3    0  502  0.23027395624E+02  0.65711767877E+01 -0.20781070899E+02  0.32052834840E+02  0.47000000000E+01 0.  1.
          5    1    4    4  503    0 -0.41155099968E+01 -0.83647121499E+02  0.50442544727E+02  0.97879102347E+02  0.47000000000E+01 0. -1.
         -5    1    4    4    0  503  0.20123696095E+01  0.26722655347E+02 -0.68568015148E+01  0.28058076685E+02  0.47000000000E+01 0.  1.
<mgrwt>
<rscale>  0 0.11501059E+03</rscale>
<asrwt>0</asrwt>
<pdfrwt beam="1">  1        1 0.24710400E-01 0.11815437E+03</pdfrwt>
<pdfrwt beam="2">  1       -1 0.12039517E-01 0.11815437E+03</pdfrwt>
<totfact> 0.82747072E+03</totfact>
</mgrwt>
</event>
<event>
 8    1  0.3177960E-004  0.9346039E+02  0.7546771E-02  0.1295081E+00
         -1   -1    0    0    0  501 -0.00000000000E+00  0.00000000000E+00  0.47329446633E+02  0.47329446633E+02  0.00000000000E+00 0.  1.
          1   -1    0    0  501    0  0.00000000000E+00 -0.00000000000E+00 -0.30736913929E+03  0.30736913929E+03  0.00000000000E+00 0. -1.
         23    2    1    2    0    0  0.13503118521E+02  0.53049122845E+01 -0.17007708512E+02  0.94315426631E+02  0.91627841007E+02 0.  0.
         23    2    1    2    0    0 -0.13503118521E+02 -0.53049122845E+01 -0.24303198415E+03  0.26038315929E+03  0.92327504141E+02 0.  0.
          5    1    4    4  502    0 -0.16954514946E+02 -0.39896781247E+02 -0.20081056683E+03  0.20549010312E+03  0.47000000000E+01 0. -1.
         -5    1    4    4    0  502  0.34513964250E+01  0.34591868962E+02 -0.42221417323E+02  0.54893056176E+02  0.47000000000E+01 0.  1.
          5    1    3    3  503    0  0.24213151043E+02 -0.39084062420E+02 -0.14101259020E+02  0.48319521155E+02  0.47000000000E+01 0. -1.
         -5    1    3    3    0  503 -0.10710032521E+02  0.44388974705E+02 -0.29064494920E+01  0.45995905476E+02  0.47000000000E+01 0.  1.
<mgrwt>
<rscale>  0 0.93287128E+02</rscale>
<asrwt>0</asrwt>
<pdfrwt beam="1">  1        1 0.47287559E-01 0.93460389E+02</pdfrwt>
<pdfrwt beam="2">  1       -1 0.72814535E-02 0.93460389E+02</pdfrwt>
<totfact> 0.78102442E+03</totfact>
</mgrwt>
</event>
<event>
 8    1  0.3177960E-004  0.1217186E+03  0.7546771E-02  0.1240355E+00
         -1   -1    0    0    0  501 -0.00000000000E+00  0.00000000000E+00  0.45493516438E+02  0.45493516438E+02  0.00000000000E+00 0.  1.
          1   -1    0    0  501    0  0.00000000000E+00 -0.00000000000E+00 -0.35334701848E+03  0.35334701848E+03  0.00000000000E+00 0. -1.
         23    2    1    2    0    0 -0.34647522329E+02  0.70648989453E+02 -0.97756918679E+02  0.15611483626E+03  0.92863859695E+02 0.  0.
         23    2    1    2    0    0  0.34647522329E+02 -0.70648989453E+02 -0.21009658337E+03  0.24272569866E+03  0.92646963969E+02 0.  0.
          5    1    4    4  502    0 -0.25696944132E+02 -0.13878016038E+02 -0.10345046339E+03  0.10759656426E+03  0.47000000000E+01 0. -1.
         -5    1    3    3    0  503  0.13044884154E+02  0.70354030629E+02 -0.72380236586E+02  0.10188644305E+03  0.47000000000E+01 0.  1.
          5    1    3    3  503    0 -0.47692406483E+02  0.29495882419E+00 -0.25376682093E+02  0.54228393217E+02  0.47000000000E+01 0. -1.
         -5    1    4    4    0  502  0.60344466461E+02 -0.56770973415E+02 -0.10664611998E+03  0.13512913440E+03  0.47000000000E+01 0.  1.
<mgrwt>
<rscale>  0 0.12167727E+03</rscale>
<asrwt>0</asrwt>
<pdfrwt beam="1">  1        1 0.54361078E-01 0.12171864E+03</pdfrwt>
<pdfrwt beam="2">  1       -1 0.69990028E-02 0.12171864E+03</pdfrwt>
<totfact> 0.71127195E+03</totfact>
</mgrwt>
</event>
<event>
 8    1  0.3177960E-004  0.1004417E+03  0.7546771E-02  0.1282919E+00
         -1   -1    0    0    0  501 -0.00000000000E+00  0.00000000000E+00  0.10333686378E+03  0.10333686378E+03  0.00000000000E+00 0.  1.
          1   -1    0    0  501    0  0.00000000000E+00 -0.00000000000E+00 -0.11463810654E+03  0.11463810654E+03  0.00000000000E+00 0. -1.
         23    2    1    2    0    0  0.89783770639E+01  0.26287029236E+02 -0.54885043433E+02  0.11445914740E+03  0.96524138276E+02 0.  0.
         23    2    1    2    0    0 -0.89783770639E+01 -0.26287029236E+02  0.43583800673E+02  0.10351582293E+03  0.89690349283E+02 0.  0.
          5    1    4    4  502    0 -0.47844919972E+02 -0.22649306100E+02  0.33857694353E+02  0.63012386884E+02  0.47000000000E+01 0. -1.
         -5    1    3    3    0  503  0.16254972479E+02  0.60436620516E+02 -0.22698933975E+02  0.66739349962E+02  0.47000000000E+01 0. -1.
          5    1    3    3  503    0 -0.72765954152E+01 -0.34149591280E+02 -0.32186109458E+02  0.47719797437E+02  0.47000000000E+01 0.  1.
         -5    1    4    4    0  502  0.38866542908E+02 -0.36377231361E+01  0.97261063200E+01  0.40503436044E+02  0.47000000000E+01 0.  1.
<mgrwt>
<rscale>  0 0.98762994E+02</rscale>
<asrwt>0</asrwt>
<pdfrwt beam="1">  1        1 0.17636632E-01 0.10044167E+03</pdfrwt>
<pdfrwt beam="2">  1       -1 0.15897979E-01 0.10044167E+03</pdfrwt>
<totfact> 0.81187741E+03</totfact>
</mgrwt>
</event>
<event>
 8    1  0.3177960E-004  0.9909880E+02  0.7546771E-02  0.1283395E+00
          1   -1    0    0  501    0  0.00000000000E+00  0.00000000000E+00  0.77286929846E+03  0.77286929846E+03  0.00000000000E+00 0. -1.
         -1   -1    0    0    0  501 -0.00000000000E+00 -0.00000000000E+00 -0.26065239423E+02  0.26065239423E+02  0.00000000000E+00 0.  1.
         23    2    1    2    0    0 -0.14460538644E+02 -0.29008748634E+02  0.82418633864E+02  0.12719904993E+03  0.91302532389E+02 0.  0.
         23    2    1    2    0    0  0.14460538644E+02  0.29008748634E+02  0.66438542517E+03  0.67173548795E+03  0.93648053443E+02 0.  0.
          5    1    4    4  502    0  0.41266204759E+02  0.49227582174E+02  0.47384938405E+03  0.47820663240E+03  0.47000000000E+01 0. -1.
         -5    1    4    4    0  502 -0.26805666115E+02 -0.20218833540E+02  0.19053604112E+03  0.19352885555E+03  0.47000000000E+01 0.  1.
          5    1    3    3  503    0 -0.23133620880E+02 -0.49880721411E+02  0.87605544022E+02  0.10353778116E+03  0.47000000000E+01 0. -1.
         -5    1    3    3    0  503  0.86730822365E+01  0.20871972777E+02 -0.51869101587E+01  0.23661268775E+02  0.47000000000E+01 0.  1.
<mgrwt>
<rscale>  0 0.98540738E+02</rscale>
<asrwt>0</asrwt>
<pdfrwt beam="1">  1        1 0.11890295E+00 0.99098802E+02</pdfrwt>
<pdfrwt beam="2">  1       -1 0.40100374E-02 0.99098802E+02</pdfrwt>
<totfact> 0.56739986E+03</totfact>
</mgrwt>
</event>
<event>
 8    1  0.3177960E-004  0.1825470E+03  0.7546771E-02  0.1165363E+00
         -2   -1    0    0    0  501 -0.00000000000E+00  0.00000000000E+00  0.56931595209E+02  0.56931595209E+02  0.00000000000E+00 0.  1.
          2   -1    0    0  501    0  0.00000000000E+00 -0.00000000000E+00 -0.58720242492E+03  0.58720242492E+03  0.00000000000E+00 0. -1.
         23    2    1    2    0    0 -0.40855933855E+02  0.15208813646E+03 -0.28349519255E+03  0.33717862755E+03  0.92303272393E+02 0.  0.
         23    2    1    2    0    0  0.40855933855E+02 -0.15208813646E+03 -0.24677563716E+03  0.30695539258E+03  0.92322204015E+02 0.  0.
          5    1    3    3  502    0 -0.53312544477E+02  0.96376679562E+02 -0.24357384022E+03  0.26735930394E+03  0.47000000000E+01 0. -1.
         -5    1    4    4    0  503  0.62402838883E+02 -0.13878398378E+03 -0.18219532085E+03  0.23742858588E+03  0.47000000000E+01 0.  1.
          5    1    4    4  503    0 -0.21546905028E+02 -0.13304152682E+02 -0.64580316311E+02  0.69526806698E+02  0.47000000000E+01 0. -1.
         -5    1    3    3    0  502  0.12456610622E+02  0.55711456897E+02 -0.39921352327E+02  0.69819323611E+02  0.47000000000E+01 0.  1.
<mgrwt>
<rscale>  0 0.18254458E+03</rscale>
<asrwt>0</asrwt>
<pdfrwt beam="1">  1        2 0.90338831E-01 0.18254697E+03</pdfrwt>
<pdfrwt beam="2">  1       -2 0.87587073E-02 0.18254697E+03</pdfrwt>
<totfact> 0.41647675E+03</totfact>
</mgrwt>
</event>
<event>
 8    1  0.3177960E-004  0.1131747E+03  0.7546771E-02  0.1256204E+00
         -4   -1    0    0    0  501 -0.00000000000E+00  0.00000000000E+00  0.50266207221E+02  0.50266207221E+02  0.00000000000E+00 0.  1.
          4   -1    0    0  501    0  0.00000000000E+00 -0.00000000000E+00 -0.24810143267E+03  0.24810143267E+03  0.00000000000E+00 0. -1.
         23    2    1    2    0    0 -0.58457301166E+02 -0.36404977595E+02 -0.10473288622E+03  0.15419951512E+03  0.89810548119E+02 0.  0.
         23    2    1    2    0    0  0.58457301166E+02  0.36404977595E+02 -0.93102339234E+02  0.14416812478E+03  0.85870974009E+02 0.  0.
          5    1    3    3  502    0 -0.87337307840E+01  0.25667574381E+02 -0.51469855228E+02  0.58363845189E+02  0.47000000000E+01 0. -1.
         -5    1    4    4    0  503  0.26735274013E+02  0.23769102341E+02  0.83379929974E+01  0.37031840757E+02  0.47000000000E+01 0.  1.
          5    1    4    4  503    0  0.31722027153E+02  0.12635875254E+02 -0.10144033223E+03  0.10713628402E+03  0.47000000000E+01 0. -1.
         -5    1    3    3    0  502 -0.49723570382E+02 -0.62072551976E+02 -0.53263030987E+02  0.95835669926E+02  0.47000000000E+01 0.  1.
<mgrwt>
<rscale>  0 0.11239157E+03</rscale>
<asrwt>0</asrwt>
<pdfrwt beam="1">  1        4 0.38169452E-01 0.11317470E+03</pdfrwt>
<pdfrwt beam="2">  1       -4 0.77332626E-02 0.11317470E+03</pdfrwt>
<totfact> 0.12343986E+03</totfact>
</mgrwt>
</event>
<event>
 8    1  0.3177960E-004  0.1039098E+03  0.7546771E-02  0.1272395E+00
          1   -1    0    0  501    0  0.00000000000E+00  0.00000000000E+00  0.67032640318E+03  0.67032640318E+03  0.00000000000E+00 0. -1.
         -1   -1    0    0    0  501 -0.00000000000E+00 -0.00000000000E+00 -0.16176788033E+02  0.16176788033E+02  0.00000000000E+00 0.  1.
         23    2    1    2    0    0  0.34532117593E+02 -0.35340546776E+02  0.29917269416E+03  0.31663041719E+03  0.91154258098E+02 0.  0.
         23    2    1    2    0    0 -0.34532117593E+02  0.35340546776E+02  0.35497692098E+03  0.36987277402E+03  0.91410246341E+02 0.  0.
          5    1    4    4  502    0  0.99411797034E+01  0.36498011539E+02  0.27985678728E+03  0.28244086688E+03  0.47000000000E+01 0. -1.
         -5    1    3    3    0  503 -0.16531267310E+02 -0.42022939966E+02  0.19641571085E+03  0.20159472154E+03  0.47000000000E+01 0.  1.
          5    1    3    3  503    0  0.51063384903E+02  0.66823931901E+01  0.10275698331E+03  0.11503569565E+03  0.47000000000E+01 0. -1.
         -5    1    4    4    0  502 -0.44473297296E+02 -0.11574647631E+01  0.75120133705E+02  0.87431907133E+02  0.47000000000E+01 0.  1.
<mgrwt>
<rscale>  0 0.10385351E+03</rscale>
<asrwt>0</asrwt>
<pdfrwt beam="1">  1        1 0.10312712E+00 0.10390984E+03</pdfrwt>
<pdfrwt beam="2">  1       -1 0.24887371E-02 0.10390984E+03</pdfrwt>
<totfact> 0.13911059E+04</totfact>
</mgrwt>
</event>
<event>
 8    1  0.3177960E-004  0.9392110E+02  0.7546771E-02  0.1293843E+00
          4   -1    0    0  501    0  0.00000000000E+00  0.00000000000E+00  0.68548786626E+02  0.68548786626E+02  0.00000000000E+00 0. -1.
         -4   -1    0    0    0  501 -0.00000000000E+00 -0.00000000000E+00 -0.13877255911E+03  0.13877255911E+03  0.00000000000E+00 0.  1.
         23    2    1    2    0    0 -0.65035751668E+01  0.20170283031E+02 -0.63838804062E+02  0.11356304428E+03  0.91498826851E+02 0.  0.
         23    2    1    2    0    0  0.65035751668E+01 -0.20170283031E+02 -0.63849684194E+01  0.93758301452E+02  0.91108256826E+02 0.  0.
          5    1    3    3  502    0  0.24470951438E+02 -0.25308582044E+02 -0.11126255026E+02  0.37218749848E+02  0.47000000000E+01 0. -1.
         -5    1    4    4    0  503  0.36603335201E+02  0.20725045947E+02 -0.60983363092E+01  0.42762265878E+02  0.47000000000E+01 0.  1.
          5    1    4    4  503    0 -0.30099760034E+02 -0.40895328977E+02 -0.28663211025E+00  0.50996035573E+02  0.47000000000E+01 0. -1.
         -5    1    3    3    0  502 -0.30974526604E+02  0.45478865075E+02 -0.52712549036E+02  0.76344294434E+02  0.47000000000E+01 0.  1.
<mgrwt>
<rscale>  0 0.93825836E+02</rscale>
<asrwt>0</asrwt>
<pdfrwt beam="1">  1        4 0.10545967E-01 0.93921095E+02</pdfrwt>
<pdfrwt beam="2">  1       -4 0.21349624E-01 0.93921095E+02</pdfrwt>
<totfact> 0.20851010E+03</totfact>
</mgrwt>
</event>
<event>
 8    1  0.3177960E-004  0.1251134E+03  0.7546771E-02  0.1236256E+00
         -3   -1    0    0    0  501 -0.00000000000E+00  0.00000000000E+00  0.28252570292E+02  0.28252570292E+02  0.00000000000E+00 0.  1.
          3   -1    0    0  501    0  0.00000000000E+00 -0.00000000000E+00 -0.57474822879E+03  0.57474822879E+03  0.00000000000E+00 0. -1.
         23    2    1    2    0    0  0.49231484891E+02 -0.64302682041E+02 -0.35210738757E+03  0.37367494903E+03  0.95366561896E+02 0.  0.
         23    2    1    2    0    0 -0.49231484891E+02  0.64302682041E+02 -0.19438827093E+03  0.22932585005E+03  0.90801826005E+02 0.  0.
          5    1    3    3  502    0  0.65225612595E+02 -0.28240908080E+02 -0.29890685488E+03  0.30727728084E+03  0.47000000000E+01 0. -1.
         -5    1    3    3    0  502 -0.15994127704E+02 -0.36061773960E+02 -0.53200532695E+02  0.66397668191E+02  0.47000000000E+01 0.  1.
          5    1    4    4  503    0  0.17756136770E+02  0.26160613811E+02 -0.11169158232E+03  0.11617554678E+03  0.47000000000E+01 0. -1.
         -5    1    4    4    0  503 -0.66987621660E+02  0.38142068230E+02 -0.82696688608E+02  0.11315030328E+03  0.47000000000E+01 0.  1.
<mgrwt>
<rscale>  0 0.12424345E+03</rscale>
<asrwt>0</asrwt>
<pdfrwt beam="1">  1        3 0.88422807E-01 0.12511337E+03</pdfrwt>
<pdfrwt beam="2">  1       -3 0.43465491E-02 0.12511337E+03</pdfrwt>
<totfact> 0.77812185E+02</totfact>
</mgrwt>
</event>
<event>
 8    1  0.3177960E-004  0.1291864E+03  0.7546771E-02  0.1229289E+00
         -1   -1    0    0    0  501 -0.00000000000E+00  0.00000000000E+00  0.28971248069E+03  0.28971248069E+03  0.00000000000E+00 0.  1.
          1   -1    0    0  501    0  0.00000000000E+00 -0.00000000000E+00 -0.61264679416E+02  0.61264679416E+02  0.00000000000E+00 0. -1.
         23    2    1    2    0    0 -0.37347097520E+02 -0.79883458492E+02  0.16189126573E+03  0.20711813208E+03  0.94408506406E+02 0.  0.
         23    2    1    2    0    0  0.37347097520E+02  0.79883458492E+02  0.66556535540E+02  0.14385902802E+03  0.92138346455E+02 0.  0.
          5    1    3    3  502    0 -0.68968834137E+02 -0.49529886972E+02  0.10356172074E+03  0.13400384244E+03  0.47000000000E+01 0. -1.
         -5    1    3    3    0  502  0.31621736617E+02 -0.30353571520E+02  0.58329544988E+02  0.73114289638E+02  0.47000000000E+01 0.  1.
          5    1    4    4  503    0  0.46358786869E+01  0.46081117389E+02 -0.15580557652E+02  0.49089759907E+02  0.47000000000E+01 0. -1.
         -5    1    4    4    0  503  0.32711218833E+02  0.33802341103E+02  0.82137093192E+02  0.94769268118E+02  0.47000000000E+01 0.  1.
<mgrwt>
<rscale>  0 0.12877206E+03</rscale>
<asrwt>0</asrwt>
<pdfrwt beam="1">  1        1 0.94253354E-02 0.12918645E+03</pdfrwt>
<pdfrwt beam="2">  1       -1 0.44571150E-01 0.12918645E+03</pdfrwt>
<totfact> 0.33855051E+03</totfact>
</mgrwt>
</event>
<event>
 8    1  0.3177960E-004  0.1664940E+03  0.7546771E-02  0.1182478E+00
          1   -1    0    0  501    0  0.00000000000E+00  0.00000000000E+00  0.12782730464E+03  0.12782730464E+03  0.00000000000E+00 0. -1.
         -1   -1    0    0    0  501 -0.00000000000E+00 -0.00000000000E+00 -0.49713739007E+03  0.49713739007E+03  0.00000000000E+00 0.  1.
         23    2    1    2    0    0 -0.66722212563E+02  0.12038852639E+03  0.52629408714E+02  0.17136444192E+03  0.87468087648E+02 0.  0.
         23    2    1    2    0    0  0.66722212563E+02 -0.12038852639E+03 -0.42193949414E+03  0.45360025280E+03  0.93674978950E+02 0.  0.
          5    1    4    4  502    0 -0.16190132133E+02 -0.32874613064E+02 -0.17383837597E+03  0.17772093721E+03  0.47000000000E+01 0. -1.
         -5    1    3    3    0  503  0.19088602481E+02  0.13881177756E+02 -0.16861366694E+01  0.24124570409E+02  0.47000000000E+01 0.  1.
          5    1    3    3  503    0 -0.85810815044E+02  0.10650734864E+03  0.54315545383E+02  0.14723987151E+03  0.47000000000E+01 0. -1.
         -5    1    4    4    0  502  0.82912344696E+02 -0.87513913330E+02 -0.24810111817E+03  0.27587931558E+03  0.47000000000E+01 0.  1.
<mgrwt>
<rscale>  0 0.16563451E+03</rscale>
<asrwt>0</asrwt>
<pdfrwt beam="1">  1        1 0.19665739E-01 0.16649400E+03</pdfrwt>
<pdfrwt beam="2">  1       -1 0.76482675E-01 0.16649400E+03</pdfrwt>
<totfact> 0.46917609E+02</totfact>
</mgrwt>
</event>
<event>
 8    1  0.3177960E-004  0.1171938E+03  0.7546771E-02  0.1247826E+00
          1   -1    0    0  501    0  0.00000000000E+00  0.00000000000E+00  0.23941466325E+03  0.23941466325E+03  0.00000000000E+00 0. -1.
         -1   -1    0    0    0  501 -0.00000000000E+00 -0.00000000000E+00 -0.63822495187E+02  0.63822495187E+02  0.00000000000E+00 0.  1.
         23    2    1    2    0    0  0.54334016580E+02  0.48079539546E+02  0.39480850329E+02  0.12366540144E+03  0.92035680527E+02 0.  0.
         23    2    1    2    0    0 -0.54334016580E+02 -0.48079539546E+02  0.13611131774E+03  0.17957175700E+03  0.91955954755E+02 0.  0.
          5    1    4    4  502    0 -0.50228934083E+02  0.15408729540E+02  0.70615165620E+02  0.88141740287E+02  0.47000000000E+01 0. -1.
         -5    1    4    4    0  502 -0.41050824968E+01 -0.63488269086E+02  0.65496152116E+02  0.91430016712E+02  0.47000000000E+01 0.  1.
          5    1    3    3  503    0 -0.11955468395E+01  0.33453683220E+02  0.54493205696E+02  0.64126263888E+02  0.47000000000E+01 0. -1.
         -5    1    3    3    0  503  0.55529563419E+02  0.14625856326E+02 -0.15012355367E+02  0.59539137552E+02  0.47000000000E+01 0.  1.
<mgrwt>
<rscale>  0 0.11717818E+03</rscale>
<asrwt>0</asrwt>
<pdfrwt beam="1">  1        1 0.36833025E-01 0.11719383E+03</pdfrwt>
<pdfrwt beam="2">  1       -1 0.98188455E-02 0.11719383E+03</pdfrwt>
<totfact> 0.68860423E+03</totfact>
</mgrwt>
</event>
<event>
 8    1  0.3177960E-004  0.9985515E+02  0.7546771E-02  0.1280683E+00
         -3   -1    0    0    0  501 -0.00000000000E+00  0.00000000000E+00  0.28804363198E+03  0.28804363198E+03  0.00000000000E+00 0.  1.
          3   -1    0    0  501    0  0.00000000000E+00 -0.00000000000E+00 -0.34749649340E+02  0.34749649340E+02  0.00000000000E+00 0. -1.
         23    2    1    2    0    0  0.15355798303E+02  0.39040215016E+02  0.11470638105E+03  0.15197883509E+03  0.90443758934E+02 0.  0.
         23    2    1    2    0    0 -0.15355798303E+02 -0.39040215016E+02  0.13858760159E+03  0.17081444623E+03  0.90615190770E+02 0.  0.
          5    1    3    3  502    0  0.21194685133E+02  0.61860984583E+02  0.10914802510E+03  0.12732390771E+03  0.47000000000E+01 0. -1.
         -5    1    3    3    0  502 -0.58388868295E+01 -0.22820769567E+02  0.55583559525E+01  0.24654927376E+02  0.47000000000E+01 0.  1.
          5    1    4    4  503    0  0.28811930494E+02 -0.58798526678E+01  0.97139372235E+02  0.10160141556E+03  0.47000000000E+01 0. -1.
         -5    1    4    4    0  503 -0.44167728797E+02 -0.33160362349E+02  0.41448229353E+02  0.69213030671E+02  0.47000000000E+01 0.  1.
<mgrwt>
<rscale>  0 0.99816245E+02</rscale>
<asrwt>0</asrwt>
<pdfrwt beam="1">  1        3 0.53461001E-02 0.99855154E+02</pdfrwt>
<pdfrwt beam="2">  1       -3 0.44314403E-01 0.99855154E+02</pdfrwt>
<totfact> 0.22507440E+03</totfact>
</mgrwt>
</event>
<event>
 8    1  0.3177960E-004  0.1478228E+03  0.7546771E-02  0.1211344E+00
         -2   -1    0    0    0  501 -0.00000000000E+00  0.00000000000E+00  0.32319068364E+02  0.32319068364E+02  0.00000000000E+00 0.  1.
          2   -1    0    0  501    0  0.00000000000E+00 -0.00000000000E+00 -0.57720917427E+03  0.57720917427E+03  0.00000000000E+00 0. -1.
         23    2    1    2    0    0 -0.64379381465E+02  0.55989171611E+02 -0.27826203104E+03  0.30466416567E+03  0.90061111653E+02 0.  0.
         23    2    1    2    0    0  0.64379381465E+02 -0.55989171611E+02 -0.26662807487E+03  0.30486407696E+03  0.12071488317E+03 0.  0.
          5    1    3    3  502    0 -0.41462468496E+02  0.70890698009E+02 -0.13007223688E+03  0.15390095570E+03  0.47000000000E+01 0. -1.
         -5    1    3    3    0  502 -0.22916912970E+02 -0.14901526398E+02 -0.14818979416E+03  0.15076320998E+03  0.47000000000E+01 0.  1.
          5    1    4    4  503    0  0.24360077766E+02  0.35729487041E+02 -0.11673338857E+03  0.12457441006E+03  0.47000000000E+01 0. -1.
         -5    1    4    4    0  503  0.40019303700E+02 -0.91718658652E+02 -0.14989468629E+03  0.18028966690E+03  0.47000000000E+01 0.  1.
<mgrwt>
<rscale>  0 0.14148572E+03</rscale>
<asrwt>0</asrwt>
<pdfrwt beam="1">  1        2 0.88801414E-01 0.14782278E+03</pdfrwt>
<pdfrwt beam="2">  1       -2 0.49721642E-02 0.14782278E+03</pdfrwt>
<totfact> 0.10007009E+04</totfact>
</mgrwt>
</event>
<event>
 8    1  0.3177960E-004  0.9833151E+02  0.7546771E-02  0.1286117E+00
          1   -1    0    0  501    0  0.00000000000E+00  0.00000000000E+00  0.18379936235E+02  0.18379936235E+02  0.00000000000E+00 0. -1.
         -1   -1    0    0    0  501 -0.00000000000E+00 -0.00000000000E+00 -0.56352497749E+03  0.56352497749E+03  0.00000000000E+00 0.  1.
         23    2    1    2    0    0  0.32146580375E+02  0.88086490385E+01 -0.17295654976E+03  0.19694600853E+03  0.88106567544E+02 0.  0.
         23    2    1    2    0    0 -0.32146580375E+02 -0.88086490385E+01 -0.37218849150E+03  0.38495890519E+03  0.92509948421E+02 0.  0.
          5    1    3    3  502    0  0.52288218887E+02  0.24138169933E+02 -0.15537368412E+03  0.16577026513E+03  0.47000000000E+01 0. -1.
         -5    1    3    3    0  502 -0.20141638512E+02 -0.15329520895E+02 -0.17582865630E+02  0.31175743401E+02  0.47000000000E+01 0.  1.
          5    1    4    4  503    0 -0.74940902877E+00  0.26641668630E+02 -0.34083747207E+02  0.43521626176E+02  0.47000000000E+01 0. -1.
         -5    1    4    4    0  503 -0.31397171346E+02 -0.35450317669E+02 -0.33810474429E+03  0.34143727902E+03  0.47000000000E+01 0.  1.
<mgrwt>
<rscale>  0 0.97282114E+02</rscale>
<asrwt>0</asrwt>
<pdfrwt beam="1">  1        1 0.28276824E-02 0.98331508E+02</pdfrwt>
<pdfrwt beam="2">  1       -1 0.86696153E-01 0.98331508E+02</pdfrwt>
<totfact> 0.47540536E+03</totfact>
</mgrwt>
</event>
<event>
 8    1  0.3177960E-004  0.1442202E+03  0.7546771E-02  0.1207776E+00
         -1   -1    0    0    0  501 -0.00000000000E+00  0.00000000000E+00  0.91956335357E+02  0.91956335357E+02  0.00000000000E+00 0.  1.
          1   -1    0    0  501    0  0.00000000000E+00 -0.00000000000E+00 -0.31973723391E+03  0.31973723391E+03  0.00000000000E+00 0. -1.
         23    2    1    2    0    0 -0.47889127751E+02 -0.10039799606E+03 -0.24877194765E+01  0.14419315103E+03  0.91718863303E+02 0.  0.
         23    2    1    2    0    0  0.47889127751E+02  0.10039799606E+03 -0.22529317908E+03  0.26750041824E+03  0.91795049144E+02 0.  0.
          5    1    4    4  502    0  0.41508839405E+02  0.11183163606E+02 -0.12870446280E+03  0.13577546038E+03  0.47000000000E+01 0. -1.
         -5    1    3    3    0  503 -0.30245676181E+02 -0.48917560225E+02  0.43920604633E+02  0.72517847026E+02  0.47000000000E+01 0.  1.
          5    1    3    3  503    0 -0.17643451570E+02 -0.51480435840E+02 -0.46408324109E+02  0.71675304005E+02  0.47000000000E+01 0. -1.
         -5    1    4    4    0  502  0.63802883459E+01  0.89214832459E+02 -0.96588716280E+02  0.13172495786E+03  0.47000000000E+01 0.  1.
<mgrwt>
<rscale>  0 0.14420805E+03</rscale>
<asrwt>0</asrwt>
<pdfrwt beam="1">  1        1 0.49190343E-01 0.14422017E+03</pdfrwt>
<pdfrwt beam="2">  1       -1 0.14147129E-01 0.14422017E+03</pdfrwt>
<totfact> 0.27769096E+03</totfact>
</mgrwt>
</event>
<event>
 8    1  0.3177960E-004  0.1028823E+03  0.7546771E-02  0.1274622E+00
          2   -1    0    0  501    0  0.00000000000E+00  0.00000000000E+00  0.65172206599E+03  0.65172206599E+03  0.00000000000E+00 0. -1.
         -2   -1    0    0    0  501 -0.00000000000E+00 -0.00000000000E+00 -0.16442908410E+02  0.16442908410E+02  0.00000000000E+00 0.  1.
         23    2    1    2    0    0  0.45154086411E+02 -0.11567775611E+02  0.27273692686E+03  0.29130739056E+03  0.91114540933E+02 0.  0.
         23    2    1    2    0    0 -0.45154086411E+02  0.11567775611E+02  0.36254223072E+03  0.37685758384E+03  0.91717307471E+02 0.  0.
          5    1    3    3  502    0  0.21679935061E+02  0.30696046544E+02  0.20186944364E+03  0.20539140472E+03  0.47000000000E+01 0. -1.
         -5    1    3    3    0  502  0.23474151350E+02 -0.42263822155E+02  0.70867483222E+02  0.85915985841E+02  0.47000000000E+01 0.  1.
          5    1    4    4  503    0 -0.99632055457E+01  0.38737240857E+02  0.68703138319E+02  0.79636992088E+02  0.47000000000E+01 0. -1.
         -5    1    4    4    0  503 -0.35190880865E+02 -0.27169465246E+02  0.29383909240E+03  0.29722059175E+03  0.47000000000E+01 0.  1.
<mgrwt>
<rscale>  0 0.10274780E+03</rscale>
<asrwt>0</asrwt>
<pdfrwt beam="1">  1        2 0.10026491E+00 0.10288231E+03</pdfrwt>
<pdfrwt beam="2">  1       -2 0.25296787E-02 0.10288231E+03</pdfrwt>
<totfact> 0.22956121E+04</totfact>
</mgrwt>
</event>
<event>
 8    1  0.3177960E-004  0.9997290E+02  0.7546771E-02  0.1281525E+00
          1   -1    0    0  501    0  0.00000000000E+00  0.00000000000E+00  0.10989149643E+04  0.10989149643E+04  0.00000000000E+00 0. -1.
         -1   -1    0    0    0  501 -0.00000000000E+00 -0.00000000000E+00 -0.91839703211E+01  0.91839703211E+01  0.00000000000E+00 0.  1.
         23    2    1    2    0    0 -0.96966020746E+01  0.32554891682E+02  0.44083064057E+03  0.45154257767E+03  0.91679881759E+02 0.  0.
         23    2    1    2    0    0  0.96966020746E+01 -0.32554891682E+02  0.64890035343E+03  0.65655635697E+03  0.94025188832E+02 0.  0.
          5    1    4    4  502    0  0.50833210899E+02 -0.96998785606E+01  0.37867780396E+03  0.38222646715E+03  0.47000000000E+01 0. -1.
         -5    1    3    3    0  503 -0.98444064551E+01 -0.26847674142E+02  0.24872226594E+03  0.25040480330E+03  0.47000000000E+01 0. -1.
          5    1    3    3  503    0  0.14780438053E+00  0.59402565824E+02  0.19210837464E+03  0.20113777437E+03  0.47000000000E+01 0.  1.
         -5    1    4    4    0  502 -0.41136608825E+02 -0.22855013121E+02  0.27022254947E+03  0.27432988983E+03  0.47000000000E+01 0.  1.
<mgrwt>
<rscale>  0 0.99417661E+02</rscale>
<asrwt>0</asrwt>
<pdfrwt beam="1">  1        1 0.16906374E+00 0.99972902E+02</pdfrwt>
<pdfrwt beam="2">  1       -1 0.14129194E-02 0.99972902E+02</pdfrwt>
<totfact> 0.14475615E+04</totfact>
</mgrwt>
</event>
<event>
 7    1  0.3177960E-004  0.2982753E+03  0.7546771E-02  0.1099893E+00
          2   -1    0    0  501    0  0.00000000000E+00  0.00000000000E+00  0.38027649921E+03  0.38027649921E+03  0.00000000000E+00 0. -1.
         -2   -1    0    0    0  501 -0.00000000000E+00 -0.00000000000E+00 -0.16994568461E+03  0.16994568461E+03  0.00000000000E+00 0.  1.
         23    2    1    2    0    0 -0.17963418453E+03  0.48068621177E+02  0.11368090591E+03  0.23667892324E+03  0.92274220372E+02 0.  0.
          5    1    3    3  502    0 -0.12334019553E+03  0.57951291651E+02  0.37676801682E+02  0.14146655938E+03  0.47000000000E+01 0. -1.
         -5    1    3    3    0  502 -0.56293988996E+02 -0.98826704740E+01  0.76004104224E+02  0.95212363859E+02  0.47000000000E+01 0.  1.
          5    1    1    2  503    0  0.95365180059E+02  0.79931438781E+02  0.10073744640E+03  0.16016764836E+03  0.47000000000E+01 0. -1.
         -5    1    1    2    0  503  0.84269004470E+02 -0.12800005996E+03 -0.40875377027E+01  0.15337561223E+03  0.47000000000E+01 0.  1.
<mgrwt>
<rscale>  0 0.27243604E+03</rscale>
<asrwt>0</asrwt>
<pdfrwt beam="1">  1        2 0.58504077E-01 0.29827533E+03</pdfrwt>
<pdfrwt beam="2">  1       -2 0.26145490E-01 0.29827533E+03</pdfrwt>
<totfact> 0.11093933E+03</totfact>
</mgrwt>
</event>
<event>
 8    1  0.3177960E-004  0.1642247E+03  0.7546771E-02  0.1184202E+00
          1   -1    0    0  501    0  0.00000000000E+00  0.00000000000E+00  0.59858256639E+03  0.59858256639E+03  0.00000000000E+00 0. -1.
         -1   -1    0    0    0  501 -0.00000000000E+00 -0.00000000000E+00 -0.45795151245E+02  0.45795151245E+02  0.00000000000E+00 0.  1.
         23    2    1    2    0    0  0.60022045190E+02  0.12213386449E+03  0.32298242491E+03  0.36233601046E+03  0.91926116579E+02 0.  0.
         23    2    1    2    0    0 -0.60022045190E+02 -0.12213386449E+03  0.22980499023E+03  0.28204170717E+03  0.90652436729E+02 0.  0.
          5    1    3    3  502    0  0.77686378484E+01  0.96710486860E+02  0.14082177302E+03  0.17107346889E+03  0.47000000000E+01 0. -1.
         -5    1    4    4    0  503 -0.66380481781E+02 -0.10212479083E+03  0.12328208575E+03  0.17336782842E+03  0.47000000000E+01 0.  1.
          5    1    4    4  503    0  0.63584365913E+01 -0.20009073666E+02  0.10652290448E+03  0.10867387876E+03  0.47000000000E+01 0. -1.
         -5    1    3    3    0  502  0.52253407342E+02  0.25423377634E+02  0.18216065189E+03  0.19126254156E+03  0.47000000000E+01 0.  1.
<mgrwt>
<rscale>  0 0.16404698E+03</rscale>
<asrwt>0</asrwt>
<pdfrwt beam="1">  1        1 0.92089620E-01 0.16422466E+03</pdfrwt>
<pdfrwt beam="2">  1       -1 0.70454083E-02 0.16422466E+03</pdfrwt>
<totfact> 0.36187490E+03</totfact>
</mgrwt>
</event>
<event>
 8    1  0.3177960E-004  0.9660997E+02  0.7546771E-02  0.1289076E+00
         -1   -1    0    0    0  501 -0.00000000000E+00  0.00000000000E+00  0.84918613613E+02  0.84918613613E+02  0.00000000000E+00 0.  1.
          1   -1    0    0  501    0  0.00000000000E+00 -0.00000000000E+00 -0.19200547117E+03  0.19200547117E+03  0.00000000000E+00 0. -1.
         23    2    1    2    0    0 -0.29517572583E+01  0.25039647230E+02  0.39045879787E+02  0.10174342676E+03  0.90506614984E+02 0.  0.
         23    2    1    2    0    0  0.29517572583E+01 -0.25039647230E+02 -0.14613273734E+03  0.17518065802E+03  0.93261938742E+02 0.  0.
          5    1    3    3  502    0  0.30024870455E+02 -0.64289202166E+01 -0.11860661162E+02  0.33250400662E+02  0.47000000000E+01 0. -1.
         -5    1    3    3    0  502 -0.32976627713E+02  0.31468567447E+02  0.50906540948E+02  0.68493026096E+02  0.47000000000E+01 0.  1.
          5    1    4    4  503    0 -0.43167476945E+02 -0.12528752515E+02 -0.47985744303E+02  0.65917542139E+02  0.47000000000E+01 0. -1.
         -5    1    4    4    0  503  0.46119234203E+02 -0.12510894716E+02 -0.98146993041E+02  0.10926311589E+03  0.47000000000E+01 0.  1.
<mgrwt>
<rscale>  0 0.95938734E+02</rscale>
<asrwt>0</asrwt>
<pdfrwt beam="1">  1        1 0.29539303E-01 0.96609969E+02</pdfrwt>
<pdfrwt beam="2">  1       -1 0.13064402E-01 0.96609969E+02</pdfrwt>
<totfact> 0.57597024E+03</totfact>
</mgrwt>
</event>
<event>
 8    1  0.3177960E-004  0.9379111E+02  0.7546771E-02  0.1298164E+00
          1   -1    0    0  501    0  0.00000000000E+00  0.00000000000E+00  0.45508236594E+03  0.45508236594E+03  0.00000000000E+00 0. -1.
         -1   -1    0    0    0  501 -0.00000000000E+00 -0.00000000000E+00 -0.18164128514E+02  0.18164128514E+02  0.00000000000E+00 0.  1.
         23    2    1    2    0    0  0.15996521389E+02  0.63314102332E+01  0.19814661600E+03  0.21922329672E+03  0.92199766505E+02 0.  0.
         23    2    1    2    0    0 -0.15996521389E+02 -0.63314102332E+01  0.23877162143E+03  0.25402319773E+03  0.84970126119E+02 0.  0.
          5    1    3    3  502    0 -0.32406251284E+02  0.23034336038E+02  0.63213003238E+02  0.74824591795E+02  0.47000000000E+01 0. -1.
         -5    1    4    4    0  503  0.15665796613E+02  0.18006219825E+02  0.19729165258E+02  0.31320458134E+02  0.47000000000E+01 0.  1.
          5    1    4    4  503    0 -0.31662318002E+02 -0.24337630058E+02  0.21904245617E+03  0.22270273959E+03  0.47000000000E+01 0. -1.
         -5    1    3    3    0  502  0.48402772674E+02 -0.16702925805E+02  0.13493361276E+03  0.14439870493E+03  0.47000000000E+01 0.  1.
<mgrwt>
<rscale>  0 0.91964215E+02</rscale>
<asrwt>0</asrwt>
<pdfrwt beam="1">  1        1 0.70012663E-01 0.93791110E+02</pdfrwt>
<pdfrwt beam="2">  1       -1 0.27944817E-02 0.93791110E+02</pdfrwt>
<totfact> 0.19454942E+04</totfact>
</mgrwt>
</event>
<event>
 8    1  0.3177960E-004  0.1065716E+03  0.7546771E-02  0.1267198E+00
         -1   -1    0    0    0  501 -0.00000000000E+00  0.00000000000E+00  0.16155874343E+02  0.16155874343E+02  0.00000000000E+00 0.  1.
          1   -1    0    0  501    0  0.00000000000E+00 -0.00000000000E+00 -0.70264221139E+03  0.70264221139E+03  0.00000000000E+00 0. -1.
         23    2    1    2    0    0 -0.40024173848E+01  0.50687443250E+02 -0.32551124221E+03  0.34241991303E+03  0.93319835999E+02 0.  0.
         23    2    1    2    0    0  0.40024173848E+01 -0.50687443250E+02 -0.36097509484E+03  0.37637817270E+03  0.93660416085E+02 0.  0.
          5    1    4    4  502    0 -0.35536718326E+02 -0.33384267472E+02 -0.95021772205E+02  0.10690460634E+03  0.47000000000E+01 0. -1.
         -5    1    3    3    0  503 -0.36983752050E+02  0.42524496989E+02 -0.10503880146E+03  0.11929530825E+03  0.47000000000E+01 0.  1.
          5    1    3    3  503    0  0.32981334665E+02  0.81629462612E+01 -0.22047244075E+03  0.22312460478E+03  0.47000000000E+01 0. -1.
         -5    1    4    4    0  502  0.39539135711E+02 -0.17303175778E+02 -0.26595332264E+03  0.26947356636E+03  0.47000000000E+01 0.  1.
<mgrwt>
<rscale>  0 0.10649674E+03</rscale>
<asrwt>0</asrwt>
<pdfrwt beam="1">  1        1 0.10809881E+00 0.10657162E+03</pdfrwt>
<pdfrwt beam="2">  1       -1 0.24855189E-02 0.10657162E+03</pdfrwt>
<totfact> 0.13071285E+04</totfact>
</mgrwt>
</event>
<event>
 8    1  0.3177960E-004  0.9678398E+02  0.7546771E-02  0.1288042E+00
         -1   -1    0    0    0  501 -0.00000000000E+00  0.00000000000E+00  0.33534802986E+02  0.33534802986E+02  0.00000000000E+00 0.  1.
          1   -1    0    0  501    0  0.00000000000E+00 -0.00000000000E+00 -0.30389531383E+03  0.30389531383E+03  0.00000000000E+00 0. -1.
         23    2    1    2    0    0  0.14641502824E+02  0.13821901303E+02 -0.18624712057E+03  0.20920296770E+03  0.93126114564E+02 0.  0.
         23    2    1    2    0    0 -0.14641502824E+02 -0.13821901303E+02 -0.84113390270E+02  0.12822714911E+03  0.94666365653E+02 0.  0.
          5    1    4    4  502    0  0.12986226793E+02  0.30038666017E+02 -0.48691811919E+01  0.33417996168E+02  0.47000000000E+01 0. -1.
         -5    1    3    3    0  503  0.52215237219E+02 -0.31460854837E+01 -0.86897253277E+02  0.10153596151E+03  0.47000000000E+01 0.  1.
          5    1    3    3  503    0 -0.37573734395E+02  0.16967986786E+02 -0.99349867293E+02  0.10766700620E+03  0.47000000000E+01 0. -1.
         -5    1    4    4    0  502 -0.27627729617E+02 -0.43860567320E+02 -0.79244209078E+02  0.94809152943E+02  0.47000000000E+01 0.  1.
<mgrwt>
<rscale>  0 0.96405263E+02</rscale>
<asrwt>0</asrwt>
<pdfrwt beam="1">  1        1 0.46753125E-01 0.96783983E+02</pdfrwt>
<pdfrwt beam="2">  1       -1 0.51592005E-02 0.96783983E+02</pdfrwt>
<totfact> 0.13212389E+04</totfact>
</mgrwt>
</event>
<event>
 8    1  0.3177960E-004  0.1591258E+03  0.7546771E-02  0.1189876E+00
         -1   -1    0    0    0  501 -0.00000000000E+00  0.00000000000E+00  0.12009460411E+03  0.12009460411E+03  0.00000000000E+00 0.  1.
          1   -1    0    0  501    0  0.00000000000E+00 -0.00000000000E+00 -0.35825123559E+03  0.35825123559E+03  0.00000000000E+00 0. -1.
         23    2    1    2    0    0  0.25701546697E+02  0.12579693329E+03 -0.27280798354E+03  0.31549083963E+03  0.92869995573E+02 0.  0.
         23    2    1    2    0    0 -0.25701546697E+02 -0.12579693329E+03  0.34651352055E+02  0.16285500008E+03  0.93997855955E+02 0.  0.
          5    1    4    4  502    0  0.34242345531E+02 -0.35895443730E+02  0.20070700803E+02  0.53720984157E+02  0.47000000000E+01 0. -1.
         -5    1    4    4    0  502 -0.59943892229E+02 -0.89901489561E+02  0.14580651252E+02  0.10913401592E+03  0.47000000000E+01 0.  1.
          5    1    3    3  503    0  0.19019598897E+02  0.98992859917E+02 -0.10603100628E+03  0.14637621306E+03  0.47000000000E+01 0.  1.
         -5    1    3    3    0  503  0.66819478001E+01  0.26804073374E+02 -0.16677697725E+03  0.16911462656E+03  0.47000000000E+01 0. -1.
<mgrwt>
<rscale>  0 0.15895968E+03</rscale>
<asrwt>0</asrwt>
<pdfrwt beam="1">  1        1 0.55115576E-01 0.15912585E+03</pdfrwt>
<pdfrwt beam="2">  1       -1 0.18476093E-01 0.15912585E+03</pdfrwt>
<totfact> 0.15847769E+03</totfact>
</mgrwt>
</event>
<event>
 8    1  0.3177960E-004  0.1911613E+03  0.7546771E-02  0.1157775E+00
         -2   -1    0    0    0  501 -0.00000000000E+00  0.00000000000E+00  0.48063706698E+03  0.48063706698E+03  0.00000000000E+00 0.  1.
          2   -1    0    0  501    0  0.00000000000E+00 -0.00000000000E+00 -0.77429091992E+02  0.77429091992E+02  0.00000000000E+00 0. -1.
         23    2    1    2    0    0 -0.89134300904E+02  0.14273468039E+03  0.15724943195E+03  0.24752782133E+03  0.90689171896E+02 0.  0.
         23    2    1    2    0    0  0.89134300904E+02 -0.14273468039E+03  0.24595854304E+03  0.31053833765E+03  0.87294568393E+02 0.  0.
          5    1    4    4  502    0  0.17363143973E+02 -0.89568612846E+02  0.17085632616E+03  0.19374723060E+03  0.47000000000E+01 0. -1.
         -5    1    3    3    0  503 -0.20602165008E+02  0.27108136490E+01  0.60136541810E+02  0.63798835213E+02  0.47000000000E+01 0.  1.
          5    1    3    3  503    0 -0.68532135896E+02  0.14002386674E+03  0.97112890139E+02  0.18372898611E+03  0.47000000000E+01 0. -1.
         -5    1    4    4    0  502  0.71771156930E+02 -0.53166067542E+02  0.75102216877E+02  0.11679110705E+03  0.47000000000E+01 0.  1.
<mgrwt>
<rscale>  0 0.19076333E+03</rscale>
<asrwt>0</asrwt>
<pdfrwt beam="1">  1        2 0.11912168E-01 0.19116129E+03</pdfrwt>
<pdfrwt beam="2">  1       -2 0.73944162E-01 0.19116129E+03</pdfrwt>
<totfact> 0.86513612E+02</totfact>
</mgrwt>
</event>
<event>
 8    1  0.3177960E-004  0.1044868E+03  0.7546771E-02  0.1273644E+00
          2   -1    0    0  501    0  0.00000000000E+00  0.00000000000E+00  0.56679432600E+03  0.56679432600E+03  0.00000000000E+00 0. -1.
         -2   -1    0    0    0  501 -0.00000000000E+00 -0.00000000000E+00 -0.37497349638E+02  0.37497349638E+02  0.00000000000E+00 0.  1.
         23    2    1    2    0    0  0.31929289442E+02 -0.25796001686E+02  0.51978693711E+02  0.11670166155E+03  0.96086315269E+02 0.  0.
         23    2    1    2    0    0 -0.31929289442E+02  0.25796001686E+02  0.47731828265E+03  0.48759001408E+03  0.90699314523E+02 0.  0.
          5    1    4    4  502    0 -0.45388142504E+02  0.43194558238E+02  0.43637178151E+03  0.44087217540E+03  0.47000000000E+01 0. -1.
         -5    1    3    3    0  503  0.63507910782E+02 -0.26356262196E+02  0.20600082908E+02  0.71933029303E+02  0.47000000000E+01 0.  1.
          5    1    3    3  503    0 -0.31578621341E+02  0.56026050970E+00  0.31378610803E+02  0.44768632250E+02  0.47000000000E+01 0. -1.
         -5    1    4    4    0  502  0.13458853063E+02 -0.17398556552E+02  0.40946501136E+02  0.46717838682E+02  0.47000000000E+01 0.  1.
<mgrwt>
<rscale>  0 0.10323152E+03</rscale>
<asrwt>0</asrwt>
<pdfrwt beam="1">  1        2 0.87199121E-01 0.10448681E+03</pdfrwt>
<pdfrwt beam="2">  1       -2 0.57688234E-02 0.10448681E+03</pdfrwt>
<totfact> 0.79831447E+03</totfact>
</mgrwt>
</event>
<event>
 8    1  0.3177960E-004  0.9283015E+02  0.7546771E-02  0.1296208E+00
          1   -1    0    0  501    0  0.00000000000E+00  0.00000000000E+00  0.65059914131E+03  0.65059914131E+03  0.00000000000E+00 0. -1.
         -1   -1    0    0    0  501 -0.00000000000E+00 -0.00000000000E+00 -0.29688771153E+02  0.29688771153E+02  0.00000000000E+00 0.  1.
         23    2    1    2    0    0  0.14978118661E+02  0.80307602562E+01  0.57272673118E+02  0.10907610310E+03  0.91261163883E+02 0.  0.
         23    2    1    2    0    0 -0.14978118661E+02 -0.80307602562E+01  0.56363769704E+03  0.57121180936E+03  0.91140772865E+02 0.  0.
          5    1    4    4  502    0 -0.11944699702E+01  0.37530769197E+02  0.36226611112E+03  0.36423729993E+03  0.47000000000E+01 0. -1.
         -5    1    4    4    0  502 -0.13783648691E+02 -0.45561529453E+02  0.20137158592E+03  0.20697450943E+03  0.47000000000E+01 0.  1.
          5    1    3    3  503    0 -0.16652579303E+02  0.39645242762E+02  0.11171717305E+02  0.44676066732E+02  0.47000000000E+01 0. -1.
         -5    1    3    3    0  503  0.31630697965E+02 -0.31614482506E+02  0.46100955813E+02  0.64400036372E+02  0.47000000000E+01 0.  1.
<mgrwt>
<rscale>  0 0.92800550E+02</rscale>
<asrwt>0</asrwt>
<pdfrwt beam="1">  1        1 0.10009216E+00 0.92830152E+02</pdfrwt>
<pdfrwt beam="2">  1       -1 0.45675037E-02 0.92830152E+02</pdfrwt>
<totfact> 0.59680291E+03</totfact>
</mgrwt>
</event>
<event>
 8    1  0.3177960E-004  0.9122879E+02  0.7546771E-02  0.1300552E+00
         -3   -1    0    0    0  501 -0.00000000000E+00  0.00000000000E+00  0.12224594331E+02  0.12224594331E+02  0.00000000000E+00 0.  1.
          3   -1    0    0  501    0  0.00000000000E+00 -0.00000000000E+00 -0.81440364262E+03  0.81440364262E+03  0.00000000000E+00 0. -1.
         23    2    1    2    0    0  0.50966015659E+01  0.82078068773E+01 -0.22673355317E+03  0.24399609766E+03  0.89625041691E+02 0.  0.
         23    2    1    2    0    0 -0.50966015659E+01 -0.82078068773E+01 -0.57544549512E+03  0.58263213930E+03  0.90715756307E+02 0.  0.
          5    1    3    3  502    0  0.27768614077E+02  0.25570684157E+02 -0.20309902134E+03  0.20663072929E+03  0.47000000000E+01 0. -1.
         -5    1    3    3    0  502 -0.22672012511E+02 -0.17362877280E+02 -0.23634531829E+02  0.37365368371E+02  0.47000000000E+01 0.  1.
          5    1    4    4  503    0  0.58774791395E+01 -0.48555612737E+02 -0.31551006288E+03  0.31931314108E+03  0.47000000000E+01 0. -1.
         -5    1    4    4    0  503 -0.10974080705E+02  0.40347805860E+02 -0.25993543225E+03  0.26331899822E+03  0.47000000000E+01 0.  1.
<mgrwt>
<rscale>  0 0.90956445E+02</rscale>
<asrwt>0</asrwt>
<pdfrwt beam="1">  1        3 0.12529283E+00 0.91228789E+02</pdfrwt>
<pdfrwt beam="2">  1       -3 0.18807073E-02 0.91228789E+02</pdfrwt>
<totfact> 0.12054191E+03</totfact>
</mgrwt>
</event>
<event>
 8    1  0.3177960E-004  0.1222754E+03  0.7546771E-02  0.1239778E+00
         -2   -1    0    0    0  501 -0.00000000000E+00  0.00000000000E+00  0.25274203971E+03  0.25274203971E+03  0.00000000000E+00 0.  1.
          2   -1    0    0  501    0  0.00000000000E+00 -0.00000000000E+00 -0.68278276563E+02  0.68278276563E+02  0.00000000000E+00 0. -1.
         23    2    1    2    0    0  0.80704469233E+02  0.28852784166E+01  0.15206137422E+03  0.19452450556E+03  0.90529473352E+02 0.  0.
         23    2    1    2    0    0 -0.80704469233E+02 -0.28852784166E+01  0.32402388924E+02  0.12649581072E+03  0.91813610839E+02 0.  0.
          5    1    4    4  502    0 -0.98480869154E+02  0.71940236325E+01  0.36028713416E+02  0.10521593870E+03  0.47000000000E+01 0. -1.
         -5    1    4    4    0  502  0.17776399921E+02 -0.10079302049E+02 -0.36263244917E+01  0.21279872022E+02  0.47000000000E+01 0.  1.
          5    1    3    3  503    0  0.14684050234E+02  0.22401974680E+02 -0.37439729076E+00  0.27197425874E+02  0.47000000000E+01 0. -1.
         -5    1    3    3    0  503  0.66020418998E+02 -0.19516696263E+02  0.15243577152E+03  0.16732707968E+03  0.47000000000E+01 0.  1.
<mgrwt>
<rscale>  0 0.12203438E+03</rscale>
<asrwt>0</asrwt>
<pdfrwt beam="1">  1        2 0.10504350E-01 0.12227541E+03</pdfrwt>
<pdfrwt beam="2">  1       -2 0.38883390E-01 0.12227541E+03</pdfrwt>
<totfact> 0.36024178E+03</totfact>
</mgrwt>
</event>
<event>
 8    1  0.3177960E-004  0.1765512E+03  0.7546771E-02  0.1171381E+00
          1   -1    0    0  501    0  0.00000000000E+00  0.00000000000E+00  0.38236469237E+02  0.38236469237E+02  0.00000000000E+00 0. -1.
         -1   -1    0    0    0  501 -0.00000000000E+00 -0.00000000000E+00 -0.81538785358E+03  0.81538785358E+03  0.00000000000E+00 0.  1.
         23    2    1    2    0    0 -0.15013054718E+03  0.64608647403E+01 -0.41876971863E+03  0.45446496212E+03  0.92679019096E+02 0.  0.
         23    2    1    2    0    0  0.15013054718E+03 -0.64608647403E+01 -0.35838166571E+03  0.39915936070E+03  0.91158394824E+02 0.  0.
          5    1    3    3  502    0 -0.12496722685E+03  0.37228451351E+02 -0.36362570568E+03  0.38632694600E+03  0.47000000000E+01 0. -1.
         -5    1    3    3    0  502 -0.25163320329E+02 -0.30767586610E+02 -0.55144012958E+02  0.68138016121E+02  0.47000000000E+01 0.  1.
          5    1    4    4  503    0  0.67526553762E+02  0.42023131857E+02 -0.15349496139E+03  0.17294095017E+03  0.47000000000E+01 0. -1.
         -5    1    4    4    0  503  0.82603993414E+02 -0.48483996597E+02 -0.20488670432E+03  0.22621841052E+03  0.47000000000E+01 0.  1.
<mgrwt>
<rscale>  0 0.17635249E+03</rscale>
<asrwt>0</asrwt>
<pdfrwt beam="1">  1        1 0.58825342E-02 0.17655120E+03</pdfrwt>
<pdfrwt beam="2">  1       -1 0.12544428E+00 0.17655120E+03</pdfrwt>
<totfact> 0.78358936E+02</totfact>
</mgrwt>
</event>
<event>
 8    1  0.3177960E-004  0.1664983E+03  0.7546771E-02  0.1181669E+00
         -1   -1    0    0    0  501 -0.00000000000E+00  0.00000000000E+00  0.23151521284E+03  0.23151521284E+03  0.00000000000E+00 0.  1.
          1   -1    0    0  501    0  0.00000000000E+00 -0.00000000000E+00 -0.12970230366E+03  0.12970230366E+03  0.00000000000E+00 0. -1.
         23    2    1    2    0    0  0.79366486575E+02  0.11468802676E+03  0.11641897286E+00  0.16649830582E+03  0.90935634464E+02 0.  0.
         23    2    1    2    0    0 -0.79366486575E+02 -0.11468802676E+03  0.10169649021E+03  0.19471921067E+03  0.90116658897E+02 0.  0.
          5    1    3    3  502    0  0.82187364910E+02  0.68126583521E+02  0.29893742448E+02  0.11095819109E+03  0.47000000000E+01 0. -1.
         -5    1    4    4    0  503 -0.52706684030E+02 -0.12359702749E+03  0.97114610770E+02  0.16585402428E+03  0.47000000000E+01 0.  1.
          5    1    4    4  503    0 -0.26659802545E+02  0.89090007363E+01  0.45818794385E+01  0.28865186385E+02  0.47000000000E+01 0. -1.
         -5    1    3    3    0  502 -0.28208783343E+01  0.46561443235E+02 -0.29777323475E+02  0.55540114729E+02  0.47000000000E+01 0.  1.
<mgrwt>
<rscale>  0 0.16638668E+03</rscale>
<asrwt>0</asrwt>
<pdfrwt beam="1">  1        1 0.19954201E-01 0.16649827E+03</pdfrwt>
<pdfrwt beam="2">  1       -1 0.35617725E-01 0.16649827E+03</pdfrwt>
<totfact> 0.19089410E+03</totfact>
</mgrwt>
</event>
<event>
 8    1  0.3177960E-004  0.1139232E+03  0.7546771E-02  0.1263929E+00
         -1   -1    0    0    0  501 -0.00000000000E+00  0.00000000000E+00  0.10329395591E+03  0.10329395591E+03  0.00000000000E+00 0.  1.
          1   -1    0    0  501    0  0.00000000000E+00 -0.00000000000E+00 -0.11058873727E+03  0.11058873727E+03  0.00000000000E+00 0. -1.
         23    2    1    2    0    0 -0.10407071647E+02 -0.12126050070E+02  0.23933820677E+02  0.95756833984E+02  0.91330144267E+02 0.  0.
         23    2    1    2    0    0  0.10407071647E+02  0.12126050070E+02 -0.31228602037E+02  0.11812585920E+03  0.11279691838E+03 0.  0.
          5    1    4    4  502    0  0.31021281488E+02 -0.21173128623E+01 -0.67108696182E+02  0.74111200382E+02  0.47000000000E+01 0. -1.
         -5    1    3    3    0  503  0.84038608416E+01 -0.49453404781E+02  0.16692421981E+02  0.53075333942E+02  0.47000000000E+01 0.  1.
          5    1    3    3  503    0 -0.18810932488E+02  0.37327354711E+02  0.72413986959E+01  0.42681500042E+02  0.47000000000E+01 0. -1.
         -5    1    4    4    0  502 -0.20614209841E+02  0.14243362932E+02  0.35880094145E+02  0.44014658818E+02  0.47000000000E+01 0.  1.
<mgrwt>
<rscale>  0 0.10820556E+03</rscale>
<asrwt>0</asrwt>
<pdfrwt beam="1">  1        1 0.17013652E-01 0.11392319E+03</pdfrwt>
<pdfrwt beam="2">  1       -1 0.15891378E-01 0.11392319E+03</pdfrwt>
<totfact> 0.85947525E+03</totfact>
</mgrwt>
</event>
<event>
 8    1  0.3177960E-004  0.1217280E+03  0.7546771E-02  0.1240855E+00
          1   -1    0    0  501    0  0.00000000000E+00  0.00000000000E+00  0.44292738957E+03  0.44292738957E+03  0.00000000000E+00 0. -1.
         -1   -1    0    0    0  501 -0.00000000000E+00 -0.00000000000E+00 -0.53530973366E+02  0.53530973366E+02  0.00000000000E+00 0.  1.
         23    2    1    2    0    0  0.31312737502E+02 -0.73208106513E+02  0.40495499073E+02  0.12693223730E+03  0.90177563900E+02 0.  0.
         23    2    1    2    0    0 -0.31312737502E+02  0.73208106513E+02  0.34890091714E+03  0.36952612564E+03  0.92074932340E+02 0.  0.
          5    1    4    4  502    0 -0.60118136978E+02  0.67948195271E+02  0.23866715617E+03  0.25537276494E+03  0.47000000000E+01 0. -1.
         -5    1    3    3    0  503  0.14832849475E+02 -0.29418450566E+02 -0.28242767095E+02  0.43648625986E+02  0.47000000000E+01 0.  1.
          5    1    3    3  503    0  0.16479888027E+02 -0.43789655947E+02  0.68738266167E+02  0.83283611311E+02  0.47000000000E+01 0. -1.
         -5    1    4    4    0  502  0.28805399475E+02  0.52599112419E+01  0.11023376096E+03  0.11415336071E+03  0.47000000000E+01 0.  1.
<mgrwt>
<rscale>  0 0.12136923E+03</rscale>
<asrwt>0</asrwt>
<pdfrwt beam="1">  1        1 0.68142673E-01 0.12172801E+03</pdfrwt>
<pdfrwt beam="2">  1       -1 0.82355347E-02 0.12172801E+03</pdfrwt>
<totfact> 0.41955565E+03</totfact>
</mgrwt>
</event>
<event>
 8    1  0.3177960E-004  0.1121477E+03  0.7546771E-02  0.1260992E+00
          1   -1    0    0  501    0  0.00000000000E+00  0.00000000000E+00  0.58360850811E+02  0.58360850811E+02  0.00000000000E+00 0. -1.
         -1   -1    0    0    0  501 -0.00000000000E+00 -0.00000000000E+00 -0.22632087175E+03  0.22632087175E+03  0.00000000000E+00 0.  1.
         23    2    1    2    0    0 -0.14148870108E+02 -0.34434992822E+02 -0.13727610689E+03  0.17726208175E+03  0.10578826421E+03 0.  0.
         23    2    1    2    0    0  0.14148870108E+02  0.34434992822E+02 -0.30683914044E+02  0.10741964081E+03  0.95976650263E+02 0.  0.
          5    1    3    3  502    0  0.40007718097E+02 -0.39472405720E+01 -0.21636064297E+02  0.45895615190E+02  0.47000000000E+01 0. -1.
         -5    1    4    4    0  503 -0.30110595441E+02  0.43329834972E+02 -0.32224493655E+02  0.62005084855E+02  0.47000000000E+01 0.  1.
          5    1    4    4  503    0  0.44259465549E+02 -0.88948421497E+01  0.15405796108E+01  0.45414555960E+02  0.47000000000E+01 0. -1.
         -5    1    3    3    0  502 -0.54156588205E+02 -0.30487752250E+02 -0.11564004260E+03  0.13136646656E+03  0.47000000000E+01 0.  1.
<mgrwt>
<rscale>  0 0.10977241E+03</rscale>
<asrwt>0</asrwt>
<pdfrwt beam="1">  1        1 0.89785926E-02 0.11214774E+03</pdfrwt>
<pdfrwt beam="2">  1       -1 0.34818595E-01 0.11214774E+03</pdfrwt>
<totfact> 0.55026304E+03</totfact>
</mgrwt>
</event>
<event>
 8    1  0.3177960E-004  0.1173609E+03  0.7546771E-02  0.1247678E+00
          1   -1    0    0  501    0  0.00000000000E+00  0.00000000000E+00  0.64664097646E+03  0.64664097646E+03  0.00000000000E+00 0. -1.
         -1   -1    0    0    0  501 -0.00000000000E+00 -0.00000000000E+00 -0.26224652392E+02  0.26224652392E+02  0.00000000000E+00 0.  1.
         23    2    1    2    0    0 -0.63368766583E+02  0.37082928504E+02  0.45660964312E+03  0.47135581390E+03  0.91066969583E+02 0.  0.
         23    2    1    2    0    0  0.63368766583E+02 -0.37082928504E+02  0.16380668095E+03  0.20150981494E+03  0.91557810322E+02 0.  0.
          5    1    4    4  502    0  0.83327655709E+02 -0.40570604603E+02  0.15052570196E+03  0.17683197990E+03  0.47000000000E+01 0. -1.
         -5    1    3    3    0  503 -0.43348832188E+02  0.63834720851E+02  0.24025325818E+03  0.25238405438E+03  0.47000000000E+01 0.  1.
          5    1    3    3  503    0 -0.20019934395E+02 -0.26751792347E+02  0.21635638494E+03  0.21897175952E+03  0.47000000000E+01 0. -1.
         -5    1    4    4    0  502 -0.19958889126E+02  0.34876760990E+01  0.13280978988E+02  0.24677835047E+02  0.47000000000E+01 0.  1.
<mgrwt>
<rscale>  0 0.11726514E+03</rscale>
<asrwt>0</asrwt>
<pdfrwt beam="1">  1        1 0.99483215E-01 0.11736088E+03</pdfrwt>
<pdfrwt beam="2">  1       -1 0.40345624E-02 0.11736088E+03</pdfrwt>
<totfact> 0.73198859E+03</totfact>
</mgrwt>
</event>
<event>
 8    1  0.3351980E-004  0.1291227E+03  0.7546771E-02  0.1243357E+00
          1   -1    0    0  501    0  0.00000000000E+00  0.00000000000E+00  0.67666179526E+02  0.67666179526E+02  0.00000000000E+00 0. -1.
         -1   -1    0    0    0  501 -0.00000000000E+00 -0.00000000000E+00 -0.40854689799E+03  0.40854689799E+03  0.00000000000E+00 0.  1.
         23    2    1    2    0    0  0.28539306173E+02  0.23041682190E+01 -0.75043232436E+01  0.12934058430E+03  0.12590818358E+03 0.  0.
         23    2    1    2    0    0 -0.28539306173E+02 -0.23041682190E+01 -0.33337639522E+03  0.34687249321E+03  0.91437981542E+02 0.  0.
          5    1    4    4  502    0  0.28402057133E+02 -0.11841525189E+02 -0.18480468707E+03  0.18740800658E+03  0.47000000000E+01 0. -1.
         -5    1    3    3    0  503  0.41896856582E+02 -0.18897456364E+02 -0.57174992181E+02  0.73508708188E+02  0.47000000000E+01 0.  1.
          5    1    3    3  503    0 -0.13357550409E+02  0.21201624583E+02  0.49670668938E+02  0.55831876116E+02  0.47000000000E+01 0. -1.
         -5    1    4    4    0  502 -0.56941363306E+02  0.95373569704E+01 -0.14857170816E+03  0.15946448663E+03  0.47000000000E+01 0.  1.
<mgrwt>
<rscale>  0 0.11984267E+03</rscale>
<asrwt>0</asrwt>
<pdfrwt beam="1">  1        1 0.10410181E-01 0.12912270E+03</pdfrwt>
<pdfrwt beam="2">  1       -1 0.62853370E-01 0.12912270E+03</pdfrwt>
<totfact> 0.15731929E+03</totfact>
</mgrwt>
</event>
<event>
 8    1  0.3177960E-004  0.1630440E+03  0.7546771E-02  0.1185354E+00
         -2   -1    0    0    0  501 -0.00000000000E+00  0.00000000000E+00  0.32011154793E+02  0.32011154793E+02  0.00000000000E+00 0.  1.
          2   -1    0    0  501    0  0.00000000000E+00 -0.00000000000E+00 -0.90960496663E+03  0.90960496663E+03  0.00000000000E+00 0. -1.
         23    2    1    2    0    0  0.13473846065E+03  0.66664646628E+01 -0.57829733444E+03  0.60079103777E+03  0.91231406414E+02 0.  0.
         23    2    1    2    0    0 -0.13473846065E+03 -0.66664646628E+01 -0.29929647740E+03  0.34082508366E+03  0.91566706479E+02 0.  0.
          5    1    4    4  502    0 -0.42512321540E+02  0.39549641754E+02 -0.13106882550E+03  0.14343151210E+03  0.47000000000E+01 0. -1.
         -5    1    3    3    0  503  0.40093100802E+02 -0.36363885171E+02 -0.26965790420E+03  0.27507683322E+03  0.47000000000E+01 0.  1.
          5    1    3    3  503    0  0.94645359847E+02  0.43030349834E+02 -0.30863943024E+03  0.32571420455E+03  0.47000000000E+01 0. -1.
         -5    1    4    4    0  502 -0.92226139109E+02 -0.46216106417E+02 -0.16822765190E+03  0.19739357155E+03  0.47000000000E+01 0.  1.
<mgrwt>
<rscale>  0 0.16299699E+03</rscale>
<asrwt>0</asrwt>
<pdfrwt beam="1">  1        2 0.13993923E+00 0.16304403E+03</pdfrwt>
<pdfrwt beam="2">  1       -2 0.49247928E-02 0.16304403E+03</pdfrwt>
<totfact> 0.58756690E+03</totfact>
</mgrwt>
</event>
<event>
 8    1  0.3177960E-004  0.1049813E+03  0.7546771E-02  0.1271774E+00
          1   -1    0    0  501    0  0.00000000000E+00  0.00000000000E+00  0.19848095610E+03  0.19848095610E+03  0.00000000000E+00 0. -1.
         -1   -1    0    0    0  501 -0.00000000000E+00 -0.00000000000E+00 -0.76184076436E+02  0.76184076436E+02  0.00000000000E+00 0.  1.
         23    2    1    2    0    0 -0.23849546956E+02  0.38211766810E+02 -0.13906757655E+02  0.10269845543E+03  0.91239436791E+02 0.  0.
         23    2    1    2    0    0  0.23849546956E+02 -0.38211766810E+02  0.13620363732E+03  0.17196657711E+03  0.94826857013E+02 0.  0.
          5    1    4    4  502    0 -0.15852467036E+00 -0.62606206539E+02  0.11611842300E+03  0.13200431957E+03  0.47000000000E+01 0. -1.
         -5    1    3    3    0  503  0.29784429292E+02  0.49103955593E+01  0.13888650649E+02  0.33559034992E+02  0.47000000000E+01 0.  1.
          5    1    3    3  503    0 -0.53633976248E+02  0.33301371251E+02 -0.27795408304E+02  0.69139420435E+02  0.47000000000E+01 0. -1.
         -5    1    4    4    0  502  0.24008071626E+02  0.24394439729E+02  0.20085214326E+02  0.39962257537E+02  0.47000000000E+01 0.  1.
<mgrwt>
<rscale>  0 0.10416462E+03</rscale>
<asrwt>0</asrwt>
<pdfrwt beam="1">  1        1 0.30535531E-01 0.10498130E+03</pdfrwt>
<pdfrwt beam="2">  1       -1 0.11720627E-01 0.10498130E+03</pdfrwt>
<totfact> 0.65707120E+03</totfact>
</mgrwt>
</event>
<event>
 8    1  0.3177960E-004  0.9258660E+02  0.7546771E-02  0.1296746E+00
          1   -1    0    0  501    0  0.00000000000E+00  0.00000000000E+00  0.22750249754E+03  0.22750249754E+03  0.00000000000E+00 0. -1.
         -1   -1    0    0    0  501 -0.00000000000E+00 -0.00000000000E+00 -0.10474033660E+03  0.10474033660E+03  0.00000000000E+00 0.  1.
         23    2    1    2    0    0 -0.10362629181E+01 -0.17462438397E+02 -0.71561662046E+02  0.11701858928E+03  0.90919019823E+02 0.  0.
         23    2    1    2    0    0  0.10362629181E+01  0.17462438397E+02  0.19432382299E+03  0.21522424487E+03  0.90849968632E+02 0.  0.
          5    1    4    4  502    0 -0.32028307063E+02  0.10005520477E+02  0.16974246924E+03  0.17309107070E+03  0.47000000000E+01 0. -1.
         -5    1    3    3    0  503  0.97190274418E+01 -0.50588225216E+02 -0.61705563794E+02  0.80518908512E+02  0.47000000000E+01 0.  1.
          5    1    3    3  503    0 -0.10755290360E+02  0.33125786819E+02 -0.98560982526E+01  0.36499680764E+02  0.47000000000E+01 0. -1.
         -5    1    4    4    0  502  0.33064569981E+02  0.74569179197E+01  0.24581353754E+02  0.42133174166E+02  0.47000000000E+01 0.  1.
<mgrwt>
<rscale>  0 0.92569645E+02</rscale>
<asrwt>0</asrwt>
<pdfrwt beam="1">  1        1 0.35000384E-01 0.92586601E+02</pdfrwt>
<pdfrwt beam="2">  1       -1 0.16113898E-01 0.92586601E+02</pdfrwt>
<totfact> 0.33709324E+03</totfact>
</mgrwt>
</event>
<event>
 8    1  0.3177960E-004  0.9375175E+02  0.7546771E-02  0.1295026E+00
          2   -1    0    0  501    0  0.00000000000E+00  0.00000000000E+00  0.53270377917E+02  0.53270377917E+02  0.00000000000E+00 0. -1.
         -2   -1    0    0    0  501 -0.00000000000E+00 -0.00000000000E+00 -0.31744887860E+03  0.31744887860E+03  0.00000000000E+00 0.  1.
         23    2    1    2    0    0 -0.20991176156E+01 -0.11763471340E+02 -0.29883095189E+01  0.93799366095E+02  0.92987125632E+02 0.  0.
         23    2    1    2    0    0  0.20991176156E+01  0.11763471340E+02 -0.26119019116E+03  0.27691989042E+03  0.91222388689E+02 0.  0.
          5    1    4    4  502    0  0.69898121755E+01  0.51195034515E+02 -0.15406848180E+03  0.16256991148E+03  0.47000000000E+01 0. -1.
         -5    1    3    3    0  503  0.39824198539E+02 -0.27040042491E+02  0.33773054422E+01  0.48483263909E+02  0.47000000000E+01 0.  1.
          5    1    3    3  503    0 -0.41923316154E+02  0.15276571151E+02 -0.63656149611E+01  0.45316102186E+02  0.47000000000E+01 0. -1.
         -5    1    4    4    0  502 -0.48906945599E+01 -0.39431563175E+02 -0.10712170936E+03  0.11434997894E+03  0.47000000000E+01 0.  1.
<mgrwt>
<rscale>  0 0.93311139E+02</rscale>
<asrwt>0</asrwt>
<pdfrwt beam="1">  1        2 0.81954427E-02 0.93751752E+02</pdfrwt>
<pdfrwt beam="2">  1       -2 0.48838289E-01 0.93751752E+02</pdfrwt>
<totfact> 0.31002178E+03</totfact>
</mgrwt>
</event>
<event>
 8    1  0.3177960E-004  0.9427823E+02  0.7546771E-02  0.1293426E+00
          1   -1    0    0  501    0  0.00000000000E+00  0.00000000000E+00  0.59243475310E+03  0.59243475310E+03  0.00000000000E+00 0. -1.
         -1   -1    0    0    0  501 -0.00000000000E+00 -0.00000000000E+00 -0.18731407113E+02  0.18731407113E+02  0.00000000000E+00 0.  1.
         23    2    1    2    0    0  0.56227745780E+01  0.21230141893E+02  0.42496378953E+03  0.43506436943E+03  0.90578411422E+02 0.  0.
         23    2    1    2    0    0 -0.56227745780E+01 -0.21230141893E+02  0.14873955645E+03  0.17610179078E+03  0.91684516377E+02 0.  0.
          5    1    3    3  502    0  0.33191168290E+01  0.45155513113E+02  0.38838549332E+03  0.39104401072E+03  0.47000000000E+01 0. -1.
         -5    1    3    3    0  502  0.23036577490E+01 -0.23925371220E+02  0.36578296217E+02  0.44020358712E+02  0.47000000000E+01 0.  1.
          5    1    4    4  503    0 -0.29152579973E+02 -0.73089302297E+01  0.64023570002E+01  0.31086549428E+02  0.47000000000E+01 0. -1.
         -5    1    4    4    0  503  0.23529805395E+02 -0.13921211664E+02  0.14233719945E+03  0.14501524135E+03  0.47000000000E+01 0.  1.
<mgrwt>
<rscale>  0 0.94008245E+02</rscale>
<asrwt>0</asrwt>
<pdfrwt beam="1">  1        1 0.91143794E-01 0.94278232E+02</pdfrwt>
<pdfrwt beam="2">  1       -1 0.28817554E-02 0.94278232E+02</pdfrwt>
<totfact> 0.13223552E+04</totfact>
</mgrwt>
</event>
<event>
 8    1  0.3177960E-004  0.9629872E+02  0.7546771E-02  0.1288775E+00
          1   -1    0    0  501    0  0.00000000000E+00  0.00000000000E+00  0.57941375889E+03  0.57941375889E+03  0.00000000000E+00 0. -1.
         -1   -1    0    0    0  501 -0.00000000000E+00 -0.00000000000E+00 -0.19427961535E+02  0.19427961535E+02  0.00000000000E+00 0.  1.
         23    2    1    2    0    0  0.26049307250E+02  0.94107825214E+01  0.40730422138E+03  0.41832826493E+03  0.91294464510E+02 0.  0.
         23    2    1    2    0    0 -0.26049307250E+02 -0.94107825214E+01  0.15268157598E+03  0.18051345550E+03  0.92229684681E+02 0.  0.
          5    1    3    3  502    0 -0.21938865641E+02 -0.26289238572E+02  0.17663090251E+03  0.17998056454E+03  0.47000000000E+01 0. -1.
         -5    1    4    4    0  503 -0.84080963504E+01  0.41273166692E+02  0.69965754424E+02  0.81801388528E+02  0.47000000000E+01 0.  1.
          5    1    4    4  503    0 -0.17641210899E+02 -0.50683949213E+02  0.82715821554E+02  0.98712066969E+02  0.47000000000E+01 0. -1.
         -5    1    3    3    0  502  0.47988172891E+02  0.35700021093E+02  0.23067331887E+03  0.23834770039E+03  0.47000000000E+01 0.  1.
<mgrwt>
<rscale>  0 0.96074107E+02</rscale>
<asrwt>0</asrwt>
<pdfrwt beam="1">  1        1 0.89140565E-01 0.96298723E+02</pdfrwt>
<pdfrwt beam="2">  1       -1 0.29889176E-02 0.96298723E+02</pdfrwt>
<totfact> 0.12946266E+04</totfact>
</mgrwt>
</event>
<event>
 8    1  0.3177960E-004  0.1142384E+03  0.7546771E-02  0.1253081E+00
         -2   -1    0    0    0  501 -0.00000000000E+00  0.00000000000E+00  0.45520524943E+02  0.45520524943E+02  0.00000000000E+00 0.  1.
          2   -1    0    0  501    0  0.00000000000E+00 -0.00000000000E+00 -0.28719208357E+03  0.28719208357E+03  0.00000000000E+00 0. -1.
         23    2    1    2    0    0  0.41736718356E+02 -0.54205452148E+02 -0.13279434172E+03  0.17517064758E+03  0.91488982277E+02 0.  0.
         23    2    1    2    0    0 -0.41736718356E+02  0.54205452148E+02 -0.10887721691E+03  0.15754196094E+03  0.91022175277E+02 0.  0.
          5    1    4    4  502    0 -0.37392321350E+02  0.34027092790E+02 -0.12233747274E+03  0.13245593975E+03  0.47000000000E+01 0. -1.
         -5    1    4    4    0  502 -0.43443970062E+01  0.20178359357E+02  0.13460255832E+02  0.25086021182E+02  0.47000000000E+01 0.  1.
          5    1    3    3  503    0 -0.24932089867E+02 -0.12236291220E+02 -0.11419312593E+02  0.30394516414E+02  0.47000000000E+01 0. -1.
         -5    1    3    3    0  503  0.66668808223E+02 -0.41969160928E+02 -0.12137502913E+03  0.14477613116E+03  0.47000000000E+01 0.  1.
<mgrwt>
<rscale>  0 0.11414494E+03</rscale>
<asrwt>0</asrwt>
<pdfrwt beam="1">  1        2 0.44183398E-01 0.11423843E+03</pdfrwt>
<pdfrwt beam="2">  1       -2 0.70031576E-02 0.11423843E+03</pdfrwt>
<totfact> 0.12396846E+04</totfact>
</mgrwt>
</event>
<event>
 8    1  0.3177960E-004  0.1169200E+03  0.7546771E-02  0.1248893E+00
         -2   -1    0    0    0  501 -0.00000000000E+00  0.00000000000E+00  0.23329987825E+03  0.23329987825E+03  0.00000000000E+00 0.  1.
          2   -1    0    0  501    0  0.00000000000E+00 -0.00000000000E+00 -0.58341970718E+02  0.58341970718E+02  0.00000000000E+00 0. -1.
         23    2    1    2    0    0 -0.51794840791E+02  0.40950147208E+02  0.10118232454E+03  0.15462263574E+03  0.96491847305E+02 0.  0.
         23    2    1    2    0    0  0.51794840791E+02 -0.40950147208E+02  0.73775582998E+02  0.13701921323E+03  0.94719628684E+02 0.  0.
          5    1    4    4  502    0  0.38470523931E+02  0.21092564134E+02  0.55327132477E+02  0.70767641344E+02  0.47000000000E+01 0. -1.
         -5    1    4    4    0  502  0.13324316860E+02 -0.62042711342E+02  0.18448450521E+02  0.66251571884E+02  0.47000000000E+01 0.  1.
          5    1    3    3  503    0 -0.36095335802E+02  0.69453875668E+02  0.47522036139E+02  0.91690501312E+02  0.47000000000E+01 0. -1.
         -5    1    3    3    0  503 -0.15699504989E+02 -0.28503728460E+02  0.53660288397E+02  0.62932134430E+02  0.47000000000E+01 0.  1.
<mgrwt>
<rscale>  0 0.11655377E+03</rscale>
<asrwt>0</asrwt>
<pdfrwt beam="1">  1        2 0.89756879E-02 0.11692004E+03</pdfrwt>
<pdfrwt beam="2">  1       -2 0.35892289E-01 0.11692004E+03</pdfrwt>
<totfact> 0.50551846E+03</totfact>
</mgrwt>
</event>
<event>
 8    1  0.3177960E-004  0.9780162E+02  0.7546771E-02  0.1285156E+00
         -1   -1    0    0    0  501 -0.00000000000E+00  0.00000000000E+00  0.47436424796E+02  0.47436424796E+02  0.00000000000E+00 0.  1.
          1   -1    0    0  501    0  0.00000000000E+00 -0.00000000000E+00 -0.33299959980E+03  0.33299959980E+03  0.00000000000E+00 0. -1.
         23    2    1    2    0    0 -0.22266619216E+02 -0.25741453877E+02 -0.22885012869E+02  0.10014158458E+03  0.91357475713E+02 0.  0.
         23    2    1    2    0    0  0.22266619216E+02  0.25741453877E+02 -0.26267816214E+03  0.28029444002E+03  0.91688229689E+02 0.  0.
          5    1    3    3  502    0 -0.18226577096E+02  0.29972631044E+02 -0.26124522247E+02  0.43990310149E+02  0.47000000000E+01 0. -1.
         -5    1    3    3    0  502 -0.40400421205E+01 -0.55714084921E+02  0.32395093778E+01  0.56151274428E+02  0.47000000000E+01 0.  1.
          5    1    4    4  503    0 -0.83789713378E+01  0.49073566283E+02 -0.86680179459E+02  0.10006980353E+03  0.47000000000E+01 0. -1.
         -5    1    4    4    0  503  0.30645590554E+02 -0.23332112406E+02 -0.17599798268E+03  0.18022463648E+03  0.47000000000E+01 0.  1.
<mgrwt>
<rscale>  0 0.97724022E+02</rscale>
<asrwt>0</asrwt>
<pdfrwt beam="1">  1        1 0.51230706E-01 0.97801617E+02</pdfrwt>
<pdfrwt beam="2">  1       -1 0.72979117E-02 0.97801617E+02</pdfrwt>
<totfact> 0.70801667E+03</totfact>
</mgrwt>
</event>
<event>
 8    1  0.3177960E-004  0.1108618E+03  0.7546771E-02  0.1259459E+00
          1   -1    0    0  501    0  0.00000000000E+00  0.00000000000E+00  0.63138169155E+02  0.63138169155E+02  0.00000000000E+00 0. -1.
         -1   -1    0    0    0  501 -0.00000000000E+00 -0.00000000000E+00 -0.19286834792E+03  0.19286834792E+03  0.00000000000E+00 0.  1.
         23    2    1    2    0    0  0.57266523645E+02  0.16834568529E+02 -0.65987676608E+02  0.12812592769E+03  0.92190142936E+02 0.  0.
         23    2    1    2    0    0 -0.57266523645E+02 -0.16834568529E+02 -0.63742502152E+02  0.12788058938E+03  0.93420988710E+02 0.  0.
          5    1    3    3  502    0  0.69866183976E+02 -0.16520206970E+02 -0.54873143471E+02  0.90483991823E+02  0.47000000000E+01 0. -1.
         -5    1    3    3    0  502 -0.12599660331E+02  0.33354775499E+02 -0.11114533137E+02  0.37641935868E+02  0.47000000000E+01 0.  1.
          5    1    4    4  503    0 -0.27109318500E+02 -0.34792906252E+02  0.10537053327E+02  0.45591457180E+02  0.47000000000E+01 0. -1.
         -5    1    4    4    0  503 -0.30157205144E+02  0.17958337723E+02 -0.74279555480E+02  0.82289132200E+02  0.47000000000E+01 0.  1.
<mgrwt>
<rscale>  0 0.11060209E+03</rscale>
<asrwt>0</asrwt>
<pdfrwt beam="1">  1        1 0.97135645E-02 0.11086180E+03</pdfrwt>
<pdfrwt beam="2">  1       -1 0.29672054E-01 0.11086180E+03</pdfrwt>
<totfact> 0.64889749E+03</totfact>
</mgrwt>
</event>
<event>
 8    1  0.3177960E-004  0.1067759E+03  0.7546771E-02  0.1266948E+00
          1   -1    0    0  501    0  0.00000000000E+00  0.00000000000E+00  0.10030386339E+03  0.10030386339E+03  0.00000000000E+00 0. -1.
         -1   -1    0    0    0  501 -0.00000000000E+00 -0.00000000000E+00 -0.21134467061E+03  0.21134467061E+03  0.00000000000E+00 0.  1.
         23    2    1    2    0    0 -0.54557675693E+02 -0.51160332269E+01 -0.16171611398E+03  0.19345764652E+03  0.90945289633E+02 0.  0.
         23    2    1    2    0    0  0.54557675693E+02  0.51160332269E+01  0.50675306756E+02  0.11819088748E+03  0.91642705084E+02 0.  0.
          5    1    3    3  502    0 -0.41708692517E+02 -0.21089438428E+02 -0.21476752583E+02  0.51649979150E+02  0.47000000000E+01 0. -1.
         -5    1    4    4    0  503 -0.23149462872E+01  0.39413157289E+02  0.24164539141E+02  0.46527098510E+02  0.47000000000E+01 0.  1.
          5    1    4    4  503    0  0.56872621980E+02 -0.34297124062E+02  0.26510767615E+02  0.71663788969E+02  0.47000000000E+01 0. -1.
         -5    1    3    3    0  502 -0.12848983176E+02  0.15973405201E+02 -0.14023936139E+03  0.14180766737E+03  0.47000000000E+01 0.  1.
<mgrwt>
<rscale>  0 0.10662612E+03</rscale>
<asrwt>0</asrwt>
<pdfrwt beam="1">  1        1 0.15431364E-01 0.10677593E+03</pdfrwt>
<pdfrwt beam="2">  1       -1 0.32514564E-01 0.10677593E+03</pdfrwt>
<totfact> 0.30388881E+03</totfact>
</mgrwt>
</event>
<event>
 8    1  0.3177960E-004  0.1189684E+03  0.7546771E-02  0.1245328E+00
          1   -1    0    0  501    0  0.00000000000E+00  0.00000000000E+00  0.66115756788E+03  0.66115756788E+03  0.00000000000E+00 0. -1.
         -1   -1    0    0    0  501 -0.00000000000E+00 -0.00000000000E+00 -0.32315692555E+02  0.32315692555E+02  0.00000000000E+00 0.  1.
         23    2    1    2    0    0  0.75208036062E+02 -0.63552661885E+01  0.51899010747E+03  0.53245113217E+03  0.91961070004E+02 0.  0.
         23    2    1    2    0    0 -0.75208036062E+02  0.63552661885E+01  0.10985176785E+03  0.16102212826E+03  0.90355280942E+02 0.  0.
          5    1    3    3  502    0  0.77076291599E+02 -0.36464449745E+02  0.42917890056E+03  0.43759230970E+03  0.47000000000E+01 0. -1.
         -5    1    3    3    0  502 -0.18682555367E+01  0.30109183556E+02  0.89811206913E+02  0.94858822470E+02  0.47000000000E+01 0.  1.
          5    1    4    4  503    0 -0.48383893234E+02  0.47773371764E+02  0.62830124405E+02  0.92698493552E+02  0.47000000000E+01 0. -1.
         -5    1    4    4    0  503 -0.26824142828E+02 -0.41418105575E+02  0.47021643443E+02  0.68323634710E+02  0.47000000000E+01 0.  1.
<mgrwt>
<rscale>  0 0.11865796E+03</rscale>
<asrwt>0</asrwt>
<pdfrwt beam="1">  1        1 0.10171654E+00 0.11896838E+03</pdfrwt>
<pdfrwt beam="2">  1       -1 0.49716455E-02 0.11896838E+03</pdfrwt>
<totfact> 0.52270301E+03</totfact>
</mgrwt>
</event>
<event>
 8    1  0.3177960E-004  0.9865865E+02  0.7546771E-02  0.1283732E+00
          3   -1    0    0  501    0  0.00000000000E+00  0.00000000000E+00  0.64245159166E+03  0.64245159166E+03  0.00000000000E+00 0. -1.
         -3   -1    0    0    0  501 -0.00000000000E+00 -0.00000000000E+00 -0.21123824950E+02  0.21123824950E+02  0.00000000000E+00 0.  1.
         23    2    1    2    0    0 -0.77689873576E+01 -0.32217210902E+02  0.13054182039E+03  0.16297140669E+03  0.91761684198E+02 0.  0.
         23    2    1    2    0    0  0.77689873576E+01  0.32217210902E+02  0.49078594632E+03  0.50060400991E+03  0.92925904854E+02 0.  0.
          5    1    3    3  502    0  0.38020001693E+02 -0.59829646178E+01  0.83733011086E+02  0.92274717772E+02  0.47000000000E+01 0. -1.
         -5    1    3    3    0  502 -0.45788989050E+02 -0.26234246285E+02  0.46808809301E+02  0.70696688922E+02  0.47000000000E+01 0.  1.
          5    1    4    4  503    0  0.40031717478E+02  0.46373697404E+02  0.35299918193E+03  0.35830653170E+03  0.47000000000E+01 0. -1.
         -5    1    4    4    0  503 -0.32262730120E+02 -0.14156486501E+02  0.13778676439E+03  0.14229747821E+03  0.47000000000E+01 0.  1.
<mgrwt>
<rscale>  0 0.98383557E+02</rscale>
<asrwt>0</asrwt>
<pdfrwt beam="1">  1        3 0.98838692E-01 0.98658652E+02</pdfrwt>
<pdfrwt beam="2">  1       -3 0.32498197E-02 0.98658652E+02</pdfrwt>
<totfact> 0.91694092E+02</totfact>
</mgrwt>
</event>
<event>
 8    1  0.3177960E-004  0.1636993E+03  0.7546771E-02  0.1185034E+00
         -2   -1    0    0    0  501 -0.00000000000E+00  0.00000000000E+00  0.45688030446E+02  0.45688030446E+02  0.00000000000E+00 0.  1.
          2   -1    0    0  501    0  0.00000000000E+00 -0.00000000000E+00 -0.58078341792E+03  0.58078341792E+03  0.00000000000E+00 0. -1.
         23    2    1    2    0    0 -0.15255318261E+02  0.13419587544E+03 -0.27318584855E+03  0.31847760342E+03  0.92499828725E+02 0.  0.
         23    2    1    2    0    0  0.15255318261E+02 -0.13419587544E+03 -0.26190953893E+03  0.30799384495E+03  0.89567540007E+02 0.  0.
          5    1    3    3  502    0 -0.36069501977E+02  0.15661535134E+02 -0.41543856154E+02  0.57395771967E+02  0.47000000000E+01 0.  1.
         -5    1    3    3    0  502  0.20814183715E+02  0.11853434031E+03 -0.23164199239E+03  0.26108183145E+03  0.47000000000E+01 0. -1.
          5    1    4    4  503    0  0.48407794793E+02 -0.57176396441E+02 -0.15339674769E+03  0.17077794679E+03  0.47000000000E+01 0. -1.
         -5    1    4    4    0  503 -0.33152476532E+02 -0.77019478999E+02 -0.10851279124E+03  0.13721589816E+03  0.47000000000E+01 0.  1.
<mgrwt>
<rscale>  0 0.16328808E+03</rscale>
<asrwt>0</asrwt>
<pdfrwt beam="1">  1        2 0.89351286E-01 0.16369935E+03</pdfrwt>
<pdfrwt beam="2">  1       -2 0.70289285E-02 0.16369935E+03</pdfrwt>
<totfact> 0.59048786E+03</totfact>
</mgrwt>
</event>
<event>
 8    1  0.3177960E-004  0.1108718E+03  0.7546771E-02  0.1259654E+00
         -1   -1    0    0    0  501 -0.00000000000E+00  0.00000000000E+00  0.70049293759E+02  0.70049293759E+02  0.00000000000E+00 0.  1.
          1   -1    0    0  501    0  0.00000000000E+00 -0.00000000000E+00 -0.17567034083E+03  0.17567034083E+03  0.00000000000E+00 0. -1.
         23    2    1    2    0    0 -0.26078553051E+02  0.56070833225E+02 -0.38375640505E+02  0.11732540312E+03  0.92024622606E+02 0.  0.
         23    2    1    2    0    0  0.26078553051E+02 -0.56070833225E+02 -0.67245406566E+02  0.12839423147E+03  0.90216986771E+02 0.  0.
          5    1    4    4  502    0  0.32517420209E+01 -0.72581544858E+02 -0.68279582094E+02  0.99814056180E+02  0.47000000000E+01 0. -1.
         -5    1    4    4    0  502  0.22826811030E+02  0.16510711633E+02  0.10341755277E+01  0.28580175288E+02  0.47000000000E+01 0.  1.
          5    1    3    3  503    0 -0.53984383553E+02  0.46516805861E+02 -0.47880771944E+02  0.85981307370E+02  0.47000000000E+01 0. -1.
         -5    1    3    3    0  503  0.27905830502E+02  0.95540273643E+01  0.95051314389E+01  0.31344095752E+02  0.47000000000E+01 0.  1.
<mgrwt>
<rscale>  0 0.11049599E+03</rscale>
<asrwt>0</asrwt>
<pdfrwt beam="1">  1        1 0.27026206E-01 0.11087182E+03</pdfrwt>
<pdfrwt beam="2">  1       -1 0.10776814E-01 0.11087182E+03</pdfrwt>
<totfact> 0.87248655E+03</totfact>
</mgrwt>
</event>
<event>
 8    1  0.3177960E-004  0.1087594E+03  0.7546771E-02  0.1262929E+00
          2   -1    0    0  501    0  0.00000000000E+00  0.00000000000E+00  0.71995376429E+02  0.71995376429E+02  0.00000000000E+00 0. -1.
         -2   -1    0    0    0  501 -0.00000000000E+00 -0.00000000000E+00 -0.41984766187E+03  0.41984766187E+03  0.00000000000E+00 0.  1.
         23    2    1    2    0    0  0.56671367977E+02  0.13841929055E+02  0.17959796660E+02  0.11023226387E+03  0.91789731198E+02 0.  0.
         23    2    1    2    0    0 -0.56671367977E+02 -0.13841929055E+02 -0.36581208210E+03  0.38161077443E+03  0.91679118673E+02 0.  0.
          5    1    4    4  502    0 -0.23854582425E+02  0.26098867377E+02 -0.49185336537E+02  0.60757545303E+02  0.47000000000E+01 0. -1.
         -5    1    4    4    0  502 -0.32816785552E+02 -0.39940796432E+02 -0.31662674557E+03  0.32085322913E+03  0.47000000000E+01 0.  1.
          5    1    3    3  503    0  0.81631125662E+02  0.57986658254E+01  0.11083435952E+02  0.82717578270E+02  0.47000000000E+01 0. -1.
         -5    1    3    3    0  503 -0.24959757685E+02  0.80432632300E+01  0.68763607075E+01  0.27514685600E+02  0.47000000000E+01 0.  1.
<mgrwt>
<rscale>  0 0.10873601E+03</rscale>
<asrwt>0</asrwt>
<pdfrwt beam="1">  1        2 0.11076212E-01 0.10875936E+03</pdfrwt>
<pdfrwt beam="2">  1       -2 0.64591949E-01 0.10875936E+03</pdfrwt>
<totfact> 0.12324329E+03</totfact>
</mgrwt>
</event>
<event>
 8    1  0.3177960E-004  0.9826599E+02  0.7546771E-02  0.1285015E+00
         -2   -1    0    0    0  501 -0.00000000000E+00  0.00000000000E+00  0.45837632975E+02  0.45837632975E+02  0.00000000000E+00 0.  1.
          2   -1    0    0  501    0  0.00000000000E+00 -0.00000000000E+00 -0.37695294909E+03  0.37695294909E+03  0.00000000000E+00 0. -1.
         23    2    1    2    0    0 -0.30915988934E+02 -0.69380945823E+00 -0.24342616268E+02  0.10123619937E+03  0.93273390382E+02 0.  0.
         23    2    1    2    0    0  0.30915988934E+02  0.69380945823E+00 -0.30677269985E+03  0.32155438270E+03  0.91276787377E+02 0.  0.
          5    1    4    4  502    0  0.46949560501E+02 -0.14032782786E+02 -0.28871553898E+03  0.29288211395E+03  0.47000000000E+01 0. -1.
         -5    1    4    4    0  502 -0.16033571567E+02  0.14726592244E+02 -0.18057160873E+02  0.28672268747E+02  0.47000000000E+01 0.  1.
          5    1    3    3  503    0  0.97747976539E+01 -0.30438244133E+02 -0.36932121485E+02  0.49072446163E+02  0.47000000000E+01 0. -1.
         -5    1    3    3    0  503 -0.40690786588E+02  0.29744434675E+02  0.12589505216E+02  0.52163753209E+02  0.47000000000E+01 0.  1.
<mgrwt>
<rscale>  0 0.97789255E+02</rscale>
<asrwt>0</asrwt>
<pdfrwt beam="1">  1        2 0.57992760E-01 0.98265992E+02</pdfrwt>
<pdfrwt beam="2">  1       -2 0.70519437E-02 0.98265992E+02</pdfrwt>
<totfact> 0.91009504E+03</totfact>
</mgrwt>
</event>
<event>
 8    1  0.3177960E-004  0.1023706E+03  0.7546771E-02  0.1276348E+00
         -2   -1    0    0    0  501 -0.00000000000E+00  0.00000000000E+00  0.41587795732E+02  0.41587795732E+02  0.00000000000E+00 0.  1.
          2   -1    0    0  501    0  0.00000000000E+00 -0.00000000000E+00 -0.24844610048E+03  0.24844610048E+03  0.00000000000E+00 0. -1.
         23    2    1    2    0    0 -0.14151573939E+01  0.40501823587E+02 -0.11368473984E+03  0.15298354112E+03  0.94007145459E+02 0.  0.
         23    2    1    2    0    0  0.14151573939E+01 -0.40501823587E+02 -0.93173564907E+02  0.13705035509E+03  0.91973290951E+02 0.  0.
          5    1    4    4  502    0 -0.27078785140E+02 -0.34648870243E+02 -0.97695321682E+02  0.10723931505E+03  0.47000000000E+01 0. -1.
         -5    1    4    4    0  502  0.28493942534E+02 -0.58529533437E+01  0.45217567744E+01  0.29811040041E+02  0.47000000000E+01 0.  1.
          5    1    3    3  503    0 -0.16796316933E+01 -0.28542365434E+02 -0.15500170278E+02  0.32860813529E+02  0.47000000000E+01 0. -1.
         -5    1    3    3    0  503  0.26447429934E+00  0.69044189021E+02 -0.98184569561E+02  0.12012272759E+03  0.47000000000E+01 0.  1.
<mgrwt>
<rscale>  0 0.10190129E+03</rscale>
<asrwt>0</asrwt>
<pdfrwt beam="1">  1        2 0.38222476E-01 0.10237062E+03</pdfrwt>
<pdfrwt beam="2">  1       -2 0.63981225E-02 0.10237062E+03</pdfrwt>
<totfact> 0.16399619E+04</totfact>
</mgrwt>
</event>
<event>
 8    1  0.3177960E-004  0.1993976E+03  0.7546771E-02  0.1153933E+00
          1   -1    0    0  501    0  0.00000000000E+00  0.00000000000E+00  0.97946882811E+03  0.97946882811E+03  0.00000000000E+00 0. -1.
         -1   -1    0    0    0  501 -0.00000000000E+00 -0.00000000000E+00 -0.16520694794E+03  0.16520694794E+03  0.00000000000E+00 0.  1.
         23    2    1    2    0    0  0.11833129219E+03 -0.10620833779E+03 -0.92404060017E+02  0.21976782201E+03  0.12031990506E+03 0.  0.
         23    2    1    2    0    0 -0.11833129219E+03  0.10620833779E+03  0.90666594018E+03  0.92490795404E+03  0.90161469783E+02 0.  0.
          5    1    4    4  502    0 -0.10987536566E+03  0.47269943999E+02  0.68268819181E+03  0.69310338394E+03  0.47000000000E+01 0. -1.
         -5    1    4    4    0  502 -0.84559265308E+01  0.58938393792E+02  0.22397774837E+03  0.23180457011E+03  0.47000000000E+01 0.  1.
          5    1    3    3  503    0  0.11064259729E+03 -0.32897019546E+02 -0.21752579169E+02  0.11755536113E+03  0.47000000000E+01 0. -1.
         -5    1    3    3    0  503  0.76886948982E+01 -0.73311318245E+02 -0.70651480848E+02  0.10221246088E+03  0.47000000000E+01 0.  1.
<mgrwt>
<rscale>  0 0.19510888E+03</rscale>
<asrwt>0</asrwt>
<pdfrwt beam="1">  1        1 0.15068751E+00 0.19939756E+03</pdfrwt>
<pdfrwt beam="2">  1       -1 0.25416454E-01 0.19939756E+03</pdfrwt>
<totfact> 0.22937734E+02</totfact>
</mgrwt>
</event>
<event>
 8    1  0.3177960E-004  0.9355960E+02  0.7546771E-02  0.1294934E+00
         -1   -1    0    0    0  501 -0.00000000000E+00  0.00000000000E+00  0.72547073947E+02  0.72547073947E+02  0.00000000000E+00 0.  1.
          1   -1    0    0  501    0  0.00000000000E+00 -0.00000000000E+00 -0.12872566923E+03  0.12872566923E+03  0.00000000000E+00 0. -1.
         23    2    1    2    0    0  0.82611235943E+01  0.29451560772E+02 -0.54786229472E+02  0.10770278416E+03  0.87536953237E+02 0.  0.
         23    2    1    2    0    0 -0.82611235943E+01 -0.29451560772E+02 -0.13923658138E+01  0.93569959015E+02  0.88418086117E+02 0.  0.
          5    1    4    4  502    0  0.25203747652E+02 -0.46578005485E+02 -0.11418696629E+02  0.54380291682E+02  0.47000000000E+01 0. -1.
         -5    1    4    4    0  502 -0.33464871247E+02  0.17126444713E+02  0.10026330815E+02  0.39189667333E+02  0.47000000000E+01 0.  1.
          5    1    3    3  503    0  0.24360776838E+02 -0.46193827596E+00 -0.66882691514E+02  0.71337544528E+02  0.47000000000E+01 0. -1.
         -5    1    3    3    0  503 -0.16099653243E+02  0.29913499048E+02  0.12096462042E+02  0.36365239636E+02  0.47000000000E+01 0.  1.
<mgrwt>
<rscale>  0 0.93350835E+02</rscale>
<asrwt>0</asrwt>
<pdfrwt beam="1">  1        1 0.19803949E-01 0.93559599E+02</pdfrwt>
<pdfrwt beam="2">  1       -1 0.11161088E-01 0.93559599E+02</pdfrwt>
<totfact> 0.12015978E+04</totfact>
</mgrwt>
</event>
<event>
 8    1  0.3177960E-004  0.9859388E+02  0.7546771E-02  0.1284040E+00
          2   -1    0    0  501    0  0.00000000000E+00  0.00000000000E+00  0.18039701986E+03  0.18039701986E+03  0.00000000000E+00 0. -1.
         -2   -1    0    0    0  501 -0.00000000000E+00 -0.00000000000E+00 -0.53119511510E+02  0.53119511510E+02  0.00000000000E+00 0.  1.
         23    2    1    2    0    0 -0.29522829112E+02  0.17525462423E+02  0.63955895048E+02  0.11752067457E+03  0.92423012112E+02 0.  0.
         23    2    1    2    0    0  0.29522829112E+02 -0.17525462423E+02  0.63321613306E+02  0.11599585680E+03  0.90921245108E+02 0.  0.
          5    1    3    3  502    0 -0.36152224424E+02  0.40409445514E+02  0.60876870505E+01  0.54763642604E+02  0.47000000000E+01 0. -1.
         -5    1    4    4    0  503 -0.29843410671E+02 -0.11609410671E+02  0.55922016936E+01  0.32844638777E+02  0.47000000000E+01 0.  1.
          5    1    4    4  503    0  0.59366239783E+02 -0.59160517525E+01  0.57729411612E+02  0.83151218027E+02  0.47000000000E+01 0. -1.
         -5    1    3    3    0  502  0.66293953120E+01 -0.22883983091E+02  0.57868207998E+02  0.62757031966E+02  0.47000000000E+01 0.  1.
<mgrwt>
<rscale>  0 0.98240388E+02</rscale>
<asrwt>0</asrwt>
<pdfrwt beam="1">  1        2 0.27753387E-01 0.98593876E+02</pdfrwt>
<pdfrwt beam="2">  1       -2 0.81722326E-02 0.98593876E+02</pdfrwt>
<totfact> 0.15837872E+04</totfact>
</mgrwt>
</event>
<event>
 8    1  0.3177960E-004  0.9839008E+02  0.7546771E-02  0.1284738E+00
          1   -1    0    0  501    0  0.00000000000E+00  0.00000000000E+00  0.52325490526E+02  0.52325490526E+02  0.00000000000E+00 0. -1.
         -1   -1    0    0    0  501 -0.00000000000E+00 -0.00000000000E+00 -0.21299992165E+03  0.21299992165E+03  0.00000000000E+00 0.  1.
         23    2    1    2    0    0 -0.27539565420E+02  0.14811033738E+02 -0.13069818250E+03  0.16247025715E+03  0.91305942657E+02 0.  0.
         23    2    1    2    0    0  0.27539565420E+02 -0.14811033738E+02 -0.29976248620E+02  0.10285515503E+03  0.93288868845E+02 0.  0.
          5    1    4    4  502    0 -0.30231620549E+02 -0.55688937905E+01 -0.31332830946E+02  0.44145212132E+02  0.47000000000E+01 0. -1.
         -5    1    4    4    0  502  0.57771185969E+02 -0.92421399480E+01  0.13565823259E+01  0.58709942895E+02  0.47000000000E+01 0.  1.
          5    1    3    3  503    0  0.82839689763E+01  0.29813181261E+02 -0.61154336689E+01  0.31889472368E+02  0.47000000000E+01 0. -1.
         -5    1    3    3    0  503 -0.35823534396E+02 -0.15002147523E+02 -0.12458274884E+03  0.13058078478E+03  0.47000000000E+01 0.  1.
<mgrwt>
<rscale>  0 0.97917164E+02</rscale>
<asrwt>0</asrwt>
<pdfrwt beam="1">  1        1 0.80500753E-02 0.98390078E+02</pdfrwt>
<pdfrwt beam="2">  1       -1 0.32769219E-01 0.98390078E+02</pdfrwt>
<totfact> 0.69762132E+03</totfact>
</mgrwt>
</event>
<event>
 8    1  0.3177960E-004  0.1089021E+03  0.7546771E-02  0.1266478E+00
         -3   -1    0    0    0  501 -0.00000000000E+00  0.00000000000E+00  0.42986035779E+02  0.42986035779E+02  0.00000000000E+00 0.  1.
          3   -1    0    0  501    0  0.00000000000E+00 -0.00000000000E+00 -0.46472306844E+03  0.46472306844E+03  0.00000000000E+00 0. -1.
         23    2    1    2    0    0 -0.54211592214E+02 -0.19068802639E+02 -0.45282885006E+02  0.11794153573E+03  0.92504865885E+02 0.  0.
         23    2    1    2    0    0  0.54211592214E+02  0.19068802639E+02 -0.37645414765E+03  0.38976756848E+03  0.83057306673E+02 0.  0.
          5    1    3    3  502    0 -0.38011069439E+02  0.32784063270E+02 -0.37562026677E+02  0.62869961448E+02  0.47000000000E+01 0. -1.
         -5    1    3    3    0  502 -0.16200522775E+02 -0.51852865908E+02 -0.77208583296E+01  0.55071574287E+02  0.47000000000E+01 0.  1.
          5    1    4    4  503    0  0.76156858787E+02  0.10707350762E+02 -0.28649336455E+03  0.29667330927E+03  0.47000000000E+01 0. -1.
         -5    1    4    4    0  503 -0.21945266572E+02  0.83614518767E+01 -0.89960783102E+02  0.93094259214E+02  0.47000000000E+01 0.  1.
<mgrwt>
<rscale>  0 0.10687046E+03</rscale>
<asrwt>0</asrwt>
<pdfrwt beam="1">  1        3 0.71495859E-01 0.10890209E+03</pdfrwt>
<pdfrwt beam="2">  1       -3 0.66132360E-02 0.10890209E+03</pdfrwt>
<totfact> 0.61967347E+02</totfact>
</mgrwt>
</event>
<event>
 8    1  0.3177960E-004  0.1009919E+03  0.7546771E-02  0.1278566E+00
          1   -1    0    0  501    0  0.00000000000E+00  0.00000000000E+00  0.22663350307E+02  0.22663350307E+02  0.00000000000E+00 0. -1.
         -1   -1    0    0    0  501 -0.00000000000E+00 -0.00000000000E+00 -0.45970232445E+03  0.45970232445E+03  0.00000000000E+00 0.  1.
         23    2    1    2    0    0 -0.22665752752E+02  0.37124288566E+02 -0.17929823894E+03  0.20578438978E+03  0.91144980327E+02 0.  0.
         23    2    1    2    0    0  0.22665752752E+02 -0.37124288566E+02 -0.25774073520E+03  0.27658128498E+03  0.90415548826E+02 0.  0.
          5    1    3    3  502    0 -0.50641537330E+02  0.46831761079E+02 -0.10558208975E+03  0.12620398894E+03  0.47000000000E+01 0. -1.
         -5    1    4    4    0  503 -0.26745776133E+01 -0.42380230502E+02 -0.44370812082E+02  0.61596235824E+02  0.47000000000E+01 0.  1.
          5    1    4    4  503    0  0.25340330365E+02  0.52559419360E+01 -0.21336992312E+03  0.21498504916E+03  0.47000000000E+01 0. -1.
         -5    1    3    3    0  502  0.27975784578E+02 -0.97074725134E+01 -0.73716149190E+02  0.79580400834E+02  0.47000000000E+01 0.  1.
<mgrwt>
<rscale>  0 0.10082701E+03</rscale>
<asrwt>0</asrwt>
<pdfrwt beam="1">  1        1 0.34866689E-02 0.10099186E+03</pdfrwt>
<pdfrwt beam="2">  1       -1 0.70723442E-01 0.10099186E+03</pdfrwt>
<totfact> 0.53925668E+03</totfact>
</mgrwt>
</event>
<event>
 8    1  0.3177960E-004  0.1583207E+03  0.7546771E-02  0.1190744E+00
          2   -1    0    0  501    0  0.00000000000E+00  0.00000000000E+00  0.19810046097E+04  0.19810046097E+04  0.00000000000E+00 0. -1.
         -2   -1    0    0    0  501 -0.00000000000E+00 -0.00000000000E+00 -0.12614476162E+02  0.12614476162E+02  0.00000000000E+00 0.  1.
         23    2    1    2    0    0 -0.12280378180E+03  0.34932107918E+02  0.98311969675E+03  0.99578601012E+03  0.93618474804E+02 0.  0.
         23    2    1    2    0    0  0.12280378180E+03 -0.34932107918E+02  0.98527043678E+03  0.99783307573E+03  0.92800821380E+02 0.  0.
          5    1    4    4  502    0  0.10257119450E+03 -0.38804341378E+02  0.95274412068E+03  0.95904644118E+03  0.47000000000E+01 0. -1.
         -5    1    4    4    0  502  0.20232587303E+02  0.38722334603E+01  0.32526316096E+02  0.38786634550E+02  0.47000000000E+01 0.  1.
          5    1    3    3  503    0 -0.51335013111E+02 -0.28657393697E+02  0.27772656573E+03  0.28392017381E+03  0.47000000000E+01 0. -1.
         -5    1    3    3    0  503 -0.71468768687E+02  0.63589501615E+02  0.70539313102E+03  0.71186583630E+03  0.47000000000E+01 0.  1.
<mgrwt>
<rscale>  0 0.15820002E+03</rscale>
<asrwt>0</asrwt>
<pdfrwt beam="1">  1        2 0.30476969E+00 0.15832069E+03</pdfrwt>
<pdfrwt beam="2">  1       -2 0.19406902E-02 0.15832069E+03</pdfrwt>
<totfact> 0.61006825E+03</totfact>
</mgrwt>
</event>
<event>
 8    1  0.3177960E-004  0.1055812E+03  0.7546771E-02  0.1269332E+00
          1   -1    0    0  501    0  0.00000000000E+00  0.00000000000E+00  0.14490098020E+03  0.14490098020E+03  0.00000000000E+00 0. -1.
         -1   -1    0    0    0  501 -0.00000000000E+00 -0.00000000000E+00 -0.11306808674E+03  0.11306808674E+03  0.00000000000E+00 0.  1.
         23    2    1    2    0    0 -0.31554213573E+02 -0.41936223577E+02  0.89325935790E+02  0.13774905968E+03  0.90781966254E+02 0.  0.
         23    2    1    2    0    0  0.31554213573E+02  0.41936223577E+02 -0.57493042326E+02  0.12022000726E+03  0.91613781642E+02 0.  0.
          5    1    3    3  502    0 -0.11858077653E+02 -0.51030319963E+02  0.10009712562E+03  0.11307622260E+03  0.47000000000E+01 0. -1.
         -5    1    4    4    0  503  0.20890737617E+02 -0.27266977024E+02 -0.12483319533E+02  0.36848802162E+02  0.47000000000E+01 0. -1.
          5    1    4    4  503    0  0.10663475955E+02  0.69203200601E+02 -0.45009722794E+02  0.83371205094E+02  0.47000000000E+01 0.  1.
         -5    1    3    3    0  502 -0.19696135920E+02  0.90940963862E+01 -0.10771189829E+02  0.24672837080E+02  0.47000000000E+01 0.  1.
<mgrwt>
<rscale>  0 0.10540055E+03</rscale>
<asrwt>0</asrwt>
<pdfrwt beam="1">  1        1 0.22292459E-01 0.10558125E+03</pdfrwt>
<pdfrwt beam="2">  1       -1 0.17395090E-01 0.10558125E+03</pdfrwt>
<totfact> 0.52669371E+03</totfact>
</mgrwt>
</event>
<event>
 8    1  0.3177960E-004  0.1389911E+03  0.7546771E-02  0.1222786E+00
          2   -1    0    0  501    0  0.00000000000E+00  0.00000000000E+00  0.11667049419E+03  0.11667049419E+03  0.00000000000E+00 0. -1.
         -2   -1    0    0    0  501 -0.00000000000E+00 -0.00000000000E+00 -0.29281849738E+03  0.29281849738E+03  0.00000000000E+00 0.  1.
         23    2    1    2    0    0  0.12404324173E+02  0.53447241551E+02 -0.23181051559E+03  0.25976647888E+03  0.10359552850E+03 0.  0.
         23    2    1    2    0    0 -0.12404324173E+02 -0.53447241551E+02  0.55662512404E+02  0.14972251268E+03  0.12770293900E+03 0.  0.
          5    1    3    3  502    0  0.16854144031E+02 -0.27322238631E+02 -0.39729588952E+02  0.51294221245E+02  0.47000000000E+01 0. -1.
         -5    1    4    4    0  503  0.38680137434E+02 -0.59100681123E+02 -0.39167455658E+01  0.70897633507E+02  0.47000000000E+01 0.  1.
          5    1    4    4  503    0 -0.51084461607E+02  0.56534395712E+01  0.59579257970E+02  0.78824879175E+02  0.47000000000E+01 0. -1.
         -5    1    3    3    0  502 -0.44498198582E+01  0.80769480182E+02 -0.19208092664E+03  0.20847225764E+03  0.47000000000E+01 0.  1.
<mgrwt>
<rscale>  0 0.13319822E+03</rscale>
<asrwt>0</asrwt>
<pdfrwt beam="1">  1        2 0.17949307E-01 0.13899106E+03</pdfrwt>
<pdfrwt beam="2">  1       -2 0.45048999E-01 0.13899106E+03</pdfrwt>
<totfact> 0.14541787E+03</totfact>
</mgrwt>
</event>
<event>
 8    1  0.3177960E-004  0.1026118E+03  0.7546771E-02  0.1281842E+00
         -2   -1    0    0    0  501 -0.00000000000E+00  0.00000000000E+00  0.19744852522E+02  0.19744852522E+02  0.00000000000E+00 0.  1.
          2   -1    0    0  501    0  0.00000000000E+00 -0.00000000000E+00 -0.54849748725E+03  0.54849748725E+03  0.00000000000E+00 0. -1.
         23    2    1    2    0    0 -0.12147280138E+02  0.40746910675E+02 -0.14154252518E+03  0.16766668049E+03  0.79183092675E+02 0.  0.
         23    2    1    2    0    0  0.12147280138E+02 -0.40746910675E+02 -0.38721010955E+03  0.40057565929E+03  0.93388022431E+02 0.  0.
          5    1    3    3  502    0  0.10260461317E+02 -0.19645182791E+02 -0.56542873088E+02  0.60913026278E+02  0.47000000000E+01 0. -1.
         -5    1    3    3    0  502 -0.22407741456E+02  0.60392093466E+02 -0.84999652095E+02  0.10675365421E+03  0.47000000000E+01 0.  1.
          5    1    4    4  503    0  0.37115395911E+02 -0.41731639840E+02 -0.35569198020E+03  0.36008048705E+03  0.47000000000E+01 0. -1.
         -5    1    4    4    0  503 -0.24968115773E+02  0.98472916446E+00 -0.31518129347E+02  0.40495172235E+02  0.47000000000E+01 0.  1.
<mgrwt>
<rscale>  0 0.99268153E+02</rscale>
<asrwt>0</asrwt>
<pdfrwt beam="1">  1        2 0.84384227E-01 0.10261184E+03</pdfrwt>
<pdfrwt beam="2">  1       -2 0.30376697E-02 0.10261184E+03</pdfrwt>
<totfact> 0.21348390E+04</totfact>
</mgrwt>
</event>
<event>
 8    1  0.3177960E-004  0.1275823E+03  0.7546771E-02  0.1246659E+00
         -1   -1    0    0    0  501 -0.00000000000E+00  0.00000000000E+00  0.15992067544E+03  0.15992067544E+03  0.00000000000E+00 0.  1.
          1   -1    0    0  501    0  0.00000000000E+00 -0.00000000000E+00 -0.10028675776E+03  0.10028675776E+03  0.00000000000E+00 0. -1.
         23    2    1    2    0    0 -0.20384201055E+02 -0.10042428346E+02  0.89662953078E+02  0.12913882957E+03  0.90116736116E+02 0.  0.
         23    2    1    2    0    0  0.20384201055E+02  0.10042428346E+02 -0.30029035398E+02  0.13106860363E+03  0.12554230311E+03 0.  0.
          5    1    3    3  502    0  0.84353355442E+01 -0.38609458510E+02  0.12305025763E+02  0.41657518304E+02  0.47000000000E+01 0. -1.
         -5    1    3    3    0  502 -0.28819536600E+02  0.28567030165E+02  0.77357927315E+02  0.87481311265E+02  0.47000000000E+01 0.  1.
          5    1    4    4  503    0  0.28380434921E+02 -0.38480764410E+02  0.27404827875E+02  0.55311236713E+02  0.47000000000E+01 0. -1.
         -5    1    4    4    0  503 -0.79962338652E+01  0.48523192756E+02 -0.57433863274E+02  0.75757366914E+02  0.47000000000E+01 0.  1.
<mgrwt>
<rscale>  0 0.11786655E+03</rscale>
<asrwt>0</asrwt>
<pdfrwt beam="1">  1        1 0.15428732E-01 0.12758227E+03</pdfrwt>
<pdfrwt beam="2">  1       -1 0.24603181E-01 0.12758227E+03</pdfrwt>
<totfact> 0.48825636E+03</totfact>
</mgrwt>
</event>
<event>
 8    1  0.3177960E-004  0.1069183E+03  0.7546771E-02  0.1272090E+00
          3   -1    0    0  501    0  0.00000000000E+00  0.00000000000E+00  0.67927184117E+02  0.67927184117E+02  0.00000000000E+00 0. -1.
         -3   -1    0    0    0  501 -0.00000000000E+00 -0.00000000000E+00 -0.20953707448E+03  0.20953707448E+03  0.00000000000E+00 0.  1.
         23    2    1    2    0    0  0.22486205038E+02 -0.25965382230E+02 -0.47195280486E+00  0.10691930980E+03  0.10125060778E+03 0.  0.
         23    2    1    2    0    0 -0.22486205038E+02  0.25965382230E+02 -0.14113793756E+03  0.17054494880E+03  0.89363480528E+02 0.  0.
          5    1    4    4  502    0 -0.29155051102E+02 -0.28242153592E+02 -0.57374599403E+02  0.70438419211E+02  0.47000000000E+01 0. -1.
         -5    1    4    4    0  502  0.66688460636E+01  0.54207535822E+02 -0.83763338154E+02  0.10010652959E+03  0.47000000000E+01 0.  1.
          5    1    3    3  503    0 -0.32265426004E+02 -0.33007604685E+02  0.16068770336E+02  0.49100458882E+02  0.47000000000E+01 0. -1.
         -5    1    3    3    0  503  0.54751631043E+02  0.70422224550E+01 -0.16540723141E+02  0.57818850914E+02  0.47000000000E+01 0.  1.
<mgrwt>
<rscale>  0 0.10400625E+03</rscale>
<asrwt>0</asrwt>
<pdfrwt beam="1">  1        3 0.10450336E-01 0.10691827E+03</pdfrwt>
<pdfrwt beam="2">  1       -3 0.32236473E-01 0.10691827E+03</pdfrwt>
<totfact> 0.14181231E+03</totfact>
</mgrwt>
</event>
<event>
 8    1  0.3177960E-004  0.1164720E+03  0.7546771E-02  0.1250716E+00
         -1   -1    0    0    0  501 -0.00000000000E+00  0.00000000000E+00  0.69738885652E+03  0.69738885652E+03  0.00000000000E+00 0.  1.
          1   -1    0    0  501    0  0.00000000000E+00 -0.00000000000E+00 -0.12984855020E+03  0.12984855020E+03  0.00000000000E+00 0. -1.
         23    2    1    2    0    0  0.65792665347E+01 -0.66067533410E+02  0.66693499913E+03  0.67702882246E+03  0.95694971922E+02 0.  0.
         23    2    1    2    0    0 -0.65792665347E+01  0.66067533410E+02 -0.99394692812E+02  0.15020858427E+03  0.90967621211E+02 0.  0.
          5    1    3    3  502    0  0.26850577431E+02  0.15676581051E+02  0.21531048491E+03  0.21759458544E+03  0.47000000000E+01 0. -1.
         -5    1    4    4    0  503  0.17604059808E+02  0.57971357331E+02 -0.15947769819E+02  0.62825174529E+02  0.47000000000E+01 0.  1.
          5    1    4    4  503    0 -0.24183326343E+02  0.80961760794E+01 -0.83446922992E+02  0.87383409736E+02  0.47000000000E+01 0. -1.
         -5    1    3    3    0  502 -0.20271310896E+02 -0.81744114461E+02  0.45162451423E+03  0.45943423702E+03  0.47000000000E+01 0.  1.
<mgrwt>
<rscale>  0 0.11549690E+03</rscale>
<asrwt>0</asrwt>
<pdfrwt beam="1">  1        1 0.19976700E-01 0.11647203E+03</pdfrwt>
<pdfrwt beam="2">  1       -1 0.10729059E+00 0.11647203E+03</pdfrwt>
<totfact> 0.22404208E+02</totfact>
</mgrwt>
</event>
<event>
 8    1  0.3177960E-004  0.9778154E+02  0.7546771E-02  0.1285456E+00
          1   -1    0    0  501    0  0.00000000000E+00  0.00000000000E+00  0.92043145515E+03  0.92043145515E+03  0.00000000000E+00 0. -1.
         -1   -1    0    0    0  501 -0.00000000000E+00 -0.00000000000E+00 -0.10432421550E+02  0.10432421550E+02  0.00000000000E+00 0.  1.
         23    2    1    2    0    0 -0.28191784718E+02  0.24103350818E+01  0.40536476572E+03  0.41699139475E+03  0.93598309644E+02 0.  0.
         23    2    1    2    0    0  0.28191784718E+02 -0.24103350818E+01  0.50463426787E+03  0.51387248194E+03  0.92782524995E+02 0.  0.
          5    1    4    4  502    0  0.47917437402E+01  0.44157848311E+02  0.22917255001E+03  0.23348452637E+03  0.47000000000E+01 0. -1.
         -5    1    4    4    0  502  0.23400040978E+02 -0.46568183393E+02  0.27546171786E+03  0.28038795557E+03  0.47000000000E+01 0.  1.
          5    1    3    3  503    0  0.25811552829E+02  0.24763890378E+02  0.20781553378E+03  0.21092385499E+03  0.47000000000E+01 0. -1.
         -5    1    3    3    0  503 -0.54003337547E+02 -0.22353555296E+02  0.19754923195E+03  0.20606753976E+03  0.47000000000E+01 0.  1.
<mgrwt>
<rscale>  0 0.97585806E+02</rscale>
<asrwt>0</asrwt>
<pdfrwt beam="1">  1        1 0.14160477E+00 0.97781542E+02</pdfrwt>
<pdfrwt beam="2">  1       -1 0.16049887E-02 0.97781542E+02</pdfrwt>
<totfact> 0.16209755E+04</totfact>
</mgrwt>
</event>
<event>
 8    1  0.3177960E-004  0.1053700E+03  0.7546771E-02  0.1270315E+00
         -2   -1    0    0    0  501 -0.00000000000E+00  0.00000000000E+00  0.78708552839E+02  0.78708552839E+02  0.00000000000E+00 0.  1.
          2   -1    0    0  501    0  0.00000000000E+00 -0.00000000000E+00 -0.38519963033E+03  0.38519963033E+03  0.00000000000E+00 0. -1.
         23    2    1    2    0    0  0.71416390825E+01  0.51256930566E+02  0.31858520806E+02  0.11008086169E+03  0.91785373684E+02 0.  0.
         23    2    1    2    0    0 -0.71416390825E+01 -0.51256930566E+02 -0.33834959829E+03  0.35382732148E+03  0.89638422664E+02 0.  0.
          5    1    3    3  502    0  0.31232517173E+01 -0.22633132503E+02 -0.94902407679E+01  0.25182693622E+02  0.47000000000E+01 0. -1.
         -5    1    4    4    0  503  0.28610833964E+02  0.11428226226E+02 -0.10533904548E+03  0.10985257702E+03  0.47000000000E+01 0.  1.
          5    1    4    4  503    0 -0.35752473046E+02 -0.62685156792E+02 -0.23301055281E+03  0.24397474445E+03  0.47000000000E+01 0. -1.
         -5    1    3    3    0  502  0.40183873652E+01  0.73890063069E+02  0.41348761574E+02  0.84898168067E+02  0.47000000000E+01 0.  1.
<mgrwt>
<rscale>  0 0.10490065E+03</rscale>
<asrwt>0</asrwt>
<pdfrwt beam="1">  1        2 0.59261482E-01 0.10536997E+03</pdfrwt>
<pdfrwt beam="2">  1       -2 0.12109008E-01 0.10536997E+03</pdfrwt>
<totfact> 0.38641814E+03</totfact>
</mgrwt>
</event>
<event>
 7    1  0.3177960E-004  0.2806212E+03  0.7546771E-02  0.1099427E+00
         -1   -1    0    0    0  501 -0.00000000000E+00  0.00000000000E+00  0.34623239124E+03  0.34623239124E+03  0.00000000000E+00 0.  1.
          1   -1    0    0  501    0  0.00000000000E+00 -0.00000000000E+00 -0.35045698023E+03  0.35045698023E+03  0.00000000000E+00 0. -1.
         23    2    1    2    0    0 -0.23534048960E+02  0.23470914448E+03  0.22212073316E+03  0.33616135344E+03  0.89580139999E+02 0.  0.
          5    1    1    2  502    0  0.51808881281E+02 -0.18325345171E+03 -0.87347051428E+02  0.20956522883E+03  0.47000000000E+01 0. -1.
         -5    1    1    2    0  502 -0.28274832322E+02 -0.51455692776E+02 -0.13899827071E+03  0.15096278920E+03  0.47000000000E+01 0.  1.
          5    1    3    3  503    0  0.20081930136E+02  0.38892760127E+02  0.12038441040E+02  0.45639289773E+02  0.47000000000E+01 0. -1.
         -5    1    3    3    0  503 -0.43615979095E+02  0.19581638436E+03  0.21008229212E+03  0.29052206367E+03  0.47000000000E+01 0.  1.
<mgrwt>
<rscale>  0 0.27326216E+03</rscale>
<asrwt>0</asrwt>
<pdfrwt beam="1">  1        1 0.53916458E-01 0.28062118E+03</pdfrwt>
<pdfrwt beam="2">  1       -1 0.53266522E-01 0.28062118E+03</pdfrwt>
<totfact> 0.26399500E+02</totfact>
</mgrwt>
</event>
<event>
 8    1  0.3177960E-004  0.1047176E+03  0.7546771E-02  0.1272966E+00
         -2   -1    0    0    0  501 -0.00000000000E+00  0.00000000000E+00  0.15831065104E+02  0.15831065104E+02  0.00000000000E+00 0.  1.
          2   -1    0    0  501    0  0.00000000000E+00 -0.00000000000E+00 -0.67224222979E+03  0.67224222979E+03  0.00000000000E+00 0. -1.
         23    2    1    2    0    0  0.46814592673E+02 -0.67422258950E+01 -0.29521242615E+03  0.31323498877E+03  0.93427608011E+02 0.  0.
         23    2    1    2    0    0 -0.46814592673E+02  0.67422258950E+01 -0.36119873854E+03  0.37483830613E+03  0.88329855211E+02 0.  0.
          5    1    3    3  502    0 -0.12765864260E+02 -0.35676499868E+02 -0.10024132410E+03  0.10726692403E+03  0.47000000000E+01 0. -1.
         -5    1    4    4    0  503 -0.48388800065E+02  0.42195992462E+02 -0.22825091148E+03  0.23715511031E+03  0.47000000000E+01 0.  1.
          5    1    4    4  503    0  0.15742073919E+01 -0.35453766567E+02 -0.13294782705E+03  0.13768319582E+03  0.47000000000E+01 0. -1.
         -5    1    3    3    0  502  0.59580456933E+02  0.28934273973E+02 -0.19497110205E+03  0.20596806474E+03  0.47000000000E+01 0.  1.
<mgrwt>
<rscale>  0 0.10356843E+03</rscale>
<asrwt>0</asrwt>
<pdfrwt beam="1">  1        2 0.10342186E+00 0.10471763E+03</pdfrwt>
<pdfrwt beam="2">  1       -2 0.24355489E-02 0.10471763E+03</pdfrwt>
<totfact> 0.23440630E+04</totfact>
</mgrwt>
</event>
<event>
 7    1  0.3177960E-004  0.1664873E+03  0.7546771E-02  0.1189800E+00
         -2   -1    0    0    0  501 -0.00000000000E+00  0.00000000000E+00  0.71320028219E+02  0.71320028219E+02  0.00000000000E+00 0.  1.
          2   -1    0    0  501    0  0.00000000000E+00 -0.00000000000E+00 -0.33195622745E+03  0.33195622745E+03  0.00000000000E+00 0. -1.
         23    2    1    2    0    0 -0.76277759520E+02 -0.34351870754E+02 -0.92288746708E+02  0.16650865605E+03  0.11049693276E+03 0.  0.
          5    1    3    3  502    0 -0.30032483850E+02 -0.58467075721E+02 -0.93189097654E+02  0.11413433730E+03  0.47000000000E+01 0. -1.
         -5    1    3    3    0  502 -0.46245275670E+02  0.24115204967E+02  0.90035094573E+00  0.52374318747E+02  0.47000000000E+01 0.  1.
          5    1    1    2  503    0  0.83290339787E+02 -0.90758786653E+01 -0.26223390225E+02  0.87917054491E+02  0.47000000000E+01 0. -1.
         -5    1    1    2    0  503 -0.70125802677E+01  0.43427749419E+02 -0.14212406230E+03  0.14885054513E+03  0.47000000000E+01 0.  1.
<mgrwt>
<rscale>  0 0.15902703E+03</rscale>
<asrwt>0</asrwt>
<pdfrwt beam="1">  1        2 0.51070188E-01 0.16648733E+03</pdfrwt>
<pdfrwt beam="2">  1       -2 0.10972312E-01 0.16648733E+03</pdfrwt>
<totfact> 0.54261548E+03</totfact>
</mgrwt>
</event>
<event>
 8    1  0.3177960E-004  0.9229621E+02  0.7546771E-02  0.1299450E+00
         -3   -1    0    0    0  501 -0.00000000000E+00  0.00000000000E+00  0.20312951062E+02  0.20312951062E+02  0.00000000000E+00 0.  1.
          3   -1    0    0  501    0  0.00000000000E+00 -0.00000000000E+00 -0.55977236182E+03  0.55977236182E+03  0.00000000000E+00 0. -1.
         23    2    1    2    0    0 -0.31792670662E+01 -0.17746808573E+02 -0.11293705718E+03  0.14369110127E+03  0.86990210631E+02 0.  0.
         23    2    1    2    0    0  0.31792670662E+01  0.17746808573E+02 -0.42652235358E+03  0.43639421161E+03  0.90518135613E+02 0.  0.
          5    1    3    3  502    0  0.47995050660E+01  0.34696053241E+02 -0.39897129678E+02  0.53298426955E+02  0.47000000000E+01 0. -1.
         -5    1    3    3    0  502 -0.79787721322E+01 -0.52442861814E+02 -0.73039927504E+02  0.90392674315E+02  0.47000000000E+01 0.  1.
          5    1    4    4  503    0  0.30989741933E+02  0.43771947532E+02 -0.25800182167E+03  0.26355905881E+03  0.47000000000E+01 0. -1.
         -5    1    4    4    0  503 -0.27810474867E+02 -0.26025138960E+02 -0.16852053190E+03  0.17283515280E+03  0.47000000000E+01 0.  1.
<mgrwt>
<rscale>  0 0.91419472E+02</rscale>
<asrwt>0</asrwt>
<pdfrwt beam="1">  1        3 0.86118809E-01 0.92296207E+02</pdfrwt>
<pdfrwt beam="2">  1       -3 0.31250700E-02 0.92296207E+02</pdfrwt>
<totfact> 0.13042814E+03</totfact>
</mgrwt>
</event>
<event>
 8    1  0.3177960E-004  0.1065882E+03  0.7546771E-02  0.1267358E+00
          1   -1    0    0  501    0  0.00000000000E+00  0.00000000000E+00  0.24069183639E+03  0.24069183639E+03  0.00000000000E+00 0. -1.
         -1   -1    0    0    0  501 -0.00000000000E+00 -0.00000000000E+00 -0.47836948472E+02  0.47836948472E+02  0.00000000000E+00 0.  1.
         23    2    1    2    0    0 -0.25834404244E+02  0.41703654253E+02  0.11698455882E+03  0.15826062464E+03  0.94627834643E+02 0.  0.
         23    2    1    2    0    0  0.25834404244E+02 -0.41703654253E+02  0.75870329098E+02  0.13026816022E+03  0.93844954625E+02 0.  0.
          5    1    3    3  502    0  0.43954146927E+01  0.53955811403E+02  0.23618635013E+02  0.59249296826E+02  0.47000000000E+01 0. -1.
         -5    1    4    4    0  503 -0.24570956440E+02 -0.33878842324E+02  0.44100354041E+01  0.42344377075E+02  0.47000000000E+01 0.  1.
          5    1    4    4  503    0  0.50405360684E+02 -0.78248119286E+01  0.71460293694E+02  0.87923783143E+02  0.47000000000E+01 0. -1.
         -5    1    3    3    0  502 -0.30229818937E+02 -0.12252157150E+02  0.93365923805E+02  0.99011327816E+02  0.47000000000E+01 0.  1.
<mgrwt>
<rscale>  0 0.10641414E+03</rscale>
<asrwt>0</asrwt>
<pdfrwt beam="1">  1        1 0.37029512E-01 0.10658817E+03</pdfrwt>
<pdfrwt beam="2">  1       -1 0.73595307E-02 0.10658817E+03</pdfrwt>
<totfact> 0.10481667E+04</totfact>
</mgrwt>
</event>
<event>
 8    1  0.3177960E-004  0.1265826E+03  0.7546771E-02  0.1248158E+00
          3   -1    0    0  501    0  0.00000000000E+00  0.00000000000E+00  0.31103288824E+03  0.31103288824E+03  0.00000000000E+00 0. -1.
         -3   -1    0    0    0  501 -0.00000000000E+00 -0.00000000000E+00 -0.10984249051E+03  0.10984249051E+03  0.00000000000E+00 0.  1.
         23    2    1    2    0    0  0.18454595352E+02 -0.11889551925E+00 -0.62726280964E+02  0.14127186398E+03  0.12523005631E+03 0.  0.
         23    2    1    2    0    0 -0.18454595352E+02  0.11889551925E+00  0.26391667870E+03  0.27960351477E+03  0.90473896530E+02 0.  0.
          5    1    4    4  502    0 -0.20852586444E+02 -0.35182964499E+02  0.61131512059E+02  0.73700903109E+02  0.47000000000E+01 0. -1.
         -5    1    3    3    0  503 -0.22529794158E+01 -0.25601861696E+02 -0.92855156132E+02  0.96460879422E+02  0.47000000000E+01 0.  1.
          5    1    3    3  503    0  0.20707574768E+02  0.25482966177E+02  0.30128875168E+02  0.44810984555E+02  0.47000000000E+01 0. -1.
         -5    1    4    4    0  502  0.23979910927E+01  0.35301860018E+02  0.20278516664E+03  0.20590261166E+03  0.47000000000E+01 0.  1.
<mgrwt>
<rscale>  0 0.11698344E+03</rscale>
<asrwt>0</asrwt>
<pdfrwt beam="1">  1        3 0.47851213E-01 0.12658259E+03</pdfrwt>
<pdfrwt beam="2">  1       -3 0.16898845E-01 0.12658259E+03</pdfrwt>
<totfact> 0.30403605E+02</totfact>
</mgrwt>
</event>
<event>
 8    1  0.3177960E-004  0.1187741E+03  0.7546771E-02  0.1245810E+00
         -2   -1    0    0    0  501 -0.00000000000E+00  0.00000000000E+00  0.97436997158E+02  0.97436997158E+02  0.00000000000E+00 0.  1.
          2   -1    0    0  501    0  0.00000000000E+00 -0.00000000000E+00 -0.15064485828E+03  0.15064485828E+03  0.00000000000E+00 0. -1.
         23    2    1    2    0    0 -0.59779658229E+02 -0.41808690004E+02  0.18146178887E+01  0.11718201291E+03  0.91688370106E+02 0.  0.
         23    2    1    2    0    0  0.59779658229E+02  0.41808690004E+02 -0.55022479010E+02  0.13089984253E+03  0.93732179535E+02 0.  0.
          5    1    4    4  502    0  0.53594140782E+02  0.17188907298E+01 -0.69202905344E+02  0.87672222623E+02  0.47000000000E+01 0. -1.
         -5    1    4    4    0  502  0.61855174465E+01  0.40089799274E+02  0.14180426334E+02  0.43227619908E+02  0.47000000000E+01 0.  1.
          5    1    3    3  503    0  0.23547163482E+02 -0.10916538715E+02 -0.82129117867E+01  0.27625742444E+02  0.47000000000E+01 0. -1.
         -5    1    3    3    0  503 -0.83326821711E+02 -0.30892151288E+02  0.10027529675E+02  0.89556270462E+02  0.47000000000E+01 0.  1.
<mgrwt>
<rscale>  0 0.11837054E+03</rscale>
<asrwt>0</asrwt>
<pdfrwt beam="1">  1        2 0.23176132E-01 0.11877414E+03</pdfrwt>
<pdfrwt beam="2">  1       -2 0.14990307E-01 0.11877414E+03</pdfrwt>
<totfact> 0.75287999E+03</totfact>
</mgrwt>
</event>
<event>
 8    1  0.3177960E-004  0.9636237E+02  0.7546771E-02  0.1290619E+00
         -1   -1    0    0    0  501 -0.00000000000E+00  0.00000000000E+00  0.12666207652E+03  0.12666207652E+03  0.00000000000E+00 0.  1.
          1   -1    0    0  501    0  0.00000000000E+00 -0.00000000000E+00 -0.15862540264E+03  0.15862540264E+03  0.00000000000E+00 0. -1.
         23    2    1    2    0    0 -0.51324070377E+01 -0.11473709984E+02  0.90782229925E+02  0.12923563819E+03  0.91117777001E+02 0.  0.
         23    2    1    2    0    0  0.51324070377E+01  0.11473709984E+02 -0.12274555604E+03  0.15605184097E+03  0.95539091058E+02 0.  0.
          5    1    4    4  502    0  0.49464063641E+02  0.64073364097E+01 -0.51437764632E+02  0.71803072233E+02  0.47000000000E+01 0. -1.
         -5    1    4    4    0  502 -0.44331656604E+02  0.50663735742E+01 -0.71307791405E+02  0.84248768736E+02  0.47000000000E+01 0.  1.
          5    1    3    3  503    0  0.24644774664E+02  0.21831334865E+02  0.67293744988E+01  0.33931498366E+02  0.47000000000E+01 0. -1.
         -5    1    3    3    0  503 -0.29777181702E+02 -0.33305044848E+02  0.84052855426E+02  0.95304139825E+02  0.47000000000E+01 0.  1.
<mgrwt>
<rscale>  0 0.95247742E+02</rscale>
<asrwt>0</asrwt>
<pdfrwt beam="1">  1        1 0.24403908E-01 0.96362366E+02</pdfrwt>
<pdfrwt beam="2">  1       -1 0.19486473E-01 0.96362366E+02</pdfrwt>
<totfact> 0.39073927E+03</totfact>
</mgrwt>
</event>
<event>
 8    1  0.3177960E-004  0.1371514E+03  0.7546771E-02  0.1219219E+00
         -1   -1    0    0    0  501 -0.00000000000E+00  0.00000000000E+00  0.12635776380E+03  0.12635776380E+03  0.00000000000E+00 0.  1.
          1   -1    0    0  501    0  0.00000000000E+00 -0.00000000000E+00 -0.14691980495E+03  0.14691980495E+03  0.00000000000E+00 0. -1.
         23    2    1    2    0    0  0.64671562606E+02 -0.67801621373E+02  0.12869861438E+02  0.13211034421E+03  0.92239031016E+02 0.  0.
         23    2    1    2    0    0 -0.64671562606E+02  0.67801621373E+02 -0.33431902593E+02  0.14116722454E+03  0.10015499140E+03 0.  0.
          5    1    4    4  502    0 -0.66284143362E+02  0.16782134883E+02  0.15536489281E+02  0.70275886417E+02  0.47000000000E+01 0. -1.
         -5    1    3    3    0  503  0.47328045510E+02 -0.29145298343E+02  0.50503297511E+02  0.75246696717E+02  0.47000000000E+01 0.  1.
          5    1    3    3  503    0  0.17343517096E+02 -0.38656323030E+02 -0.37633436073E+02  0.56863647492E+02  0.47000000000E+01 0. -1.
         -5    1    4    4    0  502  0.16125807561E+01  0.51019486490E+02 -0.48968391874E+02  0.70891338125E+02  0.47000000000E+01 0.  1.
<mgrwt>
<rscale>  0 0.13571149E+03</rscale>
<asrwt>0</asrwt>
<pdfrwt beam="1">  1        1 0.22603047E-01 0.13715135E+03</pdfrwt>
<pdfrwt beam="2">  1       -1 0.19439656E-01 0.13715135E+03</pdfrwt>
<totfact> 0.44119043E+03</totfact>
</mgrwt>
</event>
<event>
 8    1  0.3177960E-004  0.1540043E+03  0.7546771E-02  0.1195719E+00
          1   -1    0    0  501    0  0.00000000000E+00  0.00000000000E+00  0.14686615643E+03  0.14686615643E+03  0.00000000000E+00 0. -1.
         -1   -1    0    0    0  501 -0.00000000000E+00 -0.00000000000E+00 -0.16120858288E+03  0.16120858288E+03  0.00000000000E+00 0.  1.
         23    2    1    2    0    0 -0.10934097963E+03  0.57162966538E+02 -0.83476007895E+01  0.15395379282E+03  0.91700781422E+02 0.  0.
         23    2    1    2    0    0  0.10934097963E+03 -0.57162966538E+02 -0.59948256596E+01  0.15412094649E+03  0.92164383804E+02 0.  0.
          5    1    4    4  502    0  0.90421087770E+02  0.23398707970E+01  0.42515177050E+01  0.90673113499E+02  0.47000000000E+01 0. -1.
         -5    1    3    3    0  503 -0.71253004367E+02  0.10752481450E+02 -0.43421632038E+02  0.84262296536E+02  0.47000000000E+01 0.  1.
          5    1    3    3  503    0 -0.38087975266E+02  0.46410485088E+02  0.35074031248E+02  0.69691496282E+02  0.47000000000E+01 0. -1.
         -5    1    4    4    0  502  0.18919891863E+02 -0.59502837335E+02 -0.10246343365E+02  0.63447832992E+02  0.47000000000E+01 0.  1.
<mgrwt>
<rscale>  0 0.15393502E+03</rscale>
<asrwt>0</asrwt>
<pdfrwt beam="1">  1        1 0.22594793E-01 0.15400431E+03</pdfrwt>
<pdfrwt beam="2">  1       -1 0.24801321E-01 0.15400431E+03</pdfrwt>
<totfact> 0.29903398E+03</totfact>
</mgrwt>
</event>
<event>
 8    1  0.3177960E-004  0.9845822E+02  0.7546771E-02  0.1285230E+00
         -2   -1    0    0    0  501 -0.00000000000E+00  0.00000000000E+00  0.28269122442E+02  0.28269122442E+02  0.00000000000E+00 0.  1.
          2   -1    0    0  501    0  0.00000000000E+00 -0.00000000000E+00 -0.58359689883E+03  0.58359689883E+03  0.00000000000E+00 0. -1.
         23    2    1    2    0    0  0.16165077885E+02 -0.26069298009E+02 -0.79450676899E+02  0.12651652731E+03  0.93558022535E+02 0.  0.
         23    2    1    2    0    0 -0.16165077885E+02  0.26069298009E+02 -0.47587709949E+03  0.48534949396E+03  0.90355959577E+02 0.  0.
          5    1    4    4  502    0 -0.17668167347E+02  0.51193052340E+02 -0.42428893676E+03  0.42775703922E+03  0.47000000000E+01 0. -1.
         -5    1    4    4    0  502  0.15030894624E+01 -0.25123754331E+02 -0.51588162727E+02  0.57592454741E+02  0.47000000000E+01 0.  1.
          5    1    3    3  503    0  0.17558894574E+02  0.32872356839E+02 -0.42756692247E+02  0.56913367101E+02  0.47000000000E+01 0. -1.
         -5    1    3    3    0  503 -0.13938166892E+01 -0.58941654848E+02 -0.36693984652E+02  0.69603160207E+02  0.47000000000E+01 0.  1.
<mgrwt>
<rscale>  0 0.97689905E+02</rscale>
<asrwt>0</asrwt>
<pdfrwt beam="1">  1        2 0.89784137E-01 0.98458223E+02</pdfrwt>
<pdfrwt beam="2">  1       -2 0.43490958E-02 0.98458223E+02</pdfrwt>
<totfact> 0.11721819E+04</totfact>
</mgrwt>
</event>
<event>
 8    1  0.3177960E-004  0.1201651E+03  0.7546771E-02  0.1244112E+00
         -1   -1    0    0    0  501 -0.00000000000E+00  0.00000000000E+00  0.52888605438E+02  0.52888605438E+02  0.00000000000E+00 0.  1.
          1   -1    0    0  501    0  0.00000000000E+00 -0.00000000000E+00 -0.26796744894E+03  0.26796744894E+03  0.00000000000E+00 0. -1.
         23    2    1    2    0    0 -0.44415236094E+02 -0.58119763442E+02 -0.95400299429E+02  0.15343032083E+03  0.95336384032E+02 0.  0.
         23    2    1    2    0    0  0.44415236094E+02  0.58119763442E+02 -0.11967854407E+03  0.16742573354E+03  0.91421016409E+02 0.  0.
          5    1    4    4  502    0  0.51039280935E+02 -0.33993269600E+01 -0.33862303472E+02  0.61524866668E+02  0.47000000000E+01 0. -1.
         -5    1    4    4    0  502 -0.66240448411E+01  0.61519090402E+02 -0.85816240602E+02  0.10590086688E+03  0.47000000000E+01 0.  1.
          5    1    3    3  503    0  0.12715175223E+02 -0.26955689539E+02 -0.81243234523E+02  0.86665091214E+02  0.47000000000E+01 0. -1.
         -5    1    3    3    0  503 -0.57130411316E+02 -0.31164073904E+02 -0.14157064906E+02  0.66765229620E+02  0.47000000000E+01 0.  1.
<mgrwt>
<rscale>  0 0.11938703E+03</rscale>
<asrwt>0</asrwt>
<pdfrwt beam="1">  1        1 0.41225762E-01 0.12016508E+03</pdfrwt>
<pdfrwt beam="2">  1       -1 0.81367085E-02 0.12016508E+03</pdfrwt>
<totfact> 0.79779687E+03</totfact>
</mgrwt>
</event>
<event>
 8    1  0.3177960E-004  0.9510273E+02  0.7546771E-02  0.1292791E+00
         -2   -1    0    0    0  501 -0.00000000000E+00  0.00000000000E+00  0.91877140024E+01  0.91877140024E+01  0.00000000000E+00 0.  1.
          2   -1    0    0  501    0  0.00000000000E+00 -0.00000000000E+00 -0.10958760602E+04  0.10958760602E+04  0.00000000000E+00 0. -1.
         23    2    1    2    0    0  0.34650216521E+01  0.11181993072E+02 -0.35083670564E+03  0.36349817377E+03  0.94379473199E+02 0.  0.
         23    2    1    2    0    0 -0.34650216521E+01 -0.11181993072E+02 -0.73585164056E+03  0.74156560044E+03  0.91131001851E+02 0.  0.
          5    1    4    4  502    0 -0.31017598402E+02  0.27966529437E+02 -0.41592608606E+03  0.41804403745E+03  0.47000000000E+01 0. -1.
         -5    1    4    4    0  502  0.27552576750E+02 -0.39148522509E+02 -0.31992555450E+03  0.32352156300E+03  0.47000000000E+01 0.  1.
          5    1    3    3  503    0 -0.89770972573E+00  0.51862874657E+02 -0.23044475043E+03  0.23625714095E+03  0.47000000000E+01 0. -1.
         -5    1    3    3    0  503  0.43627313778E+01 -0.40680881585E+02 -0.12039195521E+03  0.12724103281E+03  0.47000000000E+01 0.  1.
<mgrwt>
<rscale>  0 0.94286554E+02</rscale>
<asrwt>0</asrwt>
<pdfrwt beam="1">  1        2 0.16859628E+00 0.95102725E+02</pdfrwt>
<pdfrwt beam="2">  1       -2 0.14134947E-02 0.95102725E+02</pdfrwt>
<totfact> 0.27284517E+04</totfact>
</mgrwt>
</event>
<event>
 8    1  0.3177960E-004  0.9696495E+02  0.7546771E-02  0.1288942E+00
          1   -1    0    0  501    0  0.00000000000E+00  0.00000000000E+00  0.53026140373E+02  0.53026140373E+02  0.00000000000E+00 0. -1.
         -1   -1    0    0    0  501 -0.00000000000E+00 -0.00000000000E+00 -0.19217798787E+03  0.19217798787E+03  0.00000000000E+00 0.  1.
         23    2    1    2    0    0  0.18434269423E+02 -0.20155605947E+02 -0.27095853043E+02  0.97019286874E+02  0.89064504901E+02 0.  0.
         23    2    1    2    0    0 -0.18434269423E+02  0.20155605947E+02 -0.11205599445E+03  0.14818484137E+03  0.93038328542E+02 0.  0.
          5    1    4    4  502    0 -0.55323958581E+02  0.15318068485E+02 -0.81568882962E+02  0.99854675819E+02  0.47000000000E+01 0. -1.
         -5    1    3    3    0  503  0.52303974558E+02 -0.25184828557E+02 -0.21071309465E+02  0.61936026887E+02  0.47000000000E+01 0.  1.
          5    1    3    3  503    0 -0.33869705135E+02  0.50292226094E+01 -0.60245435773E+01  0.35083259987E+02  0.47000000000E+01 0. -1.
         -5    1    4    4    0  502  0.36889689158E+02  0.48375374620E+01 -0.30487111489E+02  0.48330165547E+02  0.47000000000E+01 0.  1.
<mgrwt>
<rscale>  0 0.95999068E+02</rscale>
<asrwt>0</asrwt>
<pdfrwt beam="1">  1        1 0.81578677E-02 0.96964949E+02</pdfrwt>
<pdfrwt beam="2">  1       -1 0.29565844E-01 0.96964949E+02</pdfrwt>
<totfact> 0.81315099E+03</totfact>
</mgrwt>
</event>
<event>
 8    1  0.3177960E-004  0.2419422E+03  0.7546771E-02  0.1119060E+00
         -1   -1    0    0    0  501 -0.00000000000E+00  0.00000000000E+00  0.10717376262E+03  0.10717376262E+03  0.00000000000E+00 0.  1.
          1   -1    0    0  501    0  0.00000000000E+00 -0.00000000000E+00 -0.58360981264E+03  0.58360981264E+03  0.00000000000E+00 0. -1.
         23    2    1    2    0    0  0.16413231412E+03 -0.14732173762E+03 -0.14084690251E+03  0.27707342591E+03  0.91042421355E+02 0.  0.
         23    2    1    2    0    0 -0.16413231412E+03  0.14732173762E+03 -0.33558914750E+03  0.41371014935E+03  0.99463062687E+02 0.  0.
          5    1    4    4  502    0 -0.95800532598E+02  0.13807074280E+03 -0.27217977481E+03  0.31991435084E+03  0.47000000000E+01 0. -1.
         -5    1    4    4    0  502 -0.68331781523E+02  0.92509948217E+01 -0.63409372695E+02  0.93795798503E+02  0.47000000000E+01 0.  1.
          5    1    3    3  503    0  0.57777769495E+02 -0.30024163052E+02 -0.89047866253E+02  0.11041437180E+03  0.47000000000E+01 0. -1.
         -5    1    3    3    0  503  0.10635454463E+03 -0.11729757457E+03 -0.51799036259E+02  0.16665905412E+03  0.47000000000E+01 0.  1.
<mgrwt>
<rscale>  0 0.24110325E+03</rscale>
<asrwt>0</asrwt>
<pdfrwt beam="1">  1        1 0.89786126E-01 0.24194217E+03</pdfrwt>
<pdfrwt beam="2">  1       -1 0.16488271E-01 0.24194217E+03</pdfrwt>
<totfact> 0.10108968E+03</totfact>
</mgrwt>
</event>
<event>
 8    1  0.3177960E-004  0.1318013E+03  0.7546771E-02  0.1225040E+00
          2   -1    0    0  501    0  0.00000000000E+00  0.00000000000E+00  0.10312218875E+04  0.10312218875E+04  0.00000000000E+00 0. -1.
         -2   -1    0    0    0  501 -0.00000000000E+00 -0.00000000000E+00 -0.24124140871E+02  0.24124140871E+02  0.00000000000E+00 0.  1.
         23    2    1    2    0    0 -0.88016391582E+02  0.30118847205E+02  0.79415637019E+03  0.80491517128E+03  0.92466548041E+02 0.  0.
         23    2    1    2    0    0  0.88016391582E+02 -0.30118847205E+02  0.21294137641E+03  0.25043085706E+03  0.93367843691E+02 0.  0.
          5    1    3    3  502    0  0.60197361288E+01 -0.20236383031E+02  0.20723524901E+03  0.20836095328E+03  0.47000000000E+01 0. -1.
         -5    1    3    3    0  502 -0.94036127711E+02  0.50355230236E+02  0.58692112118E+03  0.59655421800E+03  0.47000000000E+01 0.  1.
          5    1    4    4  503    0  0.10027152519E+03 -0.80607135599E+01  0.19382961624E+03  0.21842931121E+03  0.47000000000E+01 0. -1.
         -5    1    4    4    0  503 -0.12255133606E+02 -0.22058133645E+02  0.19111760178E+02  0.32001545849E+02  0.47000000000E+01 0.  1.
<mgrwt>
<rscale>  0 0.13164178E+03</rscale>
<asrwt>0</asrwt>
<pdfrwt beam="1">  1        2 0.15864949E+00 0.13180131E+03</pdfrwt>
<pdfrwt beam="2">  1       -2 0.37114071E-02 0.13180131E+03</pdfrwt>
<totfact> 0.74892367E+03</totfact>
</mgrwt>
</event>
<event>
 8    1  0.3177960E-004  0.1218160E+03  0.7546771E-02  0.1241785E+00
          1   -1    0    0  501    0  0.00000000000E+00  0.00000000000E+00  0.89819049739E+02  0.89819049739E+02  0.00000000000E+00 0. -1.
         -1   -1    0    0    0  501 -0.00000000000E+00 -0.00000000000E+00 -0.16029204739E+03  0.16029204739E+03  0.00000000000E+00 0.  1.
         23    2    1    2    0    0 -0.68323394942E+02  0.30143449830E+02 -0.41521692008E+02  0.12490203069E+03  0.91102977447E+02 0.  0.
         23    2    1    2    0    0  0.68323394942E+02 -0.30143449830E+02 -0.28951305646E+02  0.12520906644E+03  0.96241458614E+02 0.  0.
          5    1    4    4  502    0  0.59966923939E+02  0.15588680716E+02 -0.43977781338E+02  0.76126041435E+02  0.47000000000E+01 0. -1.
         -5    1    3    3    0  503 -0.36024020409E+02 -0.62419645079E+00 -0.64855929486E+02  0.74340441600E+02  0.47000000000E+01 0.  1.
          5    1    3    3  503    0 -0.32299374532E+02  0.30767646281E+02  0.23334237478E+02  0.50561589092E+02  0.47000000000E+01 0. -1.
         -5    1    4    4    0  502  0.83564710027E+01 -0.45732130546E+02  0.15026475692E+02  0.49083025005E+02  0.47000000000E+01 0.  1.
<mgrwt>
<rscale>  0 0.12079892E+03</rscale>
<asrwt>0</asrwt>
<pdfrwt beam="1">  1        1 0.13818315E-01 0.12181598E+03</pdfrwt>
<pdfrwt beam="2">  1       -1 0.24660315E-01 0.12181598E+03</pdfrwt>
<totfact> 0.55917457E+03</totfact>
</mgrwt>
</event>
<event>
 8    1  0.3177960E-004  0.1100367E+03  0.7546771E-02  0.1267928E+00
          1   -1    0    0  501    0  0.00000000000E+00  0.00000000000E+00  0.44570399804E+02  0.44570399804E+02  0.00000000000E+00 0. -1.
         -1   -1    0    0    0  501 -0.00000000000E+00 -0.00000000000E+00 -0.24256421832E+03  0.24256421832E+03  0.00000000000E+00 0.  1.
         23    2    1    2    0    0 -0.81319880974E+01  0.22076690661E+02 -0.11514497461E+03  0.14939569897E+03  0.92234484832E+02 0.  0.
         23    2    1    2    0    0  0.81319880974E+01 -0.22076690661E+02 -0.82848843903E+02  0.13773891915E+03  0.10749218303E+03 0.  0.
          5    1    4    4  502    0  0.50254378426E+02  0.15690000273E+02 -0.34008792612E+02  0.62851942170E+02  0.47000000000E+01 0. -1.
         -5    1    3    3    0  503 -0.78325177752E+01 -0.27743198212E+02 -0.87455049304E+02  0.92203628077E+02  0.47000000000E+01 0.  1.
          5    1    3    3  503    0 -0.29947032217E+00  0.49819888873E+02 -0.27689925306E+02  0.57192070895E+02  0.47000000000E+01 0. -1.
         -5    1    4    4    0  502 -0.42122390329E+02 -0.37766690934E+02 -0.48840051291E+02  0.74886976980E+02  0.47000000000E+01 0.  1.
<mgrwt>
<rscale>  0 0.10612031E+03</rscale>
<asrwt>0</asrwt>
<pdfrwt beam="1">  1        1 0.68569847E-02 0.11003672E+03</pdfrwt>
<pdfrwt beam="2">  1       -1 0.37317572E-01 0.11003672E+03</pdfrwt>
<totfact> 0.69908852E+03</totfact>
</mgrwt>
</event>
<event>
 8    1  0.3177960E-004  0.1001024E+03  0.7546771E-02  0.1280746E+00
         -2   -1    0    0    0  501 -0.00000000000E+00  0.00000000000E+00  0.12346184529E+02  0.12346184529E+02  0.00000000000E+00 0.  1.
          2   -1    0    0  501    0  0.00000000000E+00 -0.00000000000E+00 -0.88530055205E+03  0.88530055205E+03  0.00000000000E+00 0. -1.
         23    2    1    2    0    0  0.37975394967E+02 -0.11956114602E+02 -0.57210390559E+03  0.58057971174E+03  0.90470125382E+02 0.  0.
         23    2    1    2    0    0 -0.37975394967E+02  0.11956114602E+02 -0.30085046193E+03  0.31706702485E+03  0.91844534406E+02 0.  0.
          5    1    4    4  502    0 -0.60017989857E+02 -0.13167145108E+02 -0.14409930199E+03  0.15672342407E+03  0.47000000000E+01 0. -1.
         -5    1    3    3    0  503 -0.18354474276E+02 -0.24175725710E+02 -0.91700409310E+02  0.96707846151E+02  0.47000000000E+01 0.  1.
          5    1    3    3  503    0  0.56329869244E+02  0.12219611108E+02 -0.48040349628E+03  0.48387186558E+03  0.47000000000E+01 0. -1.
         -5    1    4    4    0  502  0.22042594890E+02  0.25123259710E+02 -0.15675115994E+03  0.16034360078E+03  0.47000000000E+01 0.  1.
<mgrwt>
<rscale>  0 0.99786061E+02</rscale>
<asrwt>0</asrwt>
<pdfrwt beam="1">  1        2 0.13620013E+00 0.10010244E+03</pdfrwt>
<pdfrwt beam="2">  1       -2 0.18994124E-02 0.10010244E+03</pdfrwt>
<totfact> 0.23926769E+04</totfact>
</mgrwt>
</event>
<event>
 8    1  0.3177960E-004  0.1043670E+03  0.7546771E-02  0.1271482E+00
         -1   -1    0    0    0  501 -0.00000000000E+00  0.00000000000E+00  0.11455561513E+03  0.11455561513E+03  0.00000000000E+00 0.  1.
          1   -1    0    0  501    0  0.00000000000E+00 -0.00000000000E+00 -0.11424975149E+03  0.11424975149E+03  0.00000000000E+00 0. -1.
         23    2    1    2    0    0 -0.14679612556E+02 -0.48367782534E+02  0.47253879310E+02  0.11436503906E+03  0.91057672036E+02 0.  0.
         23    2    1    2    0    0  0.14679612556E+02  0.48367782534E+02 -0.46948015667E+02  0.11444032756E+03  0.91310125317E+02 0.  0.
          5    1    3    3  502    0  0.35322381837E+02 -0.19366453683E+02  0.16536866453E+01  0.40590083351E+02  0.47000000000E+01 0. -1.
         -5    1    3    3    0  502 -0.50001994393E+02 -0.29001328851E+02  0.45600192665E+02  0.73774955706E+02  0.47000000000E+01 0.  1.
          5    1    4    4  503    0  0.42292580324E+02  0.60373411497E+02 -0.31988719590E+02  0.80492107360E+02  0.47000000000E+01 0. -1.
         -5    1    4    4    0  503 -0.27612967768E+02 -0.12005628963E+02 -0.14959296077E+02  0.33948220202E+02  0.47000000000E+01 0.  1.
<mgrwt>
<rscale>  0 0.10431176E+03</rscale>
<asrwt>0</asrwt>
<pdfrwt beam="1">  1        1 0.17576885E-01 0.10436701E+03</pdfrwt>
<pdfrwt beam="2">  1       -1 0.17623941E-01 0.10436701E+03</pdfrwt>
<totfact> 0.69583971E+03</totfact>
</mgrwt>
</event>
<event>
 8    1  0.3177960E-004  0.1199272E+03  0.7546771E-02  0.1244595E+00
         -1   -1    0    0    0  501 -0.00000000000E+00  0.00000000000E+00  0.39763749173E+02  0.39763749173E+02  0.00000000000E+00 0.  1.
          1   -1    0    0  501    0  0.00000000000E+00 -0.00000000000E+00 -0.39501486973E+03  0.39501486973E+03  0.00000000000E+00 0. -1.
         23    2    1    2    0    0  0.64980666404E+02  0.10349594322E+01 -0.25168264250E+03  0.27879507201E+03  0.10079177295E+03 0.  0.
         23    2    1    2    0    0 -0.64980666404E+02 -0.10349594322E+01 -0.10356847805E+03  0.15598354689E+03  0.96854938473E+02 0.  0.
          5    1    3    3  502    0  0.87675356032E+02 -0.17497693371E+01 -0.14444127978E+03  0.16904260721E+03  0.47000000000E+01 0. -1.
         -5    1    3    3    0  502 -0.22694689628E+02  0.27847287693E+01 -0.10724136272E+03  0.10975246480E+03  0.47000000000E+01 0.  1.
          5    1    4    4  503    0  0.11177738042E+02 -0.32053786757E+02 -0.30558436021E+02  0.45916174549E+02  0.47000000000E+01 0. -1.
         -5    1    4    4    0  503 -0.76158404446E+02  0.31018827325E+02 -0.73010042032E+02  0.11006737234E+03  0.47000000000E+01 0.  1.
<mgrwt>
<rscale>  0 0.11909634E+03</rscale>
<asrwt>0</asrwt>
<pdfrwt beam="1">  1        1 0.60771516E-01 0.11992723E+03</pdfrwt>
<pdfrwt beam="2">  1       -1 0.61175001E-02 0.11992723E+03</pdfrwt>
<totfact> 0.75562335E+03</totfact>
</mgrwt>
</event>
<event>
 8    1  0.3177960E-004  0.1307686E+03  0.7546771E-02  0.1232779E+00
         -1   -1    0    0    0  501 -0.00000000000E+00  0.00000000000E+00  0.20458931995E+02  0.20458931995E+02  0.00000000000E+00 0.  1.
          1   -1    0    0  501    0  0.00000000000E+00 -0.00000000000E+00 -0.93425498182E+03  0.93425498182E+03  0.00000000000E+00 0. -1.
         23    2    1    2    0    0 -0.16138089499E+02 -0.74637465004E+02 -0.65320744736E+03  0.66315459161E+03  0.85222379545E+02 0.  0.
         23    2    1    2    0    0  0.16138089499E+02  0.74637465004E+02 -0.26058860247E+03  0.29155932220E+03  0.10615662727E+03 0.  0.
          5    1    3    3  502    0 -0.49539481191E+02 -0.48278228320E+02 -0.33661712290E+03  0.34368317526E+03  0.47000000000E+01 0. -1.
         -5    1    4    4    0  503  0.44632599770E+02 -0.50917434980E+01 -0.75678875875E+02  0.88132724159E+02  0.47000000000E+01 0.  1.
          5    1    4    4  503    0 -0.28494510271E+02  0.79729208502E+02 -0.18490972659E+03  0.20342659804E+03  0.47000000000E+01 0. -1.
         -5    1    3    3    0  502  0.33401391692E+02 -0.26359236683E+02 -0.31659032446E+03  0.31947141635E+03  0.47000000000E+01 0.  1.
<mgrwt>
<rscale>  0 0.12647706E+03</rscale>
<asrwt>0</asrwt>
<pdfrwt beam="1">  1        1 0.14373154E+00 0.13076857E+03</pdfrwt>
<pdfrwt beam="2">  1       -1 0.31475279E-02 0.13076857E+03</pdfrwt>
<totfact> 0.61159134E+03</totfact>
</mgrwt>
</event>
<event>
 8    1  0.6818551E-004  0.1115818E+03  0.7546771E-02  0.1259885E+00
         -2   -1    0    0    0  501 -0.00000000000E+00  0.00000000000E+00  0.77118951235E+02  0.77118951235E+02  0.00000000000E+00 0.  1.
          2   -1    0    0  501    0  0.00000000000E+00 -0.00000000000E+00 -0.54278958122E+03  0.54278958122E+03  0.00000000000E+00 0. -1.
         23    2    1    2    0    0  0.59661106868E+02  0.20756729457E+02 -0.49348449435E+03  0.50491240941E+03  0.86135390628E+02 0.  0.
         23    2    1    2    0    0 -0.59661106868E+02 -0.20756729457E+02  0.27813864368E+02  0.11499612304E+03  0.91979387766E+02 0.  0.
          5    1    4    4  502    0 -0.22987014814E+02  0.22457785546E+02 -0.22134121981E+02  0.39303490145E+02  0.47000000000E+01 0. -1.
         -5    1    4    4    0  502 -0.36674092054E+02 -0.43214515003E+02  0.49947986350E+02  0.75692632900E+02  0.47000000000E+01 0.  1.
          5    1    3    3  503    0  0.51966549841E+02  0.52296695486E+02 -0.35329470779E+03  0.36093587687E+03  0.47000000000E+01 0. -1.
         -5    1    3    3    0  503  0.76945570273E+01 -0.31539966029E+02 -0.14018978656E+03  0.14397653254E+03  0.47000000000E+01 0.  1.
<mgrwt>
<rscale>  0 0.11037070E+03</rscale>
<asrwt>0</asrwt>
<pdfrwt beam="1">  1        2 0.83506093E-01 0.11158180E+03</pdfrwt>
<pdfrwt beam="2">  1       -2 0.11864454E-01 0.11158180E+03</pdfrwt>
<totfact> 0.27665461E+03</totfact>
</mgrwt>
</event>
<event>
 8    1  0.3177960E-004  0.9032328E+02  0.7546771E-02  0.1310511E+00
          1   -1    0    0  501    0  0.00000000000E+00  0.00000000000E+00  0.82344292698E+02  0.82344292698E+02  0.00000000000E+00 0. -1.
         -1   -1    0    0    0  501 -0.00000000000E+00 -0.00000000000E+00 -0.93045685000E+02  0.93045685000E+02  0.00000000000E+00 0.  1.
         23    2    1    2    0    0  0.55820795443E+01  0.52882411882E+01 -0.29988567386E+02  0.83030412020E+02  0.77042910378E+02 0.  0.
         23    2    1    2    0    0 -0.55820795443E+01 -0.52882411882E+01  0.19287175084E+02  0.92359565678E+02  0.89995384007E+02 0.  0.
          5    1    3    3  502    0  0.38667676525E+02  0.93181259641E+01 -0.35115189308E+01  0.40204943036E+02  0.47000000000E+01 0. -1.
         -5    1    4    4    0  503 -0.22682092924E+02  0.37458143010E+02  0.90686128594E+01  0.44965759822E+02  0.47000000000E+01 0.  1.
          5    1    4    4  503    0  0.17100013380E+02 -0.42746384198E+02  0.10218562224E+02  0.47393805856E+02  0.47000000000E+01 0. -1.
         -5    1    3    3    0  502 -0.33085596980E+02 -0.40298847759E+01 -0.26477048455E+02  0.42825468984E+02  0.47000000000E+01 0.  1.
<mgrwt>
<rscale>  0 0.86910253E+02</rscale>
<asrwt>0</asrwt>
<pdfrwt beam="1">  1        1 0.12668353E-01 0.90323276E+02</pdfrwt>
<pdfrwt beam="2">  1       -1 0.14314721E-01 0.90323276E+02</pdfrwt>
<totfact> 0.14453027E+04</totfact>
</mgrwt>
</event>
<event>
 8    1  0.3177960E-004  0.1064597E+03  0.7546771E-02  0.1272583E+00
          1   -1    0    0  501    0  0.00000000000E+00  0.00000000000E+00  0.71129346109E+02  0.71129346109E+02  0.00000000000E+00 0. -1.
         -1   -1    0    0    0  501 -0.00000000000E+00 -0.00000000000E+00 -0.24723383382E+03  0.24723383382E+03  0.00000000000E+00 0.  1.
         23    2    1    2    0    0  0.60500738854E+01 -0.26003738367E+02  0.12015276869E+02  0.10713563372E+03  0.10305765052E+03 0.  0.
         23    2    1    2    0    0 -0.60500738854E+01  0.26003738367E+02 -0.18811976458E+03  0.21122754621E+03  0.92278018237E+02 0.  0.
          5    1    4    4  502    0  0.12260072117E+02  0.53774188055E+02 -0.74936869210E+02  0.93164354966E+02  0.47000000000E+01 0. -1.
         -5    1    4    4    0  502 -0.18310146003E+02 -0.27770449688E+02 -0.11318289537E+03  0.11806319125E+03  0.47000000000E+01 0.  1.
          5    1    3    3  503    0  0.17119270751E+02  0.30490282294E+02  0.30345845965E+02  0.46536943526E+02  0.47000000000E+01 0. -1.
         -5    1    3    3    0  503 -0.11069196865E+02 -0.56494020661E+02 -0.18330569096E+02  0.60598690193E+02  0.47000000000E+01 0.  1.
<mgrwt>
<rscale>  0 0.10375946E+03</rscale>
<asrwt>0</asrwt>
<pdfrwt beam="1">  1        1 0.10942976E-01 0.10645974E+03</pdfrwt>
<pdfrwt beam="2">  1       -1 0.38035974E-01 0.10645974E+03</pdfrwt>
<totfact> 0.36298933E+03</totfact>
</mgrwt>
</event>
<event>
 8    1  0.3177960E-004  0.1047024E+03  0.7546771E-02  0.1273319E+00
         -2   -1    0    0    0  501 -0.00000000000E+00  0.00000000000E+00  0.49304233366E+02  0.49304233366E+02  0.00000000000E+00 0.  1.
          2   -1    0    0  501    0  0.00000000000E+00 -0.00000000000E+00 -0.28066749460E+03  0.28066749460E+03  0.00000000000E+00 0. -1.
         23    2    1    2    0    0 -0.27128784141E+02  0.27381842289E+02 -0.19533357391E+03  0.21924355699E+03  0.91797581485E+02 0.  0.
         23    2    1    2    0    0  0.27128784141E+02 -0.27381842289E+02 -0.36029687322E+02  0.11072817098E+03  0.97349130780E+02 0.  0.
          5    1    3    3  502    0 -0.23299806819E+02 -0.25966789676E+02 -0.12998007342E+03  0.13466278124E+03  0.47000000000E+01 0. -1.
         -5    1    3    3    0  502 -0.38289773222E+01  0.53348631965E+02 -0.65353500491E+02  0.84580775749E+02  0.47000000000E+01 0.  1.
          5    1    4    4  503    0  0.12933367382E+02 -0.62617443671E+02 -0.33577810707E+02  0.72372478302E+02  0.47000000000E+01 0. -1.
         -5    1    4    4    0  503  0.14195416760E+02  0.35235601382E+02 -0.24518766144E+01  0.38355692676E+02  0.47000000000E+01 0.  1.
<mgrwt>
<rscale>  0 0.10339285E+03</rscale>
<asrwt>0</asrwt>
<pdfrwt beam="1">  1        2 0.43179614E-01 0.10470239E+03</pdfrwt>
<pdfrwt beam="2">  1       -2 0.75852667E-02 0.10470239E+03</pdfrwt>
<totfact> 0.11159866E+04</totfact>
</mgrwt>
</event>
<event>
 8    1  0.3177960E-004  0.1123372E+03  0.7546771E-02  0.1259709E+00
          1   -1    0    0  501    0  0.00000000000E+00  0.00000000000E+00  0.11502885686E+04  0.11502885686E+04  0.00000000000E+00 0. -1.
         -1   -1    0    0    0  501 -0.00000000000E+00 -0.00000000000E+00 -0.11176943741E+02  0.11176943741E+02  0.00000000000E+00 0.  1.
         23    2    1    2    0    0  0.46024353135E+02  0.45602919846E+02  0.38660210552E+03  0.40061716191E+03  0.82674391692E+02 0.  0.
         23    2    1    2    0    0 -0.46024353135E+02 -0.45602919846E+02  0.75250951931E+03  0.76084835041E+03  0.91770192780E+02 0.  0.
          5    1    3    3  502    0  0.49180163880E+02  0.55778380676E+01  0.31040407620E+03  0.31436059123E+03  0.47000000000E+01 0. -1.
         -5    1    3    3    0  502 -0.31558107447E+01  0.40025081778E+02  0.76198029329E+02  0.86256570685E+02  0.47000000000E+01 0.  1.
          5    1    4    4  503    0 -0.99121682865E+01 -0.66139658631E+02  0.54977859808E+03  0.55385133604E+03  0.47000000000E+01 0. -1.
         -5    1    4    4    0  503 -0.36112184849E+02  0.20536738785E+02  0.20273092123E+03  0.20699701437E+03  0.47000000000E+01 0.  1.
<mgrwt>
<rscale>  0 0.11046606E+03</rscale>
<asrwt>0</asrwt>
<pdfrwt beam="1">  1        1 0.17696738E+00 0.11233715E+03</pdfrwt>
<pdfrwt beam="2">  1       -1 0.17195307E-02 0.11233715E+03</pdfrwt>
<totfact> 0.10157883E+04</totfact>
</mgrwt>
</event>
<event>
 8    1  0.3177960E-004  0.1000951E+03  0.7546771E-02  0.1282021E+00
         -2   -1    0    0    0  501 -0.00000000000E+00  0.00000000000E+00  0.15552813603E+03  0.15552813603E+03  0.00000000000E+00 0.  1.
          2   -1    0    0  501    0  0.00000000000E+00 -0.00000000000E+00 -0.63642364651E+02  0.63642364651E+02  0.00000000000E+00 0. -1.
         23    2    1    2    0    0  0.18295558337E+02 -0.27115204145E+02  0.29854801771E+02  0.10445254917E+03  0.94599493070E+02 0.  0.
         23    2    1    2    0    0 -0.18295558337E+02  0.27115204145E+02  0.62030969612E+02  0.11471795151E+03  0.90787694418E+02 0.  0.
          5    1    4    4  502    0 -0.51224918359E+02  0.16178799830E+02  0.58442756395E+02  0.79519756035E+02  0.47000000000E+01 0. -1.
         -5    1    4    4    0  502  0.32929360022E+02  0.10936404316E+02  0.35882132169E+01  0.35198195478E+02  0.47000000000E+01 0.  1.
          5    1    3    3  503    0 -0.18669476816E+02 -0.17137616564E+02 -0.25974584927E+02  0.36592572036E+02  0.47000000000E+01 0. -1.
         -5    1    3    3    0  503  0.36965035153E+02 -0.99775875816E+01  0.55829386698E+02  0.67859977136E+02  0.47000000000E+01 0.  1.
<mgrwt>
<rscale>  0 0.99184104E+02</rscale>
<asrwt>0</asrwt>
<pdfrwt beam="1">  1        2 0.97911331E-02 0.10009508E+03</pdfrwt>
<pdfrwt beam="2">  1       -2 0.23927405E-01 0.10009508E+03</pdfrwt>
<totfact> 0.92420611E+03</totfact>
</mgrwt>
</event>
<event>
 8    1  0.3177960E-004  0.9644213E+02  0.7546771E-02  0.1288317E+00
         -1   -1    0    0    0  501 -0.00000000000E+00  0.00000000000E+00  0.14256799109E+03  0.14256799109E+03  0.00000000000E+00 0.  1.
          1   -1    0    0  501    0  0.00000000000E+00 -0.00000000000E+00 -0.76092473096E+02  0.76092473096E+02  0.00000000000E+00 0. -1.
         23    2    1    2    0    0  0.14064199146E+02  0.22733279262E+02 -0.89648551468E+01  0.96217272201E+02  0.91993429974E+02 0.  0.
         23    2    1    2    0    0 -0.14064199146E+02 -0.22733279262E+02  0.75440373140E+02  0.12244319198E+03  0.92663270393E+02 0.  0.
          5    1    3    3  502    0  0.15931742288E+02 -0.23856546754E+02 -0.32643902562E+02  0.43711206913E+02  0.47000000000E+01 0. -1.
         -5    1    3    3    0  502 -0.18675431423E+01  0.46589826016E+02  0.23679047415E+02  0.52506065288E+02  0.47000000000E+01 0.  1.
          5    1    4    4  503    0  0.36055147170E+02 -0.17321326696E+02  0.13574576151E+02  0.42501307199E+02  0.47000000000E+01 0. -1.
         -5    1    4    4    0  503 -0.50119346316E+02 -0.54119525658E+01  0.61865796989E+02  0.79941884784E+02  0.47000000000E+01 0.  1.
<mgrwt>
<rscale>  0 0.96280877E+02</rscale>
<asrwt>0</asrwt>
<pdfrwt beam="1">  1        1 0.11706534E-01 0.96442135E+02</pdfrwt>
<pdfrwt beam="2">  1       -1 0.21933537E-01 0.96442135E+02</pdfrwt>
<totfact> 0.82331058E+03</totfact>
</mgrwt>
</event>
<event>
 8    1  0.3177960E-004  0.9576822E+02  0.7546771E-02  0.1289853E+00
         -2   -1    0    0    0  501 -0.00000000000E+00  0.00000000000E+00  0.38045252059E+02  0.38045252059E+02  0.00000000000E+00 0.  1.
          2   -1    0    0  501    0  0.00000000000E+00 -0.00000000000E+00 -0.51561129519E+03  0.51561129519E+03  0.00000000000E+00 0. -1.
         23    2    1    2    0    0 -0.22559052196E+02 -0.78502396252E+00 -0.35713753989E+02  0.10154483930E+03  0.92338264360E+02 0.  0.
         23    2    1    2    0    0  0.22559052196E+02  0.78502396252E+00 -0.44185228915E+03  0.45211170796E+03  0.93069994889E+02 0.  0.
          5    1    3    3  502    0 -0.31177894648E+01 -0.24585916673E+02 -0.58030091465E+02  0.63275346109E+02  0.47000000000E+01 0. -1.
         -5    1    4    4    0  503  0.19565001855E+00 -0.43054261432E+02 -0.15103148721E+03  0.15711876984E+03  0.47000000000E+01 0.  1.
          5    1    4    4  503    0  0.22363402177E+02  0.43839285395E+02 -0.29082080194E+03  0.29499293812E+03  0.47000000000E+01 0. -1.
         -5    1    3    3    0  502 -0.19441262731E+02  0.23800892711E+02  0.22316337476E+02  0.38269493187E+02  0.47000000000E+01 0.  1.
<mgrwt>
<rscale>  0 0.95589979E+02</rscale>
<asrwt>0</asrwt>
<pdfrwt beam="1">  1        2 0.79324813E-01 0.95768215E+02</pdfrwt>
<pdfrwt beam="2">  1       -2 0.58531158E-02 0.95768215E+02</pdfrwt>
<totfact> 0.86143780E+03</totfact>
</mgrwt>
</event>
<event>
 8    1  0.3177960E-004  0.1439850E+03  0.7546771E-02  0.1208224E+00
          1   -1    0    0  501    0  0.00000000000E+00  0.00000000000E+00  0.11849394403E+04  0.11849394403E+04  0.00000000000E+00 0. -1.
         -1   -1    0    0    0  501 -0.00000000000E+00 -0.00000000000E+00 -0.31447216533E+02  0.31447216533E+02  0.00000000000E+00 0.  1.
         23    2    1    2    0    0 -0.99816318999E+02 -0.49764465515E+02  0.98215744574E+03  0.99258477969E+03  0.90285641588E+02 0.  0.
         23    2    1    2    0    0  0.99816318999E+02  0.49764465515E+02  0.17133477806E+03  0.22380187718E+03  0.91059730340E+02 0.  0.
          5    1    4    4  502    0  0.32071944714E+02 -0.17379494415E+02  0.93930380747E+02  0.10087449078E+03  0.47000000000E+01 0. -1.
         -5    1    3    3    0  503 -0.76081966348E+02  0.10280718322E+02  0.61122486911E+03  0.61604552542E+03  0.47000000000E+01 0.  1.
          5    1    3    3  503    0 -0.23734352651E+02 -0.60045183837E+02  0.37093257663E+03  0.37653925427E+03  0.47000000000E+01 0. -1.
         -5    1    4    4    0  502  0.67744374285E+02  0.67143959930E+02  0.77404397311E+02  0.12292738639E+03  0.47000000000E+01 0.  1.
<mgrwt>
<rscale>  0 0.14386275E+03</rscale>
<asrwt>0</asrwt>
<pdfrwt beam="1">  1        1 0.18229834E+00 0.14398498E+03</pdfrwt>
<pdfrwt beam="2">  1       -1 0.48380342E-02 0.14398498E+03</pdfrwt>
<totfact> 0.21574943E+03</totfact>
</mgrwt>
</event>
<event>
 8    1  0.3177960E-004  0.1642705E+03  0.7546771E-02  0.1185265E+00
          2   -1    0    0  501    0  0.00000000000E+00  0.00000000000E+00  0.17453592608E+04  0.17453592608E+04  0.00000000000E+00 0. -1.
         -2   -1    0    0    0  501 -0.00000000000E+00 -0.00000000000E+00 -0.21934180186E+02  0.21934180186E+02  0.00000000000E+00 0.  1.
         23    2    1    2    0    0  0.67277488449E+02  0.11381680895E+03  0.35703355938E+03  0.39106286769E+03  0.89312247237E+02 0.  0.
         23    2    1    2    0    0 -0.67277488449E+02 -0.11381680895E+03  0.13663915213E+04  0.13762305733E+04  0.97489871997E+02 0.  0.
          5    1    3    3  502    0 -0.16492050293E+02  0.30324858204E+02  0.13531330684E+03  0.13972603822E+03  0.47000000000E+01 0. -1.
         -5    1    3    3    0  502  0.83769538742E+02  0.83491950745E+02  0.22172025254E+03  0.25133682947E+03  0.47000000000E+01 0.  1.
          5    1    4    4  503    0 -0.79472081809E+02 -0.40164948395E+02  0.78418164491E+03  0.78923505819E+03  0.47000000000E+01 0. -1.
         -5    1    4    4    0  503  0.12194593360E+02 -0.73651860554E+02  0.58220987636E+03  0.58699551515E+03  0.47000000000E+01 0.  1.
<mgrwt>
<rscale>  0 0.16307825E+03</rscale>
<asrwt>0</asrwt>
<pdfrwt beam="1">  1        2 0.26851670E+00 0.16427051E+03</pdfrwt>
<pdfrwt beam="2">  1       -2 0.33744906E-02 0.16427051E+03</pdfrwt>
<totfact> 0.35806994E+03</totfact>
</mgrwt>
</event>
<event>
 8    1  0.3177960E-004  0.9385199E+02  0.7546771E-02  0.1295607E+00
         -3   -1    0    0    0  501 -0.00000000000E+00  0.00000000000E+00  0.70824343910E+02  0.70824343910E+02  0.00000000000E+00 0.  1.
          3   -1    0    0  501    0  0.00000000000E+00 -0.00000000000E+00 -0.15822502407E+03  0.15822502407E+03  0.00000000000E+00 0. -1.
         23    2    1    2    0    0 -0.41172970093E+01  0.10124129881E+02 -0.99233667125E+02  0.13445436138E+03  0.90062225508E+02 0.  0.
         23    2    1    2    0    0  0.41172970093E+01 -0.10124129881E+02  0.11832986966E+02  0.94595006595E+02  0.93213440831E+02 0.  0.
          5    1    3    3  502    0  0.39615594656E+02  0.83764622578E+01 -0.71863415498E+02  0.82619615994E+02  0.47000000000E+01 0. -1.
         -5    1    4    4    0  503  0.53576974181E+01  0.30311052852E+02 -0.24807917273E+02  0.39811902819E+02  0.47000000000E+01 0.  1.
          5    1    4    4  503    0 -0.12404004088E+01 -0.40435182733E+02  0.36640904239E+02  0.54783103776E+02  0.47000000000E+01 0. -1.
         -5    1    3    3    0  502 -0.43732891665E+02  0.17476676231E+01 -0.27370251627E+02  0.51834745390E+02  0.47000000000E+01 0.  1.
<mgrwt>
<rscale>  0 0.93059755E+02</rscale>
<asrwt>0</asrwt>
<pdfrwt beam="1">  1        3 0.24342311E-01 0.93851988E+02</pdfrwt>
<pdfrwt beam="2">  1       -3 0.10896053E-01 0.93851988E+02</pdfrwt>
<totfact> 0.21530604E+03</totfact>
</mgrwt>
</event>
<event>
 8    1  0.3177960E-004  0.9983575E+02  0.7546771E-02  0.1281028E+00
          3   -1    0    0  501    0  0.00000000000E+00  0.00000000000E+00  0.99562074233E+01  0.99562074233E+01  0.00000000000E+00 0. -1.
         -3   -1    0    0    0  501 -0.00000000000E+00 -0.00000000000E+00 -0.10179633810E+04  0.10179633810E+04  0.00000000000E+00 0.  1.
         23    2    1    2    0    0 -0.38400341223E+02  0.69656423694E+01 -0.42662333546E+03  0.43814911503E+03  0.91891622349E+02 0.  0.
         23    2    1    2    0    0  0.38400341223E+02 -0.69656423694E+01 -0.58138383807E+03  0.58977047335E+03  0.91098505418E+02 0.  0.
          5    1    3    3  502    0  0.19984160901E+02 -0.22073306209E+02 -0.20089631931E+03  0.20314531411E+03  0.47000000000E+01 0. -1.
         -5    1    4    4    0  503  0.22056292748E+02  0.37134075177E+02 -0.39912881275E+03  0.40148638676E+03  0.47000000000E+01 0.  1.
          5    1    4    4  503    0  0.16344048475E+02 -0.44099717547E+02 -0.18225502532E+03  0.18828408659E+03  0.47000000000E+01 0. -1.
         -5    1    3    3    0  502 -0.58384502124E+02  0.29038948578E+02 -0.22572701615E+03  0.23500380091E+03  0.47000000000E+01 0.  1.
<mgrwt>
<rscale>  0 0.99652866E+02</rscale>
<asrwt>0</asrwt>
<pdfrwt beam="1">  1        3 0.15317253E-02 0.99835748E+02</pdfrwt>
<pdfrwt beam="2">  1       -3 0.15660964E+00 0.99835748E+02</pdfrwt>
<totfact> 0.96848116E+02</totfact>
</mgrwt>
</event>
<event>
 8    1  0.3177960E-004  0.1117641E+03  0.7546771E-02  0.1258129E+00
         -2   -1    0    0    0  501 -0.00000000000E+00  0.00000000000E+00  0.34312903002E+03  0.34312903002E+03  0.00000000000E+00 0.  1.
          2   -1    0    0  501    0  0.00000000000E+00 -0.00000000000E+00 -0.39129731467E+02  0.39129731467E+02  0.00000000000E+00 0. -1.
         23    2    1    2    0    0  0.62866679002E+02 -0.11805661231E+01  0.97687613707E+02  0.14843880801E+03  0.92399116811E+02 0.  0.
         23    2    1    2    0    0 -0.62866679002E+02  0.11805661231E+01  0.20631168484E+03  0.23381995347E+03  0.90297543006E+02 0.  0.
          5    1    4    4  502    0 -0.12074408294E+02  0.42270028618E+02  0.74494938864E+02  0.86626396505E+02  0.47000000000E+01 0. -1.
         -5    1    4    4    0  502 -0.50792270709E+02 -0.41089462494E+02  0.13181674598E+03  0.14719355697E+03  0.47000000000E+01 0.  1.
          5    1    3    3  503    0  0.17555153603E+02  0.40272218533E+02  0.17965602638E+02  0.47695784738E+02  0.47000000000E+01 0. -1.
         -5    1    3    3    0  503  0.45311525399E+02 -0.41452784656E+02  0.79722011069E+02  0.10074302328E+03  0.47000000000E+01 0.  1.
<mgrwt>
<rscale>  0 0.11132877E+03</rscale>
<asrwt>0</asrwt>
<pdfrwt beam="1">  1        2 0.60199589E-02 0.11176408E+03</pdfrwt>
<pdfrwt beam="2">  1       -2 0.52789080E-01 0.11176408E+03</pdfrwt>
<totfact> 0.39739229E+03</totfact>
</mgrwt>
</event>
<event>
 8    1  0.3177960E-004  0.1329369E+03  0.7546771E-02  0.1226440E+00
         -1   -1    0    0    0  501 -0.00000000000E+00  0.00000000000E+00  0.42745377194E+03  0.42745377194E+03  0.00000000000E+00 0.  1.
          1   -1    0    0  501    0  0.00000000000E+00 -0.00000000000E+00 -0.41438413904E+02  0.41438413904E+02  0.00000000000E+00 0. -1.
         23    2    1    2    0    0  0.80614685147E+02  0.33589347631E+02  0.24754220653E+03  0.27693636365E+03  0.88258901882E+02 0.  0.
         23    2    1    2    0    0 -0.80614685147E+02 -0.33589347631E+02  0.13847315151E+03  0.19195582220E+03  0.10022600587E+03 0.  0.
          5    1    3    3  502    0  0.44351632169E+02  0.41769127861E+02  0.59822139837E+02  0.85513190404E+02  0.47000000000E+01 0. -1.
         -5    1    3    3    0  502  0.36263052977E+02 -0.81797802303E+01  0.18772006669E+03  0.19142317324E+03  0.47000000000E+01 0.  1.
          5    1    4    4  503    0 -0.31795253925E+02 -0.63174272105E+02  0.50696640837E+02  0.87144513426E+02  0.47000000000E+01 0. -1.
         -5    1    4    4    0  503 -0.48819431221E+02  0.29584924474E+02  0.87776510675E+02  0.10481130878E+03  0.47000000000E+01 0.  1.
<mgrwt>
<rscale>  0 0.13068712E+03</rscale>
<asrwt>0</asrwt>
<pdfrwt beam="1">  1        1 0.63751409E-02 0.13293692E+03</pdfrwt>
<pdfrwt beam="2">  1       -1 0.65762116E-01 0.13293692E+03</pdfrwt>
<totfact> 0.27824847E+03</totfact>
</mgrwt>
</event>
<event>
 8    1  0.3177960E-004  0.1614253E+03  0.7546771E-02  0.1187167E+00
         -4   -1    0    0    0  501 -0.00000000000E+00  0.00000000000E+00  0.31812056275E+03  0.31812056275E+03  0.00000000000E+00 0.  1.
          4   -1    0    0  501    0  0.00000000000E+00 -0.00000000000E+00 -0.10166336655E+03  0.10166336655E+03  0.00000000000E+00 0. -1.
         23    2    1    2    0    0  0.86043999452E+02  0.10103032460E+03  0.20110717019E+03  0.25788023276E+03  0.91909870049E+02 0.  0.
         23    2    1    2    0    0 -0.86043999452E+02 -0.10103032460E+03  0.15350026009E+02  0.16190369655E+03  0.91468504558E+02 0.  0.
          5    1    3    3  502    0  0.28252046609E+02 -0.34965089011E+01  0.66286217792E+01  0.29604599959E+02  0.47000000000E+01 0. -1.
         -5    1    4    4    0  503  0.17796852111E+02 -0.29785990402E+02  0.55254511218E+00  0.35018973077E+02  0.47000000000E+01 0.  1.
          5    1    4    4  503    0 -0.10384085156E+03 -0.71244334199E+02  0.14797480897E+02  0.12688472347E+03  0.47000000000E+01 0. -1.
         -5    1    3    3    0  502  0.57791952844E+02  0.10452683350E+03  0.19447854842E+03  0.22827563280E+03  0.47000000000E+01 0.  1.
<mgrwt>
<rscale>  0 0.16136252E+03</rscale>
<asrwt>0</asrwt>
<pdfrwt beam="1">  1        4 0.15640518E-01 0.16142528E+03</pdfrwt>
<pdfrwt beam="2">  1       -4 0.48941624E-01 0.16142528E+03</pdfrwt>
<totfact> 0.24387676E+02</totfact>
</mgrwt>
</event>
<event>
 8    1  0.3177960E-004  0.9948176E+02  0.7546771E-02  0.1283036E+00
         -1   -1    0    0    0  501 -0.00000000000E+00  0.00000000000E+00  0.11846861289E+02  0.11846861289E+02  0.00000000000E+00 0.  1.
          1   -1    0    0  501    0  0.00000000000E+00 -0.00000000000E+00 -0.92195305679E+03  0.92195305679E+03  0.00000000000E+00 0. -1.
         23    2    1    2    0    0 -0.36451838677E+02  0.90487393520E+01 -0.29853720926E+03  0.31467616097E+03  0.92119513373E+02 0.  0.
         23    2    1    2    0    0  0.36451838677E+02 -0.90487393520E+01 -0.61156898625E+03  0.61912375711E+03  0.88808701472E+02 0.  0.
          5    1    3    3  502    0 -0.66920454057E+02  0.75283999765E+01 -0.22541253850E+03  0.23530390241E+03  0.47000000000E+01 0. -1.
         -5    1    3    3    0  502  0.30468615380E+02  0.15203393756E+01 -0.73124670762E+02  0.79372258561E+02  0.47000000000E+01 0.  1.
          5    1    4    4  503    0  0.46679152894E+01 -0.46519808345E+02 -0.31049360513E+03  0.31402906048E+03  0.47000000000E+01 0. -1.
         -5    1    4    4    0  503  0.31783923387E+02  0.37471068993E+02 -0.30107538112E+03  0.30509469663E+03  0.47000000000E+01 0.  1.
<mgrwt>
<rscale>  0 0.98708367E+02</rscale>
<asrwt>0</asrwt>
<pdfrwt beam="1">  1        1 0.14183891E+00 0.99481762E+02</pdfrwt>
<pdfrwt beam="2">  1       -1 0.18225943E-02 0.99481762E+02</pdfrwt>
<totfact> 0.13505004E+04</totfact>
</mgrwt>
</event>
<event>
 8    1  0.3177960E-004  0.1275598E+03  0.7546771E-02  0.1231988E+00
          2   -1    0    0  501    0  0.00000000000E+00  0.00000000000E+00  0.34834356335E+02  0.34834356335E+02  0.00000000000E+00 0. -1.
         -2   -1    0    0    0  501 -0.00000000000E+00 -0.00000000000E+00 -0.53780144525E+03  0.53780144525E+03  0.00000000000E+00 0.  1.
         23    2    1    2    0    0 -0.17946815345E+02 -0.84878600991E+02 -0.36306380751E+03  0.38482051814E+03  0.93514906702E+02 0.  0.
         23    2    1    2    0    0  0.17946815345E+02  0.84878600991E+02 -0.13990328141E+03  0.18781528344E+03  0.90416743241E+02 0.  0.
          5    1    3    3  502    0 -0.34671636997E+02 -0.55896520758E+02 -0.10122436561E+03  0.12080979115E+03  0.47000000000E+01 0. -1.
         -5    1    4    4    0  503  0.30143211267E+02 -0.74872214738E+01 -0.27547738375E+02  0.41780851601E+02  0.47000000000E+01 0.  1.
          5    1    4    4  503    0 -0.12196395921E+02  0.92365822465E+02 -0.11235554303E+03  0.14603443184E+03  0.47000000000E+01 0. -1.
         -5    1    3    3    0  502  0.16724821652E+02 -0.28982080233E+02 -0.26183944190E+03  0.26401072699E+03  0.47000000000E+01 0.  1.
<mgrwt>
<rscale>  0 0.12699264E+03</rscale>
<asrwt>0</asrwt>
<pdfrwt beam="1">  1        2 0.53591319E-02 0.12755980E+03</pdfrwt>
<pdfrwt beam="2">  1       -2 0.82738682E-01 0.12755980E+03</pdfrwt>
<totfact> 0.18177705E+03</totfact>
</mgrwt>
</event>
<event>
 8    1  0.3177960E-004  0.1248423E+03  0.7546771E-02  0.1236330E+00
          2   -1    0    0  501    0  0.00000000000E+00  0.00000000000E+00  0.43696293677E+03  0.43696293677E+03  0.00000000000E+00 0. -1.
         -2   -1    0    0    0  501 -0.00000000000E+00 -0.00000000000E+00 -0.36370346865E+02  0.36370346865E+02  0.00000000000E+00 0.  1.
         23    2    1    2    0    0  0.37237505554E+02  0.73268901483E+02  0.24523397246E+03  0.27402972212E+03  0.90540729019E+02 0.  0.
         23    2    1    2    0    0 -0.37237505554E+02 -0.73268901483E+02  0.15535861744E+03  0.19930356151E+03  0.93971516292E+02 0.  0.
          5    1    4    4  502    0 -0.63177009806E+01 -0.89320660064E+02  0.11325871213E+03  0.14445663547E+03  0.47000000000E+01 0. -1.
         -5    1    3    3    0  503 -0.66951932569E+01  0.21790630944E+02  0.42260659568E+01  0.23656010720E+02  0.47000000000E+01 0.  1.
          5    1    3    3  503    0  0.43932698811E+02  0.51478270538E+02  0.24100790650E+03  0.25037371140E+03  0.47000000000E+01 0. -1.
         -5    1    4    4    0  502 -0.30919804574E+02  0.16051758581E+02  0.42099905316E+02  0.54846926040E+02  0.47000000000E+01 0.  1.
<mgrwt>
<rscale>  0 0.12419696E+03</rscale>
<asrwt>0</asrwt>
<pdfrwt beam="1">  1        2 0.67225063E-01 0.12484234E+03</pdfrwt>
<pdfrwt beam="2">  1       -2 0.55954383E-02 0.12484234E+03</pdfrwt>
<totfact> 0.11244314E+04</totfact>
</mgrwt>
</event>
<event>
 8    1  0.3177960E-004  0.1268536E+03  0.7546771E-02  0.1232832E+00
         -4   -1    0    0    0  501 -0.00000000000E+00  0.00000000000E+00  0.15848165695E+03  0.15848165695E+03  0.00000000000E+00 0.  1.
          4   -1    0    0  501    0  0.00000000000E+00 -0.00000000000E+00 -0.10249284425E+03  0.10249284425E+03  0.00000000000E+00 0. -1.
         23    2    1    2    0    0  0.46346198002E+02 -0.75790823004E+02  0.47548621773E+02  0.13547213149E+03  0.90551687207E+02 0.  0.
         23    2    1    2    0    0 -0.46346198002E+02  0.75790823004E+02  0.84401909337E+01  0.12550236971E+03  0.88246184390E+02 0.  0.
          5    1    4    4  502    0 -0.70664242605E+02  0.38995489150E+02  0.64322874196E+01  0.81102081838E+02  0.47000000000E+01 0. -1.
         -5    1    4    4    0  502  0.24318044603E+02  0.36795333853E+02  0.20079035141E+01  0.44400287873E+02  0.47000000000E+01 0.  1.
          5    1    3    3  503    0  0.32493943329E+00 -0.76197952977E+02  0.12337215097E+02  0.77333889725E+02  0.47000000000E+01 0. -1.
         -5    1    3    3    0  503  0.46021258568E+02  0.40712997379E+00  0.35211406676E+02  0.58138241762E+02  0.47000000000E+01 0.  1.
<mgrwt>
<rscale>  0 0.12644274E+03</rscale>
<asrwt>0</asrwt>
<pdfrwt beam="1">  1        4 0.15768130E-01 0.12685357E+03</pdfrwt>
<pdfrwt beam="2">  1       -4 0.24381793E-01 0.12685357E+03</pdfrwt>
<totfact> 0.88230984E+02</totfact>
</mgrwt>
</event>
<event>
 8    1  0.3177960E-004  0.2405303E+03  0.7546771E-02  0.1119943E+00
          1   -1    0    0  501    0  0.00000000000E+00  0.00000000000E+00  0.91803228270E+03  0.91803228270E+03  0.00000000000E+00 0. -1.
         -1   -1    0    0    0  501 -0.00000000000E+00 -0.00000000000E+00 -0.68992665109E+02  0.68992665109E+02  0.00000000000E+00 0.  1.
         23    2    1    2    0    0  0.17439259403E+03 -0.13551758345E+03  0.58139254483E+03  0.62918369309E+03  0.95273481065E+02 0.  0.
         23    2    1    2    0    0 -0.17439259403E+03  0.13551758345E+03  0.26764707277E+03  0.35784125472E+03  0.87393453660E+02 0.  0.
          5    1    3    3  502    0  0.22293630413E+01 -0.37974318361E+02  0.14537890677E+03  0.15034671745E+03  0.47000000000E+01 0. -1.
         -5    1    4    4    0  503 -0.63678546376E+02  0.41844429625E+02  0.35769026943E+02  0.84305556446E+02  0.47000000000E+01 0.  1.
          5    1    4    4  503    0 -0.11071404765E+03  0.93673153827E+02  0.23187804582E+03  0.27353569828E+03  0.47000000000E+01 0. -1.
         -5    1    3    3    0  502  0.17216323099E+03 -0.97543265091E+02  0.43601363806E+03  0.47883697565E+03  0.47000000000E+01 0.  1.
<mgrwt>
<rscale>  0 0.23977399E+03</rscale>
<asrwt>0</asrwt>
<pdfrwt beam="1">  1        1 0.14123573E+00 0.24053031E+03</pdfrwt>
<pdfrwt beam="2">  1       -1 0.10614257E-01 0.24053031E+03</pdfrwt>
<totfact> 0.10288978E+03</totfact>
</mgrwt>
</event>
<event>
 8    1  0.3177960E-004  0.1150172E+03  0.7546771E-02  0.1252436E+00
          2   -1    0    0  501    0  0.00000000000E+00  0.00000000000E+00  0.61140986728E+03  0.61140986728E+03  0.00000000000E+00 0. -1.
         -2   -1    0    0    0  501 -0.00000000000E+00 -0.00000000000E+00 -0.12865394057E+03  0.12865394057E+03  0.00000000000E+00 0.  1.
         23    2    1    2    0    0  0.65901230424E+02  0.36892320515E+00 -0.97048559227E+02  0.14896127839E+03  0.91803765373E+02 0.  0.
         23    2    1    2    0    0 -0.65901230424E+02 -0.36892320515E+00  0.57980448594E+03  0.59110252945E+03  0.94264787341E+02 0.  0.
          5    1    3    3  502    0 -0.14029231276E+01  0.36151545941E+02 -0.35087719426E+02  0.50617591030E+02  0.47000000000E+01 0. -1.
         -5    1    4    4    0  503  0.12127575871E+02 -0.17381470726E+02  0.41013058782E+02  0.46404252087E+02  0.47000000000E+01 0.  1.
          5    1    4    4  503    0 -0.78028806295E+02  0.17012547521E+02  0.53879142716E+03  0.54469827737E+03  0.47000000000E+01 0. -1.
         -5    1    3    3    0  502  0.67304153551E+02 -0.35782622736E+02 -0.61960839801E+02  0.98343687362E+02  0.47000000000E+01 0.  1.
<mgrwt>
<rscale>  0 0.11451184E+03</rscale>
<asrwt>0</asrwt>
<pdfrwt beam="1">  1        2 0.94063055E-01 0.11501721E+03</pdfrwt>
<pdfrwt beam="2">  1       -2 0.19792914E-01 0.11501721E+03</pdfrwt>
<totfact> 0.10511007E+03</totfact>
</mgrwt>
</event>
<event>
 8    1  0.3177960E-004  0.1953395E+03  0.7546771E-02  0.1153916E+00
         -1   -1    0    0    0  501 -0.00000000000E+00  0.00000000000E+00  0.46939699944E+02  0.46939699944E+02  0.00000000000E+00 0.  1.
          1   -1    0    0  501    0  0.00000000000E+00 -0.00000000000E+00 -0.90322830725E+03  0.90322830725E+03  0.00000000000E+00 0. -1.
         23    2    1    2    0    0 -0.13096048650E+03 -0.11131105837E+03 -0.27585210945E+03  0.33801168023E+03  0.92826229836E+02 0.  0.
         23    2    1    2    0    0  0.13096048650E+03  0.11131105837E+03 -0.58043649785E+03  0.61215632696E+03  0.91038672306E+02 0.  0.
          5    1    3    3  502    0 -0.16299032911E+02 -0.14298481234E+02  0.18472419512E+01  0.22262240280E+02  0.47000000000E+01 0.  1.
         -5    1    4    4    0  503  0.10813789735E+03  0.12388657234E+03 -0.45170335174E+03  0.48072829709E+03  0.47000000000E+01 0.  1.
          5    1    4    4  503    0  0.22822589148E+02 -0.12575513968E+02 -0.12873314611E+03  0.13142802987E+03  0.47000000000E+01 0. -1.
         -5    1    3    3    0  502 -0.11466145359E+03 -0.97012577135E+02 -0.27769935140E+03  0.31574943995E+03  0.47000000000E+01 0. -1.
<mgrwt>
<rscale>  0 0.19512836E+03</rscale>
<asrwt>0</asrwt>
<pdfrwt beam="1">  1        1 0.13895820E+00 0.19533947E+03</pdfrwt>
<pdfrwt beam="2">  1       -1 0.72214926E-02 0.19533947E+03</pdfrwt>
<totfact> 0.19058365E+03</totfact>
</mgrwt>
</event>
<event>
 8    1  0.3177960E-004  0.9240183E+02  0.7546771E-02  0.1297232E+00
          2   -1    0    0  501    0  0.00000000000E+00  0.00000000000E+00  0.38642238931E+03  0.38642238931E+03  0.00000000000E+00 0. -1.
         -2   -1    0    0    0  501 -0.00000000000E+00 -0.00000000000E+00 -0.22261792363E+02  0.22261792363E+02  0.00000000000E+00 0.  1.
         23    2    1    2    0    0  0.10759450798E+02 -0.10994473475E+02  0.20154937741E+03  0.22165341472E+03  0.90947460070E+02 0.  0.
         23    2    1    2    0    0 -0.10759450798E+02  0.10994473475E+02  0.16261121954E+03  0.18703076695E+03  0.91112319915E+02 0.  0.
          5    1    4    4  502    0  0.15995331185E+02  0.44974340567E+02  0.71947353248E+02  0.86469957607E+02  0.47000000000E+01 0. -1.
         -5    1    3    3    0  503 -0.37509854147E+02 -0.87033469494E+01  0.55252498444E+02  0.67510488004E+02  0.47000000000E+01 0.  1.
          5    1    3    3  503    0  0.48269304945E+02 -0.22911265259E+01  0.14629687897E+03  0.15414292672E+03  0.47000000000E+01 0. -1.
         -5    1    4    4    0  502 -0.26754781983E+02 -0.33979867091E+02  0.90663866288E+02  0.10056080935E+03  0.47000000000E+01 0.  1.
<mgrwt>
<rscale>  0 0.92361169E+02</rscale>
<asrwt>0</asrwt>
<pdfrwt beam="1">  1        2 0.59449593E-01 0.92401835E+02</pdfrwt>
<pdfrwt beam="2">  1       -2 0.34248914E-02 0.92401835E+02</pdfrwt>
<totfact> 0.25814237E+04</totfact>
</mgrwt>
</event>
<event>
 8    1  0.3177960E-004  0.1083438E+03  0.7546771E-02  0.1264010E+00
          3   -1    0    0  501    0  0.00000000000E+00  0.00000000000E+00  0.13453569061E+02  0.13453569061E+02  0.00000000000E+00 0. -1.
         -3   -1    0    0    0  501 -0.00000000000E+00 -0.00000000000E+00 -0.95884598043E+03  0.95884598043E+03  0.00000000000E+00 0.  1.
         23    2    1    2    0    0 -0.50996265431E+02 -0.27917551521E+02 -0.62482289790E+03  0.63414669048E+03  0.91424080737E+02 0.  0.
         23    2    1    2    0    0  0.50996265431E+02  0.27917551521E+02 -0.32056951347E+03  0.33815285901E+03  0.90567843739E+02 0.  0.
          5    1    4    4  502    0  0.57041415631E+02 -0.18726251618E+02 -0.18791667131E+03  0.19733008122E+03  0.47000000000E+01 0. -1.
         -5    1    4    4    0  502 -0.60451502005E+01  0.46643803139E+02 -0.13265284215E+03  0.14082277779E+03  0.47000000000E+01 0.  1.
          5    1    3    3  503    0 -0.28604845447E+02  0.32599551973E+02 -0.25793433924E+03  0.26159736491E+03  0.47000000000E+01 0.  1.
         -5    1    3    3    0  503 -0.22391419984E+02 -0.60517103494E+02 -0.36688855866E+03  0.37254932557E+03  0.47000000000E+01 0. -1.
<mgrwt>
<rscale>  0 0.10816293E+03</rscale>
<asrwt>0</asrwt>
<pdfrwt beam="1">  1        3 0.20697801E-02 0.10834376E+03</pdfrwt>
<pdfrwt beam="2">  1       -3 0.14751475E+00 0.10834376E+03</pdfrwt>
<totfact> 0.72328899E+02</totfact>
</mgrwt>
</event>
<event>
 8    1  0.3177960E-004  0.1174432E+03  0.7546771E-02  0.1247606E+00
          2   -1    0    0  501    0  0.00000000000E+00  0.00000000000E+00  0.11751572712E+04  0.11751572712E+04  0.00000000000E+00 0. -1.
         -2   -1    0    0    0  501 -0.00000000000E+00 -0.00000000000E+00 -0.11722326004E+02  0.11722326004E+02  0.00000000000E+00 0.  1.
         23    2    1    2    0    0 -0.65830382377E+02 -0.32128324935E+02  0.61479403652E+03  0.62580940637E+03  0.91103442624E+02 0.  0.
         23    2    1    2    0    0  0.65830382377E+02  0.32128324935E+02  0.54864090865E+03  0.56107019081E+03  0.91798931683E+02 0.  0.
          5    1    3    3  502    0 -0.78474230773E+01 -0.52921675607E+02  0.23798491911E+03  0.24396966517E+03  0.47000000000E+01 0. -1.
         -5    1    4    4    0  503 -0.15133897871E+02 -0.15470152864E+02  0.75790601797E+02  0.78959900046E+02  0.47000000000E+01 0.  1.
          5    1    4    4  503    0  0.80964280248E+02  0.47598477800E+02  0.47285030686E+03  0.48211029076E+03  0.47000000000E+01 0. -1.
         -5    1    3    3    0  502 -0.57982959300E+02  0.20793350671E+02  0.37680911740E+03  0.38183974120E+03  0.47000000000E+01 0.  1.
<mgrwt>
<rscale>  0 0.11730729E+03</rscale>
<asrwt>0</asrwt>
<pdfrwt beam="1">  1        2 0.18079333E+00 0.11744323E+03</pdfrwt>
<pdfrwt beam="2">  1       -2 0.18034357E-02 0.11744323E+03</pdfrwt>
<totfact> 0.17664369E+04</totfact>
</mgrwt>
</event>
<event>
 8    1  0.3177960E-004  0.1133531E+03  0.7546771E-02  0.1255192E+00
          3   -1    0    0  501    0  0.00000000000E+00  0.00000000000E+00  0.21107695821E+03  0.21107695821E+03  0.00000000000E+00 0. -1.
         -3   -1    0    0    0  501 -0.00000000000E+00 -0.00000000000E+00 -0.79509421560E+02  0.79509421560E+02  0.00000000000E+00 0.  1.
         23    2    1    2    0    0  0.59046473357E-01  0.64438481402E+02  0.13805067924E+03  0.17862508033E+03  0.93255605272E+02 0.  0.
         23    2    1    2    0    0 -0.59046473357E-01 -0.64438481402E+02 -0.64831425897E+01  0.11196129943E+03  0.91328966166E+02 0.  0.
          5    1    4    4  502    0 -0.25509012581E+02 -0.19010498582E+02 -0.38878733797E+02  0.50455472655E+02  0.47000000000E+01 0. -1.
         -5    1    4    4    0  502  0.25449966107E+02 -0.45427982820E+02  0.32395591207E+02  0.61505826778E+02  0.47000000000E+01 0.  1.
          5    1    3    3  503    0 -0.41478313833E+02  0.32691173818E+02  0.36686702052E+02  0.64476100002E+02  0.47000000000E+01 0. -1.
         -5    1    3    3    0  503  0.41537360307E+02  0.31747307585E+02  0.10136397718E+03  0.11414898033E+03  0.47000000000E+01 0.  1.
<mgrwt>
<rscale>  0 0.11295612E+03</rscale>
<asrwt>0</asrwt>
<pdfrwt beam="1">  1        3 0.32473378E-01 0.11335312E+03</pdfrwt>
<pdfrwt beam="2">  1       -3 0.12232219E-01 0.11335312E+03</pdfrwt>
<totfact> 0.10884837E+03</totfact>
</mgrwt>
</event>
<event>
 8    1  0.3177960E-004  0.1004959E+03  0.7546771E-02  0.1279547E+00
          1   -1    0    0  501    0  0.00000000000E+00  0.00000000000E+00  0.11920427128E+03  0.11920427128E+03  0.00000000000E+00 0. -1.
         -1   -1    0    0    0  501 -0.00000000000E+00 -0.00000000000E+00 -0.92781353865E+02  0.92781353865E+02  0.00000000000E+00 0.  1.
         23    2    1    2    0    0  0.20783783363E+02  0.34540423274E+02  0.45306926757E+02  0.10973084941E+03  0.91450178841E+02 0.  0.
         23    2    1    2    0    0 -0.20783783363E+02 -0.34540423274E+02 -0.18884009345E+02  0.10225477573E+03  0.92056650271E+02 0.  0.
          5    1    4    4  502    0 -0.50962949547E+02 -0.90359306885E+01 -0.31180488595E+02  0.60606791195E+02  0.47000000000E+01 0. -1.
         -5    1    4    4    0  502  0.30179166184E+02 -0.25504492586E+02  0.12296479250E+02  0.41647984532E+02  0.47000000000E+01 0.  1.
          5    1    3    3  503    0  0.39184072640E+02 -0.12541091100E+02  0.41805755923E+02  0.58842856346E+02  0.47000000000E+01 0. -1.
         -5    1    3    3    0  503 -0.18400289276E+02  0.47081514374E+02  0.35011708335E+01  0.50887993068E+02  0.47000000000E+01 0.  1.
<mgrwt>
<rscale>  0 0.10035684E+03</rscale>
<asrwt>0</asrwt>
<pdfrwt beam="1">  1        1 0.18339119E-01 0.10049594E+03</pdfrwt>
<pdfrwt beam="2">  1       -1 0.14274054E-01 0.10049594E+03</pdfrwt>
<totfact> 0.91362784E+03</totfact>
</mgrwt>
</event>
<event>
 8    1  0.3177960E-004  0.9340330E+02  0.7546771E-02  0.1295234E+00
         -1   -1    0    0    0  501 -0.00000000000E+00  0.00000000000E+00  0.12950389840E+02  0.12950389840E+02  0.00000000000E+00 0.  1.
          1   -1    0    0  501    0  0.00000000000E+00 -0.00000000000E+00 -0.72882328999E+03  0.72882328999E+03  0.00000000000E+00 0. -1.
         23    2    1    2    0    0 -0.28307162049E+01  0.10623859461E+02 -0.46598313565E+03  0.47525199565E+03  0.92753961190E+02 0.  0.
         23    2    1    2    0    0  0.28307162049E+01 -0.10623859461E+02 -0.24988976450E+03  0.26652168418E+03  0.92021923427E+02 0.  0.
          5    1    4    4  502    0  0.43101969326E+02 -0.68888078972E+01 -0.18318545738E+03  0.18837260212E+03  0.47000000000E+01 0. -1.
         -5    1    4    4    0  502 -0.40271253121E+02 -0.37350515638E+01 -0.66704307119E+02  0.78149082057E+02  0.47000000000E+01 0.  1.
          5    1    3    3  503    0  0.27579610919E+02 -0.20645501605E+02 -0.34148020979E+03  0.34324582351E+03  0.47000000000E+01 0. -1.
         -5    1    3    3    0  503 -0.30410327123E+02  0.31269361066E+02 -0.12450292586E+03  0.13200617214E+03  0.47000000000E+01 0.  1.
<mgrwt>
<rscale>  0 0.93221041E+02</rscale>
<asrwt>0</asrwt>
<pdfrwt beam="1">  1        1 0.11212670E+00 0.93403301E+02</pdfrwt>
<pdfrwt beam="2">  1       -1 0.19923670E-02 0.93403301E+02</pdfrwt>
<totfact> 0.16851217E+04</totfact>
</mgrwt>
</event>
<event>
 8    1  0.3177960E-004  0.1116673E+03  0.7546771E-02  0.1258115E+00
         -2   -1    0    0    0  501 -0.00000000000E+00  0.00000000000E+00  0.18608180745E+02  0.18608180745E+02  0.00000000000E+00 0.  1.
          2   -1    0    0  501    0  0.00000000000E+00 -0.00000000000E+00 -0.69541552879E+03  0.69541552879E+03  0.00000000000E+00 0. -1.
         23    2    1    2    0    0 -0.14727881523E+02  0.62533681677E+02 -0.26232722435E+03  0.28510550931E+03  0.91335682861E+02 0.  0.
         23    2    1    2    0    0  0.14727881523E+02 -0.62533681677E+02 -0.41448012370E+03  0.42891820023E+03  0.89719996153E+02 0.  0.
          5    1    4    4  502    0  0.16362276731E+01 -0.44343380691E+02 -0.39850958097E+03  0.40099998601E+03  0.47000000000E+01 0. -1.
         -5    1    3    3    0  503 -0.43147611973E+02  0.69440026151E+02 -0.18579811462E+03  0.20304350038E+03  0.47000000000E+01 0.  1.
          5    1    3    3  503    0  0.28419730450E+02 -0.69063444737E+01 -0.76529109732E+02  0.82062008927E+02  0.47000000000E+01 0. -1.
         -5    1    4    4    0  502  0.13091653850E+02 -0.18190300986E+02 -0.15970542731E+02  0.27918214227E+02  0.47000000000E+01 0.  1.
<mgrwt>
<rscale>  0 0.11133640E+03</rscale>
<asrwt>0</asrwt>
<pdfrwt beam="1">  1        2 0.10698699E+00 0.11166727E+03</pdfrwt>
<pdfrwt beam="2">  1       -2 0.28627975E-02 0.11166727E+03</pdfrwt>
<totfact> 0.17912763E+04</totfact>
</mgrwt>
</event>
<event>
 8    1  0.3177960E-004  0.1095581E+03  0.7546771E-02  0.1264025E+00
         -1   -1    0    0    0  501 -0.00000000000E+00  0.00000000000E+00  0.28508135424E+02  0.28508135424E+02  0.00000000000E+00 0.  1.
          1   -1    0    0  501    0  0.00000000000E+00 -0.00000000000E+00 -0.51523297408E+03  0.51523297408E+03  0.00000000000E+00 0. -1.
         23    2    1    2    0    0  0.29663964200E+02  0.40214999901E+02 -0.11003185679E+03  0.15143945214E+03  0.91267196556E+02 0.  0.
         23    2    1    2    0    0 -0.29663964200E+02 -0.40214999901E+02 -0.37669298187E+03  0.39230165737E+03  0.97497645058E+02 0.  0.
          5    1    3    3  502    0 -0.50963113911E+01  0.32082886599E+02 -0.11066175692E+03  0.11542702650E+03  0.47000000000E+01 0. -1.
         -5    1    3    3    0  502  0.34760275592E+02  0.81321133021E+01  0.62990013645E+00  0.36012425635E+02  0.47000000000E+01 0.  1.
          5    1    4    4  503    0 -0.62867431641E+02 -0.29698229621E+02 -0.29924920591E+03  0.30725636859E+03  0.47000000000E+01 0. -1.
         -5    1    4    4    0  503  0.33203467441E+02 -0.10516770279E+02 -0.77443775962E+02  0.85045288773E+02  0.47000000000E+01 0.  1.
<mgrwt>
<rscale>  0 0.10815498E+03</rscale>
<asrwt>0</asrwt>
<pdfrwt beam="1">  1        1 0.79266614E-01 0.10955815E+03</pdfrwt>
<pdfrwt beam="2">  1       -1 0.43858669E-02 0.10955815E+03</pdfrwt>
<totfact> 0.87422952E+03</totfact>
</mgrwt>
</event>
<event>
 8    1  0.3177960E-004  0.9449802E+02  0.7546771E-02  0.1294104E+00
         -1   -1    0    0    0  501 -0.00000000000E+00  0.00000000000E+00  0.41969227140E+02  0.41969227140E+02  0.00000000000E+00 0.  1.
          1   -1    0    0  501    0  0.00000000000E+00 -0.00000000000E+00 -0.36145669236E+03  0.36145669236E+03  0.00000000000E+00 0. -1.
         23    2    1    2    0    0  0.18208459895E+02 -0.50716745569E+01 -0.25879483496E+02  0.94985449941E+02  0.89415983694E+02 0.  0.
         23    2    1    2    0    0 -0.18208459895E+02  0.50716745569E+01 -0.29360798173E+03  0.30844046956E+03  0.92588370950E+02 0.  0.
          5    1    3    3  502    0 -0.11038769208E+01 -0.30109679887E+02 -0.47461919796E+02  0.56413962792E+02  0.47000000000E+01 0. -1.
         -5    1    4    4    0  503  0.17660432665E+02  0.25970591237E+02 -0.38373958506E+02  0.49809769950E+02  0.47000000000E+01 0.  1.
          5    1    4    4  503    0 -0.35868892560E+02 -0.20898916680E+02 -0.25523402322E+03  0.25863069961E+03  0.47000000000E+01 0. -1.
         -5    1    3    3    0  502  0.19312336816E+02  0.25038005331E+02  0.21582436301E+02  0.38571487149E+02  0.47000000000E+01 0.  1.
<mgrwt>
<rscale>  0 0.93711745E+02</rscale>
<asrwt>0</asrwt>
<pdfrwt beam="1">  1        1 0.55608723E-01 0.94498023E+02</pdfrwt>
<pdfrwt beam="2">  1       -1 0.64568041E-02 0.94498023E+02</pdfrwt>
<totfact> 0.76557638E+03</totfact>
</mgrwt>
</event>
<event>
 8    1  0.3177960E-004  0.2373017E+03  0.7546771E-02  0.1121702E+00
          2   -1    0    0  501    0  0.00000000000E+00  0.00000000000E+00  0.11732713616E+04  0.11732713616E+04  0.00000000000E+00 0. -1.
         -2   -1    0    0    0  501 -0.00000000000E+00 -0.00000000000E+00 -0.10459510140E+03  0.10459510140E+03  0.00000000000E+00 0.  1.
         23    2    1    2    0    0 -0.24323640249E+02 -0.21526965339E+03  0.63540855603E+02  0.24509867890E+03  0.95411000014E+02 0.  0.
         23    2    1    2    0    0  0.24323640249E+02  0.21526965339E+03  0.10051354046E+04  0.10327677841E+04  0.96847566645E+02 0.  0.
          5    1    3    3  502    0  0.34072594534E+02 -0.50634037895E+02  0.25185545436E+02  0.66190249967E+02  0.47000000000E+01 0. -1.
         -5    1    3    3    0  502 -0.58396234783E+02 -0.16463561549E+03  0.38355310167E+02  0.17890842893E+03  0.47000000000E+01 0.  1.
          5    1    4    4  503    0 -0.82550548960E+01  0.79151107973E+02  0.57269924889E+03  0.57822103343E+03  0.47000000000E+01 0. -1.
         -5    1    4    4    0  503  0.32578695145E+02  0.13611854541E+03  0.43243615567E+03  0.45454675064E+03  0.47000000000E+01 0.  1.
<mgrwt>
<rscale>  0 0.23715594E+03</rscale>
<asrwt>0</asrwt>
<pdfrwt beam="1">  1        2 0.18050328E+00 0.23730174E+03</pdfrwt>
<pdfrwt beam="2">  1       -2 0.16091555E-01 0.23730174E+03</pdfrwt>
<totfact> 0.63446005E+02</totfact>
</mgrwt>
</event>
<event>
 8    1  0.3177960E-004  0.1036763E+03  0.7546771E-02  0.1273456E+00
          1   -1    0    0  501    0  0.00000000000E+00  0.00000000000E+00  0.18478489032E+03  0.18478489032E+03  0.00000000000E+00 0. -1.
         -1   -1    0    0    0  501 -0.00000000000E+00 -0.00000000000E+00 -0.59411539648E+02  0.59411539648E+02  0.00000000000E+00 0.  1.
         23    2    1    2    0    0  0.19387222365E+02 -0.42463893837E+02  0.85635630110E+02  0.13447021305E+03  0.92572838253E+02 0.  0.
         23    2    1    2    0    0 -0.19387222365E+02  0.42463893837E+02  0.39737720566E+02  0.10972621692E+03  0.91003898673E+02 0.  0.
          5    1    3    3  502    0  0.79772508916E+01 -0.60163675734E+02  0.93445593960E+02  0.11152342104E+03  0.47000000000E+01 0. -1.
         -5    1    4    4    0  503  0.31705123777E+02  0.20187163833E+02  0.38160622654E+02  0.53768574266E+02  0.47000000000E+01 0.  1.
          5    1    4    4  503    0 -0.51092346142E+02  0.22276730004E+02  0.15770979122E+01  0.55957642657E+02  0.47000000000E+01 0. -1.
         -5    1    3    3    0  502  0.11409971474E+02  0.17699781897E+02 -0.78099638501E+01  0.22946792010E+02  0.47000000000E+01 0.  1.
<mgrwt>
<rscale>  0 0.10332491E+03</rscale>
<asrwt>0</asrwt>
<pdfrwt beam="1">  1        1 0.28428444E-01 0.10367631E+03</pdfrwt>
<pdfrwt beam="2">  1       -1 0.91402370E-02 0.10367631E+03</pdfrwt>
<totfact> 0.10459525E+04</totfact>
</mgrwt>
</event>
<event>
 8    1  0.3177960E-004  0.9710869E+02  0.7546771E-02  0.1286777E+00
         -1   -1    0    0    0  501 -0.00000000000E+00  0.00000000000E+00  0.28801140120E+02  0.28801140120E+02  0.00000000000E+00 0.  1.
          1   -1    0    0  501    0  0.00000000000E+00 -0.00000000000E+00 -0.33244065151E+03  0.33244065151E+03  0.00000000000E+00 0. -1.
         23    2    1    2    0    0  0.33232232411E+02  0.13250303110E+02 -0.12569666503E+03  0.15852584481E+03  0.89726473632E+02 0.  0.
         23    2    1    2    0    0 -0.33232232411E+02 -0.13250303110E+02 -0.17794284636E+03  0.20271594682E+03  0.90278163028E+02 0.  0.
          5    1    3    3  502    0 -0.20911160578E+02  0.28979742504E+02 -0.28050863007E+02  0.45673220028E+02  0.47000000000E+01 0. -1.
         -5    1    3    3    0  502  0.54143392989E+02 -0.15729439394E+02 -0.97645802022E+02  0.11285262478E+03  0.47000000000E+01 0.  1.
          5    1    4    4  503    0 -0.40559878766E+02  0.20097232536E+02 -0.15442564030E+03  0.16099183490E+03  0.47000000000E+01 0. -1.
         -5    1    4    4    0  503  0.73276463549E+01 -0.33347535645E+02 -0.23517206060E+02  0.41724111921E+02  0.47000000000E+01 0.  1.
<mgrwt>
<rscale>  0 0.96980272E+02</rscale>
<asrwt>0</asrwt>
<pdfrwt beam="1">  1        1 0.51144713E-01 0.97108694E+02</pdfrwt>
<pdfrwt beam="2">  1       -1 0.44309448E-02 0.97108694E+02</pdfrwt>
<totfact> 0.14791896E+04</totfact>
</mgrwt>
</event>
<event>
 8    1  0.5914443E-004  0.3306876E+03  0.7546771E-02  0.1072058E+00
          1   -1    0    0  501    0  0.00000000000E+00  0.00000000000E+00  0.13237883725E+03  0.13237883725E+03  0.00000000000E+00 0. -1.
         -1   -1    0    0    0  501 -0.00000000000E+00 -0.00000000000E+00 -0.86240296221E+03  0.86240296221E+03  0.00000000000E+00 0.  1.
         23    2    1    2    0    0 -0.83707441805E+02  0.29455465804E+03 -0.23589453382E+03  0.40620252547E+03  0.12483940975E+03 0.  0.
         23    2    1    2    0    0  0.83707441805E+02 -0.29455465804E+03 -0.49412959114E+03  0.58857927398E+03  0.92152734768E+02 0.  0.
          5    1    4    4  502    0  0.57586067998E+02 -0.14718546833E+03 -0.17371183488E+03  0.23489914622E+03  0.47000000000E+01 0. -1.
         -5    1    4    4    0  502  0.26121373807E+02 -0.14736918971E+03 -0.32041775626E+03  0.35368012776E+03  0.47000000000E+01 0.  1.
          5    1    3    3  503    0 -0.99082941433E+02  0.14664642029E+03 -0.93301619740E+02  0.20012467143E+03  0.47000000000E+01 0.  1.
         -5    1    3    3    0  503  0.15375499628E+02  0.14790823775E+03 -0.14259291408E+03  0.20607785404E+03  0.47000000000E+01 0.  1.
<mgrwt>
<rscale>  0 0.32792718E+03</rscale>
<asrwt>0</asrwt>
<pdfrwt beam="1">  1        1 0.20365975E-01 0.33068756E+03</pdfrwt>
<pdfrwt beam="2">  1       -1 0.13267738E+00 0.33068756E+03</pdfrwt>
<totfact> 0.12891041E+02</totfact>
</mgrwt>
</event>
<event>
 8    1  0.3177960E-004  0.1017445E+03  0.7546771E-02  0.1279135E+00
         -2   -1    0    0    0  501 -0.00000000000E+00  0.00000000000E+00  0.45327965196E+02  0.45327965196E+02  0.00000000000E+00 0.  1.
          2   -1    0    0  501    0  0.00000000000E+00 -0.00000000000E+00 -0.95179855043E+03  0.95179855043E+03  0.00000000000E+00 0. -1.
         23    2    1    2    0    0 -0.34536151189E+02  0.25672290378E+02 -0.17945305185E+02  0.10331499095E+03  0.92196210036E+02 0.  0.
         23    2    1    2    0    0  0.34536151189E+02 -0.25672290378E+02 -0.88852528004E+03  0.89381152467E+03  0.87006069463E+02 0.  0.
          5    1    3    3  502    0  0.28104775117E+02  0.42854447036E+01  0.11099074225E+02  0.30879165619E+02  0.47000000000E+01 0. -1.
         -5    1    4    4    0  503  0.59017265783E+02  0.26748803457E+01 -0.52829475643E+03  0.53160853296E+03  0.47000000000E+01 0.  1.
          5    1    4    4  503    0 -0.24481114594E+02 -0.28347170723E+02 -0.36023052361E+03  0.36220299171E+03  0.47000000000E+01 0. -1.
         -5    1    3    3    0  502 -0.62640926306E+02  0.21386845674E+02 -0.29044379410E+02  0.72435825333E+02  0.47000000000E+01 0.  1.
<mgrwt>
<rscale>  0 0.10055426E+03</rscale>
<asrwt>0</asrwt>
<pdfrwt beam="1">  1        2 0.14643054E+00 0.10174455E+03</pdfrwt>
<pdfrwt beam="2">  1       -2 0.69735332E-02 0.10174455E+03</pdfrwt>
<totfact> 0.32134125E+03</totfact>
</mgrwt>
</event>
<event>
 8    1  0.3177960E-004  0.9187919E+02  0.7546771E-02  0.1298588E+00
          1   -1    0    0  501    0  0.00000000000E+00  0.00000000000E+00  0.17671894485E+03  0.17671894485E+03  0.00000000000E+00 0. -1.
         -1   -1    0    0    0  501 -0.00000000000E+00 -0.00000000000E+00 -0.52214153417E+02  0.52214153417E+02  0.00000000000E+00 0.  1.
         23    2    1    2    0    0 -0.67885732475E+01  0.39066433662E+01  0.28006703238E+02  0.95690214230E+02  0.91164110723E+02 0.  0.
         23    2    1    2    0    0  0.67885732475E+01 -0.39066433662E+01  0.96498088195E+02  0.13324288404E+03  0.91544735141E+02 0.  0.
          5    1    4    4  502    0  0.16379182285E+01  0.43445342264E+02  0.51342244544E+02  0.67441060308E+02  0.47000000000E+01 0. -1.
         -5    1    4    4    0  502  0.51506550190E+01 -0.47351985631E+02  0.45155843651E+02  0.65801823730E+02  0.47000000000E+01 0.  1.
          5    1    3    3  503    0 -0.45862034654E+02  0.11668534963E+02  0.28748334681E+02  0.55570114970E+02  0.47000000000E+01 0. -1.
         -5    1    3    3    0  503  0.39073461407E+02 -0.77618915967E+01 -0.74163144296E+00  0.40120099260E+02  0.47000000000E+01 0.  1.
<mgrwt>
<rscale>  0 0.91784232E+02</rscale>
<asrwt>0</asrwt>
<pdfrwt beam="1">  1        1 0.27187530E-01 0.91879188E+02</pdfrwt>
<pdfrwt beam="2">  1       -1 0.80329467E-02 0.91879188E+02</pdfrwt>
<totfact> 0.13266213E+04</totfact>
</mgrwt>
</event>
<event>
 8    1  0.3177960E-004  0.1042304E+03  0.7546771E-02  0.1274630E+00
         -1   -1    0    0    0  501 -0.00000000000E+00  0.00000000000E+00  0.15765432538E+02  0.15765432538E+02  0.00000000000E+00 0.  1.
          1   -1    0    0  501    0  0.00000000000E+00 -0.00000000000E+00 -0.84755880322E+03  0.84755880322E+03  0.00000000000E+00 0. -1.
         23    2    1    2    0    0 -0.77841605795E+01 -0.47067556308E+02 -0.21734486445E+03  0.24104514984E+03  0.92671603776E+02 0.  0.
         23    2    1    2    0    0  0.77841605795E+01  0.47067556308E+02 -0.61444850623E+03  0.62227908592E+03  0.86071748836E+02 0.  0.
          5    1    3    3  502    0 -0.21624019112E+02  0.14819367431E+02 -0.13174754591E+03  0.13441249089E+03  0.47000000000E+01 0. -1.
         -5    1    3    3    0  502  0.13839858532E+02 -0.61886923739E+02 -0.85597318543E+02  0.10663265896E+03  0.47000000000E+01 0.  1.
          5    1    4    4  503    0  0.20120505038E+02  0.69405073392E+02 -0.46066134789E+03  0.46631841737E+03  0.47000000000E+01 0. -1.
         -5    1    4    4    0  503 -0.12336344459E+02 -0.22337517084E+02 -0.15378715834E+03  0.15596066854E+03  0.47000000000E+01 0.  1.
<mgrwt>
<rscale>  0 0.10274348E+03</rscale>
<asrwt>0</asrwt>
<pdfrwt beam="1">  1        1 0.13039366E+00 0.10423039E+03</pdfrwt>
<pdfrwt beam="2">  1       -1 0.24254511E-02 0.10423039E+03</pdfrwt>
<totfact> 0.10259846E+04</totfact>
</mgrwt>
</event>
<event>
 8    1  0.3177960E-004  0.9459891E+02  0.7546771E-02  0.1293502E+00
          2   -1    0    0  501    0  0.00000000000E+00  0.00000000000E+00  0.37764980171E+03  0.37764980171E+03  0.00000000000E+00 0. -1.
         -2   -1    0    0    0  501 -0.00000000000E+00 -0.00000000000E+00 -0.29270663932E+02  0.29270663932E+02  0.00000000000E+00 0.  1.
         23    2    1    2    0    0 -0.94290191779E+01 -0.33720470478E+01  0.78819448184E+02  0.12124340857E+03  0.91581557124E+02 0.  0.
         23    2    1    2    0    0  0.94290191779E+01  0.33720470478E+01  0.26955968960E+03  0.28567705708E+03  0.94067409764E+02 0.  0.
          5    1    3    3  502    0 -0.50261828706E+01  0.41465200956E+02  0.18789926427E+02  0.46041033217E+02  0.47000000000E+01 0. -1.
         -5    1    3    3    0  502 -0.44028363073E+01 -0.44837248004E+02  0.60029521757E+02  0.75202375351E+02  0.47000000000E+01 0.  1.
          5    1    4    4  503    0  0.90246360166E+01  0.48151868185E+02  0.12835376321E+03  0.13746572298E+03  0.47000000000E+01 0. -1.
         -5    1    4    4    0  503  0.40438316131E+00 -0.44779821137E+02  0.14120592639E+03  0.14821133410E+03  0.47000000000E+01 0.  1.
<mgrwt>
<rscale>  0 0.93974890E+02</rscale>
<asrwt>0</asrwt>
<pdfrwt beam="1">  1        2 0.58099966E-01 0.94598915E+02</pdfrwt>
<pdfrwt beam="2">  1       -2 0.45031793E-02 0.94598915E+02</pdfrwt>
<totfact> 0.17725115E+04</totfact>
</mgrwt>
</event>
<event>
 8    1  0.3177960E-004  0.4351082E+03  0.7546771E-02  0.1032283E+00
         -1   -1    0    0    0  501 -0.00000000000E+00  0.00000000000E+00  0.12167008082E+03  0.12167008082E+03  0.00000000000E+00 0.  1.
          1   -1    0    0  501    0  0.00000000000E+00 -0.00000000000E+00 -0.16484358164E+04  0.16484358164E+04  0.00000000000E+00 0. -1.
         23    2    1    2    0    0  0.10492101659E+03 -0.41152041785E+03 -0.97452741773E+03  0.10672501067E+04  0.94665877235E+02 0.  0.
         23    2    1    2    0    0 -0.10492101659E+03  0.41152041785E+03 -0.55223831786E+03  0.70285579053E+03  0.93175257121E+02 0.  0.
          5    1    4    4  502    0 -0.65244011035E+02  0.21954194133E+03 -0.36988918906E+03  0.43508108113E+03  0.47000000000E+01 0. -1.
         -5    1    4    4    0  502 -0.39677005558E+02  0.19197847652E+03 -0.18234912880E+03  0.26777470940E+03  0.47000000000E+01 0.  1.
          5    1    3    3  503    0  0.10339677263E+03 -0.26010601950E+03 -0.69597571665E+03  0.75016686286E+03  0.47000000000E+01 0. -1.
         -5    1    3    3    0  503  0.15242439626E+01 -0.15141439836E+03 -0.27855170108E+03  0.31708324384E+03  0.47000000000E+01 0.  1.
<mgrwt>
<rscale>  0 0.43502766E+03</rscale>
<asrwt>0</asrwt>
<pdfrwt beam="1">  1        1 0.25360549E+00 0.43510815E+03</pdfrwt>
<pdfrwt beam="2">  1       -1 0.18718476E-01 0.43510815E+03</pdfrwt>
<totfact> 0.12530073E+02</totfact>
</mgrwt>
</event>
<event>
 8    1  0.3177960E-004  0.9377943E+02  0.7546771E-02  0.1294085E+00
         -1   -1    0    0    0  501 -0.00000000000E+00  0.00000000000E+00  0.18436381237E+03  0.18436381237E+03  0.00000000000E+00 0.  1.
          1   -1    0    0  501    0  0.00000000000E+00 -0.00000000000E+00 -0.49758028187E+02  0.49758028187E+02  0.00000000000E+00 0. -1.
         23    2    1    2    0    0 -0.17219764829E+02  0.61120204843E+01  0.42739135479E+02  0.10284326993E+03  0.91739998767E+02 0.  0.
         23    2    1    2    0    0  0.17219764829E+02 -0.61120204843E+01  0.91866648703E+02  0.13127857062E+03  0.91982089918E+02 0.  0.
          5    1    4    4  502    0  0.14010561887E+02 -0.28163330768E+02 -0.46216635725E+01  0.32139054412E+02  0.47000000000E+01 0. -1.
         -5    1    3    3    0  503 -0.17404540594E+02  0.41375912882E+02 -0.26057329846E+01  0.45208008633E+02  0.47000000000E+01 0.  1.
          5    1    3    3  503    0  0.18477576568E+00 -0.35263892398E+02  0.45344868463E+02  0.57635261300E+02  0.47000000000E+01 0. -1.
         -5    1    4    4    0  502  0.32092029421E+01  0.22051310284E+02  0.96488312276E+02  0.99139516211E+02  0.47000000000E+01 0.  1.
<mgrwt>
<rscale>  0 0.93720016E+02</rscale>
<asrwt>0</asrwt>
<pdfrwt beam="1">  1        1 0.76550814E-02 0.93779433E+02</pdfrwt>
<pdfrwt beam="2">  1       -1 0.28363663E-01 0.93779433E+02</pdfrwt>
<totfact> 0.94492804E+03</totfact>
</mgrwt>
</event>
<event>
 8    1  0.3177960E-004  0.9467678E+02  0.7546771E-02  0.1292626E+00
          1   -1    0    0  501    0  0.00000000000E+00  0.00000000000E+00  0.40060206031E+02  0.40060206031E+02  0.00000000000E+00 0. -1.
         -1   -1    0    0    0  501 -0.00000000000E+00 -0.00000000000E+00 -0.52693861175E+03  0.52693861175E+03  0.00000000000E+00 0.  1.
         23    2    1    2    0    0 -0.19608669801E+02 -0.56020974876E+01 -0.46021766059E+03  0.46985528385E+03  0.92454362884E+02 0.  0.
         23    2    1    2    0    0  0.19608669801E+02  0.56020974876E+01 -0.26660745127E+02  0.97143533927E+02  0.91160229407E+02 0.  0.
          5    1    4    4  502    0  0.48302747666E+02  0.21986557796E+02  0.17586159377E+01  0.53308037723E+02  0.47000000000E+01 0. -1.
         -5    1    4    4    0  502 -0.28694077866E+02 -0.16384460309E+02 -0.28419361065E+02  0.43835496204E+02  0.47000000000E+01 0.  1.
          5    1    3    3  503    0  0.18944899468E+02  0.26001569573E+02 -0.79995870662E+02  0.86350565482E+02  0.47000000000E+01 0. -1.
         -5    1    3    3    0  503 -0.38553569269E+02 -0.31603667061E+02 -0.38022178993E+03  0.38350471837E+03  0.47000000000E+01 0.  1.
<mgrwt>
<rscale>  0 0.94359352E+02</rscale>
<asrwt>0</asrwt>
<pdfrwt beam="1">  1        1 0.61631087E-02 0.94676780E+02</pdfrwt>
<pdfrwt beam="2">  1       -1 0.81067478E-01 0.94676780E+02</pdfrwt>
<totfact> 0.18874728E+03</totfact>
</mgrwt>
</event>
<event>
 8    1  0.3177960E-004  0.1049843E+03  0.7546771E-02  0.1271652E+00
         -2   -1    0    0    0  501 -0.00000000000E+00  0.00000000000E+00  0.77278276640E+02  0.77278276640E+02  0.00000000000E+00 0.  1.
          2   -1    0    0  501    0  0.00000000000E+00 -0.00000000000E+00 -0.16094690919E+03  0.16094690919E+03  0.00000000000E+00 0. -1.
         23    2    1    2    0    0  0.27264148643E+02  0.39377013898E+02  0.30918672962E+01  0.10203016771E+03  0.90037283693E+02 0.  0.
         23    2    1    2    0    0 -0.27264148643E+02 -0.39377013898E+02 -0.86760499847E+02  0.13619501812E+03  0.93422778820E+02 0.  0.
          5    1    3    3  502    0  0.36239331599E+02 -0.12628331510E+02 -0.20806992041E+02  0.43906546542E+02  0.47000000000E+01 0. -1.
         -5    1    4    4    0  503  0.11051950270E+02 -0.50885146013E+02 -0.79670223697E+02  0.95293642147E+02  0.47000000000E+01 0. -1.
          5    1    4    4  503    0 -0.38316098913E+02  0.11508132116E+02 -0.70902761493E+01  0.40901375974E+02  0.47000000000E+01 0.  1.
         -5    1    3    3    0  502 -0.89751829555E+01  0.52005345408E+02  0.23898859338E+02  0.58123621168E+02  0.47000000000E+01 0.  1.
<mgrwt>
<rscale>  0 0.10422586E+03</rscale>
<asrwt>0</asrwt>
<pdfrwt beam="1">  1        2 0.24761063E-01 0.10498428E+03</pdfrwt>
<pdfrwt beam="2">  1       -2 0.11888966E-01 0.10498428E+03</pdfrwt>
<totfact> 0.10056120E+04</totfact>
</mgrwt>
</event>
<event>
 8    1  0.3177960E-004  0.1084026E+03  0.7546771E-02  0.1266649E+00
         -2   -1    0    0    0  501 -0.00000000000E+00  0.00000000000E+00  0.12559664943E+02  0.12559664943E+02  0.00000000000E+00 0.  1.
          2   -1    0    0  501    0  0.00000000000E+00 -0.00000000000E+00 -0.92629293589E+03  0.92629293589E+03  0.00000000000E+00 0. -1.
         23    2    1    2    0    0 -0.34505145721E+01  0.59374196628E+02 -0.54671765629E+03  0.55616265933E+03  0.82942791429E+02 0.  0.
         23    2    1    2    0    0  0.34505145721E+01 -0.59374196628E+02 -0.36701561466E+03  0.38268994151E+03  0.90630726881E+02 0.  0.
          5    1    4    4  502    0  0.43051716618E+02 -0.10043055708E+02 -0.13325237806E+03  0.14047277150E+03  0.47000000000E+01 0. -1.
         -5    1    4    4    0  502 -0.39601202046E+02 -0.49331140919E+02 -0.23376323659E+03  0.24221717001E+03  0.47000000000E+01 0.  1.
          5    1    3    3  503    0 -0.41770717382E+02  0.35179751349E+02 -0.34787045200E+03  0.35216239026E+03  0.47000000000E+01 0. -1.
         -5    1    3    3    0  503  0.38320202810E+02  0.24194445279E+02 -0.19884720429E+03  0.20400026907E+03  0.47000000000E+01 0.  1.
<mgrwt>
<rscale>  0 0.10678154E+03</rscale>
<asrwt>0</asrwt>
<pdfrwt beam="1">  1        2 0.14250663E+00 0.10840263E+03</pdfrwt>
<pdfrwt beam="2">  1       -2 0.19322558E-02 0.10840263E+03</pdfrwt>
<totfact> 0.22168399E+04</totfact>
</mgrwt>
</event>
<event>
 8    1  0.3177960E-004  0.1129979E+03  0.7546771E-02  0.1259413E+00
          1   -1    0    0  501    0  0.00000000000E+00  0.00000000000E+00  0.20904886917E+03  0.20904886917E+03  0.00000000000E+00 0. -1.
         -1   -1    0    0    0  501 -0.00000000000E+00 -0.00000000000E+00 -0.58365334543E+02  0.58365334543E+02  0.00000000000E+00 0.  1.
         23    2    1    2    0    0 -0.52959446875E+02  0.85742026542E+01  0.97921358051E+02  0.14270506200E+03  0.88870255950E+02 0.  0.
         23    2    1    2    0    0  0.52959446875E+02 -0.85742026542E+01  0.52762176576E+02  0.12470914172E+03  0.99450001438E+02 0.  0.
          5    1    3    3  502    0 -0.28624024477E+02  0.90436842785E+01  0.11071512332E+03  0.11480876070E+03  0.47000000000E+01 0. -1.
         -5    1    3    3    0  502 -0.24335422399E+02 -0.46948162430E+00 -0.12793765266E+02  0.27896301296E+02  0.47000000000E+01 0.  1.
          5    1    4    4  503    0  0.78437379146E+02  0.97791639706E+01  0.26486393449E+02  0.83496548032E+02  0.47000000000E+01 0. -1.
         -5    1    4    4    0  503 -0.25477932271E+02 -0.18353366625E+02  0.26275783127E+02  0.41212593684E+02  0.47000000000E+01 0.  1.
<mgrwt>
<rscale>  0 0.11062688E+03</rscale>
<asrwt>0</asrwt>
<pdfrwt beam="1">  1        1 0.32161364E-01 0.11299789E+03</pdfrwt>
<pdfrwt beam="2">  1       -1 0.89792823E-02 0.11299789E+03</pdfrwt>
<totfact> 0.92931935E+03</totfact>
</mgrwt>
</event>
<event>
 8    1  0.3177960E-004  0.1295670E+03  0.7546771E-02  0.1242533E+00
         -2   -1    0    0    0  501 -0.00000000000E+00  0.00000000000E+00  0.20925062425E+02  0.20925062425E+02  0.00000000000E+00 0.  1.
          2   -1    0    0  501    0  0.00000000000E+00 -0.00000000000E+00 -0.85084884298E+03  0.85084884298E+03  0.00000000000E+00 0. -1.
         23    2    1    2    0    0  0.26681458477E+01  0.27077296075E+02 -0.60134676235E+03  0.60902864312E+03  0.92507624469E+02 0.  0.
         23    2    1    2    0    0 -0.26681458477E+01 -0.27077296075E+02 -0.22857701820E+03  0.26274526228E+03  0.12667801955E+03 0.  0.
          5    1    4    4  502    0  0.56107538718E+02  0.13505394524E+02 -0.10700127756E+03  0.12166270991E+03  0.47000000000E+01 0. -1.
         -5    1    4    4    0  502 -0.58775684566E+02 -0.40582690599E+02 -0.12157574064E+03  0.14108255237E+03  0.47000000000E+01 0.  1.
          5    1    3    3  503    0  0.45975311808E+02  0.27981665994E+01 -0.31171729457E+03  0.31513698730E+03  0.47000000000E+01 0. -1.
         -5    1    3    3    0  503 -0.43307165961E+02  0.24279129476E+02 -0.28962946778E+03  0.29389165582E+03  0.47000000000E+01 0.  1.
<mgrwt>
<rscale>  0 0.12034260E+03</rscale>
<asrwt>0</asrwt>
<pdfrwt beam="1">  1        2 0.13089984E+00 0.12956705E+03</pdfrwt>
<pdfrwt beam="2">  1       -2 0.32192400E-02 0.12956705E+03</pdfrwt>
<totfact> 0.11921215E+04</totfact>
</mgrwt>
</event>
<event>
 8    1  0.3177960E-004  0.1063976E+03  0.7546771E-02  0.1271290E+00
         -1   -1    0    0    0  501 -0.00000000000E+00  0.00000000000E+00  0.23331354844E+02  0.23331354844E+02  0.00000000000E+00 0.  1.
          1   -1    0    0  501    0  0.00000000000E+00 -0.00000000000E+00 -0.45896672771E+03  0.45896672771E+03  0.00000000000E+00 0. -1.
         23    2    1    2    0    0 -0.36007902065E+02  0.14466164909E+02 -0.19327595452E+03  0.22062650033E+03  0.99068759531E+02 0.  0.
         23    2    1    2    0    0  0.36007902065E+02 -0.14466164909E+02 -0.24235941835E+03  0.26167158223E+03  0.90708821749E+02 0.  0.
          5    1    3    3  502    0  0.31202785842E+02 -0.88976517620E+01 -0.83675276341E+02  0.89868926342E+02  0.47000000000E+01 0. -1.
         -5    1    3    3    0  502 -0.67210687908E+02  0.23363816671E+02 -0.10960067818E+03  0.13075757399E+03  0.47000000000E+01 0.  1.
          5    1    4    4  503    0  0.50258717805E+01 -0.40109289806E+02 -0.19572727965E+03  0.19991316244E+03  0.47000000000E+01 0. -1.
         -5    1    4    4    0  503  0.30982030285E+02  0.25643124897E+02 -0.46632138698E+02  0.61758419787E+02  0.47000000000E+01 0.  1.
<mgrwt>
<rscale>  0 0.10440830E+03</rscale>
<asrwt>0</asrwt>
<pdfrwt beam="1">  1        1 0.70610259E-01 0.10639764E+03</pdfrwt>
<pdfrwt beam="2">  1       -1 0.35894395E-02 0.10639764E+03</pdfrwt>
<totfact> 0.13558032E+04</totfact>
</mgrwt>
</event>
<event>
 8    1  0.3177960E-004  0.1914849E+03  0.7546771E-02  0.1157546E+00
          1   -1    0    0  501    0  0.00000000000E+00  0.00000000000E+00  0.13641652880E+03  0.13641652880E+03  0.00000000000E+00 0. -1.
         -1   -1    0    0    0  501 -0.00000000000E+00 -0.00000000000E+00 -0.28649039516E+03  0.28649039516E+03  0.00000000000E+00 0.  1.
         23    2    1    2    0    0  0.10009643654E+03 -0.13091324808E+03 -0.13099764729E+03  0.23047412554E+03  0.93810254326E+02 0.  0.
         23    2    1    2    0    0 -0.10009643654E+03  0.13091324808E+03 -0.19076219067E+02  0.19243279843E+03  0.97513612619E+02 0.  0.
          5    1    3    3  502    0  0.45485828440E+02 -0.52712845726E+01 -0.61404673561E+02  0.76742237165E+02  0.47000000000E+01 0. -1.
         -5    1    4    4    0  503 -0.38075732483E+02  0.27611972251E+02 -0.49115772985E+02  0.68166205495E+02  0.47000000000E+01 0.  1.
          5    1    4    4  503    0 -0.62020704060E+02  0.10330127582E+03  0.30039553918E+02  0.12426659293E+03  0.47000000000E+01 0. -1.
         -5    1    3    3    0  502  0.54610608103E+02 -0.12564196350E+03 -0.69592973729E+02  0.15373188837E+03  0.47000000000E+01 0.  1.
<mgrwt>
<rscale>  0 0.19101844E+03</rscale>
<asrwt>0</asrwt>
<pdfrwt beam="1">  1        1 0.20987159E-01 0.19148493E+03</pdfrwt>
<pdfrwt beam="2">  1       -1 0.44075445E-01 0.19148493E+03</pdfrwt>
<totfact> 0.12341805E+03</totfact>
</mgrwt>
</event>
<event>
 8    1  0.3177960E-004  0.1200094E+03  0.7546771E-02  0.1245428E+00
          2   -1    0    0  501    0  0.00000000000E+00  0.00000000000E+00  0.14112163148E+03  0.14112163148E+03  0.00000000000E+00 0. -1.
         -2   -1    0    0    0  501 -0.00000000000E+00 -0.00000000000E+00 -0.99411637541E+02  0.99411637541E+02  0.00000000000E+00 0.  1.
         23    2    1    2    0    0  0.33734010977E+02 -0.69363479777E+02  0.32392208581E+01  0.11450842194E+03  0.84571923954E+02 0.  0.
         23    2    1    2    0    0 -0.33734010977E+02  0.69363479777E+02  0.38470773079E+02  0.12602484707E+03  0.91940121141E+02 0.  0.
          5    1    4    4  502    0 -0.39480763890E+02  0.88835762598E+02  0.22830885130E+02  0.99969309038E+02  0.47000000000E+01 0. -1.
         -5    1    4    4    0  502  0.57467529139E+01 -0.19472282821E+02  0.15639887949E+02  0.26055538036E+02  0.47000000000E+01 0.  1.
          5    1    3    3  503    0 -0.19361624519E+02 -0.28481600011E+02  0.26189290392E+02  0.43520604022E+02  0.47000000000E+01 0. -1.
         -5    1    3    3    0  503  0.53095635496E+02 -0.40881879765E+02 -0.22950069534E+02  0.70987817923E+02  0.47000000000E+01 0.  1.
<mgrwt>
<rscale>  0 0.11859801E+03</rscale>
<asrwt>0</asrwt>
<pdfrwt beam="1">  1        2 0.21711020E-01 0.12000942E+03</pdfrwt>
<pdfrwt beam="2">  1       -2 0.15294098E-01 0.12000942E+03</pdfrwt>
<totfact> 0.78413264E+03</totfact>
</mgrwt>
</event>
<event>
 8    1  0.3177960E-004  0.3312807E+03  0.7546771E-02  0.1070684E+00
         -1   -1    0    0    0  501 -0.00000000000E+00  0.00000000000E+00  0.16695295302E+03  0.16695295302E+03  0.00000000000E+00 0.  1.
          1   -1    0    0  501    0  0.00000000000E+00 -0.00000000000E+00 -0.65567466738E+03  0.65567466738E+03  0.00000000000E+00 0. -1.
         23    2    1    2    0    0  0.25368928574E+03  0.19086946619E+03 -0.25343862869E+03  0.41629641420E+03  0.91006368708E+02 0.  0.
         23    2    1    2    0    0 -0.25368928574E+03 -0.19086946619E+03 -0.23528308568E+03  0.40633120620E+03  0.94644132950E+02 0.  0.
          5    1    3    3  502    0  0.14445600713E+03  0.67069635021E+02 -0.16320668151E+03  0.22808854602E+03  0.47000000000E+01 0. -1.
         -5    1    4    4    0  503 -0.14156948845E+03 -0.13094030283E+03 -0.88915827801E+02  0.21240385448E+03  0.47000000000E+01 0.  1.
          5    1    4    4  503    0 -0.11211979729E+03 -0.59929163358E+02 -0.14636725788E+03  0.19392735172E+03  0.47000000000E+01 0. -1.
         -5    1    3    3    0  502  0.10923327861E+03  0.12379983117E+03 -0.90231947175E+02  0.18820786818E+03  0.47000000000E+01 0.  1.
<mgrwt>
<rscale>  0 0.33102521E+03</rscale>
<asrwt>0</asrwt>
<pdfrwt beam="1">  1        1 0.10087303E+00 0.33128072E+03</pdfrwt>
<pdfrwt beam="2">  1       -1 0.25685069E-01 0.33128072E+03</pdfrwt>
<totfact> 0.41340661E+02</totfact>
</mgrwt>
</event>
<event>
 8    1  0.3177960E-004  0.9333482E+02  0.7546771E-02  0.1296838E+00
         -1   -1    0    0    0  501 -0.00000000000E+00  0.00000000000E+00  0.14902029545E+02  0.14902029545E+02  0.00000000000E+00 0.  1.
          1   -1    0    0  501    0  0.00000000000E+00 -0.00000000000E+00 -0.58637335459E+03  0.58637335459E+03  0.00000000000E+00 0. -1.
         23    2    1    2    0    0  0.55851553444E+01  0.74291551363E+01 -0.34810362756E+03  0.36039911760E+03  0.92870889601E+02 0.  0.
         23    2    1    2    0    0 -0.55851553444E+01 -0.74291551363E+01 -0.22336769748E+03  0.24087626654E+03  0.89676424977E+02 0.  0.
          5    1    4    4  502    0  0.31800238295E+02 -0.25220512243E+01 -0.18147778507E+03  0.18432008130E+03  0.47000000000E+01 0. -1.
         -5    1    4    4    0  502 -0.37385393639E+02 -0.49071039120E+01 -0.41889912412E+02  0.56556185235E+02  0.47000000000E+01 0.  1.
          5    1    3    3  503    0  0.75029308963E+01  0.42526691186E+02 -0.90714215298E+02  0.10057818994E+03  0.47000000000E+01 0. -1.
         -5    1    3    3    0  503 -0.19177755519E+01 -0.35097536050E+02 -0.25738941227E+03  0.25982092765E+03  0.47000000000E+01 0.  1.
<mgrwt>
<rscale>  0 0.92529962E+02</rscale>
<asrwt>0</asrwt>
<pdfrwt beam="1">  1        1 0.90211280E-01 0.93334819E+02</pdfrwt>
<pdfrwt beam="2">  1       -1 0.22926201E-02 0.93334819E+02</pdfrwt>
<totfact> 0.18601793E+04</totfact>
</mgrwt>
</event>
<event>
 8    1  0.3177960E-004  0.9463664E+02  0.7546771E-02  0.1294926E+00
         -3   -1    0    0    0  501 -0.00000000000E+00  0.00000000000E+00  0.23400070652E+02  0.23400070652E+02  0.00000000000E+00 0.  1.
          3   -1    0    0  501    0  0.00000000000E+00 -0.00000000000E+00 -0.37217642574E+03  0.37217642574E+03  0.00000000000E+00 0. -1.
         23    2    1    2    0    0 -0.21483746418E+02  0.18871428965E+02 -0.21060112586E+03  0.23088726132E+03  0.90213142250E+02 0.  0.
         23    2    1    2    0    0  0.21483746418E+02 -0.18871428965E+02 -0.13817522922E+03  0.16468923507E+03  0.84926250273E+02 0.  0.
          5    1    4    4  502    0 -0.30718020480E+02  0.57460393533E+01 -0.52596551946E+02  0.61360419059E+02  0.47000000000E+01 0.  1.
         -5    1    3    3    0  503 -0.19888404483E+02  0.53696148690E+02 -0.10658106294E+03  0.12108029565E+03  0.47000000000E+01 0.  1.
          5    1    3    3  503    0 -0.15953419351E+01 -0.34824719725E+02 -0.10402006292E+03  0.10980696567E+03  0.47000000000E+01 0. -1.
         -5    1    4    4    0  502  0.52201766897E+02 -0.24617468318E+02 -0.85578677278E+02  0.10332881601E+03  0.47000000000E+01 0. -1.
<mgrwt>
<rscale>  0 0.93354431E+02</rscale>
<asrwt>0</asrwt>
<pdfrwt beam="1">  1        3 0.57257914E-01 0.94636638E+02</pdfrwt>
<pdfrwt beam="2">  1       -3 0.36000107E-02 0.94636638E+02</pdfrwt>
<totfact> 0.24835381E+03</totfact>
</mgrwt>
</event>
<event>
 8    1  0.3177960E-004  0.1690116E+03  0.7546771E-02  0.1179553E+00
         -2   -1    0    0    0  501 -0.00000000000E+00  0.00000000000E+00  0.11341461933E+04  0.11341461933E+04  0.00000000000E+00 0.  1.
          2   -1    0    0  501    0  0.00000000000E+00 -0.00000000000E+00 -0.30533000971E+02  0.30533000971E+02  0.00000000000E+00 0. -1.
         23    2    1    2    0    0 -0.13236075441E+02  0.14130253939E+03  0.30308834783E+03  0.34702661830E+03  0.91778678815E+02 0.  0.
         23    2    1    2    0    0  0.13236075441E+02 -0.14130253939E+03  0.80052484452E+03  0.81765257599E+03  0.87029345673E+02 0.  0.
          5    1    4    4  502    0 -0.23058044511E+02 -0.39217647323E+02  0.40347766996E+03  0.40606159315E+03  0.47000000000E+01 0. -1.
         -5    1    4    4    0  502  0.36294119952E+02 -0.10208489206E+03  0.39704717456E+03  0.41159098284E+03  0.47000000000E+01 0.  1.
          5    1    3    3  503    0 -0.49923003423E+02  0.99013529180E+02  0.17597500161E+03  0.20805113896E+03  0.47000000000E+01 0. -1.
         -5    1    3    3    0  503  0.36686927981E+02  0.42289010207E+02  0.12711334622E+03  0.13897547933E+03  0.47000000000E+01 0.  1.
<mgrwt>
<rscale>  0 0.16837522E+03</rscale>
<asrwt>0</asrwt>
<pdfrwt beam="1">  1        2 0.46973856E-02 0.16901162E+03</pdfrwt>
<pdfrwt beam="2">  1       -2 0.17448400E+00 0.16901162E+03</pdfrwt>
<totfact> 0.35874069E+02</totfact>
</mgrwt>
</event>
<event>
 8    1  0.3177960E-004  0.9407650E+02  0.7546771E-02  0.1293968E+00
         -1   -1    0    0    0  501 -0.00000000000E+00  0.00000000000E+00  0.22207500804E+03  0.22207500804E+03  0.00000000000E+00 0.  1.
          1   -1    0    0  501    0  0.00000000000E+00 -0.00000000000E+00 -0.39459944365E+02  0.39459944365E+02  0.00000000000E+00 0. -1.
         23    2    1    2    0    0 -0.10355392511E+02 -0.18545244965E+02  0.97933747037E+02  0.13495962731E+03  0.90398683237E+02 0.  0.
         23    2    1    2    0    0  0.10355392511E+02  0.18545244965E+02  0.84681316640E+02  0.12657532509E+03  0.91647298214E+02 0.  0.
          5    1    3    3  502    0  0.26454433520E+02 -0.34394684026E+02  0.79290918760E+02  0.90509508561E+02  0.47000000000E+01 0. -1.
         -5    1    3    3    0  502 -0.36809826031E+02  0.15849439061E+02  0.18642828278E+02  0.44450118753E+02  0.47000000000E+01 0.  1.
          5    1    4    4  503    0  0.37016133734E+02  0.48531698188E+01  0.10836986500E+01  0.37643217406E+02  0.47000000000E+01 0. -1.
         -5    1    4    4    0  503 -0.26660741223E+02  0.13692075146E+02  0.83597617990E+02  0.88932107688E+02  0.47000000000E+01 0.  1.
<mgrwt>
<rscale>  0 0.93771027E+02</rscale>
<asrwt>0</asrwt>
<pdfrwt beam="1">  1        1 0.60707608E-02 0.94076498E+02</pdfrwt>
<pdfrwt beam="2">  1       -1 0.34165385E-01 0.94076498E+02</pdfrwt>
<totfact> 0.94389561E+03</totfact>
</mgrwt>
</event>
<event>
 8    1  0.3177960E-004  0.1202305E+03  0.7546771E-02  0.1247915E+00
          1   -1    0    0  501    0  0.00000000000E+00  0.00000000000E+00  0.30019201443E+03  0.30019201443E+03  0.00000000000E+00 0. -1.
         -1   -1    0    0    0  501 -0.00000000000E+00 -0.00000000000E+00 -0.17694274963E+03  0.17694274963E+03  0.00000000000E+00 0.  1.
         23    2    1    2    0    0  0.11976491272E+02  0.58402023804E+02 -0.14470022595E+03  0.18813167575E+03  0.10440852122E+03 0.  0.
         23    2    1    2    0    0 -0.11976491272E+02 -0.58402023804E+02  0.26794949075E+03  0.28900308831E+03  0.90397028332E+02 0.  0.
          5    1    4    4  502    0  0.95638116677E+01 -0.72145688056E+02  0.24003565929E+03  0.25086983583E+03  0.47000000000E+01 0. -1.
         -5    1    4    4    0  502 -0.21540302939E+02  0.13743664252E+02  0.27913831459E+02  0.38133252477E+02  0.47000000000E+01 0.  1.
          5    1    3    3  503    0 -0.22580848948E+02 -0.21786115328E+02 -0.28076671745E+02  0.42366485063E+02  0.47000000000E+01 0. -1.
         -5    1    3    3    0  503  0.34557340219E+02  0.80188139132E+02 -0.11662355421E+03  0.14576519069E+03  0.47000000000E+01 0.  1.
<mgrwt>
<rscale>  0 0.11712620E+03</rscale>
<asrwt>0</asrwt>
<pdfrwt beam="1">  1        1 0.46183387E-01 0.12023050E+03</pdfrwt>
<pdfrwt beam="2">  1       -1 0.27221961E-01 0.12023050E+03</pdfrwt>
<totfact> 0.10453404E+03</totfact>
</mgrwt>
</event>
<event>
 8    1  0.3177960E-004  0.9600721E+02  0.7546771E-02  0.1291074E+00
          2   -1    0    0  501    0  0.00000000000E+00  0.00000000000E+00  0.27679804763E+03  0.27679804763E+03  0.00000000000E+00 0. -1.
         -2   -1    0    0    0  501 -0.00000000000E+00 -0.00000000000E+00 -0.19747124830E+03  0.19747124830E+03  0.00000000000E+00 0.  1.
         23    2    1    2    0    0  0.21472182920E+02 -0.20209152365E+02 -0.17727334882E+03  0.20160164787E+03  0.91366951046E+02 0.  0.
         23    2    1    2    0    0 -0.21472182920E+02  0.20209152365E+02  0.25660014815E+03  0.27266764806E+03  0.87375887924E+02 0.  0.
          5    1    3    3  502    0 -0.10438784503E+01  0.34802764184E+02 -0.50665792585E+02  0.61655775198E+02  0.47000000000E+01 0. -1.
         -5    1    4    4    0  503  0.27912047102E+02  0.85312208834E+01  0.37675737969E+02  0.47889616147E+02  0.47000000000E+01 0.  1.
          5    1    4    4  503    0 -0.49384230023E+02  0.11677931481E+02  0.21892441018E+03  0.22477803191E+03  0.47000000000E+01 0. -1.
         -5    1    3    3    0  502  0.22516061371E+02 -0.55011916549E+02 -0.12660755624E+03  0.13994587267E+03  0.47000000000E+01 0.  1.
<mgrwt>
<rscale>  0 0.95045346E+02</rscale>
<asrwt>0</asrwt>
<pdfrwt beam="1">  1        2 0.42584315E-01 0.96007209E+02</pdfrwt>
<pdfrwt beam="2">  1       -2 0.30380192E-01 0.96007209E+02</pdfrwt>
<totfact> 0.11649374E+03</totfact>
</mgrwt>
</event>
<event>
 8    1  0.3177960E-004  0.1347690E+03  0.7546771E-02  0.1220802E+00
         -2   -1    0    0    0  501 -0.00000000000E+00  0.00000000000E+00  0.56573914339E+02  0.56573914339E+02  0.00000000000E+00 0.  1.
          2   -1    0    0  501    0  0.00000000000E+00 -0.00000000000E+00 -0.33387615087E+03  0.33387615087E+03  0.00000000000E+00 0. -1.
         23    2    1    2    0    0  0.45496923557E+02  0.88062673167E+02 -0.17976036210E+03  0.22466971011E+03  0.91310932539E+02 0.  0.
         23    2    1    2    0    0 -0.45496923557E+02 -0.88062673167E+02 -0.97541874437E+02  0.16578035510E+03  0.90242475647E+02 0.  0.
          5    1    4    4  502    0 -0.44092768907E+02  0.38018615711E+00 -0.22698229325E+02  0.49815825054E+02  0.47000000000E+01 0. -1.
         -5    1    3    3    0  503  0.42081974901E+02  0.33574644519E+02 -0.23222038213E+02  0.58817535012E+02  0.47000000000E+01 0.  1.
          5    1    3    3  503    0  0.34149486564E+01  0.54488028647E+02 -0.15653832389E+03  0.16585217510E+03  0.47000000000E+01 0. -1.
         -5    1    4    4    0  502 -0.14041546507E+01 -0.88442859324E+02 -0.74843645112E+02  0.11596453005E+03  0.47000000000E+01 0.  1.
<mgrwt>
<rscale>  0 0.13458826E+03</rscale>
<asrwt>0</asrwt>
<pdfrwt beam="1">  1        2 0.51365562E-01 0.13476903E+03</pdfrwt>
<pdfrwt beam="2">  1       -2 0.87036790E-02 0.13476903E+03</pdfrwt>
<totfact> 0.76638160E+03</totfact>
</mgrwt>
</event>
<event>
 8    1  0.3177960E-004  0.9269088E+02  0.7546771E-02  0.1296666E+00
          2   -1    0    0  501    0  0.00000000000E+00  0.00000000000E+00  0.24756119086E+03  0.24756119086E+03  0.00000000000E+00 0. -1.
         -2   -1    0    0    0  501 -0.00000000000E+00 -0.00000000000E+00 -0.41461237972E+02  0.41461237972E+02  0.00000000000E+00 0.  1.
         23    2    1    2    0    0 -0.14319417483E+02  0.63945331676E+01  0.16178282121E+03  0.18628194760E+03  0.91001906525E+02 0.  0.
         23    2    1    2    0    0  0.14319417483E+02 -0.63945331676E+01  0.44317131676E+02  0.10274048123E+03  0.91354597870E+02 0.  0.
          5    1    3    3  502    0 -0.34516331366E+02  0.39704998710E+02  0.85512043654E+02  0.10051001773E+03  0.47000000000E+01 0. -1.
         -5    1    4    4    0  503  0.41630451325E+02 -0.31892743603E+02  0.37064352302E+02  0.64390199438E+02  0.47000000000E+01 0.  1.
          5    1    4    4  503    0 -0.27311033842E+02  0.25498210436E+02  0.72527793740E+01  0.38350281793E+02  0.47000000000E+01 0. -1.
         -5    1    3    3    0  502  0.20196913882E+02 -0.33310465543E+02  0.76270777554E+02  0.85771929871E+02  0.47000000000E+01 0.  1.
<mgrwt>
<rscale>  0 0.92603856E+02</rscale>
<asrwt>0</asrwt>
<pdfrwt beam="1">  1        2 0.38086336E-01 0.92690875E+02</pdfrwt>
<pdfrwt beam="2">  1       -2 0.63786521E-02 0.92690875E+02</pdfrwt>
<totfact> 0.16376760E+04</totfact>
</mgrwt>
</event>
<event>
 8    1  0.3177960E-004  0.1663066E+03  0.7546771E-02  0.1182309E+00
         -2   -1    0    0    0  501 -0.00000000000E+00  0.00000000000E+00  0.40600072736E+02  0.40600072736E+02  0.00000000000E+00 0.  1.
          2   -1    0    0  501    0  0.00000000000E+00 -0.00000000000E+00 -0.11990353130E+04  0.11990353130E+04  0.00000000000E+00 0. -1.
         23    2    1    2    0    0  0.12888393384E+03 -0.52816747129E+02 -0.17064155301E+03  0.23827802419E+03  0.90869136784E+02 0.  0.
         23    2    1    2    0    0 -0.12888393384E+03  0.52816747129E+02 -0.98779368725E+03  0.10013573615E+04  0.87060437384E+02 0.  0.
          5    1    4    4  502    0 -0.10221253419E+03  0.60444806134E+02 -0.92430440110E+03  0.93191292117E+03  0.47000000000E+01 0. -1.
         -5    1    4    4    0  502 -0.26671399651E+02 -0.76280590058E+01 -0.63489286150E+02  0.69444440378E+02  0.47000000000E+01 0.  1.
          5    1    3    3  503    0  0.60529426594E+02 -0.20981309928E+01 -0.13072365040E+03  0.14414914641E+03  0.47000000000E+01 0. -1.
         -5    1    3    3    0  503  0.68354507249E+02 -0.50718616136E+02 -0.39917902614E+02  0.94128877785E+02  0.47000000000E+01 0.  1.
<mgrwt>
<rscale>  0 0.16579167E+03</rscale>
<asrwt>0</asrwt>
<pdfrwt beam="1">  1        2 0.18446695E+00 0.16630658E+03</pdfrwt>
<pdfrwt beam="2">  1       -2 0.62461659E-02 0.16630658E+03</pdfrwt>
<totfact> 0.27659336E+03</totfact>
</mgrwt>
</event>
<event>
 8    1  0.3177960E-004  0.1136119E+03  0.7546771E-02  0.1254594E+00
         -1   -1    0    0    0  501 -0.00000000000E+00  0.00000000000E+00  0.11689359902E+02  0.11689359902E+02  0.00000000000E+00 0.  1.
          1   -1    0    0  501    0  0.00000000000E+00 -0.00000000000E+00 -0.11038997671E+04  0.11038997671E+04  0.00000000000E+00 0. -1.
         23    2    1    2    0    0  0.63737992617E+02 -0.10388170882E+02 -0.60745105070E+03  0.61798417972E+03  0.93473106222E+02 0.  0.
         23    2    1    2    0    0 -0.63737992617E+02  0.10388170882E+02 -0.48475935646E+03  0.49760494725E+03  0.91916288287E+02 0.  0.
          5    1    4    4  502    0 -0.82328511107E+02 -0.20689779979E+01 -0.28986202043E+03  0.30137077711E+03  0.47000000000E+01 0. -1.
         -5    1    3    3    0  503  0.76496129730E+02  0.17477634987E+02 -0.35273099138E+03  0.36138396183E+03  0.47000000000E+01 0.  1.
          5    1    3    3  503    0 -0.12758137113E+02 -0.27865805869E+02 -0.25472005932E+03  0.25660021789E+03  0.47000000000E+01 0. -1.
         -5    1    4    4    0  502  0.18590518491E+02  0.12457148880E+02 -0.19489733603E+03  0.19623417014E+03  0.47000000000E+01 0.  1.
<mgrwt>
<rscale>  0 0.11329122E+03</rscale>
<asrwt>0</asrwt>
<pdfrwt beam="1">  1        1 0.16983071E+00 0.11361192E+03</pdfrwt>
<pdfrwt beam="2">  1       -1 0.17983633E-02 0.11361192E+03</pdfrwt>
<totfact> 0.10265692E+04</totfact>
</mgrwt>
</event>
<event>
 8    1  0.3177960E-004  0.1572299E+03  0.7546771E-02  0.1192134E+00
          1   -1    0    0  501    0  0.00000000000E+00  0.00000000000E+00  0.50338976349E+03  0.50338976349E+03  0.00000000000E+00 0. -1.
         -1   -1    0    0    0  501 -0.00000000000E+00 -0.00000000000E+00 -0.48816944013E+02  0.48816944013E+02  0.00000000000E+00 0.  1.
         23    2    1    2    0    0  0.12390107747E+03 -0.30421377171E+02  0.22822739551E+03  0.27661010292E+03  0.90268863870E+02 0.  0.
         23    2    1    2    0    0 -0.12390107747E+03  0.30421377171E+02  0.22634542397E+03  0.27559660459E+03  0.91892874167E+02 0.  0.
          5    1    4    4  502    0 -0.70519540312E+02  0.52194563683E+02  0.18403270602E+03  0.20392990199E+03  0.47000000000E+01 0. -1.
         -5    1    4    4    0  502 -0.53381537161E+02 -0.21773186512E+02  0.42312717952E+02  0.71666702597E+02  0.47000000000E+01 0.  1.
          5    1    3    3  503    0  0.49403506618E+02  0.24716243752E+02  0.13076747825E+03  0.14203458220E+03  0.47000000000E+01 0. -1.
         -5    1    3    3    0  503  0.74497570855E+02 -0.55137620923E+02  0.97459917261E+02  0.13457552072E+03  0.47000000000E+01 0.  1.
<mgrwt>
<rscale>  0 0.15699346E+03</rscale>
<asrwt>0</asrwt>
<pdfrwt beam="1">  1        1 0.77444576E-01 0.15722989E+03</pdfrwt>
<pdfrwt beam="2">  1       -1 0.75102994E-02 0.15722989E+03</pdfrwt>
<totfact> 0.41371133E+03</totfact>
</mgrwt>
</event>
<event>
 8    1  0.3177960E-004  0.1102211E+03  0.7546771E-02  0.1266313E+00
         -2   -1    0    0    0  501 -0.00000000000E+00  0.00000000000E+00  0.17086837988E+02  0.17086837988E+02  0.00000000000E+00 0.  1.
          2   -1    0    0  501    0  0.00000000000E+00 -0.00000000000E+00 -0.66019430235E+03  0.66019430235E+03  0.00000000000E+00 0. -1.
         23    2    1    2    0    0 -0.17240841116E+02  0.25755736786E+02 -0.27108517611E+03  0.29263606112E+03  0.10577375375E+03 0.  0.
         23    2    1    2    0    0  0.17240841116E+02 -0.25755736786E+02 -0.37202228826E+03  0.38464507923E+03  0.92685756355E+02 0.  0.
          5    1    4    4  502    0  0.11856879428E+01  0.26851580555E+02 -0.24000268072E+03  0.24154873212E+03  0.47000000000E+01 0. -1.
         -5    1    3    3    0  503 -0.28116091321E+02 -0.30709931629E+02 -0.18002341405E+03  0.18483542436E+03  0.47000000000E+01 0.  1.
          5    1    3    3  503    0  0.10875250205E+02  0.56465668414E+02 -0.91061762056E+02  0.10780063676E+03  0.47000000000E+01 0. -1.
         -5    1    4    4    0  502  0.16055153173E+02 -0.52607317340E+02 -0.13201960754E+03  0.14309634711E+03  0.47000000000E+01 0.  1.
<mgrwt>
<rscale>  0 0.10695624E+03</rscale>
<asrwt>0</asrwt>
<pdfrwt beam="1">  1        2 0.10156838E+00 0.11022110E+03</pdfrwt>
<pdfrwt beam="2">  1       -2 0.26287437E-02 0.11022110E+03</pdfrwt>
<totfact> 0.21526692E+04</totfact>
</mgrwt>
</event>
<event>
 8    1  0.3177960E-004  0.1022308E+03  0.7546771E-02  0.1285914E+00
         -1   -1    0    0    0  501 -0.00000000000E+00  0.00000000000E+00  0.27048423771E+02  0.27048423771E+02  0.00000000000E+00 0.  1.
          1   -1    0    0  501    0  0.00000000000E+00 -0.00000000000E+00 -0.37126900077E+03  0.37126900077E+03  0.00000000000E+00 0. -1.
         23    2    1    2    0    0 -0.32419171612E+02 -0.32645780283E+02 -0.23060655081E+03  0.24547995680E+03  0.70457634468E+02 0.  0.
         23    2    1    2    0    0  0.32419171612E+02  0.32645780283E+02 -0.11361402619E+03  0.15283746775E+03  0.91292907399E+02 0.  0.
          5    1    4    4  502    0  0.61339961918E+02  0.48356032979E+01 -0.72322117953E+02  0.95071303412E+02  0.47000000000E+01 0. -1.
         -5    1    3    3    0  503 -0.81482867761E+01 -0.51711627755E+02 -0.15552114598E+03  0.16416273594E+03  0.47000000000E+01 0. -1.
          5    1    3    3  503    0 -0.24270884836E+02  0.19065847472E+02 -0.75085404827E+02  0.81317220861E+02  0.47000000000E+01 0.  1.
         -5    1    4    4    0  502 -0.28920790306E+02  0.27810176985E+02 -0.41291908238E+02  0.57766164333E+02  0.47000000000E+01 0.  1.
<mgrwt>
<rscale>  0 0.97375227E+02</rscale>
<asrwt>0</asrwt>
<pdfrwt beam="1">  1        1 0.57118306E-01 0.10223084E+03</pdfrwt>
<pdfrwt beam="2">  1       -1 0.41612961E-02 0.10223084E+03</pdfrwt>
<totfact> 0.14212224E+04</totfact>
</mgrwt>
</event>
<event>
 8    1  0.3177960E-004  0.1085651E+03  0.7546771E-02  0.1265763E+00
          1   -1    0    0  501    0  0.00000000000E+00  0.00000000000E+00  0.42791515781E+03  0.42791515781E+03  0.00000000000E+00 0. -1.
         -1   -1    0    0    0  501 -0.00000000000E+00 -0.00000000000E+00 -0.31724406405E+02  0.31724406405E+02  0.00000000000E+00 0.  1.
         23    2    1    2    0    0 -0.51984285517E+02 -0.27324751829E+02  0.28959540745E+03  0.30749179691E+03  0.85068778932E+02 0.  0.
         23    2    1    2    0    0  0.51984285517E+02  0.27324751829E+02  0.10659534396E+03  0.15214776731E+03  0.91309187595E+02 0.  0.
          5    1    4    4  502    0  0.69893792117E+02  0.90509748905E+01  0.10438767234E+03  0.12603943216E+03  0.47000000000E+01 0. -1.
         -5    1    4    4    0  502 -0.17909506600E+02  0.18273776939E+02  0.22076716244E+01  0.26108335149E+02  0.47000000000E+01 0.  1.
          5    1    3    3  503    0 -0.37876011826E+02  0.95855817154E+01  0.45424443058E+02  0.60099464855E+02  0.47000000000E+01 0.  1.
         -5    1    3    3    0  503 -0.14108273691E+02 -0.36910333545E+02  0.24417096439E+03  0.24739233206E+03  0.47000000000E+01 0. -1.
<mgrwt>
<rscale>  0 0.10724277E+03</rscale>
<asrwt>0</asrwt>
<pdfrwt beam="1">  1        1 0.65833097E-01 0.10856508E+03</pdfrwt>
<pdfrwt beam="2">  1       -1 0.48806782E-02 0.10856508E+03</pdfrwt>
<totfact> 0.94719317E+03</totfact>
</mgrwt>
</event>
<event>
 8    1  0.3177960E-004  0.1528074E+03  0.7546771E-02  0.1197872E+00
          2   -1    0    0  501    0  0.00000000000E+00  0.00000000000E+00  0.44102553016E+03  0.44102553016E+03  0.00000000000E+00 0. -1.
         -2   -1    0    0    0  501 -0.00000000000E+00 -0.00000000000E+00 -0.52473671236E+02  0.52473671236E+02  0.00000000000E+00 0.  1.
         23    2    1    2    0    0 -0.12008457867E+03 -0.24939106274E+02  0.21876799320E+03  0.26685114959E+03  0.91147332001E+02 0.  0.
         23    2    1    2    0    0  0.12008457867E+03  0.24939106274E+02  0.16978386572E+03  0.22664805180E+03  0.86605503706E+02 0.  0.
          5    1    3    3  502    0 -0.58682012048E+02  0.32846013527E+02  0.82532934230E+02  0.10656554028E+03  0.47000000000E+01 0. -1.
         -5    1    3    3    0  502 -0.61402566623E+02 -0.57785119801E+02  0.13623505897E+03  0.16028560931E+03  0.47000000000E+01 0.  1.
          5    1    4    4  503    0  0.31592764340E+02  0.11514200443E+02  0.11875215045E+03  0.12351049674E+03  0.47000000000E+01 0. -1.
         -5    1    4    4    0  503  0.88491814330E+02  0.13424905831E+02  0.51031715272E+02  0.10313755506E+03  0.47000000000E+01 0.  1.
<mgrwt>
<rscale>  0 0.15213678E+03</rscale>
<asrwt>0</asrwt>
<pdfrwt beam="1">  1        2 0.67850079E-01 0.15280740E+03</pdfrwt>
<pdfrwt beam="2">  1       -2 0.80728728E-02 0.15280740E+03</pdfrwt>
<totfact> 0.64449353E+03</totfact>
</mgrwt>
</event>
<event>
 8    1  0.3177960E-004  0.9867754E+02  0.7546771E-02  0.1284362E+00
         -1   -1    0    0    0  501 -0.00000000000E+00  0.00000000000E+00  0.12942630016E+03  0.12942630016E+03  0.00000000000E+00 0.  1.
          1   -1    0    0  501    0  0.00000000000E+00 -0.00000000000E+00 -0.26112828671E+03  0.26112828671E+03  0.00000000000E+00 0. -1.
         23    2    1    2    0    0  0.16488504698E+02 -0.26080573582E+02  0.99907577423E+02  0.13880024996E+03  0.91279341903E+02 0.  0.
         23    2    1    2    0    0 -0.16488504698E+02  0.26080573582E+02 -0.23160956397E+03  0.25175433691E+03  0.93729338650E+02 0.  0.
          5    1    3    3  502    0  0.42558666016E+02  0.15360155996E+02  0.35177350116E+02  0.57504003396E+02  0.47000000000E+01 0. -1.
         -5    1    3    3    0  502 -0.26070161318E+02 -0.41440729577E+02  0.64730227307E+02  0.81296246569E+02  0.47000000000E+01 0.  1.
          5    1    4    4  503    0 -0.26592647080E+02 -0.11094919251E+01 -0.21747228473E+03  0.21914535011E+03  0.47000000000E+01 0. -1.
         -5    1    4    4    0  503  0.10104142382E+02  0.27190065507E+02 -0.14137279245E+02  0.32608986798E+02  0.47000000000E+01 0.  1.
<mgrwt>
<rscale>  0 0.98091308E+02</rscale>
<asrwt>0</asrwt>
<pdfrwt beam="1">  1        1 0.40173582E-01 0.98677536E+02</pdfrwt>
<pdfrwt beam="2">  1       -1 0.19911739E-01 0.98677536E+02</pdfrwt>
<totfact> 0.20470584E+03</totfact>
</mgrwt>
</event>
<event>
 8    1  0.3177960E-004  0.9604531E+02  0.7546771E-02  0.1289039E+00
          2   -1    0    0  501    0  0.00000000000E+00  0.00000000000E+00  0.44184296386E+03  0.44184296386E+03  0.00000000000E+00 0. -1.
         -2   -1    0    0    0  501 -0.00000000000E+00 -0.00000000000E+00 -0.20895046953E+02  0.20895046953E+02  0.00000000000E+00 0.  1.
         23    2    1    2    0    0  0.21355616452E+02  0.26453924171E+01  0.19443855449E+03  0.21670713139E+03  0.93233946976E+02 0.  0.
         23    2    1    2    0    0 -0.21355616452E+02 -0.26453924171E+01  0.22650936242E+03  0.24603087942E+03  0.93603642620E+02 0.  0.
          5    1    3    3  502    0  0.36822651610E+02 -0.28276866491E+02  0.16364896012E+03  0.17017215106E+03  0.47000000000E+01 0. -1.
         -5    1    3    3    0  502 -0.15467035157E+02  0.30922258908E+02  0.30789594373E+02  0.46534980329E+02  0.47000000000E+01 0.  1.
          5    1    4    4  503    0  0.35351610263E+02  0.71513328660E+01  0.64621639068E+02  0.74154731108E+02  0.47000000000E+01 0. -1.
         -5    1    4    4    0  503 -0.56707226716E+02 -0.97967252831E+01  0.16188772335E+03  0.17187614832E+03  0.47000000000E+01 0.  1.
<mgrwt>
<rscale>  0 0.95955122E+02</rscale>
<asrwt>0</asrwt>
<pdfrwt beam="1">  1        2 0.67975833E-01 0.96045314E+02</pdfrwt>
<pdfrwt beam="2">  1       -2 0.32146229E-02 0.96045314E+02</pdfrwt>
<totfact> 0.24676346E+04</totfact>
</mgrwt>
</event>
<event>
 8    1  0.3177960E-004  0.9476834E+02  0.7546771E-02  0.1291815E+00
          1   -1    0    0  501    0  0.00000000000E+00  0.00000000000E+00  0.24944293090E+03  0.24944293090E+03  0.00000000000E+00 0. -1.
         -1   -1    0    0    0  501 -0.00000000000E+00 -0.00000000000E+00 -0.42200962013E+02  0.42200962013E+02  0.00000000000E+00 0.  1.
         23    2    1    2    0    0  0.59432512550E+01  0.25941817356E+02  0.47296112149E+02  0.10573069933E+03  0.90740059697E+02 0.  0.
         23    2    1    2    0    0 -0.59432512550E+01 -0.25941817356E+02  0.15994585673E+03  0.18591319358E+03  0.90954594916E+02 0.  0.
          5    1    4    4  502    0 -0.14050161318E+02  0.31531547329E+02  0.77557558470E+02  0.85022999158E+02  0.47000000000E+01 0. -1.
         -5    1    4    4    0  502  0.81069100626E+01 -0.57473364685E+02  0.82388298262E+02  0.10089019442E+03  0.47000000000E+01 0.  1.
          5    1    3    3  503    0 -0.27885827322E+02  0.34496987991E+02  0.53840800277E+02  0.69918404732E+02  0.47000000000E+01 0. -1.
         -5    1    3    3    0  503  0.33829078576E+02 -0.85551706350E+01 -0.65446881271E+01  0.35812294601E+02  0.47000000000E+01 0.  1.
<mgrwt>
<rscale>  0 0.94716828E+02</rscale>
<asrwt>0</asrwt>
<pdfrwt beam="1">  1        1 0.38375835E-01 0.94768341E+02</pdfrwt>
<pdfrwt beam="2">  1       -1 0.64924558E-02 0.94768341E+02</pdfrwt>
<totfact> 0.11962608E+04</totfact>
</mgrwt>
</event>
<event>
 8    1  0.3177960E-004  0.1295948E+03  0.7546771E-02  0.1237822E+00
         -1   -1    0    0    0  501 -0.00000000000E+00  0.00000000000E+00  0.11596787578E+03  0.11596787578E+03  0.00000000000E+00 0.  1.
          1   -1    0    0  501    0  0.00000000000E+00 -0.00000000000E+00 -0.13697973924E+03  0.13697973924E+03  0.00000000000E+00 0. -1.
         23    2    1    2    0    0 -0.13265554378E+02  0.39273281613E+02 -0.54321800676E+02  0.11914037767E+03  0.97597161751E+02 0.  0.
         23    2    1    2    0    0  0.13265554378E+02 -0.39273281613E+02  0.33309937219E+02  0.13380723735E+03  0.12278623403E+03 0.  0.
          5    1    3    3  502    0 -0.54307369316E+02  0.11089655181E+02 -0.23430256202E+02  0.60360067261E+02  0.47000000000E+01 0. -1.
         -5    1    3    3    0  502  0.41041814938E+02  0.28183626433E+02 -0.30891544474E+02  0.58780310413E+02  0.47000000000E+01 0.  1.
          5    1    4    4  503    0 -0.49445897881E+02 -0.43147934414E+02  0.96125359673E+01  0.66491592771E+02  0.47000000000E+01 0. -1.
         -5    1    4    4    0  503  0.62711452259E+02  0.38746528004E+01  0.23697401251E+02  0.67315644577E+02  0.47000000000E+01 0.  1.
<mgrwt>
<rscale>  0 0.12325480E+03</rscale>
<asrwt>0</asrwt>
<pdfrwt beam="1">  1        1 0.21073806E-01 0.12959485E+03</pdfrwt>
<pdfrwt beam="2">  1       -1 0.17841212E-01 0.12959485E+03</pdfrwt>
<totfact> 0.55076120E+03</totfact>
</mgrwt>
</event>
<event>
 8    1  0.3177960E-004  0.9459110E+02  0.7546771E-02  0.1292860E+00
         -2   -1    0    0    0  501 -0.00000000000E+00  0.00000000000E+00  0.11704535541E+03  0.11704535541E+03  0.00000000000E+00 0.  1.
          2   -1    0    0  501    0  0.00000000000E+00 -0.00000000000E+00 -0.14263975719E+03  0.14263975719E+03  0.00000000000E+00 0. -1.
         23    2    1    2    0    0 -0.17644685640E+02  0.28806201306E+01  0.76415930893E+02  0.12056795055E+03  0.91529248342E+02 0.  0.
         23    2    1    2    0    0  0.17644685640E+02 -0.28806201306E+01 -0.10201033268E+03  0.13911716205E+03  0.92886187887E+02 0.  0.
          5    1    4    4  502    0  0.46998541365E+02  0.21959517117E+02 -0.38686113203E+02  0.64882884008E+02  0.47000000000E+01 0. -1.
         -5    1    4    4    0  502 -0.29353855725E+02 -0.24840137247E+02 -0.63324219475E+02  0.74234278042E+02  0.47000000000E+01 0.  1.
          5    1    3    3  503    0  0.35133095384E+02  0.15565616611E+02  0.29586958176E+02  0.48724746339E+02  0.47000000000E+01 0. -1.
         -5    1    3    3    0  503 -0.52777781024E+02 -0.12684996480E+02  0.46828972717E+02  0.71843204211E+02  0.47000000000E+01 0.  1.
<mgrwt>
<rscale>  0 0.94256297E+02</rscale>
<asrwt>0</asrwt>
<pdfrwt beam="1">  1        2 0.21944578E-01 0.94591103E+02</pdfrwt>
<pdfrwt beam="2">  1       -2 0.18006978E-01 0.94591103E+02</pdfrwt>
<totfact> 0.58175501E+03</totfact>
</mgrwt>
</event>
<event>
 8    1  0.3177960E-004  0.9203743E+02  0.7546771E-02  0.1299195E+00
         -2   -1    0    0    0  501 -0.00000000000E+00  0.00000000000E+00  0.18110129786E+03  0.18110129786E+03  0.00000000000E+00 0.  1.
          2   -1    0    0  501    0  0.00000000000E+00 -0.00000000000E+00 -0.70533631683E+02  0.70533631683E+02  0.00000000000E+00 0. -1.
         23    2    1    2    0    0 -0.30578465200E+01  0.76905741619E+00  0.13025798847E+03  0.15949304671E+03  0.91983403471E+02 0.  0.
         23    2    1    2    0    0  0.30578465200E+01 -0.76905741619E+00 -0.19690322286E+02  0.92141882840E+02  0.89958189771E+02 0.  0.
          5    1    3    3  502    0  0.60086730249E+01 -0.44651388665E+02  0.69291346098E+02  0.82784245514E+02  0.47000000000E+01 0. -1.
         -5    1    4    4    0  503 -0.34083830008E+02  0.30141791276E+01  0.17945432184E+02  0.38921989673E+02  0.47000000000E+01 0.  1.
          5    1    4    4  503    0  0.37141676528E+02 -0.37832365438E+01 -0.37635754470E+02  0.53219893166E+02  0.47000000000E+01 0. -1.
         -5    1    3    3    0  502 -0.90665195448E+01  0.45420446081E+02  0.60966642370E+02  0.76708801194E+02  0.47000000000E+01 0.  1.
<mgrwt>
<rscale>  0 0.91527203E+02</rscale>
<asrwt>0</asrwt>
<pdfrwt beam="1">  1        2 0.10851328E-01 0.92037429E+02</pdfrwt>
<pdfrwt beam="2">  1       -2 0.27861738E-01 0.92037429E+02</pdfrwt>
<totfact> 0.62145372E+03</totfact>
</mgrwt>
</event>
<event>
 8    1  0.3177960E-004  0.1173760E+03  0.7546771E-02  0.1247867E+00
         -3   -1    0    0    0  501 -0.00000000000E+00  0.00000000000E+00  0.14869870688E+03  0.14869870688E+03  0.00000000000E+00 0.  1.
          3   -1    0    0  501    0  0.00000000000E+00 -0.00000000000E+00 -0.31428848855E+03  0.31428848855E+03  0.00000000000E+00 0. -1.
         23    2    1    2    0    0  0.72391000449E+02  0.71524034071E+01  0.11200160014E+03  0.16160022045E+03  0.90987136425E+02 0.  0.
         23    2    1    2    0    0 -0.72391000449E+02 -0.71524034071E+01 -0.27759138181E+03  0.30138697499E+03  0.92116880219E+02 0.  0.
          5    1    4    4  502    0 -0.87742450206E+02 -0.21262727076E+02 -0.25371859226E+03  0.26934374911E+03  0.47000000000E+01 0. -1.
         -5    1    4    4    0  502  0.15351449757E+02  0.14110323669E+02 -0.23872789550E+02  0.32043225877E+02  0.47000000000E+01 0.  1.
          5    1    3    3  503    0 -0.12668417677E+02  0.22351726979E+02  0.10326058573E+02  0.28085690147E+02  0.47000000000E+01 0. -1.
         -5    1    3    3    0  503  0.85059418126E+02 -0.15199323572E+02  0.10167554156E+03  0.13351453030E+03  0.47000000000E+01 0.  1.
<mgrwt>
<rscale>  0 0.11715428E+03</rscale>
<asrwt>0</asrwt>
<pdfrwt beam="1">  1        3 0.48352075E-01 0.11737603E+03</pdfrwt>
<pdfrwt beam="2">  1       -3 0.22876724E-01 0.11737603E+03</pdfrwt>
<totfact> 0.17337643E+02</totfact>
</mgrwt>
</event>
<event>
 8    1  0.3177960E-004  0.1038557E+03  0.7546771E-02  0.1272561E+00
         -2   -1    0    0    0  501 -0.00000000000E+00  0.00000000000E+00  0.33563010500E+02  0.33563010500E+02  0.00000000000E+00 0.  1.
          2   -1    0    0  501    0  0.00000000000E+00 -0.00000000000E+00 -0.46155788086E+03  0.46155788086E+03  0.00000000000E+00 0. -1.
         23    2    1    2    0    0 -0.30293869494E+02  0.41170314950E+02 -0.35070049880E+03  0.36565879284E+03  0.90015551759E+02 0.  0.
         23    2    1    2    0    0  0.30293869494E+02 -0.41170314950E+02 -0.77294371563E+02  0.12946209853E+03  0.90406314588E+02 0.  0.
          5    1    4    4  502    0  0.62353076638E+02 -0.26830102193E+02 -0.45489599283E+02  0.81848360966E+02  0.47000000000E+01 0. -1.
         -5    1    3    3    0  503 -0.49055598654E+02  0.57064598521E+02 -0.21943027507E+03  0.23202274841E+03  0.47000000000E+01 0.  1.
          5    1    3    3  503    0  0.18761729160E+02 -0.15894283571E+02 -0.13127022373E+03  0.13363604443E+03  0.47000000000E+01 0. -1.
         -5    1    4    4    0  502 -0.32059207144E+02 -0.14340212757E+02 -0.31804772280E+02  0.47613737560E+02  0.47000000000E+01 0.  1.
<mgrwt>
<rscale>  0 0.10377064E+03</rscale>
<asrwt>0</asrwt>
<pdfrwt beam="1">  1        2 0.71008909E-01 0.10385574E+03</pdfrwt>
<pdfrwt beam="2">  1       -2 0.51635397E-02 0.10385574E+03</pdfrwt>
<totfact> 0.11787820E+04</totfact>
</mgrwt>
</event>
<event>
 8    1  0.3177960E-004  0.1183843E+03  0.7546771E-02  0.1246061E+00
         -1   -1    0    0    0  501 -0.00000000000E+00  0.00000000000E+00  0.43066859621E+03  0.43066859621E+03  0.00000000000E+00 0.  1.
          1   -1    0    0  501    0  0.00000000000E+00 -0.00000000000E+00 -0.99953719481E+02  0.99953719481E+02  0.00000000000E+00 0. -1.
         23    2    1    2    0    0 -0.51340835752E+01  0.74639429700E+02  0.38338165637E+03  0.40105140311E+03  0.90902861429E+02 0.  0.
         23    2    1    2    0    0  0.51340835752E+01 -0.74639429700E+02 -0.52666779640E+02  0.12957091258E+03  0.91746544508E+02 0.  0.
          5    1    4    4  502    0  0.35428130735E+02 -0.78798275711E+02 -0.45730192127E+02  0.97865525975E+02  0.47000000000E+01 0. -1.
         -5    1    3    3    0  503 -0.34943889414E+02  0.73541543684E+02  0.32782908608E+03  0.33782160046E+03  0.47000000000E+01 0.  1.
          5    1    3    3  503    0  0.29809805839E+02  0.10978860160E+01  0.55552570288E+02  0.63229802653E+02  0.47000000000E+01 0. -1.
         -5    1    4    4    0  502 -0.30294047160E+02  0.41588460107E+01 -0.69365875134E+01  0.31705386606E+02  0.47000000000E+01 0. -1.
<mgrwt>
<rscale>  0 0.11822076E+03</rscale>
<asrwt>0</asrwt>
<pdfrwt beam="1">  1        1 0.15377496E-01 0.11838425E+03</pdfrwt>
<pdfrwt beam="2">  1       -1 0.66256706E-01 0.11838425E+03</pdfrwt>
<totfact> 0.85215531E+02</totfact>
</mgrwt>
</event>
<event>
 8    1  0.3177960E-004  0.1273185E+03  0.7546771E-02  0.1232257E+00
         -2   -1    0    0    0  501 -0.00000000000E+00  0.00000000000E+00  0.22762407560E+03  0.22762407560E+03  0.00000000000E+00 0.  1.
          2   -1    0    0  501    0  0.00000000000E+00 -0.00000000000E+00 -0.24365839944E+03  0.24365839944E+03  0.00000000000E+00 0. -1.
         23    2    1    2    0    0 -0.47863774724E+02 -0.73786423021E+02 -0.20687205119E+03  0.24187225407E+03  0.89279138521E+02 0.  0.
         23    2    1    2    0    0  0.47863774724E+02  0.73786423021E+02  0.19083772735E+03  0.22941022096E+03  0.92057776151E+02 0.  0.
          5    1    3    3  502    0 -0.66404069782E+02 -0.57704195332E+02 -0.19546720682E+03  0.21440334322E+03  0.47000000000E+01 0. -1.
         -5    1    4    4    0  503  0.47566773212E+02  0.42388379780E+02  0.18677876530E+03  0.19740255778E+03  0.47000000000E+01 0.  1.
          5    1    4    4  503    0  0.29700151191E+00  0.31398043241E+02  0.40589620523E+01  0.32007663179E+02  0.47000000000E+01 0. -1.
         -5    1    3    3    0  502  0.18540295059E+02 -0.16082227689E+02 -0.11404844366E+02  0.27468910851E+02  0.47000000000E+01 0.  1.
<mgrwt>
<rscale>  0 0.12681699E+03</rscale>
<asrwt>0</asrwt>
<pdfrwt beam="1">  1        2 0.37485908E-01 0.12731854E+03</pdfrwt>
<pdfrwt beam="2">  1       -2 0.35019088E-01 0.12731854E+03</pdfrwt>
<totfact> 0.10379456E+03</totfact>
</mgrwt>
</event>
<event>
 8    1  0.3177960E-004  0.1067705E+03  0.7546771E-02  0.1271190E+00
          1   -1    0    0  501    0  0.00000000000E+00  0.00000000000E+00  0.90457973937E+03  0.90457973937E+03  0.00000000000E+00 0. -1.
         -1   -1    0    0    0  501 -0.00000000000E+00 -0.00000000000E+00 -0.14567016334E+02  0.14567016334E+02  0.00000000000E+00 0.  1.
         23    2    1    2    0    0  0.15884072853E+02 -0.31920311682E+02  0.22117928270E+03  0.24184467660E+03  0.91089859122E+02 0.  0.
         23    2    1    2    0    0 -0.15884072853E+02  0.31920311682E+02  0.66883344034E+03  0.67730207911E+03  0.10064156885E+03 0.  0.
          5    1    3    3  502    0 -0.19013290090E+02 -0.38355050527E+02  0.18856136917E+03  0.19341689441E+03  0.47000000000E+01 0. -1.
         -5    1    4    4    0  503  0.59777028674E+01 -0.25746650626E+02  0.65235370473E+02  0.70543366171E+02  0.47000000000E+01 0.  1.
          5    1    4    4  503    0 -0.21861775721E+02  0.57666962308E+02  0.60359806987E+03  0.60675871294E+03  0.47000000000E+01 0. -1.
         -5    1    3    3    0  502  0.34897362943E+02  0.64347388452E+01  0.32617913531E+02  0.48427782187E+02  0.47000000000E+01 0.  1.
<mgrwt>
<rscale>  0 0.10445862E+03</rscale>
<asrwt>0</asrwt>
<pdfrwt beam="1">  1        1 0.13916607E+00 0.10677048E+03</pdfrwt>
<pdfrwt beam="2">  1       -1 0.22410801E-02 0.10677048E+03</pdfrwt>
<totfact> 0.10405018E+04</totfact>
</mgrwt>
</event>
<event>
 7    1  0.3177960E-004  0.4711749E+03  0.7546771E-02  0.1021589E+00
         -1   -1    0    0    0  501 -0.00000000000E+00  0.00000000000E+00  0.83419070149E+03  0.83419070149E+03  0.00000000000E+00 0.  1.
          1   -1    0    0  501    0  0.00000000000E+00 -0.00000000000E+00 -0.66533277144E+02  0.66533277144E+02  0.00000000000E+00 0. -1.
         23    2    1    2    0    0 -0.80954017960E+02  0.10377021099E+03  0.31144469024E+03  0.35141727719E+03  0.95783599414E+02 0.  0.
          5    1    1    2  502    0  0.44086550839E+02 -0.19665327284E+03  0.34613912618E+03  0.40056275208E+03  0.47000000000E+01 0. -1.
         -5    1    1    2    0  502  0.36867467121E+02  0.92883061846E+02  0.11007360792E+03  0.14874394936E+03  0.47000000000E+01 0.  1.
          5    1    3    3  503    0  0.10333564843E+02  0.59838961240E+02  0.10438330255E+03  0.12085300036E+03  0.47000000000E+01 0.  1.
         -5    1    3    3    0  503 -0.91287582803E+02  0.43931249750E+02  0.20706138769E+03  0.23056427683E+03  0.47000000000E+01 0.  1.
<mgrwt>
<rscale>  0 0.47117488E+03</rscale>
<asrwt>0</asrwt>
<pdfrwt beam="1">  1        1 0.10235889E-01 0.47117488E+03</pdfrwt>
<pdfrwt beam="2">  1       -1 0.12833702E+00 0.47117488E+03</pdfrwt>
<totfact> 0.34765145E+02</totfact>
</mgrwt>
</event>
<event>
 8    1  0.3177960E-004  0.9391316E+02  0.7546771E-02  0.1295927E+00
         -2   -1    0    0    0  501 -0.00000000000E+00  0.00000000000E+00  0.11123804255E+03  0.11123804255E+03  0.00000000000E+00 0.  1.
          2   -1    0    0  501    0  0.00000000000E+00 -0.00000000000E+00 -0.82092638883E+02  0.82092638883E+02  0.00000000000E+00 0. -1.
         23    2    1    2    0    0  0.14344414619E+01  0.92795500698E+01  0.41135098074E+02  0.10252695936E+03  0.93442567549E+02 0.  0.
         23    2    1    2    0    0 -0.14344414619E+01 -0.92795500698E+01 -0.11989694410E+02  0.90803722070E+02  0.89517570889E+02 0.  0.
          5    1    3    3  502    0  0.41898422312E+02 -0.10910619980E+02  0.38340944397E+01  0.43718528118E+02  0.47000000000E+01 0. -1.
         -5    1    4    4    0  503  0.38140254446E+02  0.90233604758E+01  0.11419101741E+02  0.41092407182E+02  0.47000000000E+01 0.  1.
          5    1    4    4  503    0 -0.39574695908E+02 -0.18302910546E+02 -0.23408796151E+02  0.49711314888E+02  0.47000000000E+01 0. -1.
         -5    1    3    3    0  502 -0.40463980850E+02  0.20190170050E+02  0.37301003635E+02  0.58808431241E+02  0.47000000000E+01 0.  1.
<mgrwt>
<rscale>  0 0.92921440E+02</rscale>
<asrwt>0</asrwt>
<pdfrwt beam="1">  1        2 0.12629637E-01 0.93913157E+02</pdfrwt>
<pdfrwt beam="2">  1       -2 0.17113545E-01 0.93913157E+02</pdfrwt>
<totfact> 0.11892190E+04</totfact>
</mgrwt>
</event>
<event>
 8    1  0.3177960E-004  0.9942405E+02  0.7546771E-02  0.1281601E+00
         -1   -1    0    0    0  501 -0.00000000000E+00  0.00000000000E+00  0.13140048062E+02  0.13140048062E+02  0.00000000000E+00 0.  1.
          1   -1    0    0  501    0  0.00000000000E+00 -0.00000000000E+00 -0.81978792600E+03  0.81978792600E+03  0.00000000000E+00 0. -1.
         23    2    1    2    0    0  0.19998733091E+02  0.29613247553E+02 -0.52425949551E+03  0.53360393633E+03  0.92780647066E+02 0.  0.
         23    2    1    2    0    0 -0.19998733091E+02 -0.29613247553E+02 -0.28238838242E+03  0.29932403773E+03  0.92600147316E+02 0.  0.
          5    1    4    4  502    0  0.34929557495E+02 -0.22433368221E+02 -0.15064284330E+03  0.15632877609E+03  0.47000000000E+01 0. -1.
         -5    1    4    4    0  502 -0.54928290586E+02 -0.71798793319E+01 -0.13174553912E+03  0.14299526164E+03  0.47000000000E+01 0.  1.
          5    1    3    3  503    0 -0.34860736542E+02  0.63019542578E+01 -0.12943446766E+03  0.13427716484E+03  0.47000000000E+01 0.  1.
         -5    1    3    3    0  503  0.54859469633E+02  0.23311293295E+02 -0.39482502785E+03  0.39932677148E+03  0.47000000000E+01 0. -1.
<mgrwt>
<rscale>  0 0.99381921E+02</rscale>
<asrwt>0</asrwt>
<pdfrwt beam="1">  1        1 0.12612128E+00 0.99424053E+02</pdfrwt>
<pdfrwt beam="2">  1       -1 0.20215448E-02 0.99424053E+02</pdfrwt>
<totfact> 0.13965261E+04</totfact>
</mgrwt>
</event>
<event>
 8    1  0.3177960E-004  0.9947535E+02  0.7546771E-02  0.1281858E+00
          2   -1    0    0  501    0  0.00000000000E+00  0.00000000000E+00  0.11573514021E+04  0.11573514021E+04  0.00000000000E+00 0. -1.
         -2   -1    0    0    0  501 -0.00000000000E+00 -0.00000000000E+00 -0.86968703403E+01  0.86968703403E+01  0.00000000000E+00 0.  1.
         23    2    1    2    0    0 -0.13941411113E+02  0.35232814530E+02  0.66469219000E+03  0.67196842661E+03  0.91050231987E+02 0.  0.
         23    2    1    2    0    0  0.13941411113E+02 -0.35232814530E+02  0.48396234173E+03  0.49407984581E+03  0.91976255925E+02 0.  0.
          5    1    4    4  502    0  0.41177251456E+02 -0.44757224270E+02  0.41062053489E+03  0.41512659374E+03  0.47000000000E+01 0. -1.
         -5    1    3    3    0  503 -0.18761039054E+02 -0.22183374858E+02  0.97693979180E+02  0.10203079082E+03  0.47000000000E+01 0.  1.
          5    1    3    3  503    0  0.48196279403E+01  0.57416189387E+02  0.56699821082E+03  0.56993763579E+03  0.47000000000E+01 0. -1.
         -5    1    4    4    0  502 -0.27235840343E+02  0.95244097408E+01  0.73341806845E+02  0.78953252064E+02  0.47000000000E+01 0.  1.
<mgrwt>
<rscale>  0 0.99260764E+02</rscale>
<asrwt>0</asrwt>
<pdfrwt beam="1">  1        2 0.17805394E+00 0.99475353E+02</pdfrwt>
<pdfrwt beam="2">  1       -2 0.13379810E-02 0.99475353E+02</pdfrwt>
<totfact> 0.27373883E+04</totfact>
</mgrwt>
</event>
<event>
 8    1  0.3177960E-004  0.9731091E+02  0.7546771E-02  0.1287070E+00
          2   -1    0    0  501    0  0.00000000000E+00  0.00000000000E+00  0.86135761494E+03  0.86135761494E+03  0.00000000000E+00 0. -1.
         -2   -1    0    0    0  501 -0.00000000000E+00 -0.00000000000E+00 -0.12583402518E+02  0.12583402518E+02  0.00000000000E+00 0.  1.
         23    2    1    2    0    0 -0.31279380573E+02  0.12482224877E+02  0.59299376623E+03  0.60092513705E+03  0.91297360158E+02 0.  0.
         23    2    1    2    0    0  0.31279380573E+02 -0.12482224877E+02  0.25578044620E+03  0.27301588041E+03  0.89329886996E+02 0.  0.
          5    1    4    4  502    0  0.13038234906E+01 -0.32241815246E+02  0.21895963281E+03  0.22137444615E+03  0.47000000000E+01 0. -1.
         -5    1    4    4    0  502  0.29975557082E+02  0.19759590369E+02  0.36820813383E+02  0.51641434257E+02  0.47000000000E+01 0.  1.
          5    1    3    3  503    0  0.12264812869E+02 -0.28959492381E+02  0.12152739835E+03  0.12561877401E+03  0.47000000000E+01 0. -1.
         -5    1    3    3    0  503 -0.43544193442E+02  0.41441717258E+02  0.47146636788E+03  0.47530636305E+03  0.47000000000E+01 0.  1.
<mgrwt>
<rscale>  0 0.96846736E+02</rscale>
<asrwt>0</asrwt>
<pdfrwt beam="1">  1        2 0.13251651E+00 0.97310912E+02</pdfrwt>
<pdfrwt beam="2">  1       -2 0.19359088E-02 0.97310912E+02</pdfrwt>
<totfact> 0.24044567E+04</totfact>
</mgrwt>
</event>
<event>
 8    1  0.3177960E-004  0.1414070E+03  0.7546771E-02  0.1214761E+00
          1   -1    0    0  501    0  0.00000000000E+00  0.00000000000E+00  0.14501267125E+03  0.14501267125E+03  0.00000000000E+00 0. -1.
         -1   -1    0    0    0  501 -0.00000000000E+00 -0.00000000000E+00 -0.13631666352E+03  0.13631666352E+03  0.00000000000E+00 0.  1.
         23    2    1    2    0    0 -0.32143461797E+02 -0.88717677285E+02 -0.29070652088E+02  0.13496589439E+03  0.92014463189E+02 0.  0.
         23    2    1    2    0    0  0.32143461797E+02  0.88717677285E+02  0.37766659818E+02  0.14636344039E+03  0.10531812612E+03 0.  0.
          5    1    3    3  502    0  0.26379493364E+02 -0.40489429745E+02  0.99346077785E+01  0.49558632174E+02  0.47000000000E+01 0. -1.
         -5    1    4    4    0  503  0.12080209186E+02  0.87700540799E+02  0.66618592932E+02  0.11089383768E+03  0.47000000000E+01 0.  1.
          5    1    4    4  503    0  0.20063252611E+02  0.10171364854E+01 -0.28851933114E+02  0.35469602710E+02  0.47000000000E+01 0. -1.
         -5    1    3    3    0  502 -0.58522955162E+02 -0.48228247540E+02 -0.39005259867E+02  0.85407262214E+02  0.47000000000E+01 0.  1.
<mgrwt>
<rscale>  0 0.13894096E+03</rscale>
<asrwt>0</asrwt>
<pdfrwt beam="1">  1        1 0.22309642E-01 0.14140699E+03</pdfrwt>
<pdfrwt beam="2">  1       -1 0.20971794E-01 0.14140699E+03</pdfrwt>
<totfact> 0.39769813E+03</totfact>
</mgrwt>
</event>
<event>
 8    1  0.3177960E-004  0.1429180E+03  0.7546771E-02  0.1209700E+00
          1   -1    0    0  501    0  0.00000000000E+00  0.00000000000E+00  0.18405257651E+03  0.18405257651E+03  0.00000000000E+00 0. -1.
         -1   -1    0    0    0  501 -0.00000000000E+00 -0.00000000000E+00 -0.23499304825E+03  0.23499304825E+03  0.00000000000E+00 0.  1.
         23    2    1    2    0    0 -0.10366864335E+03  0.35032763123E+02 -0.17806467370E+03  0.22832559549E+03  0.91929687434E+02 0.  0.
         23    2    1    2    0    0  0.10366864335E+03 -0.35032763123E+02  0.12712420196E+03  0.19072002926E+03  0.90769404171E+02 0.  0.
          5    1    4    4  502    0  0.56452452190E+02 -0.54348430814E+02  0.11297420174E+03  0.13757140527E+03  0.47000000000E+01 0. -1.
         -5    1    3    3    0  503 -0.10701562399E+03  0.55830001188E+02 -0.14346602775E+03  0.18754712456E+03  0.47000000000E+01 0.  1.
          5    1    3    3  503    0  0.33469806414E+01 -0.20797238065E+02 -0.34598645940E+02  0.40778470931E+02  0.47000000000E+01 0. -1.
         -5    1    4    4    0  502  0.47216191160E+02  0.19315667691E+02  0.14150000217E+02  0.53148623991E+02  0.47000000000E+01 0.  1.
<mgrwt>
<rscale>  0 0.14273173E+03</rscale>
<asrwt>0</asrwt>
<pdfrwt beam="1">  1        1 0.28315781E-01 0.14291798E+03</pdfrwt>
<pdfrwt beam="2">  1       -1 0.36152776E-01 0.14291798E+03</pdfrwt>
<totfact> 0.11903026E+03</totfact>
</mgrwt>
</event>
<event>
 8    1  0.3177960E-004  0.1082333E+03  0.7546771E-02  0.1266370E+00
          3   -1    0    0  501    0  0.00000000000E+00  0.00000000000E+00  0.13138940824E+03  0.13138940824E+03  0.00000000000E+00 0. -1.
         -3   -1    0    0    0  501 -0.00000000000E+00 -0.00000000000E+00 -0.16025212336E+03  0.16025212336E+03  0.00000000000E+00 0.  1.
         23    2    1    2    0    0  0.37328096853E+02 -0.28780141035E+02 -0.11454041055E+03  0.15758791366E+03  0.97430803902E+02 0.  0.
         23    2    1    2    0    0 -0.37328096853E+02  0.28780141035E+02  0.85677695432E+02  0.13405361794E+03  0.91695265172E+02 0.  0.
          5    1    4    4  502    0 -0.51743072029E+02  0.47220483811E+02  0.35916140584E+02  0.78861769881E+02  0.47000000000E+01 0. -1.
         -5    1    3    3    0  503  0.23504213185E+01 -0.60307867742E+02 -0.70726966653E+02  0.93096494048E+02  0.47000000000E+01 0.  1.
          5    1    3    3  503    0  0.34977675535E+02  0.31527726707E+02 -0.43813443899E+02  0.64491419611E+02  0.47000000000E+01 0. -1.
         -5    1    4    4    0  502  0.14414975176E+02 -0.18440342775E+02  0.49761554848E+02  0.55191848057E+02  0.47000000000E+01 0.  1.
<mgrwt>
<rscale>  0 0.10692661E+03</rscale>
<asrwt>0</asrwt>
<pdfrwt beam="1">  1        3 0.20213755E-01 0.10823329E+03</pdfrwt>
<pdfrwt beam="2">  1       -3 0.24654173E-01 0.10823329E+03</pdfrwt>
<totfact> 0.75641498E+02</totfact>
</mgrwt>
</event>
<event>
 8    1  0.3177960E-004  0.1027629E+03  0.7546771E-02  0.1274903E+00
         -1   -1    0    0    0  501 -0.00000000000E+00  0.00000000000E+00  0.23156281943E+03  0.23156281943E+03  0.00000000000E+00 0.  1.
          1   -1    0    0  501    0  0.00000000000E+00 -0.00000000000E+00 -0.62883699383E+02  0.62883699383E+02  0.00000000000E+00 0. -1.
         23    2    1    2    0    0 -0.46597164439E+02 -0.67582917407E+01  0.16230123442E+03  0.19209867908E+03  0.91341346431E+02 0.  0.
         23    2    1    2    0    0  0.46597164439E+02  0.67582917407E+01  0.63778856250E+01  0.10234783973E+03  0.90650055886E+02 0.  0.
          5    1    4    4  502    0  0.66102305667E+02  0.13898152250E+02 -0.17916286361E+02  0.70041107697E+02  0.47000000000E+01 0. -1.
         -5    1    3    3    0  503 -0.73782868896E+01  0.39712406266E+02  0.79066394229E+02  0.88910623804E+02  0.47000000000E+01 0.  1.
          5    1    3    3  503    0 -0.39218877549E+02 -0.46470698006E+02  0.83234840192E+02  0.10318805527E+03  0.47000000000E+01 0. -1.
         -5    1    4    4    0  502 -0.19505141228E+02 -0.71398605098E+01  0.24294171986E+02  0.32306732037E+02  0.47000000000E+01 0.  1.
<mgrwt>
<rscale>  0 0.10260905E+03</rscale>
<asrwt>0</asrwt>
<pdfrwt beam="1">  1        1 0.96744154E-02 0.10276289E+03</pdfrwt>
<pdfrwt beam="2">  1       -1 0.35625049E-01 0.10276289E+03</pdfrwt>
<totfact> 0.47638900E+03</totfact>
</mgrwt>
</event>
<event>
 8    1  0.3177960E-004  0.1521910E+03  0.7546771E-02  0.1198264E+00
         -3   -1    0    0    0  501 -0.00000000000E+00  0.00000000000E+00  0.23354175960E+03  0.23354175960E+03  0.00000000000E+00 0.  1.
          3   -1    0    0  501    0  0.00000000000E+00 -0.00000000000E+00 -0.98253324887E+02  0.98253324887E+02  0.00000000000E+00 0. -1.
         23    2    1    2    0    0 -0.90008688006E+02 -0.76880409646E+02  0.63304773918E+02  0.16343902679E+03  0.93234434489E+02 0.  0.
         23    2    1    2    0    0  0.90008688006E+02  0.76880409646E+02  0.71983660797E+02  0.16835605770E+03  0.95655388960E+02 0.  0.
          5    1    3    3  502    0 -0.13559342940E+02 -0.72544279278E+02  0.32214944408E+02  0.80662388262E+02  0.47000000000E+01 0. -1.
         -5    1    4    4    0  503  0.51274721610E+02  0.85890111705E+02  0.79188867882E+02  0.12766822299E+03  0.47000000000E+01 0.  1.
          5    1    4    4  503    0  0.38733966396E+02 -0.90097020583E+01 -0.72052070850E+01  0.40687834706E+02  0.47000000000E+01 0. -1.
         -5    1    3    3    0  502 -0.76449345066E+02 -0.43361303681E+01  0.31089829510E+02  0.82776638532E+02  0.47000000000E+01 0.  1.
<mgrwt>
<rscale>  0 0.15181217E+03</rscale>
<asrwt>0</asrwt>
<pdfrwt beam="1">  1        3 0.15115896E-01 0.15219105E+03</pdfrwt>
<pdfrwt beam="2">  1       -3 0.35929501E-01 0.15219105E+03</pdfrwt>
<totfact> 0.65826364E+02</totfact>
</mgrwt>
</event>
<event>
 8    1  0.3177960E-004  0.1050245E+03  0.7546771E-02  0.1270346E+00
          1   -1    0    0  501    0  0.00000000000E+00  0.00000000000E+00  0.28040144097E+03  0.28040144097E+03  0.00000000000E+00 0. -1.
         -1   -1    0    0    0  501 -0.00000000000E+00 -0.00000000000E+00 -0.40526213310E+02  0.40526213310E+02  0.00000000000E+00 0.  1.
         23    2    1    2    0    0 -0.27747045196E+02  0.42471910885E+02  0.14942656316E+03  0.18232350352E+03  0.91322507788E+02 0.  0.
         23    2    1    2    0    0  0.27747045196E+02 -0.42471910885E+02  0.90448664502E+02  0.13860415076E+03  0.91958620939E+02 0.  0.
          5    1    4    4  502    0  0.27837387805E+02 -0.68287509806E+02  0.83415969809E+02  0.11143795662E+03  0.47000000000E+01 0. -1.
         -5    1    3    3    0  503  0.11980505150E+02  0.19909069057E+02 -0.22810885147E+01  0.23815895934E+02  0.47000000000E+01 0.  1.
          5    1    3    3  503    0 -0.39727550346E+02  0.22562841829E+02  0.15170765167E+03  0.15850760759E+03  0.47000000000E+01 0. -1.
         -5    1    4    4    0  502 -0.90342608770E-01  0.25815598921E+02  0.70326946923E+01  0.27166194140E+02  0.47000000000E+01 0.  1.
<mgrwt>
<rscale>  0 0.10488511E+03</rscale>
<asrwt>0</asrwt>
<pdfrwt beam="1">  1        1 0.43138682E-01 0.10502452E+03</pdfrwt>
<pdfrwt beam="2">  1       -1 0.62348022E-02 0.10502452E+03</pdfrwt>
<totfact> 0.11109471E+04</totfact>
</mgrwt>
</event>
<event>
 8    1  0.3177960E-004  0.2306324E+03  0.7546771E-02  0.1126525E+00
         -2   -1    0    0    0  501 -0.00000000000E+00  0.00000000000E+00  0.47812910257E+02  0.47812910257E+02  0.00000000000E+00 0.  1.
          2   -1    0    0  501    0  0.00000000000E+00 -0.00000000000E+00 -0.11129354817E+04  0.11129354817E+04  0.00000000000E+00 0. -1.
         23    2    1    2    0    0  0.15743940520E+03 -0.14253156097E+03 -0.58819549771E+03  0.63179525296E+03  0.89938234091E+02 0.  0.
         23    2    1    2    0    0 -0.15743940520E+03  0.14253156097E+03 -0.47692707373E+03  0.52895313899E+03  0.85026921707E+02 0.  0.
          5    1    4    4  502    0 -0.80699128222E+02  0.28771520537E+02 -0.24304188669E+03  0.25774327998E+03  0.47000000000E+01 0. -1.
         -5    1    4    4    0  502 -0.76740276978E+02  0.11376004043E+03 -0.23388518704E+03  0.27120985901E+03  0.47000000000E+01 0.  1.
          5    1    3    3  503    0  0.16161445387E+02 -0.33885633772E+02 -0.21374749584E+03  0.21707028924E+03  0.47000000000E+01 0. -1.
         -5    1    3    3    0  503  0.14127795981E+03 -0.10864592720E+03 -0.37444800187E+03  0.41472496371E+03  0.47000000000E+01 0.  1.
<mgrwt>
<rscale>  0 0.23016333E+03</rscale>
<asrwt>0</asrwt>
<pdfrwt beam="1">  1        2 0.17122084E+00 0.23063239E+03</pdfrwt>
<pdfrwt beam="2">  1       -2 0.73558325E-02 0.23063239E+03</pdfrwt>
<totfact> 0.24160678E+03</totfact>
</mgrwt>
</event>
<event>
 8    1  0.3177960E-004  0.1774957E+03  0.7546771E-02  0.1171710E+00
         -2   -1    0    0    0  501 -0.00000000000E+00  0.00000000000E+00  0.34016401523E+02  0.34016401523E+02  0.00000000000E+00 0.  1.
          2   -1    0    0  501    0  0.00000000000E+00 -0.00000000000E+00 -0.89856891023E+03  0.89856891023E+03  0.00000000000E+00 0. -1.
         23    2    1    2    0    0  0.15037041700E+03 -0.11378890270E+02 -0.44987612503E+03  0.48151853376E+03  0.82041629843E+02 0.  0.
         23    2    1    2    0    0 -0.15037041700E+03  0.11378890270E+02 -0.41467638367E+03  0.45106677799E+03  0.93616203627E+02 0.  0.
          5    1    4    4  502    0 -0.13753858572E+03 -0.15341128120E+02 -0.27143387880E+03  0.30471405175E+03  0.47000000000E+01 0. -1.
         -5    1    4    4    0  502 -0.12831831278E+02  0.26720018389E+02 -0.14324250487E+03  0.14635272624E+03  0.47000000000E+01 0.  1.
          5    1    3    3  503    0  0.74692989430E+01  0.22929303156E+02 -0.59823325147E+02  0.64671969211E+02  0.47000000000E+01 0. -1.
         -5    1    3    3    0  503  0.14290111805E+03 -0.34308193425E+02 -0.39005279988E+03  0.41684656455E+03  0.47000000000E+01 0.  1.
<mgrwt>
<rscale>  0 0.17602175E+03</rscale>
<asrwt>0</asrwt>
<pdfrwt beam="1">  1        2 0.13824134E+00 0.17749573E+03</pdfrwt>
<pdfrwt beam="2">  1       -2 0.52332938E-02 0.17749573E+03</pdfrwt>
<totfact> 0.54652621E+03</totfact>
</mgrwt>
</event>
<event>
 8    1  0.3177960E-004  0.1020494E+03  0.7546771E-02  0.1276342E+00
          3   -1    0    0  501    0  0.00000000000E+00  0.00000000000E+00  0.15635978857E+03  0.15635978857E+03  0.00000000000E+00 0. -1.
         -3   -1    0    0    0  501 -0.00000000000E+00 -0.00000000000E+00 -0.66984293423E+02  0.66984293423E+02  0.00000000000E+00 0.  1.
         23    2    1    2    0    0  0.35891418409E+02 -0.21305007366E+02  0.56698170935E+02  0.11674229746E+03  0.93123488842E+02 0.  0.
         23    2    1    2    0    0 -0.35891418409E+02  0.21305007366E+02  0.32677324211E+02  0.10660178453E+03  0.92488030004E+02 0.  0.
          5    1    3    3  502    0  0.42732858136E+02  0.25041048269E+01  0.74379437924E+02  0.85946253503E+02  0.47000000000E+01 0. -1.
         -5    1    3    3    0  502 -0.68414397271E+01 -0.23809112192E+02 -0.17681266988E+02  0.30796043954E+02  0.47000000000E+01 0.  1.
          5    1    4    4  503    0  0.12735781989E+02  0.45121593942E+02  0.15038214286E+02  0.49461058133E+02  0.47000000000E+01 0. -1.
         -5    1    4    4    0  503 -0.48627200397E+02 -0.23816586577E+02  0.17639109925E+02  0.57140726401E+02  0.47000000000E+01 0.  1.
<mgrwt>
<rscale>  0 0.10190421E+03</rscale>
<asrwt>0</asrwt>
<pdfrwt beam="1">  1        3 0.24055352E-01 0.10204941E+03</pdfrwt>
<pdfrwt beam="2">  1       -3 0.10305276E-01 0.10204941E+03</pdfrwt>
<totfact> 0.24510655E+03</totfact>
</mgrwt>
</event>
<event>
 8    1  0.3177960E-004  0.9603802E+02  0.7546771E-02  0.1292629E+00
          1   -1    0    0  501    0  0.00000000000E+00  0.00000000000E+00  0.81061937732E+02  0.81061937732E+02  0.00000000000E+00 0. -1.
         -1   -1    0    0    0  501 -0.00000000000E+00 -0.00000000000E+00 -0.10914464551E+03  0.10914464551E+03  0.00000000000E+00 0.  1.
         23    2    1    2    0    0 -0.28072544055E+02 -0.85834765463E+01 -0.29286111961E+02  0.94161027511E+02  0.84539215449E+02 0.  0.
         23    2    1    2    0    0  0.28072544055E+02  0.85834765463E+01  0.12034041819E+01  0.96045555733E+02  0.91441548516E+02 0.  0.
          5    1    4    4  502    0 -0.23412712761E+02  0.28813633503E+02  0.12375608629E+02  0.39416066311E+02  0.47000000000E+01 0. -1.
         -5    1    3    3    0  503  0.22881268349E+02 -0.19353652804E+02  0.62049166222E+01  0.30962999021E+02  0.47000000000E+01 0.  1.
          5    1    3    3  503    0 -0.50953812404E+02  0.10770176258E+02 -0.35491028583E+02  0.63198028490E+02  0.47000000000E+01 0. -1.
         -5    1    4    4    0  502  0.51485256817E+02 -0.20230156956E+02 -0.11172204447E+02  0.56629489422E+02  0.47000000000E+01 0.  1.
<mgrwt>
<rscale>  0 0.94357650E+02</rscale>
<asrwt>0</asrwt>
<pdfrwt beam="1">  1        1 0.12471067E-01 0.96038016E+02</pdfrwt>
<pdfrwt beam="2">  1       -1 0.16791484E-01 0.96038016E+02</pdfrwt>
<totfact> 0.11578353E+04</totfact>
</mgrwt>
</event>
<event>
 8    1  0.3177960E-004  0.9691776E+02  0.7546771E-02  0.1288158E+00
          1   -1    0    0  501    0  0.00000000000E+00  0.00000000000E+00  0.17445593485E+03  0.17445593485E+03  0.00000000000E+00 0. -1.
         -1   -1    0    0    0  501 -0.00000000000E+00 -0.00000000000E+00 -0.79693950972E+02  0.79693950972E+02  0.00000000000E+00 0.  1.
         23    2    1    2    0    0 -0.42093585310E+01  0.22170381289E+02 -0.27069336032E+02  0.98470974826E+02  0.91948569452E+02 0.  0.
         23    2    1    2    0    0  0.42093585310E+01 -0.22170381289E+02  0.12183131991E+03  0.15567891100E+03  0.94253956479E+02 0.  0.
          5    1    3    3  502    0 -0.38430792395E+02 -0.47235084034E+01  0.10924690932E+02  0.40505261482E+02  0.47000000000E+01 0. -1.
         -5    1    3    3    0  502  0.34221433864E+02  0.26893889693E+02 -0.37994026964E+02  0.57965713344E+02  0.47000000000E+01 0.  1.
          5    1    4    4  503    0  0.19640394742E+02 -0.55141331578E+02  0.61304107037E+02  0.84891666808E+02  0.47000000000E+01 0. -1.
         -5    1    4    4    0  503 -0.15431036211E+02  0.32970950289E+02  0.60527212875E+02  0.70787244189E+02  0.47000000000E+01 0.  1.
<mgrwt>
<rscale>  0 0.96352716E+02</rscale>
<asrwt>0</asrwt>
<pdfrwt beam="1">  1        1 0.26839375E-01 0.96917763E+02</pdfrwt>
<pdfrwt beam="2">  1       -1 0.12260608E-01 0.96917763E+02</pdfrwt>
<totfact> 0.71480108E+03</totfact>
</mgrwt>
</event>
<event>
 8    1  0.3177960E-004  0.9742511E+02  0.7546771E-02  0.1287861E+00
         -4   -1    0    0    0  501 -0.00000000000E+00  0.00000000000E+00  0.16527142061E+03  0.16527142061E+03  0.00000000000E+00 0.  1.
          4   -1    0    0  501    0  0.00000000000E+00 -0.00000000000E+00 -0.10957593771E+03  0.10957593771E+03  0.00000000000E+00 0. -1.
         23    2    1    2    0    0  0.32681092535E+02 -0.30788263810E+01  0.12485352661E+03  0.15836683778E+03  0.91728508212E+02 0.  0.
         23    2    1    2    0    0 -0.32681092535E+02  0.30788263810E+01 -0.69158043713E+02  0.11648052054E+03  0.87791478371E+02 0.  0.
          5    1    3    3  502    0  0.36017857958E+02  0.25709072678E+02  0.12079126155E+03  0.12872785782E+03  0.47000000000E+01 0. -1.
         -5    1    3    3    0  502 -0.33367654227E+01 -0.28787899059E+02  0.40622650558E+01  0.29638979960E+02  0.47000000000E+01 0.  1.
          5    1    4    4  503    0 -0.45635692454E+02  0.31946839592E+02 -0.23295079754E+02  0.60563749276E+02  0.47000000000E+01 0.  1.
         -5    1    4    4    0  503  0.12954599919E+02 -0.28868013211E+02 -0.45862963958E+02  0.55916771266E+02  0.47000000000E+01 0. -1.
<mgrwt>
<rscale>  0 0.96487297E+02</rscale>
<asrwt>0</asrwt>
<pdfrwt beam="1">  1        4 0.16857837E-01 0.97425111E+02</pdfrwt>
<pdfrwt beam="2">  1       -4 0.25426372E-01 0.97425111E+02</pdfrwt>
<totfact> 0.68528191E+02</totfact>
</mgrwt>
</event>
<event>
 8    1  0.3177960E-004  0.1535332E+03  0.7546771E-02  0.1196403E+00
          2   -1    0    0  501    0  0.00000000000E+00  0.00000000000E+00  0.14981920851E+04  0.14981920851E+04  0.00000000000E+00 0. -1.
         -2   -1    0    0    0  501 -0.00000000000E+00 -0.00000000000E+00 -0.16204153754E+02  0.16204153754E+02  0.00000000000E+00 0.  1.
         23    2    1    2    0    0  0.73982683296E+02 -0.98144911235E+02  0.88092406949E+03  0.89420336304E+03  0.92014005619E+02 0.  0.
         23    2    1    2    0    0 -0.73982683296E+02  0.98144911235E+02  0.60106386190E+03  0.62019287586E+03  0.90860201176E+02 0.  0.
          5    1    4    4  502    0  0.61580231916E+01  0.33778900912E+02  0.30075738843E+03  0.30274747248E+03  0.47000000000E+01 0. -1.
         -5    1    4    4    0  502 -0.80140706487E+02  0.64366010323E+02  0.30030647347E+03  0.31744540338E+03  0.47000000000E+01 0.  1.
          5    1    3    3  503    0  0.62267288718E+02 -0.11059128818E+02  0.44402854541E+03  0.44853423360E+03  0.47000000000E+01 0. -1.
         -5    1    3    3    0  503  0.11715394578E+02 -0.87085782417E+02  0.43689552409E+03  0.44566912944E+03  0.47000000000E+01 0.  1.
<mgrwt>
<rscale>  0 0.15336072E+03</rscale>
<asrwt>0</asrwt>
<pdfrwt beam="1">  1        2 0.23049098E+00 0.15353318E+03</pdfrwt>
<pdfrwt beam="2">  1       -2 0.24929479E-02 0.15353318E+03</pdfrwt>
<totfact> 0.75061095E+03</totfact>
</mgrwt>
</event>
<event>
 8    1  0.3177960E-004  0.1072336E+03  0.7546771E-02  0.1266669E+00
         -1   -1    0    0    0  501 -0.00000000000E+00  0.00000000000E+00  0.82106230982E+02  0.82106230982E+02  0.00000000000E+00 0.  1.
          1   -1    0    0  501    0  0.00000000000E+00 -0.00000000000E+00 -0.20507186802E+03  0.20507186802E+03  0.00000000000E+00 0. -1.
         23    2    1    2    0    0  0.51001654275E+01  0.52870758419E+02  0.20484408702E+02  0.10917255046E+03  0.93154205433E+02 0.  0.
         23    2    1    2    0    0 -0.51001654275E+01 -0.52870758419E+02 -0.14345004574E+03  0.17800554855E+03  0.91031483058E+02 0.  0.
          5    1    3    3  502    0 -0.31623582979E+01  0.27466508579E+02 -0.36518863420E+02  0.46044836725E+02  0.47000000000E+01 0. -1.
         -5    1    3    3    0  502  0.82625237254E+01  0.25404249839E+02  0.57003272122E+02  0.63127713730E+02  0.47000000000E+01 0.  1.
          5    1    4    4  503    0  0.14024039362E+02 -0.72040304509E+02 -0.78960796092E+02  0.10790447847E+03  0.47000000000E+01 0. -1.
         -5    1    4    4    0  503 -0.19124204789E+02  0.19169546091E+02 -0.64489249653E+02  0.70101070084E+02  0.47000000000E+01 0.  1.
<mgrwt>
<rscale>  0 0.10677087E+03</rscale>
<asrwt>0</asrwt>
<pdfrwt beam="1">  1        1 0.31549518E-01 0.10723355E+03</pdfrwt>
<pdfrwt beam="2">  1       -1 0.12631728E-01 0.10723355E+03</pdfrwt>
<totfact> 0.56352903E+03</totfact>
</mgrwt>
</event>
<event>
 8    1  0.3177960E-004  0.9537238E+02  0.7546771E-02  0.1291913E+00
         -2   -1    0    0    0  501 -0.00000000000E+00  0.00000000000E+00  0.29315247954E+02  0.29315247954E+02  0.00000000000E+00 0.  1.
          2   -1    0    0  501    0  0.00000000000E+00 -0.00000000000E+00 -0.31646354393E+03  0.31646354393E+03  0.00000000000E+00 0. -1.
         23    2    1    2    0    0 -0.28743038073E+01 -0.21920059999E+02 -0.10378507507E+03  0.13909555407E+03  0.89930421453E+02 0.  0.
         23    2    1    2    0    0  0.28743038073E+01  0.21920059999E+02 -0.18336322091E+03  0.20668323782E+03  0.92774669809E+02 0.  0.
          5    1    4    4  502    0  0.39308427086E+02  0.26072589206E+02 -0.14844524558E+03  0.15583007824E+03  0.47000000000E+01 0. -1.
         -5    1    3    3    0  503 -0.20575029016E+02 -0.48778409740E+02 -0.88361645633E+02  0.10311418668E+03  0.47000000000E+01 0.  1.
          5    1    3    3  503    0  0.17700725209E+02  0.26858349741E+02 -0.15423429433E+02  0.35981367390E+02  0.47000000000E+01 0. -1.
         -5    1    4    4    0  502 -0.36434123278E+02 -0.41525292072E+01 -0.34917975329E+02  0.50853159577E+02  0.47000000000E+01 0.  1.
<mgrwt>
<rscale>  0 0.94673626E+02</rscale>
<asrwt>0</asrwt>
<pdfrwt beam="1">  1        2 0.48686698E-01 0.95372376E+02</pdfrwt>
<pdfrwt beam="2">  1       -2 0.45100382E-02 0.95372376E+02</pdfrwt>
<totfact> 0.21304429E+04</totfact>
</mgrwt>
</event>
<event>
 8    1  0.3177960E-004  0.1060309E+03  0.7546771E-02  0.1278763E+00
          2   -1    0    0  501    0  0.00000000000E+00  0.00000000000E+00  0.90109152016E+03  0.90109152016E+03  0.00000000000E+00 0. -1.
         -2   -1    0    0    0  501 -0.00000000000E+00 -0.00000000000E+00 -0.12042550648E+02  0.12042550648E+02  0.00000000000E+00 0.  1.
         23    2    1    2    0    0 -0.38340148174E+01 -0.66729620943E+01  0.23145163583E+03  0.24704338259E+03  0.86031070319E+02 0.  0.
         23    2    1    2    0    0  0.38340148174E+01  0.66729620943E+01  0.65759733368E+03  0.66609068822E+03  0.10575123437E+03 0.  0.
          5    1    3    3  502    0  0.74495544602E+01 -0.33671550877E+02  0.20299372604E+03  0.20595584967E+03  0.47000000000E+01 0. -1.
         -5    1    3    3    0  502 -0.11283569278E+02  0.26998588783E+02  0.28457909781E+02  0.41087532915E+02  0.47000000000E+01 0.  1.
          5    1    4    4  503    0  0.43623329203E+02 -0.23042935114E+02  0.44343018395E+03  0.44619097901E+03  0.47000000000E+01 0. -1.
         -5    1    4    4    0  503 -0.39789314386E+02  0.29715897209E+02  0.21416714973E+03  0.21989970921E+03  0.47000000000E+01 0.  1.
<mgrwt>
<rscale>  0 0.10073279E+03</rscale>
<asrwt>0</asrwt>
<pdfrwt beam="1">  1        2 0.13862941E+00 0.10603090E+03</pdfrwt>
<pdfrwt beam="2">  1       -2 0.18527008E-02 0.10603090E+03</pdfrwt>
<totfact> 0.24366973E+04</totfact>
</mgrwt>
</event>
<event>
 8    1  0.3177960E-004  0.1831543E+03  0.7546771E-02  0.1166044E+00
          2   -1    0    0  501    0  0.00000000000E+00  0.00000000000E+00  0.14917273871E+04  0.14917273871E+04  0.00000000000E+00 0. -1.
         -2   -1    0    0    0  501 -0.00000000000E+00 -0.00000000000E+00 -0.23306165618E+02  0.23306165618E+02  0.00000000000E+00 0.  1.
         23    2    1    2    0    0  0.97368297562E+02 -0.11640836826E+03  0.53481821874E+03  0.56363455214E+03  0.92854120570E+02 0.  0.
         23    2    1    2    0    0 -0.97368297562E+02  0.11640836826E+03  0.93360300273E+03  0.95139900056E+03  0.10253778810E+03 0.  0.
          5    1    3    3  502    0  0.27683568704E+02 -0.38848079863E+02  0.33292745322E+03  0.33636042037E+03  0.47000000000E+01 0. -1.
         -5    1    3    3    0  502  0.69684728857E+02 -0.77560288394E+02  0.20189076552E+03  0.22727413178E+03  0.47000000000E+01 0.  1.
          5    1    4    4  503    0 -0.11802362206E+03  0.87863150677E+02  0.72604174865E+03  0.74081591465E+03  0.47000000000E+01 0. -1.
         -5    1    4    4    0  503  0.20655324501E+02  0.28545217580E+02  0.20756125408E+03  0.21058308591E+03  0.47000000000E+01 0.  1.
<mgrwt>
<rscale>  0 0.18182991E+03</rscale>
<asrwt>0</asrwt>
<pdfrwt beam="1">  1        2 0.22949645E+00 0.18315428E+03</pdfrwt>
<pdfrwt beam="2">  1       -2 0.35855651E-02 0.18315428E+03</pdfrwt>
<totfact> 0.44412029E+03</totfact>
</mgrwt>
</event>
<event>
 8    1  0.3177960E-004  0.9655140E+02  0.7546771E-02  0.1297101E+00
          3   -1    0    0  501    0  0.00000000000E+00  0.00000000000E+00  0.55654195762E+02  0.55654195762E+02  0.00000000000E+00 0. -1.
         -3   -1    0    0    0  501 -0.00000000000E+00 -0.00000000000E+00 -0.16151338208E+03  0.16151338208E+03  0.00000000000E+00 0.  1.
         23    2    1    2    0    0  0.28588083257E+02 -0.16314186833E+02 -0.10957152395E+02  0.81784534906E+02  0.74062269509E+02 0.  0.
         23    2    1    2    0    0 -0.28588083257E+02  0.16314186833E+02 -0.94902033921E+02  0.13538304293E+03  0.90767511123E+02 0.  0.
          5    1    3    3  502    0  0.52253872592E+02 -0.16099157128E+01 -0.37442050354E+01  0.52622885713E+02  0.47000000000E+01 0. -1.
         -5    1    4    4    0  503 -0.14258552696E+02 -0.35270402491E+02 -0.60335985827E+02  0.71483066544E+02  0.47000000000E+01 0.  1.
          5    1    4    4  503    0 -0.14329530561E+02  0.51584589324E+02 -0.34566048095E+02  0.63899976390E+02  0.47000000000E+01 0. -1.
         -5    1    3    3    0  502 -0.23665789335E+02 -0.14704271120E+02 -0.72129473594E+01  0.29161649192E+02  0.47000000000E+01 0.  1.
<mgrwt>
<rscale>  0 0.92417336E+02</rscale>
<asrwt>0</asrwt>
<pdfrwt beam="1">  1        3 0.85621840E-02 0.96551397E+02</pdfrwt>
<pdfrwt beam="2">  1       -3 0.24848213E-01 0.96551397E+02</pdfrwt>
<totfact> 0.30952072E+03</totfact>
</mgrwt>
</event>
<event>
 8    1  0.3177960E-004  0.1146454E+03  0.7546771E-02  0.1252808E+00
          2   -1    0    0  501    0  0.00000000000E+00  0.00000000000E+00  0.71391820654E+02  0.71391820654E+02  0.00000000000E+00 0.  1.
         -2   -1    0    0    0  501 -0.00000000000E+00 -0.00000000000E+00 -0.25921909466E+03  0.25921909466E+03  0.00000000000E+00 0. -1.
         23    2    1    2    0    0  0.60529195781E+02  0.32613599164E+02 -0.18459033187E+03  0.21729507632E+03  0.91739463600E+02 0.  0.
         23    2    1    2    0    0 -0.60529195781E+02 -0.32613599164E+02 -0.32369421352E+01  0.11331583899E+03  0.90014283198E+02 0.  0.
          5    1    4    4  502    0 -0.19475551167E+02  0.27712222926E+02 -0.18113212419E+02  0.38696806804E+02  0.47000000000E+01 0. -1.
         -5    1    3    3    0  503 -0.11449507415E+01  0.37190224537E+02 -0.22479166089E+02  0.43724439635E+02  0.47000000000E+01 0.  1.
          5    1    3    3  503    0  0.61674146523E+02 -0.45766253728E+01 -0.16211116578E+03  0.17357063669E+03  0.47000000000E+01 0. -1.
         -5    1    4    4    0  502 -0.41053644614E+02 -0.60325822090E+02  0.14876270284E+02  0.74619032187E+02  0.47000000000E+01 0.  1.
<mgrwt>
<rscale>  0 0.11429986E+03</rscale>
<asrwt>0</asrwt>
<pdfrwt beam="1">  1        2 0.10983357E-01 0.11464536E+03</pdfrwt>
<pdfrwt beam="2">  1       -2 0.39879860E-01 0.11464536E+03</pdfrwt>
<totfact> 0.32406354E+03</totfact>
</mgrwt>
</event>
<event>
 8    1  0.3177960E-004  0.1032427E+03  0.7546771E-02  0.1273648E+00
          1   -1    0    0  501    0  0.00000000000E+00  0.00000000000E+00  0.72293626595E+03  0.72293626595E+03  0.00000000000E+00 0. -1.
         -1   -1    0    0    0  501 -0.00000000000E+00 -0.00000000000E+00 -0.17835989202E+02  0.17835989202E+02  0.00000000000E+00 0.  1.
         23    2    1    2    0    0  0.45497600947E+02  0.14310887862E+02  0.50687718615E+03  0.51727404352E+03  0.91504759722E+02 0.  0.
         23    2    1    2    0    0 -0.45497600947E+02 -0.14310887862E+02  0.19822309059E+03  0.22349821163E+03  0.91565406978E+02 0.  0.
          5    1    4    4  502    0 -0.40583475730E+02 -0.33984259604E+02  0.19539380559E+03  0.20249142616E+03  0.47000000000E+01 0. -1.
         -5    1    3    3    0  503  0.64443775268E+02 -0.16406622065E+02  0.34002018314E+03  0.34649385617E+03  0.47000000000E+01 0.  1.
          5    1    3    3  503    0 -0.18946174320E+02  0.30717509927E+02  0.16685700301E+03  0.17078018735E+03  0.47000000000E+01 0. -1.
         -5    1    4    4    0  502 -0.49141252178E+01  0.19673371742E+02  0.28292849999E+01  0.21006785474E+02  0.47000000000E+01 0.  1.
<mgrwt>
<rscale>  0 0.10322926E+03</rscale>
<asrwt>0</asrwt>
<pdfrwt beam="1">  1        1 0.11122094E+00 0.10324271E+03</pdfrwt>
<pdfrwt beam="2">  1       -1 0.27439989E-02 0.10324271E+03</pdfrwt>
<totfact> 0.10857671E+04</totfact>
</mgrwt>
</event>
<event>
 8    1  0.3177960E-004  0.9278622E+02  0.7546771E-02  0.1297800E+00
         -3   -1    0    0    0  501 -0.00000000000E+00  0.00000000000E+00  0.96971742315E+02  0.96971742315E+02  0.00000000000E+00 0.  1.
          3   -1    0    0  501    0  0.00000000000E+00 -0.00000000000E+00 -0.18683877428E+03  0.18683877428E+03  0.00000000000E+00 0. -1.
         23    2    1    2    0    0  0.53609661806E+01 -0.29694618652E+01 -0.14933707011E+03  0.17581479565E+03  0.92583606525E+02 0.  0.
         23    2    1    2    0    0 -0.53609661806E+01  0.29694618652E+01  0.59470038145E+02  0.10799572095E+03  0.89937937735E+02 0.  0.
          5    1    4    4  502    0 -0.13918057519E+02  0.43858232170E+02  0.41983511466E+02  0.62465687295E+02  0.47000000000E+01 0. -1.
         -5    1    4    4    0  502  0.85570913381E+01 -0.40888770305E+02  0.17486526679E+02  0.45530033654E+02  0.47000000000E+01 0.  1.
          5    1    3    3  503    0 -0.19616242902E+02 -0.97010661058E+01 -0.14779218889E+03  0.14947751927E+03  0.47000000000E+01 0. -1.
         -5    1    3    3    0  503  0.24977209083E+02  0.67316042406E+01 -0.15448812219E+01  0.26337276382E+02  0.47000000000E+01 0.  1.
<mgrwt>
<rscale>  0 0.92119126E+02</rscale>
<asrwt>0</asrwt>
<pdfrwt beam="1">  1        3 0.28744427E-01 0.92786216E+02</pdfrwt>
<pdfrwt beam="2">  1       -3 0.14918730E-01 0.92786216E+02</pdfrwt>
<totfact> 0.94169601E+02</totfact>
</mgrwt>
</event>
<event>
 8    1  0.3177960E-004  0.1465406E+03  0.7546771E-02  0.1205745E+00
          2   -1    0    0  501    0  0.00000000000E+00  0.00000000000E+00  0.79871363103E+03  0.79871363103E+03  0.00000000000E+00 0. -1.
         -2   -1    0    0    0  501 -0.00000000000E+00 -0.00000000000E+00 -0.46112678773E+02  0.46112678773E+02  0.00000000000E+00 0.  1.
         23    2    1    2    0    0  0.93737213920E+02 -0.64673796761E+02  0.65510096503E+03  0.67129086913E+03  0.92221425588E+02 0.  0.
         23    2    1    2    0    0 -0.93737213920E+02  0.64673796761E+02  0.97499987223E+02  0.17353544067E+03  0.87401009135E+02 0.  0.
          5    1    4    4  502    0 -0.14525204752E+02  0.28389271992E+02  0.77618249039E+02  0.84045314689E+02  0.47000000000E+01 0. -1.
         -5    1    3    3    0  503  0.13757136592E+02 -0.61960958085E+02  0.35542295754E+03  0.36107615247E+03  0.47000000000E+01 0. -1.
          5    1    3    3  503    0  0.79980077328E+02 -0.27128386761E+01  0.29967800749E+03  0.31021471666E+03  0.47000000000E+01 0.  1.
         -5    1    4    4    0  502 -0.79212009168E+02  0.36284524769E+02  0.19881738184E+02  0.89490125977E+02  0.47000000000E+01 0.  1.
<mgrwt>
<rscale>  0 0.14578869E+03</rscale>
<asrwt>0</asrwt>
<pdfrwt beam="1">  1        2 0.12287901E+00 0.14654063E+03</pdfrwt>
<pdfrwt beam="2">  1       -2 0.70942589E-02 0.14654063E+03</pdfrwt>
<totfact> 0.39699229E+03</totfact>
</mgrwt>
</event>
<event>
 8    1  0.3177960E-004  0.9492153E+02  0.7546771E-02  0.1291678E+00
         -1   -1    0    0    0  501 -0.00000000000E+00  0.00000000000E+00  0.33618777593E+03  0.33618777593E+03  0.00000000000E+00 0.  1.
          1   -1    0    0  501    0  0.00000000000E+00 -0.00000000000E+00 -0.30808620137E+02  0.30808620137E+02  0.00000000000E+00 0. -1.
         23    2    1    2    0    0  0.12268715390E+02  0.19634050046E+02  0.21979752280E+03  0.23919063715E+03  0.91461426708E+02 0.  0.
         23    2    1    2    0    0 -0.12268715390E+02 -0.19634050046E+02  0.85581632995E+02  0.12780575891E+03  0.92054759825E+02 0.  0.
          5    1    4    4  502    0 -0.39993492225E+02 -0.93511790213E+01  0.47564567235E+01  0.41612952911E+02  0.47000000000E+01 0. -1.
         -5    1    3    3    0  503 -0.36244852709E+02  0.16105413391E+02  0.59916779066E+02  0.72008222461E+02  0.47000000000E+01 0.  1.
          5    1    3    3  503    0  0.48513568099E+02  0.35286366558E+01  0.15988074373E+03  0.16718241469E+03  0.47000000000E+01 0. -1.
         -5    1    4    4    0  502  0.27724776834E+02 -0.10282871025E+02  0.80825176272E+02  0.86192806001E+02  0.47000000000E+01 0.  1.
<mgrwt>
<rscale>  0 0.94777372E+02</rscale>
<asrwt>0</asrwt>
<pdfrwt beam="1">  1        1 0.47397880E-02 0.94921526E+02</pdfrwt>
<pdfrwt beam="2">  1       -1 0.51721194E-01 0.94921526E+02</pdfrwt>
<totfact> 0.63762759E+03</totfact>
</mgrwt>
</event>
<event>
 8    1  0.3177960E-004  0.1333255E+03  0.7546771E-02  0.1222813E+00
         -2   -1    0    0    0  501 -0.00000000000E+00  0.00000000000E+00  0.24332370775E+02  0.24332370775E+02  0.00000000000E+00 0.  1.
          2   -1    0    0  501    0  0.00000000000E+00 -0.00000000000E+00 -0.77997659639E+03  0.77997659639E+03  0.00000000000E+00 0. -1.
         23    2    1    2    0    0  0.95289160865E+02  0.34065883380E-01 -0.48306614152E+03  0.50112732109E+03  0.93250573874E+02 0.  0.
         23    2    1    2    0    0 -0.95289160865E+02 -0.34065883380E-01 -0.27257808410E+03  0.30318164607E+03  0.92413598807E+02 0.  0.
          5    1    3    3  502    0  0.10729655002E+03  0.20032783946E+02 -0.40844639771E+03  0.42280540664E+03  0.47000000000E+01 0. -1.
         -5    1    3    3    0  502 -0.12007389155E+02 -0.19998718063E+02 -0.74619743804E+02  0.78321914454E+02  0.47000000000E+01 0.  1.
          5    1    4    4  503    0 -0.29194445090E+02  0.26331563069E+02 -0.18995628608E+03  0.19403903592E+03  0.47000000000E+01 0. -1.
         -5    1    4    4    0  503 -0.66094715775E+02 -0.26365628952E+02 -0.82621798015E+02  0.10914261015E+03  0.47000000000E+01 0.  1.
<mgrwt>
<rscale>  0 0.13317927E+03</rscale>
<asrwt>0</asrwt>
<pdfrwt beam="1">  1        2 0.11999638E+00 0.13332552E+03</pdfrwt>
<pdfrwt beam="2">  1       -2 0.37434423E-02 0.13332552E+03</pdfrwt>
<totfact> 0.10657310E+04</totfact>
</mgrwt>
</event>
<event>
 8    1  0.3177960E-004  0.1194991E+03  0.7546771E-02  0.1244972E+00
         -3   -1    0    0    0  501 -0.00000000000E+00  0.00000000000E+00  0.62268849257E+02  0.62268849257E+02  0.00000000000E+00 0.  1.
          3   -1    0    0  501    0  0.00000000000E+00 -0.00000000000E+00 -0.23109124294E+03  0.23109124294E+03  0.00000000000E+00 0. -1.
         23    2    1    2    0    0 -0.55752179047E+02  0.58484549256E+02 -0.58898877444E+02  0.13099254732E+03  0.84624002034E+02 0.  0.
         23    2    1    2    0    0  0.55752179047E+02 -0.58484549256E+02 -0.10992351624E+03  0.16236754488E+03  0.88041423409E+02 0.  0.
          5    1    4    4  502    0  0.19109613248E+02 -0.74254973066E+02 -0.87226410563E+02  0.11623043940E+03  0.47000000000E+01 0. -1.
         -5    1    3    3    0  503 -0.75785993715E+02  0.35721855435E+02 -0.30808404638E+02  0.89391361973E+02  0.47000000000E+01 0.  1.
          5    1    3    3  503    0  0.20033814668E+02  0.22762693821E+02 -0.28090472806E+02  0.41601185351E+02  0.47000000000E+01 0. -1.
         -5    1    4    4    0  502  0.36642565799E+02  0.15770423810E+02 -0.22697105680E+02  0.46137105476E+02  0.47000000000E+01 0.  1.
<mgrwt>
<rscale>  0 0.11887043E+03</rscale>
<asrwt>0</asrwt>
<pdfrwt beam="1">  1        3 0.35552499E-01 0.11949912E+03</pdfrwt>
<pdfrwt beam="2">  1       -3 0.95798229E-02 0.11949912E+03</pdfrwt>
<totfact> 0.13896439E+03</totfact>
</mgrwt>
</event>
<event>
 8    1  0.3177960E-004  0.1118620E+03  0.7546771E-02  0.1265540E+00
          1   -1    0    0  501    0  0.00000000000E+00  0.00000000000E+00  0.70836133298E+03  0.70836133298E+03  0.00000000000E+00 0. -1.
         -1   -1    0    0    0  501 -0.00000000000E+00 -0.00000000000E+00 -0.16546131034E+02  0.16546131034E+02  0.00000000000E+00 0.  1.
         23    2    1    2    0    0  0.29637643845E+02 -0.77716346475E+01  0.42726710821E+03  0.43768142749E+03  0.89827957641E+02 0.  0.
         23    2    1    2    0    0 -0.29637643845E+02  0.77716346475E+01  0.26454809373E+03  0.28722603652E+03  0.10758398542E+03 0.  0.
          5    1    3    3  502    0  0.58261492576E+02 -0.14371287260E+02  0.21237690084E+03  0.22074187057E+03  0.47000000000E+01 0. -1.
         -5    1    3    3    0  502 -0.28623848732E+02  0.65996526121E+01  0.21489020737E+03  0.21693955692E+03  0.47000000000E+01 0.  1.
          5    1    4    4  503    0  0.88704946587E+01  0.37773268269E+02  0.21110133751E+03  0.21468900803E+03  0.47000000000E+01 0. -1.
         -5    1    4    4    0  503 -0.38508138503E+02 -0.30001633621E+02  0.53446756217E+02  0.72537028482E+02  0.47000000000E+01 0.  1.
<mgrwt>
<rscale>  0 0.10735926E+03</rscale>
<asrwt>0</asrwt>
<pdfrwt beam="1">  1        1 0.10897864E+00 0.11186198E+03</pdfrwt>
<pdfrwt beam="2">  1       -1 0.25455592E-02 0.11186198E+03</pdfrwt>
<totfact> 0.12531511E+04</totfact>
</mgrwt>
</event>
<event>
 8    1  0.3177960E-004  0.1016831E+03  0.7546771E-02  0.1279376E+00
         -1   -1    0    0    0  501 -0.00000000000E+00  0.00000000000E+00  0.20487095377E+03  0.20487095377E+03  0.00000000000E+00 0.  1.
          1   -1    0    0  501    0  0.00000000000E+00 -0.00000000000E+00 -0.10551339603E+03  0.10551339603E+03  0.00000000000E+00 0. -1.
         23    2    1    2    0    0 -0.28155375078E+02 -0.13237926360E+02  0.16361199120E+03  0.19010095784E+03  0.91659820359E+02 0.  0.
         23    2    1    2    0    0  0.28155375078E+02  0.13237926360E+02 -0.64254433461E+02  0.12028339195E+03  0.96806478705E+02 0.  0.
          5    1    3    3  502    0 -0.14082173167E+02  0.27182649861E+02  0.13475269161E+03  0.13826634425E+03  0.47000000000E+01 0.  1.
         -5    1    3    3    0  502 -0.14073201911E+02 -0.40420576221E+02  0.28859299590E+02  0.51834613599E+02  0.47000000000E+01 0. -1.
          5    1    4    4  503    0  0.21892332827E+02 -0.41089259720E+02 -0.29738392481E+02  0.55444237647E+02  0.47000000000E+01 0. -1.
         -5    1    4    4    0  503  0.62630422513E+01  0.54327186080E+02 -0.34516040980E+02  0.64839154302E+02  0.47000000000E+01 0.  1.
<mgrwt>
<rscale>  0 0.10043873E+03</rscale>
<asrwt>0</asrwt>
<pdfrwt beam="1">  1        1 0.16232830E-01 0.10168315E+03</pdfrwt>
<pdfrwt beam="2">  1       -1 0.31518608E-01 0.10168315E+03</pdfrwt>
<totfact> 0.29928126E+03</totfact>
</mgrwt>
</event>
<event>
 8    1  0.3177960E-004  0.9573646E+02  0.7546771E-02  0.1290609E+00
          1   -1    0    0  501    0  0.00000000000E+00  0.00000000000E+00  0.86581455032E+03  0.86581455032E+03  0.00000000000E+00 0. -1.
         -1   -1    0    0    0  501 -0.00000000000E+00 -0.00000000000E+00 -0.10526695036E+02  0.10526695036E+02  0.00000000000E+00 0.  1.
         23    2    1    2    0    0  0.27989181543E+02  0.12038751225E+02  0.37922317860E+03  0.39112106613E+03  0.90758709599E+02 0.  0.
         23    2    1    2    0    0 -0.27989181543E+02 -0.12038751225E+02  0.47606467669E+03  0.48522017923E+03  0.88728350193E+02 0.  0.
          5    1    3    3  502    0 -0.96363089963E+01 -0.33706572319E+02  0.16903936912E+03  0.17270028888E+03  0.47000000000E+01 0. -1.
         -5    1    3    3    0  502  0.37625490540E+02  0.45745323543E+02  0.21018380948E+03  0.21842077725E+03  0.47000000000E+01 0.  1.
          5    1    4    4  503    0 -0.38307083584E+02 -0.38433497433E+02  0.40377061718E+03  0.40742774534E+03  0.47000000000E+01 0. -1.
         -5    1    4    4    0  503  0.10317902041E+02  0.26394746208E+02  0.72294059505E+02  0.77792433884E+02  0.47000000000E+01 0.  1.
<mgrwt>
<rscale>  0 0.95252153E+02</rscale>
<asrwt>0</asrwt>
<pdfrwt beam="1">  1        1 0.13320218E+00 0.95736457E+02</pdfrwt>
<pdfrwt beam="2">  1       -1 0.16194922E-02 0.95736457E+02</pdfrwt>
<totfact> 0.17579550E+04</totfact>
</mgrwt>
</event>
<event>
 8    1  0.3177960E-004  0.1126001E+03  0.7546771E-02  0.1256592E+00
         -3   -1    0    0    0  501 -0.00000000000E+00  0.00000000000E+00  0.18868809777E+03  0.18868809777E+03  0.00000000000E+00 0.  1.
          3   -1    0    0  501    0  0.00000000000E+00 -0.00000000000E+00 -0.67219724157E+02  0.67219724157E+02  0.00000000000E+00 0. -1.
         23    2    1    2    0    0 -0.17249476209E+02 -0.60514231558E+02  0.45368051284E+02  0.12139625804E+03  0.93377056813E+02 0.  0.
         23    2    1    2    0    0  0.17249476209E+02  0.60514231558E+02  0.76100322332E+02  0.13451156389E+03  0.91337752926E+02 0.  0.
          5    1    3    3  502    0  0.85575439440E+01 -0.79348352398E+02  0.36651965915E+02  0.87947991404E+02  0.47000000000E+01 0. -1.
         -5    1    3    3    0  502 -0.25807020153E+02  0.18834120840E+02  0.87160853691E+01  0.33448266639E+02  0.47000000000E+01 0.  1.
          5    1    4    4  503    0  0.30244359209E+02 -0.15025346450E+02  0.24729095410E+02  0.42120071934E+02  0.47000000000E+01 0. -1.
         -5    1    4    4    0  503 -0.12994883000E+02  0.75539578008E+02  0.51371226922E+02  0.92391491953E+02  0.47000000000E+01 0.  1.
<mgrwt>
<rscale>  0 0.11217643E+03</rscale>
<asrwt>0</asrwt>
<pdfrwt beam="1">  1        3 0.10341496E-01 0.11260014E+03</pdfrwt>
<pdfrwt beam="2">  1       -3 0.29028938E-01 0.11260014E+03</pdfrwt>
<totfact> 0.17673165E+03</totfact>
</mgrwt>
</event>
<event>
 8    1  0.3177960E-004  0.9609501E+02  0.7546771E-02  0.1289188E+00
          4   -1    0    0  501    0  0.00000000000E+00  0.00000000000E+00  0.15904910582E+03  0.15904910582E+03  0.00000000000E+00 0. -1.
         -4   -1    0    0    0  501 -0.00000000000E+00 -0.00000000000E+00 -0.68784951722E+02  0.68784951722E+02  0.00000000000E+00 0.  1.
         23    2    1    2    0    0  0.16473010814E+02 -0.17550182475E+02 -0.10449601770E+01  0.95276128301E+02  0.92179605619E+02 0.  0.
         23    2    1    2    0    0 -0.16473010814E+02  0.17550182475E+02  0.91309114273E+02  0.13255792924E+03  0.93031614329E+02 0.  0.
          5    1    4    4  502    0 -0.48198707665E+02  0.32111979272E+02  0.71545552643E+02  0.92169141996E+02  0.47000000000E+01 0. -1.
         -5    1    3    3    0  503  0.46131757626E+02 -0.62411667827E+01 -0.26986718221E+02  0.54013555565E+02  0.47000000000E+01 0.  1.
          5    1    3    3  503    0 -0.29658746812E+02 -0.11309015692E+02  0.25941758044E+02  0.41262572736E+02  0.47000000000E+01 0. -1.
         -5    1    4    4    0  502  0.31725696851E+02 -0.14561796797E+02  0.19763561630E+02  0.40388787243E+02  0.47000000000E+01 0.  1.
<mgrwt>
<rscale>  0 0.95888188E+02</rscale>
<asrwt>0</asrwt>
<pdfrwt beam="1">  1        4 0.24469093E-01 0.96095006E+02</pdfrwt>
<pdfrwt beam="2">  1       -4 0.10582300E-01 0.96095006E+02</pdfrwt>
<totfact> 0.16285022E+03</totfact>
</mgrwt>
</event>
<event>
 8    1  0.3177960E-004  0.9757922E+02  0.7546771E-02  0.1287867E+00
         -4   -1    0    0    0  501 -0.00000000000E+00  0.00000000000E+00  0.55744034241E+03  0.55744034241E+03  0.00000000000E+00 0.  1.
          4   -1    0    0  501    0  0.00000000000E+00 -0.00000000000E+00 -0.16685393810E+02  0.16685393810E+02  0.00000000000E+00 0. -1.
         23    2    1    2    0    0  0.62545136957E+01  0.38612912689E+02  0.23481061905E+03  0.25427884528E+03  0.89395908010E+02 0.  0.
         23    2    1    2    0    0 -0.62545136957E+01 -0.38612912689E+02  0.30594432954E+03  0.31984689094E+03  0.84675999519E+02 0.  0.
          5    1    4    4  502    0  0.33647990731E+02  0.24739755000E+01  0.85522052914E+02  0.92056609592E+02  0.47000000000E+01 0. -1.
         -5    1    4    4    0  502 -0.39902504427E+02 -0.41086888189E+02  0.22042227663E+03  0.22779028135E+03  0.47000000000E+01 0.  1.
          5    1    3    3  503    0  0.39043444297E+02 -0.15869992431E+01  0.59065753770E+02  0.70977196181E+02  0.47000000000E+01 0. -1.
         -5    1    3    3    0  503 -0.32788930602E+02  0.40199911932E+02  0.17574486528E+03  0.18330164910E+03  0.47000000000E+01 0.  1.
<mgrwt>
<rscale>  0 0.96484721E+02</rscale>
<asrwt>0</asrwt>
<pdfrwt beam="1">  1        4 0.25669841E-02 0.97579221E+02</pdfrwt>
<pdfrwt beam="2">  1       -4 0.85760039E-01 0.97579221E+02</pdfrwt>
<totfact> 0.12832202E+03</totfact>
</mgrwt>
</event>
<event>
 8    1  0.3177960E-004  0.9816135E+02  0.7546771E-02  0.1285271E+00
         -1   -1    0    0    0  501 -0.00000000000E+00  0.00000000000E+00  0.80839971289E+02  0.80839971289E+02  0.00000000000E+00 0.  1.
          1   -1    0    0  501    0  0.00000000000E+00 -0.00000000000E+00 -0.16161466048E+03  0.16161466048E+03  0.00000000000E+00 0. -1.
         23    2    1    2    0    0 -0.66912361673E+01  0.26673990852E+02  0.23123912211E+02  0.10084822854E+03  0.94230438047E+02 0.  0.
         23    2    1    2    0    0  0.66912361673E+01 -0.26673990852E+02 -0.10389860140E+03  0.14160640323E+03  0.92201841806E+02 0.  0.
          5    1    3    3  502    0 -0.44128463447E+02 -0.95582192863E+01  0.59142747120E+01  0.45779356565E+02  0.47000000000E+01 0. -1.
         -5    1    4    4    0  503 -0.32881278721E+02 -0.20763608790E+02 -0.91376500676E+02  0.99418614032E+02  0.47000000000E+01 0.  1.
          5    1    4    4  503    0  0.39572514888E+02 -0.59103820617E+01 -0.12522100727E+02  0.42187789197E+02  0.47000000000E+01 0. -1.
         -5    1    3    3    0  502  0.37437227280E+02  0.36232210138E+02  0.17209637499E+02  0.55068871976E+02  0.47000000000E+01 0.  1.
<mgrwt>
<rscale>  0 0.97671268E+02</rscale>
<asrwt>0</asrwt>
<pdfrwt beam="1">  1        1 0.24863794E-01 0.98161346E+02</pdfrwt>
<pdfrwt beam="2">  1       -1 0.12436919E-01 0.98161346E+02</pdfrwt>
<totfact> 0.76968463E+03</totfact>
</mgrwt>
</event>
<event>
 8    1  0.3177960E-004  0.9470534E+02  0.7546771E-02  0.1293177E+00
          2   -1    0    0  501    0  0.00000000000E+00  0.00000000000E+00  0.34776311079E+03  0.34776311079E+03  0.00000000000E+00 0. -1.
         -2   -1    0    0    0  501 -0.00000000000E+00 -0.00000000000E+00 -0.28595581895E+02  0.28595581895E+02  0.00000000000E+00 0.  1.
         23    2    1    2    0    0 -0.61085081685E+01  0.18878260260E+02  0.96109955030E+02  0.13493044563E+03  0.92603450909E+02 0.  0.
         23    2    1    2    0    0  0.61085081685E+01 -0.18878260260E+02  0.22305757387E+03  0.24142824705E+03  0.90217596030E+02 0.  0.
          5    1    4    4  502    0  0.44002311919E+02  0.83103505371E+01  0.12150332246E+03  0.12957782506E+03  0.47000000000E+01 0. -1.
         -5    1    3    3    0  503 -0.27258947760E+02 -0.30252870485E+02  0.42861113522E+02  0.59308106174E+02  0.47000000000E+01 0.  1.
          5    1    3    3  503    0  0.21150439592E+02  0.49131130745E+02  0.53248841509E+02  0.75622339459E+02  0.47000000000E+01 0. -1.
         -5    1    4    4    0  502 -0.37893803750E+02 -0.27188610797E+02  0.10155425141E+03  0.11185042199E+03  0.47000000000E+01 0.  1.
<mgrwt>
<rscale>  0 0.94116994E+02</rscale>
<asrwt>0</asrwt>
<pdfrwt beam="1">  1        2 0.53502014E-01 0.94705341E+02</pdfrwt>
<pdfrwt beam="2">  1       -2 0.43993205E-02 0.94705341E+02</pdfrwt>
<totfact> 0.20008866E+04</totfact>
</mgrwt>
</event>
<event>
 8    1  0.3177960E-004  0.1032386E+03  0.7546771E-02  0.1274695E+00
          1   -1    0    0  501    0  0.00000000000E+00  0.00000000000E+00  0.96265361063E+02  0.96265361063E+02  0.00000000000E+00 0. -1.
         -1   -1    0    0    0  501 -0.00000000000E+00 -0.00000000000E+00 -0.13615059709E+03  0.13615059709E+03  0.00000000000E+00 0.  1.
         23    2    1    2    0    0  0.26137395090E+02 -0.35375511956E+02  0.32276874224E+02  0.10816655144E+03  0.93400299640E+02 0.  0.
         23    2    1    2    0    0 -0.26137395090E+02  0.35375511956E+02 -0.72162110249E+02  0.12424940671E+03  0.91082131307E+02 0.  0.
          5    1    4    4  502    0 -0.31554952920E+02  0.36033791744E+01  0.11788375253E+02  0.34201683970E+02  0.47000000000E+01 0. -1.
         -5    1    4    4    0  502  0.54175578306E+01  0.31772132782E+02 -0.83950485502E+02  0.90047722738E+02  0.47000000000E+01 0.  1.
          5    1    3    3  503    0  0.23108673247E+02 -0.66473562321E+02  0.14836213279E+02  0.72075991088E+02  0.47000000000E+01 0. -1.
         -5    1    3    3    0  503  0.30287218433E+01  0.31098050364E+02  0.17440660945E+02  0.36090560354E+02  0.47000000000E+01 0.  1.
<mgrwt>
<rscale>  0 0.10271146E+03</rscale>
<asrwt>0</asrwt>
<pdfrwt beam="1">  1        1 0.14810056E-01 0.10323859E+03</pdfrwt>
<pdfrwt beam="2">  1       -1 0.20946246E-01 0.10323859E+03</pdfrwt>
<totfact> 0.65776283E+03</totfact>
</mgrwt>
</event>
<event>
 8    1  0.3177960E-004  0.1096076E+03  0.7546771E-02  0.1263487E+00
         -1   -1    0    0    0  501 -0.00000000000E+00  0.00000000000E+00  0.81615941397E+02  0.81615941397E+02  0.00000000000E+00 0.  1.
          1   -1    0    0  501    0  0.00000000000E+00 -0.00000000000E+00 -0.34218988884E+03  0.34218988884E+03  0.00000000000E+00 0. -1.
         23    2    1    2    0    0  0.25228484502E+02 -0.42007327674E+02  0.30992980879E+02  0.11390520937E+03  0.98044580924E+02 0.  0.
         23    2    1    2    0    0 -0.25228484502E+02  0.42007327674E+02 -0.29156692832E+03  0.30990062087E+03  0.92876418517E+02 0.  0.
          5    1    3    3  502    0  0.41850509662E+00 -0.20183530093E+02 -0.34586161660E+02  0.40321738702E+02  0.47000000000E+01 0. -1.
         -5    1    3    3    0  502  0.24809979405E+02 -0.21823797581E+02  0.65579142539E+02  0.73583470665E+02  0.47000000000E+01 0.  1.
          5    1    4    4  503    0 -0.48001524255E+02  0.26655660319E+02 -0.26739241976E+03  0.27301184352E+03  0.47000000000E+01 0. -1.
         -5    1    4    4    0  503  0.22773039753E+02  0.15351667355E+02 -0.24174508563E+02  0.36888777351E+02  0.47000000000E+01 0.  1.
<mgrwt>
<rscale>  0 0.10843971E+03</rscale>
<asrwt>0</asrwt>
<pdfrwt beam="1">  1        1 0.52644598E-01 0.10960763E+03</pdfrwt>
<pdfrwt beam="2">  1       -1 0.12556299E-01 0.10960763E+03</pdfrwt>
<totfact> 0.30347194E+03</totfact>
</mgrwt>
</event>
<event>
 8    1  0.3177960E-004  0.1248072E+03  0.7546771E-02  0.1247362E+00
         -2   -1    0    0    0  501 -0.00000000000E+00  0.00000000000E+00  0.20488016297E+03  0.20488016297E+03  0.00000000000E+00 0.  1.
          2   -1    0    0  501    0  0.00000000000E+00 -0.00000000000E+00 -0.12360965852E+03  0.12360965852E+03  0.00000000000E+00 0. -1.
         23    2    1    2    0    0 -0.17906276949E+02 -0.20134128169E+02  0.15996610585E+03  0.20289402686E+03  0.12186391281E+03 0.  0.
         23    2    1    2    0    0  0.17906276949E+02  0.20134128169E+02 -0.78695601397E+02  0.12559579462E+03  0.94102540221E+02 0.  0.
          5    1    4    4  502    0  0.18999119002E+01 -0.31657101799E+02 -0.60059939778E+02  0.68081334635E+02  0.47000000000E+01 0. -1.
         -5    1    4    4    0  502  0.16006365049E+02  0.51791229967E+02 -0.18635661619E+02  0.57514459987E+02  0.47000000000E+01 0.  1.
          5    1    3    3  503    0  0.41501603588E+02 -0.24620333751E+02  0.23422185734E+02  0.53844523574E+02  0.47000000000E+01 0. -1.
         -5    1    3    3    0  503 -0.59407880537E+02  0.44862055830E+01  0.13654392011E+03  0.14904950329E+03  0.47000000000E+01 0.  1.
<mgrwt>
<rscale>  0 0.11745128E+03</rscale>
<asrwt>0</asrwt>
<pdfrwt beam="1">  1        2 0.19016871E-01 0.12480718E+03</pdfrwt>
<pdfrwt beam="2">  1       -2 0.31520025E-01 0.12480718E+03</pdfrwt>
<totfact> 0.26430133E+03</totfact>
</mgrwt>
</event>
<event>
 8    1  0.3177960E-004  0.9205964E+02  0.7546771E-02  0.1298760E+00
          2   -1    0    0  501    0  0.00000000000E+00  0.00000000000E+00  0.25541491754E+03  0.25541491754E+03  0.00000000000E+00 0. -1.
         -2   -1    0    0    0  501 -0.00000000000E+00 -0.00000000000E+00 -0.66593352213E+02  0.66593352213E+02  0.00000000000E+00 0.  1.
         23    2    1    2    0    0 -0.21407116751E+00 -0.29037989132E+00  0.20894828995E+03  0.22777418314E+03  0.90672821084E+02 0.  0.
         23    2    1    2    0    0  0.21407116751E+00  0.29037989132E+00 -0.20126724625E+02  0.94234086615E+02  0.92058937041E+02 0.  0.
          5    1    3    3  502    0 -0.31538086157E+02 -0.14474890297E+02  0.17755903464E+03  0.18097920905E+03  0.47000000000E+01 0. -1.
         -5    1    4    4    0  503  0.22094301908E+02 -0.26955879522E+02  0.20287450110E+02  0.40601086803E+02  0.47000000000E+01 0.  1.
          5    1    4    4  503    0 -0.21880230741E+02  0.27246259414E+02 -0.40414174735E+02  0.53632999812E+02  0.47000000000E+01 0. -1.
         -5    1    3    3    0  502  0.31324014990E+02  0.14184510406E+02  0.31389255314E+02  0.46794974086E+02  0.47000000000E+01 0.  1.
<mgrwt>
<rscale>  0 0.91711144E+02</rscale>
<asrwt>0</asrwt>
<pdfrwt beam="1">  1        2 0.39294602E-01 0.92059644E+02</pdfrwt>
<pdfrwt beam="2">  1       -2 0.10245131E-01 0.92059644E+02</pdfrwt>
<totfact> 0.76669867E+03</totfact>
</mgrwt>
</event>
<event>
 8    1  0.3177960E-004  0.1077844E+03  0.7546771E-02  0.1272306E+00
         -2   -1    0    0    0  501 -0.00000000000E+00  0.00000000000E+00  0.23047253702E+02  0.23047253702E+02  0.00000000000E+00 0.  1.
          2   -1    0    0  501    0  0.00000000000E+00 -0.00000000000E+00 -0.43763084078E+03  0.43763084078E+03  0.00000000000E+00 0. -1.
         23    2    1    2    0    0  0.63702495163E+01  0.20218726241E+02 -0.21965994355E+03  0.24467932129E+03  0.10567924344E+03 0.  0.
         23    2    1    2    0    0 -0.63702495163E+01 -0.20218726241E+02 -0.19492364352E+03  0.21599877319E+03  0.90613830332E+02 0.  0.
          5    1    3    3  502    0 -0.51901564670E+01 -0.40651491585E+02 -0.12335073259E+03  0.13006527101E+03  0.47000000000E+01 0. -1.
         -5    1    3    3    0  502  0.11560405983E+02  0.60870217826E+02 -0.96309210965E+02  0.11461405028E+03  0.47000000000E+01 0.  1.
          5    1    4    4  503    0 -0.42009701733E+02 -0.29334139948E+02 -0.14463466392E+03  0.15351411275E+03  0.47000000000E+01 0. -1.
         -5    1    4    4    0  503  0.35639452217E+02  0.91154137080E+01 -0.50288979608E+02  0.62484660449E+02  0.47000000000E+01 0.  1.
<mgrwt>
<rscale>  0 0.10389825E+03</rscale>
<asrwt>0</asrwt>
<pdfrwt beam="1">  1        2 0.67327824E-01 0.10778441E+03</pdfrwt>
<pdfrwt beam="2">  1       -2 0.35457312E-02 0.10778441E+03</pdfrwt>
<totfact> 0.21849255E+04</totfact>
</mgrwt>
</event>
<event>
 8    1  0.3177960E-004  0.9253800E+02  0.7546771E-02  0.1297129E+00
         -3   -1    0    0    0  501 -0.00000000000E+00  0.00000000000E+00  0.62380726312E+02  0.62380726312E+02  0.00000000000E+00 0.  1.
          3   -1    0    0  501    0  0.00000000000E+00 -0.00000000000E+00 -0.15033511405E+03  0.15033511405E+03  0.00000000000E+00 0. -1.
         23    2    1    2    0    0  0.63035473393E+01  0.12178859244E+02 -0.76138896479E+02  0.11942657780E+03  0.90980858464E+02 0.  0.
         23    2    1    2    0    0 -0.63035473393E+01 -0.12178859244E+02 -0.11815491255E+02  0.93289262556E+02  0.91516235462E+02 0.  0.
          5    1    3    3  502    0  0.15632649472E+02  0.35133339697E+02 -0.84417949087E+02  0.92882783205E+02  0.47000000000E+01 0. -1.
         -5    1    4    4    0  503  0.37258877940E+02 -0.26846644826E+02 -0.87265571119E+01  0.46980944252E+02  0.47000000000E+01 0.  1.
          5    1    4    4  503    0 -0.43562425279E+02  0.14667785583E+02 -0.30889341435E+01  0.46308318305E+02  0.47000000000E+01 0. -1.
         -5    1    3    3    0  502 -0.93291021328E+01 -0.22954480453E+02  0.82790526088E+01  0.26543794597E+02  0.47000000000E+01 0.  1.
<mgrwt>
<rscale>  0 0.92405353E+02</rscale>
<asrwt>0</asrwt>
<pdfrwt beam="1">  1        3 0.23128479E-01 0.92537996E+02</pdfrwt>
<pdfrwt beam="2">  1       -3 0.95970348E-02 0.92537996E+02</pdfrwt>
<totfact> 0.28961447E+03</totfact>
</mgrwt>
</event>
<event>
 8    1  0.3177960E-004  0.9954733E+02  0.7546771E-02  0.1282998E+00
          3   -1    0    0  501    0  0.00000000000E+00  0.00000000000E+00  0.20803347090E+02  0.20803347090E+02  0.00000000000E+00 0. -1.
         -3   -1    0    0    0  501 -0.00000000000E+00 -0.00000000000E+00 -0.58577049980E+03  0.58577049980E+03  0.00000000000E+00 0.  1.
         23    2    1    2    0    0  0.17525435443E+02  0.27972866998E+02 -0.42615120732E+03  0.43762372137E+03  0.93915109707E+02 0.  0.
         23    2    1    2    0    0 -0.17525435443E+02 -0.27972866998E+02 -0.13881594539E+03  0.16895012551E+03  0.90469088877E+02 0.  0.
          5    1    4    4  502    0  0.25950761008E+02  0.40739693306E+00 -0.71331417675E+01  0.27323610315E+02  0.47000000000E+01 0. -1.
         -5    1    3    3    0  503 -0.21263184733E+02  0.25283408015E+02 -0.54424772875E+02  0.63839796744E+02  0.47000000000E+01 0.  1.
          5    1    3    3  503    0  0.38788620176E+02  0.26894589831E+01 -0.37172643444E+03  0.37378392463E+03  0.47000000000E+01 0. -1.
         -5    1    4    4    0  502 -0.43476196451E+02 -0.28380263931E+02 -0.13168280362E+03  0.14162651520E+03  0.47000000000E+01 0.  1.
<mgrwt>
<rscale>  0 0.98726152E+02</rscale>
<asrwt>0</asrwt>
<pdfrwt beam="1">  1        3 0.32005152E-02 0.99547325E+02</pdfrwt>
<pdfrwt beam="2">  1       -3 0.90118531E-01 0.99547325E+02</pdfrwt>
<totfact> 0.11524969E+03</totfact>
</mgrwt>
</event>
<event>
 8    1  0.3177960E-004  0.1025709E+03  0.7546771E-02  0.1275884E+00
         -2   -1    0    0    0  501 -0.00000000000E+00  0.00000000000E+00  0.14941374127E+02  0.14941374127E+02  0.00000000000E+00 0.  1.
          2   -1    0    0  501    0  0.00000000000E+00 -0.00000000000E+00 -0.72406807353E+03  0.72406807353E+03  0.00000000000E+00 0. -1.
         23    2    1    2    0    0  0.45743248357E+02  0.62009082515E+01 -0.42926180532E+03  0.44094042189E+03  0.89620656742E+02 0.  0.
         23    2    1    2    0    0 -0.45743248357E+02 -0.62009082515E+01 -0.27986489408E+03  0.29806902576E+03  0.91596338075E+02 0.  0.
          5    1    4    4  502    0  0.26409707439E+02 -0.61221614880E+01 -0.49623604355E+02  0.56741039975E+02  0.47000000000E+01 0. -1.
         -5    1    4    4    0  502 -0.72152955796E+02 -0.78746763573E-01 -0.23024128972E+03  0.24132798579E+03  0.47000000000E+01 0.  1.
          5    1    3    3  503    0  0.71343792954E+02 -0.51650274344E+01 -0.28230100390E+03  0.29126029785E+03  0.47000000000E+01 0. -1.
         -5    1    3    3    0  503 -0.25600544597E+02  0.11365935686E+02 -0.14696080142E+03  0.14968012404E+03  0.47000000000E+01 0.  1.
<mgrwt>
<rscale>  0 0.10212792E+03</rscale>
<asrwt>0</asrwt>
<pdfrwt beam="1">  1        2 0.11139508E+00 0.10257088E+03</pdfrwt>
<pdfrwt beam="2">  1       -2 0.22986732E-02 0.10257088E+03</pdfrwt>
<totfact> 0.23317885E+04</totfact>
</mgrwt>
</event>
<event>
 8    1  0.3177960E-004  0.9889562E+02  0.7546771E-02  0.1283117E+00
          2   -1    0    0  501    0  0.00000000000E+00  0.00000000000E+00  0.71153310239E+03  0.71153310239E+03  0.00000000000E+00 0. -1.
         -2   -1    0    0    0  501 -0.00000000000E+00 -0.00000000000E+00 -0.14356586307E+02  0.14356586307E+02  0.00000000000E+00 0.  1.
         23    2    1    2    0    0  0.28851511332E+02  0.22250858424E+02  0.42923958200E+03  0.44028411502E+03  0.90972373715E+02 0.  0.
         23    2    1    2    0    0 -0.28851511332E+02 -0.22250858424E+02  0.26793693408E+03  0.28560557367E+03  0.91939287905E+02 0.  0.
          5    1    4    4  502    0  0.27095711516E+02 -0.31491759326E+02  0.12223589006E+03  0.12918827852E+03  0.47000000000E+01 0. -1.
         -5    1    3    3    0  503  0.16337288653E+02  0.51299170568E+02  0.15428107433E+03  0.16347248025E+03  0.47000000000E+01 0.  1.
          5    1    3    3  503    0  0.12514222679E+02 -0.29048312144E+02  0.27495850767E+03  0.27681163477E+03  0.47000000000E+01 0. -1.
         -5    1    4    4    0  502 -0.55947222848E+02  0.92409009017E+01  0.14570104402E+03  0.15641729515E+03  0.47000000000E+01 0.  1.
<mgrwt>
<rscale>  0 0.98670285E+02</rscale>
<asrwt>0</asrwt>
<pdfrwt beam="1">  1        2 0.10946660E+00 0.98895617E+02</pdfrwt>
<pdfrwt beam="2">  1       -2 0.22087061E-02 0.98895617E+02</pdfrwt>
<totfact> 0.25130670E+04</totfact>
</mgrwt>
</event>
<event>
 8    1  0.3177960E-004  0.4551248E+03  0.7546771E-02  0.1026289E+00
         -1   -1    0    0    0  501 -0.00000000000E+00  0.00000000000E+00  0.36584092643E+03  0.36584092643E+03  0.00000000000E+00 0.  1.
          1   -1    0    0  501    0  0.00000000000E+00 -0.00000000000E+00 -0.76374469371E+03  0.76374469371E+03  0.00000000000E+00 0. -1.
         23    2    1    2    0    0  0.32405773662E+03 -0.30504399064E+03  0.89508560323E+02  0.46272026374E+03  0.89627045128E+02 0.  0.
         23    2    1    2    0    0 -0.32405773662E+03  0.30504399064E+03 -0.48741232761E+03  0.66686535639E+03  0.95254257458E+02 0.  0.
          5    1    3    3  502    0  0.10261662466E+03 -0.15590967372E+03  0.29246198897E+02  0.18898525912E+03  0.47000000000E+01 0. -1.
         -5    1    4    4    0  503 -0.95339889767E+02  0.40525647660E+02 -0.13670888230E+03  0.17159088320E+03  0.47000000000E+01 0.  1.
          5    1    4    4  503    0 -0.22871784685E+03  0.26451834298E+03 -0.35070344531E+03  0.49527447319E+03  0.47000000000E+01 0. -1.
         -5    1    3    3    0  502  0.22144111196E+03 -0.14913431692E+03  0.60262361426E+02  0.27373500462E+03  0.47000000000E+01 0.  1.
<mgrwt>
<rscale>  0 0.45483848E+03</rscale>
<asrwt>0</asrwt>
<pdfrwt beam="1">  1        1 0.11749918E+00 0.45512485E+03</pdfrwt>
<pdfrwt beam="2">  1       -1 0.56283219E-01 0.45512485E+03</pdfrwt>
<totfact> 0.79944020E+01</totfact>
</mgrwt>
</event>
<event>
 8    1  0.3177960E-004  0.1032444E+03  0.7546771E-02  0.1274237E+00
          3   -1    0    0  501    0  0.00000000000E+00  0.00000000000E+00  0.18017673542E+03  0.18017673542E+03  0.00000000000E+00 0. -1.
         -3   -1    0    0    0  501 -0.00000000000E+00 -0.00000000000E+00 -0.10475581829E+03  0.10475581829E+03  0.00000000000E+00 0.  1.
         23    2    1    2    0    0  0.32960539890E+02 -0.32307033904E+02  0.13229105319E+03  0.16706132735E+03  0.90985837985E+02 0.  0.
         23    2    1    2    0    0 -0.32960539890E+02  0.32307033904E+02 -0.56870136057E+02  0.11787122636E+03  0.92354057840E+02 0.  0.
          5    1    3    3  502    0  0.33186030582E+02  0.62700741229E+01  0.12225796976E+03  0.12692410183E+03  0.47000000000E+01 0. -1.
         -5    1    4    4    0  503 -0.55567938328E+02  0.21185447427E+02 -0.67536768528E+02  0.90110621216E+02  0.47000000000E+01 0.  1.
          5    1    4    4  503    0  0.22607398438E+02  0.11121586477E+02  0.10666632470E+02  0.27760605147E+02  0.47000000000E+01 0. -1.
         -5    1    3    3    0  502 -0.22549069162E+00 -0.38577108027E+02  0.10033083430E+02  0.40137225526E+02  0.47000000000E+01 0.  1.
<mgrwt>
<rscale>  0 0.10293755E+03</rscale>
<asrwt>0</asrwt>
<pdfrwt beam="1">  1        3 0.27719498E-01 0.10324444E+03</pdfrwt>
<pdfrwt beam="2">  1       -3 0.16116280E-01 0.10324444E+03</pdfrwt>
<totfact> 0.89890679E+02</totfact>
</mgrwt>
</event>
<event>
 8    1  0.3177960E-004  0.1060082E+03  0.7546771E-02  0.1273180E+00
          1   -1    0    0  501    0  0.00000000000E+00  0.00000000000E+00  0.11978477723E+03  0.11978477723E+03  0.00000000000E+00 0. -1.
         -1   -1    0    0    0  501 -0.00000000000E+00 -0.00000000000E+00 -0.13262039839E+03  0.13262039839E+03  0.00000000000E+00 0.  1.
         23    2    1    2    0    0  0.37973195540E+02 -0.62097395054E+00  0.69092809391E+02  0.11842751431E+03  0.88368040872E+02 0.  0.
         23    2    1    2    0    0 -0.37973195540E+02  0.62097395054E+00 -0.81928430544E+02  0.13397766131E+03  0.98971697016E+02 0.  0.
          5    1    3    3  502    0  0.57291450927E+01  0.33090408197E+02  0.62465488479E+02  0.71076194813E+02  0.47000000000E+01 0. -1.
         -5    1    3    3    0  502  0.32244050447E+02 -0.33711382147E+02  0.66273209117E+01  0.47351319496E+02  0.47000000000E+01 0.  1.
          5    1    4    4  503    0 -0.25356251455E+02  0.41132727807E+02 -0.76967876124E+02  0.90999916153E+02  0.47000000000E+01 0. -1.
         -5    1    4    4    0  503 -0.12616944084E+02 -0.40511753857E+02 -0.49605544202E+01  0.42977745157E+02  0.47000000000E+01 0.  1.
<mgrwt>
<rscale>  0 0.10346175E+03</rscale>
<asrwt>0</asrwt>
<pdfrwt beam="1">  1        1 0.18428427E-01 0.10600824E+03</pdfrwt>
<pdfrwt beam="2">  1       -1 0.20403138E-01 0.10600824E+03</pdfrwt>
<totfact> 0.51999698E+03</totfact>
</mgrwt>
</event>
<event>
 8    1  0.3177960E-004  0.1139996E+03  0.7546771E-02  0.1254407E+00
         -2   -1    0    0    0  501 -0.00000000000E+00  0.00000000000E+00  0.58925719504E+03  0.58925719504E+03  0.00000000000E+00 0.  1.
          2   -1    0    0  501    0  0.00000000000E+00 -0.00000000000E+00 -0.42664312233E+02  0.42664312233E+02  0.00000000000E+00 0. -1.
         23    2    1    2    0    0  0.32154440528E+02  0.54192263114E+02  0.49790761231E+02  0.12220760802E+03  0.92113354765E+02 0.  0.
         23    2    1    2    0    0 -0.32154440528E+02 -0.54192263114E+02  0.49680212158E+03  0.50971389926E+03  0.95001061394E+02 0.  0.
          5    1    4    4  502    0 -0.53855288270E+02 -0.22467185231E+00  0.19688410008E+03  0.20417120614E+03  0.47000000000E+01 0. -1.
         -5    1    3    3    0  503  0.62089963130E+02  0.20866307809E+02  0.21886958871E+02  0.69222072287E+02  0.47000000000E+01 0.  1.
          5    1    3    3  503    0 -0.29935522602E+02  0.33325955305E+02  0.27903802359E+02  0.52985535730E+02  0.47000000000E+01 0. -1.
         -5    1    4    4    0  502  0.21700847742E+02 -0.53967591262E+02  0.29991802149E+03  0.30554269312E+03  0.47000000000E+01 0.  1.
<mgrwt>
<rscale>  0 0.11339607E+03</rscale>
<asrwt>0</asrwt>
<pdfrwt beam="1">  1        2 0.65637408E-02 0.11399961E+03</pdfrwt>
<pdfrwt beam="2">  1       -2 0.90654947E-01 0.11399961E+03</pdfrwt>
<totfact> 0.11366117E+03</totfact>
</mgrwt>
</event>
<event>
 8    1  0.3177960E-004  0.1199985E+03  0.7546771E-02  0.1244221E+00
         -1   -1    0    0    0  501 -0.00000000000E+00  0.00000000000E+00  0.15631646776E+02  0.15631646776E+02  0.00000000000E+00 0.  1.
          1   -1    0    0  501    0  0.00000000000E+00 -0.00000000000E+00 -0.94651286253E+03  0.94651286253E+03  0.00000000000E+00 0. -1.
         23    2    1    2    0    0 -0.22005224114E+00  0.77087877818E+02 -0.36459166592E+03  0.38383163429E+03  0.91962227553E+02 0.  0.
         23    2    1    2    0    0  0.22005224114E+00 -0.77087877818E+02 -0.56628954983E+03  0.57831287501E+03  0.88427019767E+02 0.  0.
          5    1    3    3  502    0 -0.38897172168E+02  0.18869665052E+02 -0.83539281230E+02  0.94180442610E+02  0.47000000000E+01 0. -1.
         -5    1    3    3    0  502  0.38677119927E+02  0.58218212766E+02 -0.28105238469E+03  0.28965119168E+03  0.47000000000E+01 0.  1.
          5    1    4    4  503    0 -0.23645434611E+02 -0.44673773229E+02 -0.48328349020E+03  0.48594225428E+03  0.47000000000E+01 0. -1.
         -5    1    4    4    0  503  0.23865486852E+02 -0.32414104588E+02 -0.83006059629E+02  0.92370620730E+02  0.47000000000E+01 0.  1.
<mgrwt>
<rscale>  0 0.11932097E+03</rscale>
<asrwt>0</asrwt>
<pdfrwt beam="1">  1        1 0.14561733E+00 0.11999850E+03</pdfrwt>
<pdfrwt beam="2">  1       -1 0.24048693E-02 0.11999850E+03</pdfrwt>
<totfact> 0.88053730E+03</totfact>
</mgrwt>
</event>
<event>
 8    1  0.3177960E-004  0.9518896E+02  0.7546771E-02  0.1291272E+00
          2   -1    0    0  501    0  0.00000000000E+00  0.00000000000E+00  0.20939251533E+03  0.20939251533E+03  0.00000000000E+00 0. -1.
         -2   -1    0    0    0  501 -0.00000000000E+00 -0.00000000000E+00 -0.96607937610E+02  0.96607937610E+02  0.00000000000E+00 0.  1.
         23    2    1    2    0    0 -0.16112420027E+02  0.18556083002E+02 -0.57856340626E+02  0.11060531090E+03  0.91006814873E+02 0.  0.
         23    2    1    2    0    0  0.16112420027E+02 -0.18556083002E+02  0.17064091834E+03  0.19539514204E+03  0.91961949864E+02 0.  0.
          5    1    3    3  502    0 -0.50151675059E+02  0.26029109723E+02 -0.47444505110E+02  0.73930887519E+02  0.47000000000E+01 0. -1.
         -5    1    3    3    0  502  0.34039255033E+02 -0.74730267211E+01 -0.10411835517E+02  0.36674423382E+02  0.47000000000E+01 0.  1.
          5    1    4    4  503    0 -0.27214300880E+02 -0.86013285526E+01  0.13318102425E+02  0.31844353934E+02  0.47000000000E+01 0. -1.
         -5    1    4    4    0  503  0.43326720907E+02 -0.99547544498E+01  0.15732281592E+03  0.16355078810E+03  0.47000000000E+01 0.  1.
<mgrwt>
<rscale>  0 0.94957511E+02</rscale>
<asrwt>0</asrwt>
<pdfrwt beam="1">  1        2 0.32214233E-01 0.95188962E+02</pdfrwt>
<pdfrwt beam="2">  1       -2 0.14862760E-01 0.95188962E+02</pdfrwt>
<totfact> 0.52542650E+03</totfact>
</mgrwt>
</event>
<event>
 8    1  0.3177960E-004  0.9857083E+02  0.7546771E-02  0.1289492E+00
         -2   -1    0    0    0  501 -0.00000000000E+00  0.00000000000E+00  0.93084701700E+01  0.93084701700E+01  0.00000000000E+00 0.  1.
          2   -1    0    0  501    0  0.00000000000E+00 -0.00000000000E+00 -0.10763857167E+04  0.10763857167E+04  0.00000000000E+00 0. -1.
         23    2    1    2    0    0 -0.25916697175E+01 -0.35711950004E+00 -0.70489463230E+03  0.71033774905E+03  0.87729304093E+02 0.  0.
         23    2    1    2    0    0  0.25916697175E+01  0.35711950004E+00 -0.36218261420E+03  0.37535643779E+03  0.98536110508E+02 0.  0.
          5    1    3    3  502    0  0.27049697955E+02  0.32975707351E+02 -0.34030105668E+03  0.34299560144E+03  0.47000000000E+01 0. -1.
         -5    1    3    3    0  502 -0.29641367673E+02 -0.33332826851E+02 -0.36459357562E+03  0.36734214761E+03  0.47000000000E+01 0.  1.
          5    1    4    4  503    0 -0.27946754022E+02  0.31703010790E+02 -0.88833574107E+02  0.98486526196E+02  0.47000000000E+01 0. -1.
         -5    1    4    4    0  503  0.30538423739E+02 -0.31345891290E+02 -0.27334904010E+03  0.27686991160E+03  0.47000000000E+01 0.  1.
<mgrwt>
<rscale>  0 0.95751536E+02</rscale>
<asrwt>0</asrwt>
<pdfrwt beam="1">  1        2 0.16559777E+00 0.98570834E+02</pdfrwt>
<pdfrwt beam="2">  1       -2 0.14320726E-02 0.98570834E+02</pdfrwt>
<totfact> 0.27557826E+04</totfact>
</mgrwt>
</event>
<event>
 8    1  0.3177960E-004  0.1192131E+03  0.7546771E-02  0.1245101E+00
          1   -1    0    0  501    0  0.00000000000E+00  0.00000000000E+00  0.58729169297E+03  0.58729169297E+03  0.00000000000E+00 0. -1.
         -1   -1    0    0    0  501 -0.00000000000E+00 -0.00000000000E+00 -0.23912626609E+02  0.23912626609E+02  0.00000000000E+00 0.  1.
         23    2    1    2    0    0  0.70661577609E+02 -0.27803670993E+02  0.26946175100E+03  0.29465471670E+03  0.91900294597E+02 0.  0.
         23    2    1    2    0    0 -0.70661577609E+02  0.27803670993E+02  0.29391731536E+03  0.31654960289E+03  0.89722684688E+02 0.  0.
          5    1    4    4  502    0 -0.86615254199E+02  0.40606308742E+02  0.22582407789E+03  0.24529508500E+03  0.47000000000E+01 0. -1.
         -5    1    4    4    0  502  0.15953676590E+02 -0.12802637750E+02  0.68093237474E+02  0.71254517890E+02  0.47000000000E+01 0.  1.
          5    1    3    3  503    0  0.68857693988E+02  0.15807673974E+02  0.20307968758E+03  0.21506909142E+03  0.47000000000E+01 0. -1.
         -5    1    3    3    0  503  0.18038836209E+01 -0.43611344967E+02  0.66382063426E+02  0.79585625277E+02  0.47000000000E+01 0.  1.
<mgrwt>
<rscale>  0 0.11879327E+03</rscale>
<asrwt>0</asrwt>
<pdfrwt beam="1">  1        1 0.90352557E-01 0.11921312E+03</pdfrwt>
<pdfrwt beam="2">  1       -1 0.36788661E-02 0.11921312E+03</pdfrwt>
<totfact> 0.95624774E+03</totfact>
</mgrwt>
</event>
<event>
 8    1  0.3177960E-004  0.9434138E+02  0.7546771E-02  0.1292706E+00
          2   -1    0    0  501    0  0.00000000000E+00  0.00000000000E+00  0.81183609581E+03  0.81183609581E+03  0.00000000000E+00 0. -1.
         -2   -1    0    0    0  501 -0.00000000000E+00 -0.00000000000E+00 -0.22393755786E+02  0.22393755786E+02  0.00000000000E+00 0.  1.
         23    2    1    2    0    0 -0.41870313210E+01  0.20715541360E+02  0.96539076750E+02  0.13493361423E+03  0.91872857930E+02 0.  0.
         23    2    1    2    0    0  0.41870313210E+01 -0.20715541360E+02  0.69290326328E+03  0.69929623737E+03  0.91943626496E+02 0.  0.
          5    1    4    4  502    0  0.42006667774E+02  0.11509841909E+02  0.36428262384E+03  0.36690728615E+03  0.47000000000E+01 0. -1.
         -5    1    4    4    0  502 -0.37819636453E+02 -0.32225383270E+02  0.32862063944E+03  0.33238895122E+03  0.47000000000E+01 0.  1.
          5    1    3    3  503    0 -0.43677760862E+01 -0.32875543409E+02  0.63522873777E+02  0.71813120774E+02  0.47000000000E+01 0. -1.
         -5    1    3    3    0  503  0.18074476517E+00  0.53591084769E+02  0.33016202973E+02  0.63120493457E+02  0.47000000000E+01 0.  1.
<mgrwt>
<rscale>  0 0.94324130E+02</rscale>
<asrwt>0</asrwt>
<pdfrwt beam="1">  1        2 0.12489784E+00 0.94341377E+02</pdfrwt>
<pdfrwt beam="2">  1       -2 0.34451938E-02 0.94341377E+02</pdfrwt>
<totfact> 0.11197493E+04</totfact>
</mgrwt>
</event>
<event>
 8    1  0.3177960E-004  0.1195078E+03  0.7546771E-02  0.1244349E+00
          1   -1    0    0  501    0  0.00000000000E+00  0.00000000000E+00  0.47362567860E+03  0.47362567860E+03  0.00000000000E+00 0. -1.
         -1   -1    0    0    0  501 -0.00000000000E+00 -0.00000000000E+00 -0.29926956023E+02  0.29926956023E+02  0.00000000000E+00 0.  1.
         23    2    1    2    0    0 -0.58010405165E+02 -0.46198113065E+02  0.21205723417E+03  0.24289983471E+03  0.92371999983E+02 0.  0.
         23    2    1    2    0    0  0.58010405165E+02  0.46198113065E+02  0.23164148840E+03  0.26065279991E+03  0.93715688077E+02 0.  0.
          5    1    3    3  502    0 -0.10532036174E+02 -0.21300865414E+02  0.10578549736E+00  0.24222961089E+02  0.47000000000E+01 0. -1.
         -5    1    4    4    0  503 -0.98656368074E+00 -0.25658883129E+02  0.43286155452E+02  0.50548321883E+02  0.47000000000E+01 0.  1.
          5    1    4    4  503    0  0.58996968846E+02  0.71856996194E+02  0.18835533295E+03  0.21010447802E+03  0.47000000000E+01 0. -1.
         -5    1    3    3    0  502 -0.47478368991E+02 -0.24897247650E+02  0.21195144867E+03  0.21867687362E+03  0.47000000000E+01 0.  1.
<mgrwt>
<rscale>  0 0.11924419E+03</rscale>
<asrwt>0</asrwt>
<pdfrwt beam="1">  1        1 0.72865484E-01 0.11950775E+03</pdfrwt>
<pdfrwt beam="2">  1       -1 0.46041474E-02 0.11950775E+03</pdfrwt>
<totfact> 0.91335896E+03</totfact>
</mgrwt>
</event>
<event>
 8    1  0.3177960E-004  0.9667739E+02  0.7546771E-02  0.1288397E+00
          3   -1    0    0  501    0  0.00000000000E+00  0.00000000000E+00  0.30756027413E+03  0.30756027413E+03  0.00000000000E+00 0. -1.
         -3   -1    0    0    0  501 -0.00000000000E+00 -0.00000000000E+00 -0.85488140600E+02  0.85488140600E+02  0.00000000000E+00 0.  1.
         23    2    1    2    0    0  0.13410958153E+02  0.23416942326E+02 -0.47155754590E+02  0.10756478423E+03  0.92834856761E+02 0.  0.
         23    2    1    2    0    0 -0.13410958153E+02 -0.23416942326E+02  0.26922788812E+03  0.28548363049E+03  0.91044168146E+02 0.  0.
          5    1    4    4  502    0  0.31592663097E+02 -0.12063857458E+02  0.19387756606E+03  0.19686095001E+03  0.47000000000E+01 0. -1.
         -5    1    4    4    0  502 -0.45003621251E+02 -0.11353084868E+02  0.75350322060E+02  0.88622680484E+02  0.47000000000E+01 0.  1.
          5    1    3    3  503    0  0.12118031907E+02 -0.34968465275E+02 -0.25092769379E+02  0.44959730161E+02  0.47000000000E+01 0. -1.
         -5    1    3    3    0  503  0.12929262463E+01  0.58385407601E+02 -0.22062985211E+02  0.62605054073E+02  0.47000000000E+01 0.  1.
<mgrwt>
<rscale>  0 0.96244946E+02</rscale>
<asrwt>0</asrwt>
<pdfrwt beam="1">  1        3 0.47316965E-01 0.96677389E+02</pdfrwt>
<pdfrwt beam="2">  1       -3 0.13152022E-01 0.96677389E+02</pdfrwt>
<totfact> 0.45745954E+02</totfact>
</mgrwt>
</event>
<event>
 8    1  0.3177960E-004  0.9263748E+02  0.7546771E-02  0.1299055E+00
         -1   -1    0    0    0  501 -0.00000000000E+00  0.00000000000E+00  0.10228233125E+03  0.10228233125E+03  0.00000000000E+00 0.  1.
          1   -1    0    0  501    0  0.00000000000E+00 -0.00000000000E+00 -0.58236470326E+03  0.58236470326E+03  0.00000000000E+00 0. -1.
         23    2    1    2    0    0 -0.10447743161E+02  0.19161409788E+01  0.77072437971E+02  0.12050669656E+03  0.92026497745E+02 0.  0.
         23    2    1    2    0    0  0.10447743161E+02 -0.19161409788E+01 -0.55715480998E+03  0.56414033794E+03  0.87863597019E+02 0.  0.
          5    1    4    4  502    0  0.43476133737E+02 -0.85444107105E+01 -0.43695364888E+03  0.43921949231E+03  0.47000000000E+01 0. -1.
         -5    1    4    4    0  502 -0.33028390577E+02  0.66282697317E+01 -0.12020116110E+03  0.12492084563E+03  0.47000000000E+01 0.  1.
          5    1    3    3  503    0 -0.31602815794E+02  0.38248304905E+02  0.35447945576E+02  0.61158136333E+02  0.47000000000E+01 0. -1.
         -5    1    3    3    0  503  0.21155072633E+02 -0.36332163926E+02  0.41624492395E+02  0.59348560225E+02  0.47000000000E+01 0.  1.
<mgrwt>
<rscale>  0 0.91586182E+02</rscale>
<asrwt>0</asrwt>
<pdfrwt beam="1">  1        1 0.89594569E-01 0.92637483E+02</pdfrwt>
<pdfrwt beam="2">  1       -1 0.15735743E-01 0.92637483E+02</pdfrwt>
<totfact> 0.10826282E+03</totfact>
</mgrwt>
</event>
<event>
 8    1  0.3177960E-004  0.1276673E+03  0.7546771E-02  0.1231826E+00
          1   -1    0    0  501    0  0.00000000000E+00  0.00000000000E+00  0.71410126382E+03  0.71410126382E+03  0.00000000000E+00 0. -1.
         -1   -1    0    0    0  501 -0.00000000000E+00 -0.00000000000E+00 -0.25865774733E+02  0.25865774733E+02  0.00000000000E+00 0.  1.
         23    2    1    2    0    0 -0.69722893282E+02 -0.55755913541E+02  0.20645190445E+03  0.24155520360E+03  0.88071129171E+02 0.  0.
         23    2    1    2    0    0  0.69722893282E+02  0.55755913541E+02  0.48178358465E+03  0.49841183496E+03  0.91262977442E+02 0.  0.
          5    1    3    3  502    0  0.11215821697E+02 -0.35268564778E+02  0.96178808071E+02  0.10316064870E+03  0.47000000000E+01 0. -1.
         -5    1    4    4    0  503 -0.21545293621E+02  0.16415961124E+02  0.84550824338E+02  0.88907903771E+02  0.47000000000E+01 0.  1.
          5    1    4    4  503    0  0.91268186904E+02  0.39339952416E+02  0.39723276031E+03  0.40950393119E+03  0.47000000000E+01 0. -1.
         -5    1    3    3    0  502 -0.80938714979E+02 -0.20487348763E+02  0.11027309637E+03  0.13839455490E+03  0.47000000000E+01 0.  1.
<mgrwt>
<rscale>  0 0.12709803E+03</rscale>
<asrwt>0</asrwt>
<pdfrwt beam="1">  1        1 0.10986172E+00 0.12766728E+03</pdfrwt>
<pdfrwt beam="2">  1       -1 0.39793505E-02 0.12766728E+03</pdfrwt>
<totfact> 0.65261580E+03</totfact>
</mgrwt>
</event>
<event>
 8    1  0.3177960E-004  0.1322527E+03  0.7546771E-02  0.1235275E+00
          1   -1    0    0  501    0  0.00000000000E+00  0.00000000000E+00  0.22073212902E+02  0.22073212902E+02  0.00000000000E+00 0. -1.
         -1   -1    0    0    0  501 -0.00000000000E+00 -0.00000000000E+00 -0.72786560141E+03  0.72786560141E+03  0.00000000000E+00 0.  1.
         23    2    1    2    0    0 -0.39724058318E+02 -0.36938281407E+02 -0.25732842489E+03  0.28932453646E+03  0.12061646528E+03 0.  0.
         23    2    1    2    0    0  0.39724058318E+02  0.36938281407E+02 -0.44846396362E+03  0.46061427786E+03  0.90017491957E+02 0.  0.
          5    1    3    3  502    0  0.21164523702E+02 -0.42591680206E+02 -0.36495346882E+02  0.60133090976E+02  0.47000000000E+01 0. -1.
         -5    1    4    4    0  503  0.50638459414E+02  0.59387501966E+02 -0.30159374161E+03  0.31156380396E+03  0.47000000000E+01 0.  1.
          5    1    4    4  503    0 -0.10914401096E+02 -0.22449220559E+02 -0.14687022201E+03  0.14905047390E+03  0.47000000000E+01 0. -1.
         -5    1    3    3    0  502 -0.60888582020E+02  0.56533987991E+01 -0.22083307801E+03  0.22919144548E+03  0.47000000000E+01 0.  1.
<mgrwt>
<rscale>  0 0.12486822E+03</rscale>
<asrwt>0</asrwt>
<pdfrwt beam="1">  1        1 0.33958791E-02 0.13225267E+03</pdfrwt>
<pdfrwt beam="2">  1       -1 0.11197932E+00 0.13225267E+03</pdfrwt>
<totfact> 0.21562858E+03</totfact>
</mgrwt>
</event>
<event>
 8    1  0.3177960E-004  0.9903235E+02  0.7546771E-02  0.1282368E+00
          1   -1    0    0  501    0  0.00000000000E+00  0.00000000000E+00  0.10306000145E+03  0.10306000145E+03  0.00000000000E+00 0. -1.
         -1   -1    0    0    0  501 -0.00000000000E+00 -0.00000000000E+00 -0.95118593751E+02  0.95118593751E+02  0.00000000000E+00 0.  1.
         23    2    1    2    0    0  0.39220633318E+02 -0.36841267790E+00  0.39894062470E+01  0.99112675232E+02  0.90934114740E+02 0.  0.
         23    2    1    2    0    0 -0.39220633318E+02  0.36841267790E+00  0.39520014523E+01  0.99065919971E+02  0.90884786287E+02 0.  0.
          5    1    4    4  502    0  0.25997255882E+02  0.16448919085E+02 -0.35105369356E+01  0.31318335237E+02  0.47000000000E+01 0. -1.
         -5    1    4    4    0  502 -0.65217889200E+02 -0.16080506407E+02  0.74625383880E+01  0.67747584733E+02  0.47000000000E+01 0.  1.
          5    1    3    3  503    0  0.41598323803E+02 -0.28426738271E+02  0.31385710104E+02  0.59545384294E+02  0.47000000000E+01 0. -1.
         -5    1    3    3    0  503 -0.23776904854E+01  0.28058325593E+02 -0.27396303857E+02  0.39567290938E+02  0.47000000000E+01 0.  1.
<mgrwt>
<rscale>  0 0.99021028E+02</rscale>
<asrwt>0</asrwt>
<pdfrwt beam="1">  1        1 0.15855385E-01 0.99032353E+02</pdfrwt>
<pdfrwt beam="2">  1       -1 0.14633630E-01 0.99032353E+02</pdfrwt>
<totfact> 0.10564608E+04</totfact>
</mgrwt>
</event>
<event>
 8    1  0.3177960E-004  0.1098292E+03  0.7546771E-02  0.1262663E+00
         -1   -1    0    0    0  501 -0.00000000000E+00  0.00000000000E+00  0.51269674978E+02  0.51269674978E+02  0.00000000000E+00 0.  1.
          1   -1    0    0  501    0  0.00000000000E+00 -0.00000000000E+00 -0.24125093766E+03  0.24125093766E+03  0.00000000000E+00 0. -1.
         23    2    1    2    0    0 -0.56656807918E+02  0.11175917157E+02 -0.13172542998E+03  0.17150523975E+03  0.93421428756E+02 0.  0.
         23    2    1    2    0    0  0.56656807918E+02 -0.11175917157E+02 -0.58255832704E+02  0.12101537289E+03  0.88972374496E+02 0.  0.
          5    1    4    4  502    0  0.72379799649E+02 -0.31363615063E+02 -0.50834130057E+02  0.93961218200E+02  0.47000000000E+01 0. -1.
         -5    1    4    4    0  502 -0.15722991730E+02  0.20187697906E+02 -0.74217026468E+01  0.27054154688E+02  0.47000000000E+01 0.  1.
          5    1    3    3  503    0  0.22586473454E+02  0.15450744299E+02 -0.51819013122E+02  0.58789237139E+02  0.47000000000E+01 0. -1.
         -5    1    3    3    0  503 -0.79243281372E+02 -0.42748271417E+01 -0.79906416858E+02  0.11271600261E+03  0.47000000000E+01 0.  1.
<mgrwt>
<rscale>  0 0.10887727E+03</rscale>
<asrwt>0</asrwt>
<pdfrwt beam="1">  1        1 0.37115528E-01 0.10982922E+03</pdfrwt>
<pdfrwt beam="2">  1       -1 0.78876424E-02 0.10982922E+03</pdfrwt>
<totfact> 0.94465198E+03</totfact>
</mgrwt>
</event>
<event>
 8    1  0.3177960E-004  0.1082150E+03  0.7546771E-02  0.1264216E+00
          1   -1    0    0  501    0  0.00000000000E+00  0.00000000000E+00  0.81587857962E+03  0.81587857962E+03  0.00000000000E+00 0. -1.
         -1   -1    0    0    0  501 -0.00000000000E+00 -0.00000000000E+00 -0.24880541448E+02  0.24880541448E+02  0.00000000000E+00 0.  1.
         23    2    1    2    0    0 -0.36548829880E+02 -0.44483246971E+02  0.66937034053E+03  0.67795930037E+03  0.90871249317E+02 0.  0.
         23    2    1    2    0    0  0.36548829880E+02  0.44483246971E+02  0.12162769765E+03  0.16279982070E+03  0.91629190538E+02 0.  0.
          5    1    4    4  502    0  0.14790599220E+02 -0.19442367655E+02  0.15106125879E+01  0.24922669113E+02  0.47000000000E+01 0. -1.
         -5    1    3    3    0  503  0.16107068501E+02 -0.43574055229E+02  0.44501648101E+03  0.44745937728E+03  0.47000000000E+01 0.  1.
          5    1    3    3  503    0 -0.52655898381E+02 -0.90919174176E+00  0.22435385951E+03  0.23049992309E+03  0.47000000000E+01 0. -1.
         -5    1    4    4    0  502  0.21758230660E+02  0.63925614627E+02  0.12011708506E+03  0.13787715159E+03  0.47000000000E+01 0.  1.
<mgrwt>
<rscale>  0 0.10805438E+03</rscale>
<asrwt>0</asrwt>
<pdfrwt beam="1">  1        1 0.12551976E+00 0.10821499E+03</pdfrwt>
<pdfrwt beam="2">  1       -1 0.38277762E-02 0.10821499E+03</pdfrwt>
<totfact> 0.56290894E+03</totfact>
</mgrwt>
</event>
<event>
 8    1  0.3177960E-004  0.1001552E+03  0.7546771E-02  0.1282141E+00
         -2   -1    0    0    0  501 -0.00000000000E+00  0.00000000000E+00  0.52822600313E+02  0.52822600313E+02  0.00000000000E+00 0.  1.
          2   -1    0    0  501    0  0.00000000000E+00 -0.00000000000E+00 -0.35184475939E+03  0.35184475939E+03  0.00000000000E+00 0. -1.
         23    2    1    2    0    0  0.26365744923E+02  0.43801339208E+01 -0.74770670312E+01  0.96398638715E+02  0.92317132408E+02 0.  0.
         23    2    1    2    0    0 -0.26365744923E+02 -0.43801339208E+01 -0.29154509204E+03  0.30826872099E+03  0.96523186674E+02 0.  0.
          5    1    3    3  502    0 -0.31726153038E+02 -0.14002971156E+02 -0.26868035277E+01  0.35099015670E+02  0.47000000000E+01 0. -1.
         -5    1    3    3    0  502  0.58091897961E+02  0.18383105077E+02 -0.47902635035E+01  0.61299623045E+02  0.47000000000E+01 0.  1.
          5    1    4    4  503    0  0.14363409287E+00 -0.47697993178E+02 -0.11734840960E+03  0.12675905655E+03  0.47000000000E+01 0. -1.
         -5    1    4    4    0  503 -0.26509379016E+02  0.43317859257E+02 -0.17419668245E+03  0.18150966443E+03  0.47000000000E+01 0.  1.
<mgrwt>
<rscale>  0 0.99127752E+02</rscale>
<asrwt>0</asrwt>
<pdfrwt beam="1">  1        2 0.54129966E-01 0.10015520E+03</pdfrwt>
<pdfrwt beam="2">  1       -2 0.81265535E-02 0.10015520E+03</pdfrwt>
<totfact> 0.78924731E+03</totfact>
</mgrwt>
</event>
<event>
 8    1  0.3177960E-004  0.1047341E+03  0.7546771E-02  0.1272018E+00
          2   -1    0    0  501    0  0.00000000000E+00  0.00000000000E+00  0.12276113393E+03  0.12276113393E+03  0.00000000000E+00 0. -1.
         -2   -1    0    0    0  501 -0.00000000000E+00 -0.00000000000E+00 -0.10321995044E+03  0.10321995044E+03  0.00000000000E+00 0.  1.
         23    2    1    2    0    0 -0.42793964739E+02  0.25372945786E+01  0.54404600349E+02  0.11559684681E+03  0.92547334765E+02 0.  0.
         23    2    1    2    0    0  0.42793964739E+02 -0.25372945786E+01 -0.34863416864E+02  0.11038423756E+03  0.95558677182E+02 0.  0.
          5    1    3    3  502    0 -0.62297128061E+02 -0.22436983537E+02  0.50331632511E+02  0.83304943587E+02  0.47000000000E+01 0. -1.
         -5    1    3    3    0  502  0.19503163322E+02  0.24974278115E+02  0.40729678381E+01  0.32291903226E+02  0.47000000000E+01 0.  1.
          5    1    4    4  503    0 -0.35627438635E+01 -0.39138793683E+02  0.35988811708E+01  0.39743933632E+02  0.47000000000E+01 0. -1.
         -5    1    4    4    0  503  0.46356708602E+02  0.36601499105E+02 -0.38462298035E+02  0.70640303930E+02  0.47000000000E+01 0.  1.
<mgrwt>
<rscale>  0 0.10404221E+03</rscale>
<asrwt>0</asrwt>
<pdfrwt beam="1">  1        2 0.18886328E-01 0.10473405E+03</pdfrwt>
<pdfrwt beam="2">  1       -2 0.15879993E-01 0.10473405E+03</pdfrwt>
<totfact> 0.85289096E+03</totfact>
</mgrwt>
</event>
<event>
 8    1  0.3177960E-004  0.9361561E+02  0.7546771E-02  0.1294455E+00
         -2   -1    0    0    0  501 -0.00000000000E+00  0.00000000000E+00  0.22315689898E+02  0.22315689898E+02  0.00000000000E+00 0.  1.
          2   -1    0    0  501    0  0.00000000000E+00 -0.00000000000E+00 -0.69675503272E+03  0.69675503272E+03  0.00000000000E+00 0. -1.
         23    2    1    2    0    0  0.66280958781E+01  0.95962380689E+01 -0.99119985817E+02  0.13618458888E+03  0.92657709983E+02 0.  0.
         23    2    1    2    0    0 -0.66280958781E+01 -0.95962380689E+01 -0.57531935701E+03  0.58288613374E+03  0.92886290284E+02 0.  0.
          5    1    3    3  502    0 -0.20531658842E+02 -0.17779697978E+02 -0.92823347118E+02  0.96829388334E+02  0.47000000000E+01 0. -1.
         -5    1    4    4    0  503 -0.47094024894E+01  0.40448060332E+02 -0.19556331083E+03  0.19981321928E+03  0.47000000000E+01 0.  1.
          5    1    4    4  503    0 -0.19186933886E+01 -0.50044298401E+02 -0.37975604618E+03  0.38307291446E+03  0.47000000000E+01 0. -1.
         -5    1    3    3    0  502  0.27159754720E+02  0.27375936047E+02 -0.62966386992E+01  0.39355200543E+02  0.47000000000E+01 0.  1.
<mgrwt>
<rscale>  0 0.93558859E+02</rscale>
<asrwt>0</asrwt>
<pdfrwt beam="1">  1        2 0.10719307E+00 0.93615610E+02</pdfrwt>
<pdfrwt beam="2">  1       -2 0.34331833E-02 0.93615610E+02</pdfrwt>
<totfact> 0.13506711E+04</totfact>
</mgrwt>
</event>
<event>
 7    1  0.3177960E-004  0.1398102E+03  0.7546771E-02  0.1234447E+00
         -1   -1    0    0    0  501 -0.00000000000E+00  0.00000000000E+00  0.15559242546E+02  0.15559242546E+02  0.00000000000E+00 0.  1.
          1   -1    0    0  501    0  0.00000000000E+00 -0.00000000000E+00 -0.85349276787E+03  0.85349276787E+03  0.00000000000E+00 0. -1.
         23    2    1    2    0    0  0.16874245703E-02 -0.56050768796E+01 -0.34629299579E+03  0.35791865363E+03  0.90307844604E+02 0.  0.
          5    1    3    3  502    0 -0.12000950811E+01  0.34282316611E+02 -0.26484273983E+03  0.26709639515E+03  0.47000000000E+01 0. -1.
         -5    1    3    3    0  502  0.12017825057E+01 -0.39887393491E+02 -0.81450255957E+02  0.90822258484E+02  0.47000000000E+01 0.  1.
          5    1    1    2  503    0 -0.59255436250E+02 -0.29581551338E+02 -0.30443456474E+03  0.31159070768E+03  0.47000000000E+01 0. -1.
         -5    1    1    2    0  503  0.59253748825E+02  0.35186628218E+02 -0.18720596480E+03  0.19954264911E+03  0.47000000000E+01 0.  1.
<mgrwt>
<rscale>  0 0.12539906E+03</rscale>
<asrwt>0</asrwt>
<pdfrwt beam="1">  1        1 0.13130660E+00 0.13981022E+03</pdfrwt>
<pdfrwt beam="2">  1       -1 0.23937293E-02 0.13981022E+03</pdfrwt>
<totfact> 0.10544946E+04</totfact>
</mgrwt>
</event>
<event>
 8    1  0.3177960E-004  0.1019022E+03  0.7546771E-02  0.1278311E+00
         -1   -1    0    0    0  501 -0.00000000000E+00  0.00000000000E+00  0.11875974921E+03  0.11875974921E+03  0.00000000000E+00 0.  1.
          1   -1    0    0  501    0  0.00000000000E+00 -0.00000000000E+00 -0.14362012501E+03  0.14362012501E+03  0.00000000000E+00 0. -1.
         23    2    1    2    0    0 -0.19845877902E+01  0.29800848449E+02  0.72050751819E+02  0.12175332941E+03  0.93490818951E+02 0.  0.
         23    2    1    2    0    0  0.19845877902E+01 -0.29800848449E+02 -0.96911127616E+02  0.14062654480E+03  0.97427045990E+02 0.  0.
          5    1    4    4  502    0 -0.52039122022E+01 -0.59697151047E+02 -0.90852918963E+02  0.10893655690E+03  0.47000000000E+01 0. -1.
         -5    1    4    4    0  502  0.71884999924E+01  0.29896302597E+02 -0.60582086528E+01  0.31689987902E+02  0.47000000000E+01 0.  1.
          5    1    3    3  503    0  0.32019696314E+02  0.45601887659E+02  0.60165596978E+02  0.82138798200E+02  0.47000000000E+01 0. -1.
         -5    1    3    3    0  503 -0.34004284104E+02 -0.15801039210E+02  0.11885154841E+02  0.39614531212E+02  0.47000000000E+01 0.  1.
<mgrwt>
<rscale>  0 0.10094979E+03</rscale>
<asrwt>0</asrwt>
<pdfrwt beam="1">  1        1 0.22095404E-01 0.10190220E+03</pdfrwt>
<pdfrwt beam="2">  1       -1 0.18270731E-01 0.10190220E+03</pdfrwt>
<totfact> 0.49165341E+03</totfact>
</mgrwt>
</event>
<event>
 8    1  0.3177960E-004  0.1528779E+03  0.7546771E-02  0.1197275E+00
         -2   -1    0    0    0  501 -0.00000000000E+00  0.00000000000E+00  0.34998488543E+02  0.34998488543E+02  0.00000000000E+00 0.  1.
          2   -1    0    0  501    0  0.00000000000E+00 -0.00000000000E+00 -0.67657477630E+03  0.67657477630E+03  0.00000000000E+00 0. -1.
         23    2    1    2    0    0 -0.75431643142E+02  0.97689909194E+02 -0.37122204271E+03  0.40146911323E+03  0.90213040872E+02 0.  0.
         23    2    1    2    0    0  0.75431643142E+02 -0.97689909194E+02 -0.27035424505E+03  0.31010415161E+03  0.88543299488E+02 0.  0.
          5    1    3    3  502    0 -0.39976860319E+02  0.10192522925E+03 -0.32432603173E+03  0.34233954866E+03  0.47000000000E+01 0. -1.
         -5    1    4    4    0  503  0.17750759512E+02  0.15838731697E+02 -0.37357239390E+02  0.44537716823E+02  0.47000000000E+01 0.  1.
          5    1    4    4  503    0  0.57680883630E+02 -0.11352864089E+03 -0.23299700566E+03  0.26556643479E+03  0.47000000000E+01 0. -1.
         -5    1    3    3    0  502 -0.35454782823E+02 -0.42353200607E+01 -0.46896010983E+02  0.59129564578E+02  0.47000000000E+01 0.  1.
<mgrwt>
<rscale>  0 0.15263245E+03</rscale>
<asrwt>0</asrwt>
<pdfrwt beam="1">  1        2 0.10408843E+00 0.15287787E+03</pdfrwt>
<pdfrwt beam="2">  1       -2 0.53843825E-02 0.15287787E+03</pdfrwt>
<totfact> 0.74020059E+03</totfact>
</mgrwt>
</event>
<event>
 8    1  0.3177960E-004  0.1101176E+03  0.7546771E-02  0.1270850E+00
         -3   -1    0    0    0  501 -0.00000000000E+00  0.00000000000E+00  0.61038334808E+02  0.61038334808E+02  0.00000000000E+00 0.  1.
          3   -1    0    0  501    0  0.00000000000E+00 -0.00000000000E+00 -0.17468081069E+03  0.17468081069E+03  0.00000000000E+00 0. -1.
         23    2    1    2    0    0  0.65532781847E+01 -0.38776769291E+01 -0.21890815960E+02  0.92386469577E+02  0.89431930003E+02 0.  0.
         23    2    1    2    0    0 -0.65532781847E+01  0.38776769291E+01 -0.91751659924E+02  0.14333267592E+03  0.10985402612E+03 0.  0.
          5    1    4    4  502    0 -0.48696659634E+02 -0.26572664734E+02 -0.32920995947E+02  0.64678846192E+02  0.47000000000E+01 0. -1.
         -5    1    4    4    0  502  0.42143381449E+02  0.30450341663E+02 -0.58830663978E+02  0.78653829731E+02  0.47000000000E+01 0.  1.
          5    1    3    3  503    0  0.36291878603E+02  0.46057384407E+01 -0.41458136209E+02  0.55490362560E+02  0.47000000000E+01 0. -1.
         -5    1    3    3    0  503 -0.29738600419E+02 -0.84834153698E+01  0.19567320249E+02  0.36896107016E+02  0.47000000000E+01 0.  1.
<mgrwt>
<rscale>  0 0.10463040E+03</rscale>
<asrwt>0</asrwt>
<pdfrwt beam="1">  1        3 0.26873971E-01 0.11011761E+03</pdfrwt>
<pdfrwt beam="2">  1       -3 0.93905132E-02 0.11011761E+03</pdfrwt>
<totfact> 0.23742798E+03</totfact>
</mgrwt>
</event>
<event>
 8    1  0.3177960E-004  0.1168596E+03  0.7546771E-02  0.1253917E+00
          2   -1    0    0  501    0  0.00000000000E+00  0.00000000000E+00  0.70799781161E+03  0.70799781161E+03  0.00000000000E+00 0. -1.
         -2   -1    0    0    0  501 -0.00000000000E+00 -0.00000000000E+00 -0.91097514268E+02  0.91097514268E+02  0.00000000000E+00 0.  1.
         23    2    1    2    0    0 -0.18909738540E+02 -0.51203708421E+02 -0.54247271600E+02  0.11784997523E+03  0.89254984273E+02 0.  0.
         23    2    1    2    0    0  0.18909738540E+02  0.51203708421E+02  0.67114756894E+03  0.68124535065E+03  0.10332845937E+03 0.  0.
          5    1    3    3  502    0  0.91800545620E+01 -0.29121507332E+02  0.18963670919E+02  0.36249778010E+02  0.47000000000E+01 0. -1.
         -5    1    4    4    0  503  0.57418728364E+02  0.32318525132E+02  0.27814403976E+03  0.28588038458E+03  0.47000000000E+01 0.  1.
          5    1    4    4  503    0 -0.38508989824E+02  0.18885183289E+02  0.39300352918E+03  0.39536496607E+03  0.47000000000E+01 0. -1.
         -5    1    3    3    0  502 -0.28089793102E+02 -0.22082201089E+02 -0.73210942519E+02  0.81600197218E+02  0.47000000000E+01 0.  1.
<mgrwt>
<rscale>  0 0.11367226E+03</rscale>
<asrwt>0</asrwt>
<pdfrwt beam="1">  1        2 0.10892274E+00 0.11685961E+03</pdfrwt>
<pdfrwt beam="2">  1       -2 0.14015003E-01 0.11685961E+03</pdfrwt>
<totfact> 0.15668302E+03</totfact>
</mgrwt>
</event>
<event>
 8    1  0.3177960E-004  0.9406189E+02  0.7546771E-02  0.1302448E+00
          3   -1    0    0  501    0  0.00000000000E+00  0.00000000000E+00  0.83238075386E+03  0.83238075386E+03  0.00000000000E+00 0. -1.
         -3   -1    0    0    0  501 -0.00000000000E+00 -0.00000000000E+00 -0.10531680167E+02  0.10531680167E+02  0.00000000000E+00 0.  1.
         23    2    1    2    0    0  0.47786044016E+01  0.15365992245E+02  0.22301156347E+03  0.23673258990E+03  0.77776686118E+02 0.  0.
         23    2    1    2    0    0 -0.47786044016E+01 -0.15365992245E+02  0.59883751022E+03  0.60617984412E+03  0.92675190824E+02 0.  0.
          5    1    3    3  502    0 -0.18816440509E+02  0.11659299174E+02  0.20550865341E+03  0.20675080246E+03  0.47000000000E+01 0. -1.
         -5    1    4    4    0  503 -0.44323482402E+02 -0.16108204110E+02  0.43482948377E+03  0.43740463565E+03  0.47000000000E+01 0.  1.
          5    1    4    4  503    0  0.39544878001E+02  0.74221186559E+00  0.16400802645E+03  0.16877520847E+03  0.47000000000E+01 0. -1.
         -5    1    3    3    0  502  0.23595044911E+02  0.37066930710E+01  0.17502910059E+02  0.29981787445E+02  0.47000000000E+01 0.  1.
<mgrwt>
<rscale>  0 0.90167108E+02</rscale>
<asrwt>0</asrwt>
<pdfrwt beam="1">  1        3 0.12805853E+00 0.94061893E+02</pdfrwt>
<pdfrwt beam="2">  1       -3 0.16202591E-02 0.94061893E+02</pdfrwt>
<totfact> 0.14407276E+03</totfact>
</mgrwt>
</event>
<event>
 8    1  0.3177960E-004  0.1025095E+03  0.7546771E-02  0.1276398E+00
          1   -1    0    0  501    0  0.00000000000E+00  0.00000000000E+00  0.71895874217E+03  0.71895874217E+03  0.00000000000E+00 0. -1.
         -1   -1    0    0    0  501 -0.00000000000E+00 -0.00000000000E+00 -0.15497663580E+02  0.15497663580E+02  0.00000000000E+00 0.  1.
         23    2    1    2    0    0  0.32603908348E+02  0.26943598630E+02  0.45948058243E+03  0.47077659677E+03  0.93376796282E+02 0.  0.
         23    2    1    2    0    0 -0.32603908348E+02 -0.26943598630E+02  0.24398049616E+03  0.26367980898E+03  0.90617806275E+02 0.  0.
          5    1    4    4  502    0  0.31479456640E+02 -0.60010672375E+01  0.82164577691E+02  0.88318043601E+02  0.47000000000E+01 0. -1.
         -5    1    3    3    0  503  0.13787025662E+02  0.53046999742E+02  0.15325125163E+03  0.16282537389E+03  0.47000000000E+01 0.  1.
          5    1    3    3  503    0  0.18816882687E+02 -0.26103401112E+02  0.30622933080E+03  0.30795122287E+03  0.47000000000E+01 0. -1.
         -5    1    4    4    0  502 -0.64083364988E+02 -0.20942531392E+02  0.16181591847E+03  0.17536176538E+03  0.47000000000E+01 0.  1.
<mgrwt>
<rscale>  0 0.10187700E+03</rscale>
<asrwt>0</asrwt>
<pdfrwt beam="1">  1        1 0.11060901E+00 0.10250950E+03</pdfrwt>
<pdfrwt beam="2">  1       -1 0.23842565E-02 0.10250950E+03</pdfrwt>
<totfact> 0.13389939E+04</totfact>
</mgrwt>
</event>
<event>
 8    1  0.3177960E-004  0.9247552E+02  0.7546771E-02  0.1299851E+00
          3   -1    0    0  501    0  0.00000000000E+00  0.00000000000E+00  0.64465446454E+02  0.64465446454E+02  0.00000000000E+00 0. -1.
         -3   -1    0    0    0  501 -0.00000000000E+00 -0.00000000000E+00 -0.20180205170E+03  0.20180205170E+03  0.00000000000E+00 0.  1.
         23    2    1    2    0    0  0.12849529530E+01  0.28812741578E-01 -0.14918177831E+03  0.17303643851E+03  0.87662729466E+02 0.  0.
         23    2    1    2    0    0 -0.12849529530E+01 -0.28812741578E-01  0.11845173060E+02  0.93231059651E+02  0.92466590856E+02 0.  0.
          5    1    4    4  502    0 -0.33853484484E+02  0.31407212734E+02  0.11055696968E+02  0.47715719201E+02  0.47000000000E+01 0. -1.
         -5    1    3    3    0  503  0.18433519864E+02 -0.28417004662E+02 -0.12993851850E+03  0.13436305072E+03  0.47000000000E+01 0.  1.
          5    1    3    3  503    0 -0.17148566911E+02  0.28445817404E+02 -0.19243259807E+02  0.38673387786E+02  0.47000000000E+01 0. -1.
         -5    1    4    4    0  502  0.32568531531E+02 -0.31436025475E+02  0.78947609162E+00  0.45515340450E+02  0.47000000000E+01 0.  1.
<mgrwt>
<rscale>  0 0.91250555E+02</rscale>
<asrwt>0</asrwt>
<pdfrwt beam="1">  1        3 0.99177611E-02 0.92475523E+02</pdfrwt>
<pdfrwt beam="2">  1       -3 0.31046469E-01 0.92475523E+02</pdfrwt>
<totfact> 0.16120602E+03</totfact>
</mgrwt>
</event>
<event>
 8    1  0.3177960E-004  0.1101836E+03  0.7546771E-02  0.1271258E+00
          4   -1    0    0  501    0  0.00000000000E+00  0.00000000000E+00  0.15664372691E+03  0.15664372691E+03  0.00000000000E+00 0. -1.
         -4   -1    0    0    0  501 -0.00000000000E+00 -0.00000000000E+00 -0.27815680641E+03  0.27815680641E+03  0.00000000000E+00 0.  1.
         23    2    1    2    0    0 -0.38809224256E+01  0.11763924389E+02 -0.25307668404E+03  0.27602214772E+03  0.10948500606E+03 0.  0.
         23    2    1    2    0    0  0.38809224256E+01 -0.11763924389E+02  0.13156360454E+03  0.15877838559E+03  0.88023532170E+02 0.  0.
          5    1    4    4  502    0 -0.38232836543E+01 -0.31219952552E+02  0.13350775298E+03  0.13724326227E+03  0.47000000000E+01 0. -1.
         -5    1    3    3    0  503 -0.39471607579E+02  0.45279960851E+02 -0.15593320147E+03  0.16716918371E+03  0.47000000000E+01 0.  1.
          5    1    3    3  503    0  0.35590685154E+02 -0.33516036462E+02 -0.97143482565E+02  0.10885296401E+03  0.47000000000E+01 0. -1.
         -5    1    4    4    0  502  0.77042060800E+01  0.19456028163E+02 -0.19441484345E+01  0.21535123318E+02  0.47000000000E+01 0.  1.
<mgrwt>
<rscale>  0 0.10442439E+03</rscale>
<asrwt>0</asrwt>
<pdfrwt beam="1">  1        4 0.24099035E-01 0.11018357E+03</pdfrwt>
<pdfrwt beam="2">  1       -4 0.42793354E-01 0.11018357E+03</pdfrwt>
<totfact> 0.13758107E+02</totfact>
</mgrwt>
</event>
<event>
 8    1  0.3177960E-004  0.9645787E+02  0.7546771E-02  0.1291340E+00
          2   -1    0    0  501    0  0.00000000000E+00  0.00000000000E+00  0.10121082235E+03  0.10121082235E+03  0.00000000000E+00 0. -1.
         -2   -1    0    0    0  501 -0.00000000000E+00 -0.00000000000E+00 -0.10021705468E+03  0.10021705468E+03  0.00000000000E+00 0.  1.
         23    2    1    2    0    0  0.25489740115E+02  0.96398725474E+01  0.37971790241E+02  0.98124949221E+02  0.86278588373E+02 0.  0.
         23    2    1    2    0    0 -0.25489740115E+02 -0.96398725474E+01 -0.36978022570E+02  0.10330292781E+03  0.92528194330E+02 0.  0.
          5    1    3    3  502    0 -0.14693479441E+02  0.32313222137E+02  0.37353052414E+02  0.51743436179E+02  0.47000000000E+01 0. -1.
         -5    1    3    3    0  502  0.40183219557E+02 -0.22673349590E+02  0.61873782705E+00  0.46381513042E+02  0.47000000000E+01 0.  1.
          5    1    4    4  503    0 -0.35058846411E+02  0.35467186115E+02 -0.18242589713E+02  0.53309718458E+02  0.47000000000E+01 0. -1.
         -5    1    4    4    0  503  0.95691062961E+01 -0.45107058662E+02 -0.18735432857E+02  0.49993209347E+02  0.47000000000E+01 0.  1.
<mgrwt>
<rscale>  0 0.94927386E+02</rscale>
<asrwt>0</asrwt>
<pdfrwt beam="1">  1        2 0.15570896E-01 0.96457870E+02</pdfrwt>
<pdfrwt beam="2">  1       -2 0.15418009E-01 0.96457870E+02</pdfrwt>
<totfact> 0.11073515E+04</totfact>
</mgrwt>
</event>
<event>
 8    1  0.3177960E-004  0.1592179E+03  0.7546771E-02  0.1190094E+00
          1   -1    0    0  501    0  0.00000000000E+00  0.00000000000E+00  0.51835595005E+03  0.51835595005E+03  0.00000000000E+00 0. -1.
         -1   -1    0    0    0  501 -0.00000000000E+00 -0.00000000000E+00 -0.49473962762E+02  0.49473962762E+02  0.00000000000E+00 0.  1.
         23    2    1    2    0    0  0.12987101237E+03  0.53372935758E+01  0.27580861958E+03  0.31757473593E+03  0.88816393269E+02 0.  0.
         23    2    1    2    0    0 -0.12987101237E+03 -0.53372935758E+01  0.19307336771E+03  0.25025517688E+03  0.91953040628E+02 0.  0.
          5    1    3    3  502    0  0.10280671425E+01 -0.22497858964E+02  0.23601629850E+02  0.32959634579E+02  0.47000000000E+01 0. -1.
         -5    1    3    3    0  502  0.12884294522E+03  0.27835152540E+02  0.25220698973E+03  0.28461510136E+03  0.47000000000E+01 0.  1.
          5    1    4    4  503    0 -0.79838875286E+02  0.33657836157E+02  0.15047608855E+03  0.17370158078E+03  0.47000000000E+01 0. -1.
         -5    1    4    4    0  503 -0.50032137080E+02 -0.38995129733E+02  0.42597279167E+02  0.76553596101E+02  0.47000000000E+01 0.  1.
<mgrwt>
<rscale>  0 0.15876829E+03</rscale>
<asrwt>0</asrwt>
<pdfrwt beam="1">  1        1 0.79747065E-01 0.15921786E+03</pdfrwt>
<pdfrwt beam="2">  1       -1 0.76113793E-02 0.15921786E+03</pdfrwt>
<totfact> 0.39031344E+03</totfact>
</mgrwt>
</event>
<event>
 7    1  0.3177960E-004  0.1997586E+03  0.7546771E-02  0.1157918E+00
          1   -1    0    0  501    0  0.00000000000E+00  0.00000000000E+00  0.11500848950E+04  0.11500848950E+04  0.00000000000E+00 0. -1.
         -1   -1    0    0    0  501 -0.00000000000E+00 -0.00000000000E+00 -0.29020779402E+02  0.29020779402E+02  0.00000000000E+00 0.  1.
         23    2    1    2    0    0  0.13342987387E+03  0.34279163859E+02  0.49903827669E+03  0.52579131012E+03  0.91862439967E+02 0.  0.
          5    1    3    3  502    0  0.96553880875E+02  0.87454037322E+01  0.44473014135E+03  0.45519899233E+03  0.47000000000E+01 0. -1.
         -5    1    3    3    0  502  0.36875992996E+02  0.25533760127E+02  0.54308135343E+02  0.70592317784E+02  0.47000000000E+01 0.  1.
          5    1    1    2  503    0 -0.14178718778E+03 -0.73103558917E+02  0.50801523408E+03  0.53249347883E+03  0.47000000000E+01 0. -1.
         -5    1    1    2    0  503  0.83573139111E+01  0.38824395058E+02  0.11401060482E+03  0.12082088544E+03  0.47000000000E+01 0.  1.
<mgrwt>
<rscale>  0 0.19060411E+03</rscale>
<asrwt>0</asrwt>
<pdfrwt beam="1">  1        1 0.17693610E+00 0.19975864E+03</pdfrwt>
<pdfrwt beam="2">  1       -1 0.44647362E-02 0.19975864E+03</pdfrwt>
<totfact> 0.25812497E+03</totfact>
</mgrwt>
</event>
<event>
 8    1  0.3177960E-004  0.1490567E+03  0.7546771E-02  0.1202080E+00
         -1   -1    0    0    0  501 -0.00000000000E+00  0.00000000000E+00  0.38116454093E+03  0.38116454093E+03  0.00000000000E+00 0.  1.
          1   -1    0    0  501    0  0.00000000000E+00 -0.00000000000E+00 -0.10024105687E+03  0.10024105687E+03  0.00000000000E+00 0. -1.
         23    2    1    2    0    0  0.76472734599E+02 -0.87748485364E+02  0.29681453290E+03  0.33150420843E+03  0.90820137883E+02 0.  0.
         23    2    1    2    0    0 -0.76472734599E+02  0.87748485364E+02 -0.15891048843E+02  0.14990138937E+03  0.93112970534E+02 0.  0.
          5    1    3    3  502    0  0.53889164115E+02  0.16239869189E+01  0.89834631472E+02  0.10487626211E+03  0.47000000000E+01 0. -1.
         -5    1    4    4    0  503 -0.65860061790E+02  0.30144896054E+02  0.26688793637E+02  0.77334624864E+02  0.47000000000E+01 0.  1.
          5    1    4    4  503    0 -0.10612672809E+02  0.57603589310E+02 -0.42579842480E+02  0.72566764508E+02  0.47000000000E+01 0. -1.
         -5    1    3    3    0  502  0.22583570484E+02 -0.89372472282E+02  0.20697990142E+03  0.22662794632E+03  0.47000000000E+01 0.  1.
<mgrwt>
<rscale>  0 0.14870007E+03</rscale>
<asrwt>0</asrwt>
<pdfrwt beam="1">  1        1 0.15421701E-01 0.14905670E+03</pdfrwt>
<pdfrwt beam="2">  1       -1 0.58640698E-01 0.14905670E+03</pdfrwt>
<totfact> 0.10783414E+03</totfact>
</mgrwt>
</event>
<event>
 8    1  0.3177960E-004  0.1301103E+03  0.7546771E-02  0.1228254E+00
         -1   -1    0    0    0  501 -0.00000000000E+00  0.00000000000E+00  0.81011109369E+02  0.81011109369E+02  0.00000000000E+00 0.  1.
          1   -1    0    0  501    0  0.00000000000E+00 -0.00000000000E+00 -0.21960686173E+03  0.21960686173E+03  0.00000000000E+00 0. -1.
         23    2    1    2    0    0  0.86717391523E+02  0.30681239686E+02 -0.10759866864E+03  0.16686631169E+03  0.88349578505E+02 0.  0.
         23    2    1    2    0    0 -0.86717391523E+02 -0.30681239686E+02 -0.30997083713E+02  0.13375165941E+03  0.92018708607E+02 0.  0.
          5    1    4    4  502    0 -0.48300351353E+02  0.15799883682E+02 -0.48890975879E+02  0.70675156792E+02  0.47000000000E+01 0. -1.
         -5    1    4    4    0  502 -0.38417040170E+02 -0.46481123368E+02  0.17893892166E+02  0.63076502613E+02  0.47000000000E+01 0.  1.
          5    1    3    3  503    0  0.53206243516E+02  0.61490077724E+02 -0.74563267834E+02  0.11042511000E+03  0.47000000000E+01 0. -1.
         -5    1    3    3    0  503  0.33511148007E+02 -0.30808838038E+02 -0.33035400811E+02  0.56441201695E+02  0.47000000000E+01 0.  1.
<mgrwt>
<rscale>  0 0.12946334E+03</rscale>
<asrwt>0</asrwt>
<pdfrwt beam="1">  1        1 0.33785670E-01 0.13011029E+03</pdfrwt>
<pdfrwt beam="2">  1       -1 0.12463248E-01 0.13011029E+03</pdfrwt>
<totfact> 0.53543191E+03</totfact>
</mgrwt>
</event>
<event>
 8    1  0.3177960E-004  0.1498322E+03  0.7546771E-02  0.1200805E+00
         -4   -1    0    0    0  501 -0.00000000000E+00  0.00000000000E+00  0.26511667751E+03  0.26511667751E+03  0.00000000000E+00 0.  1.
          4   -1    0    0  501    0  0.00000000000E+00 -0.00000000000E+00 -0.17222134793E+03  0.17222134793E+03  0.00000000000E+00 0. -1.
         23    2    1    2    0    0  0.85573528521E+02  0.82192744537E+02  0.20258658614E+03  0.25197421812E+03  0.91494293135E+02 0.  0.
         23    2    1    2    0    0 -0.85573528521E+02 -0.82192744537E+02 -0.10969125656E+03  0.18536380732E+03  0.90824519056E+02 0.  0.
          5    1    4    4  502    0 -0.15885140148E+02 -0.34084971306E+02  0.95077865638E+01  0.39071869060E+02  0.47000000000E+01 0.  1.
         -5    1    3    3    0  503  0.51094394152E+02  0.63763412967E+02  0.19553254773E+03  0.21197046296E+03  0.47000000000E+01 0.  1.
          5    1    3    3  503    0  0.34479134369E+02  0.18429331570E+02  0.70540384103E+01  0.40003755159E+02  0.47000000000E+01 0. -1.
         -5    1    4    4    0  502 -0.69688388373E+02 -0.48107773231E+02 -0.11919904313E+03  0.14629193826E+03  0.47000000000E+01 0. -1.
<mgrwt>
<rscale>  0 0.14973006E+03</rscale>
<asrwt>0</asrwt>
<pdfrwt beam="1">  1        4 0.26495592E-01 0.14983218E+03</pdfrwt>
<pdfrwt beam="2">  1       -4 0.40787181E-01 0.14983218E+03</pdfrwt>
<totfact> 0.13384381E+02</totfact>
</mgrwt>
</event>
<event>
 8    1  0.3177960E-004  0.1135255E+03  0.7546771E-02  0.1254675E+00
          2   -1    0    0  501    0  0.00000000000E+00  0.00000000000E+00  0.30615038349E+03  0.30615038349E+03  0.00000000000E+00 0. -1.
         -2   -1    0    0    0  501 -0.00000000000E+00 -0.00000000000E+00 -0.41982456497E+02  0.41982456497E+02  0.00000000000E+00 0.  1.
         23    2    1    2    0    0  0.53744905471E+02 -0.38488763408E+02  0.14739829907E+03  0.18604916390E+03  0.92293732430E+02 0.  0.
         23    2    1    2    0    0 -0.53744905471E+02  0.38488763408E+02  0.11676962793E+03  0.16208367610E+03  0.90917942547E+02 0.  0.
          5    1    4    4  502    0  0.18891311673E+02  0.18072961123E+02  0.65662812740E+02  0.70832256476E+02  0.47000000000E+01 0. -1.
         -5    1    3    3    0  503 -0.25969038825E+02 -0.13776799204E+02  0.34381534743E+02  0.45479348116E+02  0.47000000000E+01 0.  1.
          5    1    3    3  503    0  0.79713944296E+02 -0.24711964204E+02  0.11301676432E+03  0.14056981578E+03  0.47000000000E+01 0. -1.
         -5    1    4    4    0  502 -0.72636217143E+02  0.20415802285E+02  0.51106815190E+02  0.91251419621E+02  0.47000000000E+01 0.  1.
<mgrwt>
<rscale>  0 0.11324553E+03</rscale>
<asrwt>0</asrwt>
<pdfrwt beam="1">  1        2 0.47100058E-01 0.11352547E+03</pdfrwt>
<pdfrwt beam="2">  1       -2 0.64588397E-02 0.11352547E+03</pdfrwt>
<totfact> 0.13099441E+04</totfact>
</mgrwt>
</event>
<event>
 8    1  0.3177960E-004  0.1074259E+03  0.7546771E-02  0.1266379E+00
         -1   -1    0    0    0  501 -0.00000000000E+00  0.00000000000E+00  0.18553091437E+02  0.18553091437E+02  0.00000000000E+00 0.  1.
          1   -1    0    0  501    0  0.00000000000E+00 -0.00000000000E+00 -0.62197850041E+03  0.62197850041E+03  0.00000000000E+00 0. -1.
         23    2    1    2    0    0  0.43743158127E+02  0.36498996345E+02 -0.34248967190E+03  0.35834762252E+03  0.88702889392E+02 0.  0.
         23    2    1    2    0    0 -0.43743158127E+02 -0.36498996345E+02 -0.26093573707E+03  0.28218396933E+03  0.91075205457E+02 0.  0.
          5    1    4    4  502    0 -0.38642122442E+02  0.19112965247E+02 -0.16932999020E+03  0.17479489308E+03  0.47000000000E+01 0. -1.
         -5    1    4    4    0  502 -0.51010356854E+01 -0.55611961591E+02 -0.91605746873E+02  0.10738907625E+03  0.47000000000E+01 0.  1.
          5    1    3    3  503    0 -0.82340277772E+01  0.47485031074E+02 -0.21033967475E+03  0.21584136805E+03  0.47000000000E+01 0. -1.
         -5    1    3    3    0  503  0.51977185904E+02 -0.10986034730E+02 -0.13214999716E+03  0.14250625447E+03  0.47000000000E+01 0.  1.
<mgrwt>
<rscale>  0 0.10692147E+03</rscale>
<asrwt>0</asrwt>
<pdfrwt beam="1">  1        1 0.95688990E-01 0.10742595E+03</pdfrwt>
<pdfrwt beam="2">  1       -1 0.28543221E-02 0.10742595E+03</pdfrwt>
<totfact> 0.12691097E+04</totfact>
</mgrwt>
</event>
<event>
 8    1  0.3177960E-004  0.9196801E+02  0.7546771E-02  0.1299156E+00
         -1   -1    0    0    0  501 -0.00000000000E+00  0.00000000000E+00  0.30149701605E+03  0.30149701605E+03  0.00000000000E+00 0.  1.
          1   -1    0    0  501    0  0.00000000000E+00 -0.00000000000E+00 -0.78934352856E+02  0.78934352856E+02  0.00000000000E+00 0. -1.
         23    2    1    2    0    0  0.79864138084E+01  0.14933620350E+02  0.26440389643E+03  0.27939274323E+03  0.88679697235E+02 0.  0.
         23    2    1    2    0    0 -0.79864138084E+01 -0.14933620350E+02 -0.41841233228E+02  0.10103862568E+03  0.90395349766E+02 0.  0.
          5    1    3    3  502    0  0.89362202611E+01 -0.36698151939E+02  0.99660763733E+02  0.10668162080E+03  0.47000000000E+01 0. -1.
         -5    1    4    4    0  503  0.35316135292E+02  0.86992463954E+01 -0.78031705544E+00  0.36682491661E+02  0.47000000000E+01 0.  1.
          5    1    4    4  503    0 -0.43302549100E+02 -0.23632866745E+02 -0.41060916172E+02  0.64356134020E+02  0.47000000000E+01 0. -1.
         -5    1    3    3    0  502 -0.94980645270E+00  0.51631772288E+02  0.16474313269E+03  0.17271112243E+03  0.47000000000E+01 0.  1.
<mgrwt>
<rscale>  0 0.91543642E+02</rscale>
<asrwt>0</asrwt>
<pdfrwt beam="1">  1        1 0.12143747E-01 0.91968011E+02</pdfrwt>
<pdfrwt beam="2">  1       -1 0.46384156E-01 0.91968011E+02</pdfrwt>
<totfact> 0.22191976E+03</totfact>
</mgrwt>
</event>
<event>
 8    1  0.3177960E-004  0.8890959E+02  0.7546771E-02  0.1320753E+00
         -2   -1    0    0    0  501 -0.00000000000E+00  0.00000000000E+00  0.48101810971E+02  0.48101810971E+02  0.00000000000E+00 0. -1.
          2   -1    0    0  501    0  0.00000000000E+00 -0.00000000000E+00 -0.16669566696E+03  0.16669566696E+03  0.00000000000E+00 0.  1.
         23    2    1    2    0    0  0.60781324176E-01  0.70394267826E+01 -0.13564951517E+02  0.89938443051E+02  0.88630459803E+02 0.  0.
         23    2    1    2    0    0 -0.60781324176E-01 -0.70394267826E+01 -0.10502890447E+03  0.12485903488E+03  0.67150209180E+02 0.  0.
          5    1    4    4  502    0  0.25336580181E+02  0.13644521920E+02 -0.25556214589E+02  0.38772740138E+02  0.47000000000E+01 0. -1.
         -5    1    4    4    0  502 -0.25397361505E+02 -0.20683948703E+02 -0.79472689881E+02  0.86086294741E+02  0.47000000000E+01 0.  1.
          5    1    3    3  503    0 -0.10304573503E+01  0.34214862599E+02  0.24904813792E+02  0.42591764639E+02  0.47000000000E+01 0. -1.
         -5    1    3    3    0  503  0.10912386744E+01 -0.27175435817E+02 -0.38469765309E+02  0.47346678412E+02  0.47000000000E+01 0.  1.
<mgrwt>
<rscale>  0 0.82997820E+02</rscale>
<asrwt>0</asrwt>
<pdfrwt beam="1">  1        2 0.25645487E-01 0.88909592E+02</pdfrwt>
<pdfrwt beam="2">  1       -2 0.74002787E-02 0.88909592E+02</pdfrwt>
<totfact> 0.19858480E+04</totfact>
</mgrwt>
</event>
<event>
 8    1  0.3177960E-004  0.1076690E+03  0.7546771E-02  0.1267945E+00
         -2   -1    0    0    0  501 -0.00000000000E+00  0.00000000000E+00  0.20292872406E+03  0.20292872406E+03  0.00000000000E+00 0.  1.
          2   -1    0    0  501    0  0.00000000000E+00 -0.00000000000E+00 -0.57696778918E+02  0.57696778918E+02  0.00000000000E+00 0. -1.
         23    2    1    2    0    0 -0.50847144639E+02  0.79075168209E+01  0.10783997266E+03  0.15238788455E+03  0.94576142417E+02 0.  0.
         23    2    1    2    0    0  0.50847144639E+02 -0.79075168209E+01  0.37391972476E+02  0.10823761842E+03  0.87574319841E+02 0.  0.
          5    1    3    3  502    0 -0.48997686318E+02 -0.32196760930E+02  0.33290242745E+02  0.67585020092E+02  0.47000000000E+01 0. -1.
         -5    1    4    4    0  503  0.18559426654E+02 -0.43668205356E+02  0.10274345738E+01  0.47691824232E+02  0.47000000000E+01 0.  1.
          5    1    4    4  503    0  0.32287717985E+02  0.35760688535E+02  0.36364537902E+02  0.60545794190E+02  0.47000000000E+01 0. -1.
         -5    1    3    3    0  502 -0.18494583218E+01  0.40104277751E+02  0.74549729917E+02  0.84802864460E+02  0.47000000000E+01 0.  1.
<mgrwt>
<rscale>  0 0.10611170E+03</rscale>
<asrwt>0</asrwt>
<pdfrwt beam="1">  1        2 0.88764276E-02 0.10766897E+03</pdfrwt>
<pdfrwt beam="2">  1       -2 0.31219803E-01 0.10766897E+03</pdfrwt>
<totfact> 0.65673201E+03</totfact>
</mgrwt>
</event>
<event>
 8    1  0.3177960E-004  0.1191185E+03  0.7546771E-02  0.1247546E+00
         -1   -1    0    0    0  501 -0.00000000000E+00  0.00000000000E+00  0.25712515977E+02  0.25712515977E+02  0.00000000000E+00 0.  1.
          1   -1    0    0  501    0  0.00000000000E+00 -0.00000000000E+00 -0.58848573601E+03  0.58848573601E+03  0.00000000000E+00 0. -1.
         23    2    1    2    0    0 -0.14158949995E+02 -0.63287787465E+02 -0.16929929006E+03  0.20308883703E+03  0.91525986491E+02 0.  0.
         23    2    1    2    0    0  0.14158949995E+02  0.63287787465E+02 -0.39347392998E+03  0.41110941496E+03  0.99916953475E+02 0.  0.
          5    1    3    3  502    0  0.33958035993E+02 -0.37112430751E+01 -0.65367293686E+02  0.73904631908E+02  0.47000000000E+01 0. -1.
         -5    1    4    4    0  503  0.25145496925E+02 -0.95302840687E+01 -0.23167278774E+03  0.23327557290E+03  0.47000000000E+01 0.  1.
          5    1    4    4  503    0 -0.10986546930E+02  0.72818071534E+02 -0.16180114224E+03  0.17783384207E+03  0.47000000000E+01 0. -1.
         -5    1    3    3    0  502 -0.48116985988E+02 -0.59576544390E+02 -0.10393199637E+03  0.12918420512E+03  0.47000000000E+01 0.  1.
<mgrwt>
<rscale>  0 0.11734287E+03</rscale>
<asrwt>0</asrwt>
<pdfrwt beam="1">  1        1 0.90536257E-01 0.11911850E+03</pdfrwt>
<pdfrwt beam="2">  1       -1 0.39557721E-02 0.11911850E+03</pdfrwt>
<totfact> 0.85765292E+03</totfact>
</mgrwt>
</event>
<event>
 8    1  0.3177960E-004  0.9480048E+02  0.7546771E-02  0.1292122E+00
          2   -1    0    0  501    0  0.00000000000E+00  0.00000000000E+00  0.33133631127E+03  0.33133631127E+03  0.00000000000E+00 0. -1.
         -2   -1    0    0    0  501 -0.00000000000E+00 -0.00000000000E+00 -0.26891156707E+02  0.26891156707E+02  0.00000000000E+00 0.  1.
         23    2    1    2    0    0 -0.12372345595E+02 -0.15844257403E+02  0.15742141076E+03  0.18376243383E+03  0.92644568618E+02 0.  0.
         23    2    1    2    0    0  0.12372345595E+02  0.15844257403E+02  0.14702374381E+03  0.17446503415E+03  0.91749394924E+02 0.  0.
          5    1    4    4  502    0  0.10297065038E+02 -0.19227753807E+02  0.13530422253E+03  0.13713153795E+03  0.47000000000E+01 0. -1.
         -5    1    4    4    0  502  0.20752805572E+01  0.35072011209E+02  0.11719521277E+02  0.37333496201E+02  0.47000000000E+01 0.  1.
          5    1    3    3  503    0 -0.41787795585E+01 -0.50692001888E+02  0.12577207753E+03  0.13574920530E+03  0.47000000000E+01 0. -1.
         -5    1    3    3    0  503 -0.81935660363E+01  0.34847744485E+02  0.31649333230E+02  0.48013228531E+02  0.47000000000E+01 0.  1.
<mgrwt>
<rscale>  0 0.94581066E+02</rscale>
<asrwt>0</asrwt>
<pdfrwt beam="1">  1        2 0.50974814E-01 0.94800483E+02</pdfrwt>
<pdfrwt beam="2">  1       -2 0.41371013E-02 0.94800483E+02</pdfrwt>
<totfact> 0.23050801E+04</totfact>
</mgrwt>
</event>
<event>
 8    1  0.3177960E-004  0.9346826E+02  0.7546771E-02  0.1295201E+00
          2   -1    0    0  501    0  0.00000000000E+00  0.00000000000E+00  0.33361704266E+02  0.33361704266E+02  0.00000000000E+00 0. -1.
         -2   -1    0    0    0  501 -0.00000000000E+00 -0.00000000000E+00 -0.28267072327E+03  0.28267072327E+03  0.00000000000E+00 0.  1.
         23    2    1    2    0    0  0.13292096305E+01 -0.12213592912E+02 -0.16954813856E+03  0.19315804421E+03  0.91719791232E+02 0.  0.
         23    2    1    2    0    0 -0.13292096305E+01  0.12213592912E+02 -0.79760880444E+02  0.12287438333E+03  0.92657311521E+02 0.  0.
          5    1    4    4  502    0  0.33811009397E+02 -0.15872059071E+02 -0.65326428407E+02  0.75397207269E+02  0.47000000000E+01 0. -1.
         -5    1    3    3    0  503 -0.27446409656E+02  0.89919839662E+01 -0.14861573251E+03  0.15146909629E+03  0.47000000000E+01 0.  1.
          5    1    3    3  503    0  0.28775619286E+02 -0.21205576878E+02 -0.20932406041E+02  0.41688947921E+02  0.47000000000E+01 0. -1.
         -5    1    4    4    0  502 -0.35140219028E+02  0.28085651984E+02 -0.14434452037E+02  0.47477176056E+02  0.47000000000E+01 0.  1.
<mgrwt>
<rscale>  0 0.93235065E+02</rscale>
<asrwt>0</asrwt>
<pdfrwt beam="1">  1        2 0.51325698E-02 0.93468262E+02</pdfrwt>
<pdfrwt beam="2">  1       -2 0.43487804E-01 0.93468262E+02</pdfrwt>
<totfact> 0.70074283E+03</totfact>
</mgrwt>
</event>
<event>
 8    1  0.3177960E-004  0.1625257E+03  0.7546771E-02  0.1186376E+00
         -2   -1    0    0    0  501 -0.00000000000E+00  0.00000000000E+00  0.10026325219E+03  0.10026325219E+03  0.00000000000E+00 0.  1.
          2   -1    0    0  501    0  0.00000000000E+00 -0.00000000000E+00 -0.28016849781E+03  0.28016849781E+03  0.00000000000E+00 0. -1.
         23    2    1    2    0    0 -0.60465140663E+02  0.11968290444E+03 -0.13983654476E+03  0.21303969470E+03  0.88609375452E+02 0.  0.
         23    2    1    2    0    0  0.60465140663E+02 -0.11968290444E+03 -0.40068700859E+02  0.16739205530E+03  0.91839907122E+02 0.  0.
          5    1    3    3  502    0 -0.33671915374E+02 -0.36911280080E+01 -0.25674942138E+02  0.42763476995E+02  0.47000000000E+01 0. -1.
         -5    1    3    3    0  502 -0.26793225289E+02  0.12337403244E+03 -0.11416160262E+03  0.17027621770E+03  0.47000000000E+01 0.  1.
          5    1    4    4  503    0  0.35370189396E+02 -0.13006783717E+03 -0.31164162797E+02  0.13842683124E+03  0.47000000000E+01 0. -1.
         -5    1    4    4    0  503  0.25094951267E+02  0.10384932734E+02 -0.89045380619E+01  0.28965224064E+02  0.47000000000E+01 0.  1.
<mgrwt>
<rscale>  0 0.16207295E+03</rscale>
<asrwt>0</asrwt>
<pdfrwt beam="1">  1        2 0.43102846E-01 0.16252569E+03</pdfrwt>
<pdfrwt beam="2">  1       -2 0.15425116E-01 0.16252569E+03</pdfrwt>
<totfact> 0.37433429E+03</totfact>
</mgrwt>
</event>
<event>
 7    1  0.4652106E-004  0.2079930E+03  0.7546771E-02  0.1148980E+00
         -1   -1    0    0    0  501 -0.00000000000E+00  0.00000000000E+00  0.35783984789E+02  0.35783984789E+02  0.00000000000E+00 0.  1.
          1   -1    0    0  501    0  0.00000000000E+00 -0.00000000000E+00 -0.17430579856E+04  0.17430579856E+04  0.00000000000E+00 0. -1.
         23    2    1    2    0    0  0.33716153888E+02  0.14343745151E+03 -0.26075092477E+03  0.31744192917E+03  0.10520100806E+03 0.  0.
          5    1    1    2  502    0 -0.25856680621E+02 -0.16474111084E+03 -0.13944978600E+04  0.14044410181E+04  0.47000000000E+01 0. -1.
         -5    1    1    2    0  502 -0.78594732671E+01  0.21303659324E+02 -0.52025216036E+02  0.56959023203E+02  0.47000000000E+01 0.  1.
          5    1    3    3  503    0 -0.24191845301E+02  0.10261169460E+02 -0.11788181968E+02  0.29181984371E+02  0.47000000000E+01 0. -1.
         -5    1    3    3    0  503  0.57907999189E+02  0.13317628205E+03 -0.24896274280E+03  0.28825994480E+03  0.47000000000E+01 0.  1.
<mgrwt>
<rscale>  0 0.20090227E+03</rscale>
<asrwt>0</asrwt>
<pdfrwt beam="1">  1        1 0.26816280E+00 0.20799296E+03</pdfrwt>
<pdfrwt beam="2">  1       -1 0.55052277E-02 0.20799296E+03</pdfrwt>
<totfact> 0.75979416E+02</totfact>
</mgrwt>
</event>
<event>
 8    1  0.3177960E-004  0.1006195E+03  0.7546771E-02  0.1283831E+00
         -3   -1    0    0    0  501 -0.00000000000E+00  0.00000000000E+00  0.30576255806E+03  0.30576255806E+03  0.00000000000E+00 0.  1.
          3   -1    0    0  501    0  0.00000000000E+00 -0.00000000000E+00 -0.30775748323E+02  0.30775748323E+02  0.00000000000E+00 0. -1.
         23    2    1    2    0    0 -0.10549320988E+02 -0.23240930802E+02  0.12219643721E+03  0.15829169557E+03  0.97328631860E+02 0.  0.
         23    2    1    2    0    0  0.10549320988E+02  0.23240930802E+02  0.15279037252E+03  0.17824661081E+03  0.88178950402E+02 0.  0.
          5    1    3    3  502    0  0.23043734783E+02 -0.49713841480E+02  0.50444145340E+02  0.74626949198E+02  0.47000000000E+01 0. -1.
         -5    1    3    3    0  502 -0.33593055772E+02  0.26472910678E+02  0.71752291874E+02  0.83664746369E+02  0.47000000000E+01 0.  1.
          5    1    4    4  503    0 -0.34365063870E+01 -0.25186951956E+02  0.10668657138E+03  0.10977388869E+03  0.47000000000E+01 0. -1.
         -5    1    4    4    0  503  0.13985827375E+02  0.48427882758E+02  0.46103801142E+02  0.68472722127E+02  0.47000000000E+01 0.  1.
<mgrwt>
<rscale>  0 0.98337822E+02</rscale>
<asrwt>0</asrwt>
<pdfrwt beam="1">  1        3 0.47347307E-02 0.10061954E+03</pdfrwt>
<pdfrwt beam="2">  1       -3 0.47040391E-01 0.10061954E+03</pdfrwt>
<totfact> 0.24279074E+03</totfact>
</mgrwt>
</event>
<event>
 8    1  0.3177960E-004  0.9200258E+02  0.7546771E-02  0.1298592E+00
          2   -1    0    0  501    0  0.00000000000E+00  0.00000000000E+00  0.39858058631E+02  0.39858058631E+02  0.00000000000E+00 0. -1.
         -2   -1    0    0    0  501 -0.00000000000E+00 -0.00000000000E+00 -0.21122166548E+03  0.21122166548E+03  0.00000000000E+00 0.  1.
         23    2    1    2    0    0  0.20690194298E+01  0.13014863636E+02 -0.93364775962E+02  0.13046341943E+03  0.90166817079E+02 0.  0.
         23    2    1    2    0    0 -0.20690194298E+01 -0.13014863636E+02 -0.77998830890E+02  0.12061630468E+03  0.91053873164E+02 0.  0.
          5    1    3    3  502    0  0.35599292174E+02 -0.22170283594E+02 -0.40337893371E+02  0.58378649518E+02  0.47000000000E+01 0. -1.
         -5    1    3    3    0  502 -0.33530272744E+02  0.35185147231E+02 -0.53026882591E+02  0.72084769912E+02  0.47000000000E+01 0.  1.
          5    1    4    4  503    0 -0.25953862889E+02 -0.44778209461E+02 -0.42985488451E+02  0.67442814730E+02  0.47000000000E+01 0. -1.
         -5    1    4    4    0  503  0.23884843459E+02  0.31763345824E+02 -0.35013342439E+02  0.53173489953E+02  0.47000000000E+01 0.  1.
<mgrwt>
<rscale>  0 0.91782339E+02</rscale>
<asrwt>0</asrwt>
<pdfrwt beam="1">  1        2 0.61320089E-02 0.92002583E+02</pdfrwt>
<pdfrwt beam="2">  1       -2 0.32495641E-01 0.92002583E+02</pdfrwt>
<totfact> 0.95702065E+03</totfact>
</mgrwt>
</event>
<event>
 8    1  0.3177960E-004  0.1136716E+03  0.7546771E-02  0.1255215E+00
          1   -1    0    0  501    0  0.00000000000E+00  0.00000000000E+00  0.36495269726E+03  0.36495269726E+03  0.00000000000E+00 0. -1.
         -1   -1    0    0    0  501 -0.00000000000E+00 -0.00000000000E+00 -0.63415237521E+02  0.63415237521E+02  0.00000000000E+00 0.  1.
         23    2    1    2    0    0  0.53673114581E+02  0.33782867876E+02  0.29641536961E+03  0.31746385543E+03  0.94335267900E+02 0.  0.
         23    2    1    2    0    0 -0.53673114581E+02 -0.33782867876E+02  0.51220901208E+01  0.11090407935E+03  0.90837181913E+02 0.  0.
          5    1    4    4  502    0 -0.50654556157E+02  0.10695940365E+02  0.29607631864E+02  0.59824652648E+02  0.47000000000E+01 0. -1.
         -5    1    3    3    0  503  0.78580163142E+02  0.23204098398E+02  0.25402602504E+03  0.26695427253E+03  0.47000000000E+01 0.  1.
          5    1    3    3  503    0 -0.24907048561E+02  0.10578769478E+02  0.42389344573E+02  0.50509582903E+02  0.47000000000E+01 0. -1.
         -5    1    4    4    0  502 -0.30185584231E+01 -0.44478808241E+02 -0.24485541743E+02  0.51079426699E+02  0.47000000000E+01 0.  1.
<mgrwt>
<rscale>  0 0.11294315E+03</rscale>
<asrwt>0</asrwt>
<pdfrwt beam="1">  1        1 0.56146568E-01 0.11367158E+03</pdfrwt>
<pdfrwt beam="2">  1       -1 0.97561906E-02 0.11367158E+03</pdfrwt>
<totfact> 0.41267940E+03</totfact>
</mgrwt>
</event>
<event>
 8    1  0.3177960E-004  0.1032668E+03  0.7546771E-02  0.1273674E+00
          2   -1    0    0  501    0  0.00000000000E+00  0.00000000000E+00  0.51239627178E+03  0.51239627178E+03  0.00000000000E+00 0. -1.
         -2   -1    0    0    0  501 -0.00000000000E+00 -0.00000000000E+00 -0.24660272651E+02  0.24660272651E+02  0.00000000000E+00 0.  1.
         23    2    1    2    0    0  0.38225693295E+02  0.31459351699E+02  0.35030025998E+03  0.36514781997E+03  0.90397808871E+02 0.  0.
         23    2    1    2    0    0 -0.38225693295E+02 -0.31459351699E+02  0.13743573915E+03  0.17190872446E+03  0.90626335653E+02 0.  0.
          5    1    3    3  502    0 -0.16578964685E+02  0.38852080046E+02  0.98074186236E+02  0.10688770837E+03  0.47000000000E+01 0. -1.
         -5    1    4    4    0  503 -0.56444287657E+01 -0.56532022064E+02  0.52815517256E+02  0.77712920147E+02  0.47000000000E+01 0.  1.
          5    1    4    4  503    0 -0.32581264529E+02  0.25072670365E+02  0.84620221893E+02  0.94195804316E+02  0.47000000000E+01 0. -1.
         -5    1    3    3    0  502  0.54804657979E+02 -0.73927283468E+01  0.25222607374E+03  0.25826011160E+03  0.47000000000E+01 0.  1.
<mgrwt>
<rscale>  0 0.10321662E+03</rscale>
<asrwt>0</asrwt>
<pdfrwt beam="1">  1        2 0.78830188E-01 0.10326678E+03</pdfrwt>
<pdfrwt beam="2">  1       -2 0.37938885E-02 0.10326678E+03</pdfrwt>
<totfact> 0.16617012E+04</totfact>
</mgrwt>
</event>
<event>
 8    1  0.3177960E-004  0.9841607E+02  0.7546771E-02  0.1284573E+00
         -2   -1    0    0    0  501 -0.00000000000E+00  0.00000000000E+00  0.27574247255E+02  0.27574247255E+02  0.00000000000E+00 0. -1.
          2   -1    0    0  501    0  0.00000000000E+00 -0.00000000000E+00 -0.55186694579E+03  0.55186694579E+03  0.00000000000E+00 0.  1.
         23    2    1    2    0    0  0.33874501575E+02 -0.14697288199E+02 -0.43798762001E+03  0.44854318021E+03  0.89411056883E+02 0.  0.
         23    2    1    2    0    0 -0.33874501575E+02  0.14697288199E+02 -0.86305078521E+02  0.13089801283E+03  0.91226262926E+02 0.  0.
          5    1    4    4  502    0 -0.23495881904E+02  0.52990049878E+02 -0.56198852667E+02  0.80872757426E+02  0.47000000000E+01 0. -1.
         -5    1    4    4    0  502 -0.10378619671E+02 -0.38292761679E+02 -0.30106225853E+02  0.50025255406E+02  0.47000000000E+01 0.  1.
          5    1    3    3  503    0  0.13319012153E+02  0.37472769435E+02 -0.16185554406E+03  0.16673605392E+03  0.47000000000E+01 0. -1.
         -5    1    3    3    0  503  0.20555489421E+02 -0.52170057634E+02 -0.27613207596E+03  0.28180712630E+03  0.47000000000E+01 0.  1.
<mgrwt>
<rscale>  0 0.97993306E+02</rscale>
<asrwt>0</asrwt>
<pdfrwt beam="1">  1        2 0.84902612E-01 0.98416072E+02</pdfrwt>
<pdfrwt beam="2">  1       -2 0.42421916E-02 0.98416072E+02</pdfrwt>
<totfact> 0.12938373E+04</totfact>
</mgrwt>
</event>
<event>
 8    1  0.3177960E-004  0.9941133E+02  0.7546771E-02  0.1281929E+00
         -1   -1    0    0    0  501 -0.00000000000E+00  0.00000000000E+00  0.14189720635E+02  0.14189720635E+02  0.00000000000E+00 0.  1.
          1   -1    0    0  501    0  0.00000000000E+00 -0.00000000000E+00 -0.94328681578E+03  0.94328681578E+03  0.00000000000E+00 0. -1.
         23    2    1    2    0    0 -0.30411682571E+02  0.24375705951E+02 -0.71322455909E+03  0.72011935411E+03  0.91452539620E+02 0.  0.
         23    2    1    2    0    0  0.30411682571E+02 -0.24375705951E+02 -0.21587253606E+03  0.23735718231E+03  0.90655582785E+02 0.  0.
          5    1    3    3  502    0 -0.59325750169E+02  0.33876754158E+02 -0.50910442160E+03  0.51368918735E+03  0.47000000000E+01 0. -1.
         -5    1    4    4    0  503  0.56188895748E+02 -0.15379956273E+01 -0.85493225882E+02  0.10242430916E+03  0.47000000000E+01 0.  1.
          5    1    4    4  503    0 -0.25777213177E+02 -0.22837710324E+02 -0.13037931018E+03  0.13493287314E+03  0.47000000000E+01 0. -1.
         -5    1    3    3    0  502  0.28914067598E+02 -0.95010482066E+01 -0.20412013748E+03  0.20643016676E+03  0.47000000000E+01 0.  1.
<mgrwt>
<rscale>  0 0.99227657E+02</rscale>
<asrwt>0</asrwt>
<pdfrwt beam="1">  1        1 0.14512105E+00 0.99411330E+02</pdfrwt>
<pdfrwt beam="2">  1       -1 0.21830340E-02 0.99411330E+02</pdfrwt>
<totfact> 0.10056772E+04</totfact>
</mgrwt>
</event>
<event>
 8    1  0.3177960E-004  0.1697676E+03  0.7546771E-02  0.1178142E+00
         -3   -1    0    0    0  501 -0.00000000000E+00  0.00000000000E+00  0.85324764622E+02  0.85324764622E+02  0.00000000000E+00 0.  1.
          3   -1    0    0  501    0  0.00000000000E+00 -0.00000000000E+00 -0.40881422041E+03  0.40881422041E+03  0.00000000000E+00 0. -1.
         23    2    1    2    0    0  0.33683856226E+02  0.13887975260E+03 -0.26509204825E+03  0.31479332080E+03  0.91645255876E+02 0.  0.
         23    2    1    2    0    0 -0.33683856226E+02 -0.13887975260E+03 -0.58397407536E+02  0.17934566423E+03  0.91282102391E+02 0.  0.
          5    1    4    4  502    0 -0.30707409893E+02 -0.35194862529E+02 -0.59142957368E+02  0.75508958257E+02  0.47000000000E+01 0. -1.
         -5    1    3    3    0  503 -0.20252261606E+02  0.30747764045E+01 -0.17914080207E+02  0.27615441690E+02  0.47000000000E+01 0.  1.
          5    1    3    3  503    0  0.53936117832E+02  0.13580497620E+03 -0.24717796804E+03  0.28717787911E+03  0.47000000000E+01 0. -1.
         -5    1    4    4    0  502 -0.29764463331E+01 -0.10368489007E+03  0.74554983196E+00  0.10383670597E+03  0.47000000000E+01 0.  1.
<mgrwt>
<rscale>  0 0.16971865E+03</rscale>
<asrwt>0</asrwt>
<pdfrwt beam="1">  1        3 0.62894495E-01 0.16976761E+03</pdfrwt>
<pdfrwt beam="2">  1       -3 0.13126887E-01 0.16976761E+03</pdfrwt>
<totfact> 0.27921104E+02</totfact>
</mgrwt>
</event>
<event>
 8    1  0.3177960E-004  0.2276018E+03  0.7546771E-02  0.1128411E+00
          2   -1    0    0  501    0  0.00000000000E+00  0.00000000000E+00  0.33530320952E+03  0.33530320952E+03  0.00000000000E+00 0. -1.
         -2   -1    0    0    0  501 -0.00000000000E+00 -0.00000000000E+00 -0.39088767513E+03  0.39088767513E+03  0.00000000000E+00 0.  1.
         23    2    1    2    0    0  0.20621556865E+03 -0.24931085813E+02  0.25472674825E+03  0.34159670741E+03  0.93038564291E+02 0.  0.
         23    2    1    2    0    0 -0.20621556865E+03  0.24931085813E+02 -0.31031121385E+03  0.38459417724E+03  0.92050051227E+02 0.  0.
          5    1    3    3  502    0  0.17858877331E+03  0.10716935763E+02  0.22446869183E+03  0.28708376178E+03  0.47000000000E+01 0. -1.
         -5    1    4    4    0  503 -0.16933302543E+03 -0.12958512331E+02 -0.20179611941E+03  0.26379037199E+03  0.47000000000E+01 0.  1.
          5    1    4    4  503    0 -0.36882543218E+02  0.37889598144E+02 -0.10851509445E+03  0.12080380526E+03  0.47000000000E+01 0. -1.
         -5    1    3    3    0  502  0.27626795343E+02 -0.35648021577E+02  0.30258056417E+02  0.54512945631E+02  0.47000000000E+01 0.  1.
<mgrwt>
<rscale>  0 0.22750119E+03</rscale>
<asrwt>0</asrwt>
<pdfrwt beam="1">  1        2 0.51585109E-01 0.22760183E+03</pdfrwt>
<pdfrwt beam="2">  1       -2 0.60136565E-01 0.22760183E+03</pdfrwt>
<totfact> 0.25731171E+02</totfact>
</mgrwt>
</event>
<event>
 8    1  0.3177960E-004  0.1016214E+03  0.7546771E-02  0.1278057E+00
         -1   -1    0    0    0  501 -0.00000000000E+00  0.00000000000E+00  0.23366486122E+03  0.23366486122E+03  0.00000000000E+00 0.  1.
          1   -1    0    0  501    0  0.00000000000E+00 -0.00000000000E+00 -0.71460299145E+02  0.71460299145E+02  0.00000000000E+00 0. -1.
         23    2    1    2    0    0  0.11761177523E+02 -0.42371965249E+02 -0.15276989130E+02  0.10060959155E+03  0.89191898623E+02 0.  0.
         23    2    1    2    0    0 -0.11761177523E+02  0.42371965249E+02  0.17748155121E+03  0.20451556881E+03  0.91614453727E+02 0.  0.
          5    1    3    3  502    0 -0.36428044228E+02 -0.23471799632E+02  0.68418173627E+01  0.44122876709E+02  0.47000000000E+01 0. -1.
         -5    1    4    4    0  503  0.32346212076E+02  0.21664892732E+02  0.13197840351E+03  0.13768091373E+03  0.47000000000E+01 0.  1.
          5    1    4    4  503    0 -0.44107389598E+02  0.20707072517E+02  0.45503147696E+02  0.66834655080E+02  0.47000000000E+01 0. -1.
         -5    1    3    3    0  502  0.48189221751E+02 -0.18900165617E+02 -0.22118806493E+02  0.56486714845E+02  0.47000000000E+01 0.  1.
<mgrwt>
<rscale>  0 0.10107239E+03</rscale>
<asrwt>0</asrwt>
<pdfrwt beam="1">  1        1 0.10993892E-01 0.10162144E+03</pdfrwt>
<pdfrwt beam="2">  1       -1 0.35948440E-01 0.10162144E+03</pdfrwt>
<totfact> 0.39632097E+03</totfact>
</mgrwt>
</event>
<event>
 8    1  0.3177960E-004  0.9733544E+02  0.7546771E-02  0.1286521E+00
          1   -1    0    0  501    0  0.00000000000E+00  0.00000000000E+00  0.11158786361E+03  0.11158786361E+03  0.00000000000E+00 0. -1.
         -1   -1    0    0    0  501 -0.00000000000E+00 -0.00000000000E+00 -0.18390034898E+03  0.18390034898E+03  0.00000000000E+00 0.  1.
         23    2    1    2    0    0  0.19233466589E+02  0.23398076680E+02 -0.14492601432E+03  0.17405134806E+03  0.91503693393E+02 0.  0.
         23    2    1    2    0    0 -0.19233466589E+02 -0.23398076680E+02  0.72613528945E+02  0.12143686453E+03  0.92502925642E+02 0.  0.
          5    1    4    4  502    0 -0.13171576531E+02  0.17497138039E+02  0.76438720826E+02  0.79653049593E+02  0.47000000000E+01 0. -1.
         -5    1    4    4    0  502 -0.60618900587E+01 -0.40895214719E+02 -0.38251918813E+01  0.41783814940E+02  0.47000000000E+01 0.  1.
          5    1    3    3  503    0 -0.11066989126E+02  0.41960023751E+02 -0.28248122123E+02  0.51992001741E+02  0.47000000000E+01 0. -1.
         -5    1    3    3    0  503  0.30300455716E+02 -0.18561947071E+02 -0.11667789220E+03  0.12205934632E+03  0.47000000000E+01 0.  1.
<mgrwt>
<rscale>  0 0.97097285E+02</rscale>
<asrwt>0</asrwt>
<pdfrwt beam="1">  1        1 0.17167364E-01 0.97335438E+02</pdfrwt>
<pdfrwt beam="2">  1       -1 0.28292361E-01 0.97335438E+02</pdfrwt>
<totfact> 0.33273067E+03</totfact>
</mgrwt>
</event>
<event>
 8    1  0.3177960E-004  0.2250022E+03  0.7546771E-02  0.1130272E+00
         -1   -1    0    0    0  501 -0.00000000000E+00  0.00000000000E+00  0.12768549392E+04  0.12768549392E+04  0.00000000000E+00 0.  1.
          1   -1    0    0  501    0  0.00000000000E+00 -0.00000000000E+00 -0.26067991494E+03  0.26067991494E+03  0.00000000000E+00 0. -1.
         23    2    1    2    0    0 -0.63014611093E+02  0.19578094343E+03  0.12160198278E+04  0.12365964042E+04  0.90362747174E+02 0.  0.
         23    2    1    2    0    0  0.63014611093E+02 -0.19578094343E+03 -0.19984480362E+03  0.30093844993E+03  0.91241361727E+02 0.  0.
          5    1    4    4  502    0 -0.11576054644E+02 -0.11138523290E+03 -0.10576055250E+03  0.15410405450E+03  0.47000000000E+01 0. -1.
         -5    1    4    4    0  502  0.74590665737E+02 -0.84395710533E+02 -0.94084251117E+02  0.14683439542E+03  0.47000000000E+01 0.  1.
          5    1    3    3  503    0 -0.44440423688E+02  0.22527521023E+02  0.29840162029E+03  0.30256909534E+03  0.47000000000E+01 0. -1.
         -5    1    3    3    0  503 -0.18574187405E+02  0.17325342241E+03  0.91761820755E+03  0.93402730883E+03  0.47000000000E+01 0.  1.
<mgrwt>
<rscale>  0 0.22491347E+03</rscale>
<asrwt>0</asrwt>
<pdfrwt beam="1">  1        1 0.40104603E-01 0.22500223E+03</pdfrwt>
<pdfrwt beam="2">  1       -1 0.19643922E+00 0.22500223E+03</pdfrwt>
<totfact> 0.18954657E+01</totfact>
</mgrwt>
</event>
<event>
 7    1  0.3177960E-004  0.1631648E+03  0.7546771E-02  0.1199283E+00
         -1   -1    0    0    0  501 -0.00000000000E+00  0.00000000000E+00  0.29226992003E+02  0.29226992003E+02  0.00000000000E+00 0.  1.
          1   -1    0    0  501    0  0.00000000000E+00 -0.00000000000E+00 -0.78952701828E+03  0.78952701828E+03  0.00000000000E+00 0. -1.
         23    2    1    2    0    0 -0.73104493829E+02 -0.18876031677E+02 -0.18121779702E+03  0.21712375304E+03  0.92748383204E+02 0.  0.
          5    1    1    2  502    0  0.70043200569E+01  0.42121983579E+02 -0.42350849053E+02  0.60324177704E+02  0.47000000000E+01 0. -1.
         -5    1    3    3    0  503 -0.42941126246E+02 -0.16249373605E+02 -0.18067730422E+03  0.18647884793E+03  0.47000000000E+01 0.  1.
          5    1    3    3  503    0 -0.30163367583E+02 -0.26266580713E+01 -0.54049280055E+00  0.30644905107E+02  0.47000000000E+01 0. -1.
         -5    1    1    2    0  502  0.66100173772E+02 -0.23245951903E+02 -0.53673138021E+03  0.54130607954E+03  0.47000000000E+01 0.  1.
<mgrwt>
<rscale>  0 0.15097239E+03</rscale>
<asrwt>0</asrwt>
<pdfrwt beam="1">  1        1 0.12146568E+00 0.16316476E+03</pdfrwt>
<pdfrwt beam="2">  1       -1 0.44964608E-02 0.16316476E+03</pdfrwt>
<totfact> 0.47572969E+03</totfact>
</mgrwt>
</event>
<event>
 8    1  0.3177960E-004  0.1065474E+03  0.7546771E-02  0.1268166E+00
         -1   -1    0    0    0  501 -0.00000000000E+00  0.00000000000E+00  0.13158696799E+03  0.13158696799E+03  0.00000000000E+00 0.  1.
          1   -1    0    0  501    0  0.00000000000E+00 -0.00000000000E+00 -0.18865562639E+03  0.18865562639E+03  0.00000000000E+00 0. -1.
         23    2    1    2    0    0  0.32747240598E+02  0.40382096290E+02  0.90297014967E+02  0.13966350186E+03  0.93001329956E+02 0.  0.
         23    2    1    2    0    0 -0.32747240598E+02 -0.40382096290E+02 -0.14736567337E+03  0.18057909251E+03  0.90493488700E+02 0.  0.
          5    1    4    4  502    0  0.17398433838E+02 -0.12186462558E+02 -0.10928275552E+03  0.11142722299E+03  0.47000000000E+01 0. -1.
         -5    1    3    3    0  503  0.48147298403E+02  0.81033766026E+01  0.91229639273E+02  0.10357974772E+03  0.47000000000E+01 0.  1.
          5    1    3    3  503    0 -0.15400057805E+02  0.32278719688E+02 -0.93262430600E+00  0.36083754145E+02  0.47000000000E+01 0. -1.
         -5    1    4    4    0  502 -0.50145674436E+02 -0.28195633733E+02 -0.38082917850E+02  0.69151869520E+02  0.47000000000E+01 0.  1.
<mgrwt>
<rscale>  0 0.10599768E+03</rscale>
<asrwt>0</asrwt>
<pdfrwt beam="1">  1        1 0.29023943E-01 0.10654737E+03</pdfrwt>
<pdfrwt beam="2">  1       -1 0.20244149E-01 0.10654737E+03</pdfrwt>
<totfact> 0.29834183E+03</totfact>
</mgrwt>
</event>
<event>
 8    1  0.3177960E-004  0.1052993E+03  0.7546771E-02  0.1270657E+00
         -2   -1    0    0    0  501 -0.00000000000E+00  0.00000000000E+00  0.22926181429E+02  0.22926181429E+02  0.00000000000E+00 0.  1.
          2   -1    0    0  501    0  0.00000000000E+00 -0.00000000000E+00 -0.53375826076E+03  0.53375826076E+03  0.00000000000E+00 0. -1.
         23    2    1    2    0    0  0.13237139081E+02  0.50242555811E+02 -0.15925646164E+03  0.18967850276E+03  0.88970655661E+02 0.  0.
         23    2    1    2    0    0 -0.13237139081E+02 -0.50242555811E+02 -0.35157561769E+03  0.36700593943E+03  0.91588254478E+02 0.  0.
          5    1    4    4  502    0  0.29188123328E+02  0.17971207932E+01 -0.18484034629E+03  0.18719834348E+03  0.47000000000E+01 0. -1.
         -5    1    3    3    0  503 -0.36647012271E+02  0.32502530339E+02 -0.87381731779E+02  0.10028496914E+03  0.47000000000E+01 0.  1.
          5    1    3    3  503    0  0.49884151352E+02  0.17740025472E+02 -0.71874729858E+02  0.89393533614E+02  0.47000000000E+01 0. -1.
         -5    1    4    4    0  502 -0.42425262410E+02 -0.52039676604E+02 -0.16673527141E+03  0.17980759595E+03  0.47000000000E+01 0.  1.
<mgrwt>
<rscale>  0 0.10472750E+03</rscale>
<asrwt>0</asrwt>
<pdfrwt beam="1">  1        2 0.82116646E-01 0.10529931E+03</pdfrwt>
<pdfrwt beam="2">  1       -2 0.35271052E-02 0.10529931E+03</pdfrwt>
<totfact> 0.17719651E+04</totfact>
</mgrwt>
</event>
<event>
 8    1  0.3177960E-004  0.1143873E+03  0.7546771E-02  0.1253008E+00
          2   -1    0    0  501    0  0.00000000000E+00  0.00000000000E+00  0.23488010872E+03  0.23488010872E+03  0.00000000000E+00 0. -1.
         -2   -1    0    0    0  501 -0.00000000000E+00 -0.00000000000E+00 -0.68657837816E+02  0.68657837816E+02  0.00000000000E+00 0.  1.
         23    2    1    2    0    0 -0.47874230776E+02  0.47677649440E+02  0.15975238332E+02  0.11470305925E+03  0.91304344549E+02 0.  0.
         23    2    1    2    0    0  0.47874230776E+02 -0.47677649440E+02  0.15024703257E+03  0.18883488729E+03  0.92300290523E+02 0.  0.
          5    1    4    4  502    0  0.40410884726E+01 -0.56723045573E+02  0.12458279318E+03  0.13702845198E+03  0.47000000000E+01 0. -1.
         -5    1    3    3    0  503  0.24261059608E+02  0.12617474842E+02 -0.11153412307E+02  0.29904653330E+02  0.47000000000E+01 0.  1.
          5    1    3    3  503    0 -0.72135290384E+02  0.35060174597E+02  0.27128650639E+02  0.84798405922E+02  0.47000000000E+01 0. -1.
         -5    1    4    4    0  502  0.43833142303E+02  0.90453961336E+01  0.25664239390E+02  0.51806435304E+02  0.47000000000E+01 0.  1.
<mgrwt>
<rscale>  0 0.11418620E+03</rscale>
<asrwt>0</asrwt>
<pdfrwt beam="1">  1        2 0.36135401E-01 0.11438725E+03</pdfrwt>
<pdfrwt beam="2">  1       -2 0.10562744E-01 0.11438725E+03</pdfrwt>
<totfact> 0.81224019E+03</totfact>
</mgrwt>
</event>
<event>
 8    1  0.3177960E-004  0.9995146E+02  0.7546771E-02  0.1284609E+00
          1   -1    0    0  501    0  0.00000000000E+00  0.00000000000E+00  0.24482236249E+02  0.24482236249E+02  0.00000000000E+00 0. -1.
         -1   -1    0    0    0  501 -0.00000000000E+00 -0.00000000000E+00 -0.46697945708E+03  0.46697945708E+03  0.00000000000E+00 0.  1.
         23    2    1    2    0    0 -0.40692668985E+02  0.65411869740E+01 -0.33596240140E+03  0.35051537744E+03  0.91058301280E+02 0.  0.
         23    2    1    2    0    0  0.40692668985E+02 -0.65411869740E+01 -0.10653481943E+03  0.14094631589E+03  0.82568249192E+02 0.  0.
          5    1    3    3  502    0  0.12664939438E+02  0.35262988318E+02 -0.15839625378E+03  0.16283532248E+03  0.47000000000E+01 0. -1.
         -5    1    4    4    0  503  0.21415384386E+02 -0.37964775218E+02 -0.22978444278E+02  0.49497896391E+02  0.47000000000E+01 0.  1.
          5    1    4    4  503    0  0.19277284599E+02  0.31423588244E+02 -0.83556375151E+02  0.91448419494E+02  0.47000000000E+01 0. -1.
         -5    1    3    3    0  502 -0.53357608423E+02 -0.28721801344E+02 -0.17756614762E+03  0.18768005496E+03  0.47000000000E+01 0.  1.
<mgrwt>
<rscale>  0 0.97976646E+02</rscale>
<asrwt>0</asrwt>
<pdfrwt beam="1">  1        1 0.37664978E-02 0.99951462E+02</pdfrwt>
<pdfrwt beam="2">  1       -1 0.71842996E-01 0.99951462E+02</pdfrwt>
<totfact> 0.47008078E+03</totfact>
</mgrwt>
</event>
<event>
 8    1  0.3177960E-004  0.1175877E+03  0.7546771E-02  0.1248535E+00
         -2   -1    0    0    0  501 -0.00000000000E+00  0.00000000000E+00  0.40609729039E+03  0.40609729039E+03  0.00000000000E+00 0.  1.
          2   -1    0    0  501    0  0.00000000000E+00 -0.00000000000E+00 -0.34749220062E+02  0.34749220062E+02  0.00000000000E+00 0. -1.
         23    2    1    2    0    0  0.32714855334E+02 -0.49369290655E+02  0.13530173729E+03  0.17713315327E+03  0.97785506368E+02 0.  0.
         23    2    1    2    0    0 -0.32714855334E+02  0.49369290655E+02  0.23604633304E+03  0.26371335718E+03  0.10158383136E+03 0.  0.
          5    1    3    3  502    0 -0.20168277381E+02  0.18504890280E+02  0.39395974671E+02  0.48200863032E+02  0.47000000000E+01 0. -1.
         -5    1    3    3    0  502  0.52883132715E+02 -0.67874180935E+02  0.95905762614E+02  0.12893229024E+03  0.47000000000E+01 0.  1.
          5    1    4    4  503    0 -0.50158038431E+02 -0.13514004777E+02  0.10547806107E+03  0.11766974340E+03  0.47000000000E+01 0. -1.
         -5    1    4    4    0  503  0.17443183097E+02  0.62883295432E+02  0.13056827197E+03  0.14604361379E+03  0.47000000000E+01 0.  1.
<mgrwt>
<rscale>  0 0.11676270E+03</rscale>
<asrwt>0</asrwt>
<pdfrwt beam="1">  1        2 0.53460341E-02 0.11758768E+03</pdfrwt>
<pdfrwt beam="2">  1       -2 0.62476503E-01 0.11758768E+03</pdfrwt>
<totfact> 0.33018581E+03</totfact>
</mgrwt>
</event>
<event>
 8    1  0.3177960E-004  0.1848137E+03  0.7546771E-02  0.1163554E+00
          1   -1    0    0  501    0  0.00000000000E+00  0.00000000000E+00  0.15751649246E+03  0.15751649246E+03  0.00000000000E+00 0. -1.
         -1   -1    0    0    0  501 -0.00000000000E+00 -0.00000000000E+00 -0.48908770177E+03  0.48908770177E+03  0.00000000000E+00 0.  1.
         23    2    1    2    0    0 -0.76599921019E+02  0.14135528499E+03 -0.40744503009E+03  0.44682193730E+03  0.88258294852E+02 0.  0.
         23    2    1    2    0    0  0.76599921019E+02 -0.14135528499E+03  0.75873820781E+02  0.19978225693E+03  0.91144111207E+02 0.  0.
          5    1    3    3  502    0 -0.43003954078E+02  0.11528923383E+03 -0.19888516809E+03  0.23391953229E+03  0.47000000000E+01 0. -1.
         -5    1    4    4    0  503  0.65690373575E+02 -0.74125634608E+02  0.19770632007E+01  0.99175771564E+02  0.47000000000E+01 0.  1.
          5    1    4    4  503    0  0.10909547443E+02 -0.67229650382E+02  0.73896757580E+02  0.10060648536E+03  0.47000000000E+01 0. -1.
         -5    1    3    3    0  502 -0.33595966941E+02  0.26066051162E+02 -0.20855986201E+03  0.21290240501E+03  0.47000000000E+01 0.  1.
<mgrwt>
<rscale>  0 0.18446122E+03</rscale>
<asrwt>0</asrwt>
<pdfrwt beam="1">  1        1 0.24233307E-01 0.18481373E+03</pdfrwt>
<pdfrwt beam="2">  1       -1 0.75244261E-01 0.18481373E+03</pdfrwt>
<totfact> 0.37154749E+02</totfact>
</mgrwt>
</event>
<event>
 8    1  0.3177960E-004  0.1060721E+03  0.7546771E-02  0.1268074E+00
          1   -1    0    0  501    0  0.00000000000E+00  0.00000000000E+00  0.21529763415E+02  0.21529763415E+02  0.00000000000E+00 0. -1.
         -1   -1    0    0    0  501 -0.00000000000E+00 -0.00000000000E+00 -0.66154575330E+03  0.66154575330E+03  0.00000000000E+00 0.  1.
         23    2    1    2    0    0 -0.45852435728E+02  0.28847622047E+02 -0.47695959950E+03  0.48861206286E+03  0.91195708576E+02 0.  0.
         23    2    1    2    0    0  0.45852435728E+02 -0.28847622047E+02 -0.16305639039E+03  0.19446345386E+03  0.91071495420E+02 0.  0.
          5    1    3    3  502    0 -0.23786035573E+02 -0.24794852598E+02 -0.77103680213E+02  0.84543643795E+02  0.47000000000E+01 0. -1.
         -5    1    3    3    0  502 -0.22066400155E+02  0.53642474645E+02 -0.39985591928E+03  0.40406841907E+03  0.47000000000E+01 0.  1.
          5    1    4    4  503    0  0.26155713296E+02 -0.95128944551E+01  0.79503650646E+00  0.28237184385E+02  0.47000000000E+01 0. -1.
         -5    1    4    4    0  503  0.19696722433E+02 -0.19334727592E+02 -0.16385142690E+03  0.16622626947E+03  0.47000000000E+01 0.  1.
<mgrwt>
<rscale>  0 0.10604539E+03</rscale>
<asrwt>0</asrwt>
<pdfrwt beam="1">  1        1 0.33122710E-02 0.10607209E+03</pdfrwt>
<pdfrwt beam="2">  1       -1 0.10177628E+00 0.10607209E+03</pdfrwt>
<totfact> 0.27303884E+03</totfact>
</mgrwt>
</event>
<event>
 8    1  0.3177960E-004  0.9655290E+02  0.7546771E-02  0.1288642E+00
          1   -1    0    0  501    0  0.00000000000E+00  0.00000000000E+00  0.22355322774E+03  0.22355322774E+03  0.00000000000E+00 0. -1.
         -1   -1    0    0    0  501 -0.00000000000E+00 -0.00000000000E+00 -0.58498940301E+02  0.58498940301E+02  0.00000000000E+00 0.  1.
         23    2    1    2    0    0  0.12380446078E+01  0.32156234879E+02  0.15918554569E+03  0.18532107432E+03  0.89265370854E+02 0.  0.
         23    2    1    2    0    0 -0.12380446078E+01 -0.32156234879E+02  0.58687417479E+01  0.96731093722E+02  0.91032445682E+02 0.  0.
          5    1    4    4  502    0  0.34588981183E+02 -0.84931359251E+01  0.30397190606E+02  0.47059644855E+02  0.47000000000E+01 0. -1.
         -5    1    4    4    0  502 -0.35827025791E+02 -0.23663098954E+02 -0.24528448858E+02  0.49671448867E+02  0.47000000000E+01 0.  1.
          5    1    3    3  503    0  0.44776511108E+02  0.20750894014E+02  0.79871573197E+02  0.94005817662E+02  0.47000000000E+01 0. -1.
         -5    1    3    3    0  503 -0.43538466501E+02  0.11405340865E+02  0.79313972497E+02  0.91315256659E+02  0.47000000000E+01 0.  1.
<mgrwt>
<rscale>  0 0.96134129E+02</rscale>
<asrwt>0</asrwt>
<pdfrwt beam="1">  1        1 0.34392804E-01 0.96552899E+02</pdfrwt>
<pdfrwt beam="2">  1       -1 0.89998371E-02 0.96552899E+02</pdfrwt>
<totfact> 0.84186545E+03</totfact>
</mgrwt>
</event>
<event>
 8    1  0.3177960E-004  0.9786555E+02  0.7546771E-02  0.1287925E+00
          2   -1    0    0  501    0  0.00000000000E+00  0.00000000000E+00  0.64234664457E+03  0.64234664457E+03  0.00000000000E+00 0. -1.
         -2   -1    0    0    0  501 -0.00000000000E+00 -0.00000000000E+00 -0.14455700645E+02  0.14455700645E+02  0.00000000000E+00 0.  1.
         23    2    1    2    0    0 -0.33284920186E+02 -0.70188588567E+01  0.35779679428E+03  0.36952457701E+03  0.85864525412E+02 0.  0.
         23    2    1    2    0    0  0.33284920186E+02  0.70188588567E+01  0.27009414964E+03  0.28727776820E+03  0.91763370374E+02 0.  0.
          5    1    4    4  502    0  0.34332707886E+02 -0.26209803784E+02  0.23392815397E+03  0.23792889666E+03  0.47000000000E+01 0. -1.
         -5    1    3    3    0  503 -0.13106774666E+02  0.36275164307E+02  0.99719256410E+02  0.10702193788E+03  0.47000000000E+01 0.  1.
          5    1    3    3  503    0 -0.20178145521E+02 -0.43294023164E+02  0.25807753787E+03  0.26250263913E+03  0.47000000000E+01 0. -1.
         -5    1    4    4    0  502 -0.10477876996E+01  0.33228662640E+02  0.36165995669E+02  0.49348871544E+02  0.47000000000E+01 0.  1.
<mgrwt>
<rscale>  0 0.96458426E+02</rscale>
<asrwt>0</asrwt>
<pdfrwt beam="1">  1        2 0.98822538E-01 0.97865553E+02</pdfrwt>
<pdfrwt beam="2">  1       -2 0.22239545E-02 0.97865553E+02</pdfrwt>
<totfact> 0.27985159E+04</totfact>
</mgrwt>
</event>
<event>
 8    1  0.3177960E-004  0.9891868E+02  0.7546771E-02  0.1288482E+00
         -2   -1    0    0    0  501 -0.00000000000E+00  0.00000000000E+00  0.11651828619E+03  0.11651828619E+03  0.00000000000E+00 0.  1.
          2   -1    0    0  501    0  0.00000000000E+00 -0.00000000000E+00 -0.96361674306E+02  0.96361674306E+02  0.00000000000E+00 0. -1.
         23    2    1    2    0    0 -0.40143356094E+02 -0.52897636688E+01  0.60133288607E+02  0.11576233367E+03  0.90252062918E+02 0.  0.
         23    2    1    2    0    0  0.40143356094E+02  0.52897636688E+01 -0.39976676720E+02  0.97117626824E+02  0.78703418733E+02 0.  0.
          5    1    3    3  502    0 -0.27179212368E+02 -0.34191284458E+02 -0.39665329778E+01  0.44108694174E+02  0.47000000000E+01 0. -1.
         -5    1    3    3    0  502 -0.12964143726E+02  0.28901520789E+02  0.64099821585E+02  0.71653639501E+02  0.47000000000E+01 0.  1.
          5    1    4    4  503    0  0.46734071852E+02 -0.16959857830E+02  0.82412973177E+00  0.49944763882E+02  0.47000000000E+01 0. -1.
         -5    1    4    4    0  503 -0.65907157583E+01  0.22249621499E+02 -0.40800806452E+02  0.47172862942E+02  0.47000000000E+01 0.  1.
<mgrwt>
<rscale>  0 0.96206540E+02</rscale>
<asrwt>0</asrwt>
<pdfrwt beam="1">  1        2 0.14824873E-01 0.98918681E+02</pdfrwt>
<pdfrwt beam="2">  1       -2 0.17925890E-01 0.98918681E+02</pdfrwt>
<totfact> 0.91753965E+03</totfact>
</mgrwt>
</event>
<event>
 8    1  0.3177960E-004  0.9465713E+02  0.7546771E-02  0.1292222E+00
          1   -1    0    0  501    0  0.00000000000E+00  0.00000000000E+00  0.15839150270E+03  0.15839150270E+03  0.00000000000E+00 0. -1.
         -1   -1    0    0    0  501 -0.00000000000E+00 -0.00000000000E+00 -0.60368091251E+02  0.60368091251E+02  0.00000000000E+00 0.  1.
         23    2    1    2    0    0  0.17197474665E+02  0.15464518957E+02  0.77349464659E+02  0.12187107539E+03  0.91294659493E+02 0.  0.
         23    2    1    2    0    0 -0.17197474665E+02 -0.15464518957E+02  0.20673946790E+02  0.96888518562E+02  0.91788171742E+02 0.  0.
          5    1    3    3  502    0 -0.43389325510E+01  0.29913790148E+02  0.88210511248E+02  0.93364048066E+02  0.47000000000E+01 0. -1.
         -5    1    3    3    0  502  0.21536407216E+02 -0.14449271192E+02 -0.10861046589E+02  0.28507027322E+02  0.47000000000E+01 0.  1.
          5    1    4    4  503    0 -0.54540809183E+02 -0.50739943687E+01  0.65487424805E+01  0.55366247057E+02  0.47000000000E+01 0. -1.
         -5    1    4    4    0  503  0.37343334517E+02 -0.10390524588E+02  0.14125204309E+02  0.41522271504E+02  0.47000000000E+01 0.  1.
<mgrwt>
<rscale>  0 0.94537287E+02</rscale>
<asrwt>0</asrwt>
<pdfrwt beam="1">  1        1 0.24367923E-01 0.94657134E+02</pdfrwt>
<pdfrwt beam="2">  1       -1 0.92873987E-02 0.94657134E+02</pdfrwt>
<totfact> 0.12257825E+04</totfact>
</mgrwt>
</event>
<event>
 8    1  0.3177960E-004  0.9940156E+02  0.7546771E-02  0.1283057E+00
         -2   -1    0    0    0  501 -0.00000000000E+00  0.00000000000E+00  0.19291025076E+03  0.19291025076E+03  0.00000000000E+00 0.  1.
          2   -1    0    0  501    0  0.00000000000E+00 -0.00000000000E+00 -0.57838104089E+02  0.57838104089E+02  0.00000000000E+00 0. -1.
         23    2    1    2    0    0 -0.30354019569E+02 -0.61178537649E+01  0.19961067225E+02  0.98658807897E+02  0.91522246105E+02 0.  0.
         23    2    1    2    0    0  0.30354019569E+02  0.61178537649E+01  0.11511107945E+03  0.15208954695E+03  0.94455677661E+02 0.  0.
          5    1    4    4  502    0 -0.15997222280E+02  0.38028108691E+02  0.36408531744E+02  0.55224264187E+02  0.47000000000E+01 0. -1.
         -5    1    4    4    0  502  0.46351241850E+02 -0.31910254926E+02  0.78702547701E+02  0.96865282765E+02  0.47000000000E+01 0.  1.
          5    1    3    3  503    0  0.29170732194E+02  0.82816868350E+01 -0.71693319631E+01  0.31512017936E+02  0.47000000000E+01 0. -1.
         -5    1    3    3    0  503 -0.59524751763E+02 -0.14399540600E+02  0.27130399188E+02  0.67146789961E+02  0.47000000000E+01 0.  1.
<mgrwt>
<rscale>  0 0.98698342E+02</rscale>
<asrwt>0</asrwt>
<pdfrwt beam="1">  1        2 0.88981700E-02 0.99401558E+02</pdfrwt>
<pdfrwt beam="2">  1       -2 0.29678500E-01 0.99401558E+02</pdfrwt>
<totfact> 0.71197585E+03</totfact>
</mgrwt>
</event>
<event>
 8    1  0.3177960E-004  0.1043392E+03  0.7546771E-02  0.1271703E+00
         -1   -1    0    0    0  501 -0.00000000000E+00  0.00000000000E+00  0.58359323555E+03  0.58359323555E+03  0.00000000000E+00 0.  1.
          1   -1    0    0  501    0  0.00000000000E+00 -0.00000000000E+00 -0.87904594801E+02  0.87904594801E+02  0.00000000000E+00 0. -1.
         23    2    1    2    0    0 -0.47494562611E+02  0.14875566422E+02  0.54619745879E+03  0.55607403992E+03  0.91704187108E+02 0.  0.
         23    2    1    2    0    0  0.47494562611E+02 -0.14875566422E+02 -0.50508818036E+02  0.11542379043E+03  0.91074116766E+02 0.  0.
          5    1    4    4  502    0 -0.44772136796E+00 -0.23320771243E+02 -0.60936953146E+02  0.65417590023E+02  0.47000000000E+01 0. -1.
         -5    1    3    3    0  503 -0.73462664333E+02  0.17700013064E+02  0.44803146915E+03  0.45438347336E+03  0.47000000000E+01 0.  1.
          5    1    3    3  503    0  0.25968101723E+02 -0.28244466420E+01  0.98165989635E+02  0.10169056656E+03  0.47000000000E+01 0. -1.
         -5    1    4    4    0  502  0.47942283979E+02  0.84452048207E+01  0.10428135110E+02  0.50006200410E+02  0.47000000000E+01 0.  1.
<mgrwt>
<rscale>  0 0.10420062E+03</rscale>
<asrwt>0</asrwt>
<pdfrwt beam="1">  1        1 0.13523784E-01 0.10433923E+03</pdfrwt>
<pdfrwt beam="2">  1       -1 0.89783572E-01 0.10433923E+03</pdfrwt>
<totfact> 0.54358436E+02</totfact>
</mgrwt>
</event>
<event>
 8    1  0.3177960E-004  0.1165366E+03  0.7546771E-02  0.1261266E+00
          3   -1    0    0  501    0  0.00000000000E+00  0.00000000000E+00  0.31481588472E+02  0.31481588472E+02  0.00000000000E+00 0. -1.
         -3   -1    0    0    0  501 -0.00000000000E+00 -0.00000000000E+00 -0.46475989364E+03  0.46475989364E+03  0.00000000000E+00 0.  1.
         23    2    1    2    0    0  0.20036245583E+02  0.32526077013E+01 -0.70824906519E+02  0.11551423207E+03  0.88968195629E+02 0.  0.
         23    2    1    2    0    0 -0.20036245583E+02 -0.32526077013E+01 -0.36245339865E+03  0.38072725004E+03  0.11475513992E+03 0.  0.
          5    1    4    4  502    0  0.16459111697E+02 -0.34370216086E+02 -0.29686811085E+03  0.29934090825E+03  0.47000000000E+01 0. -1.
         -5    1    4    4    0  502 -0.36495357280E+02  0.31117608385E+02 -0.65585287794E+02  0.81386341788E+02  0.47000000000E+01 0.  1.
          5    1    3    3  503    0 -0.27673149827E+02 -0.22159353867E+02 -0.37598427463E+02  0.51889998389E+02  0.47000000000E+01 0. -1.
         -5    1    3    3    0  503  0.47709395409E+02  0.25411961568E+02 -0.33226479056E+02  0.63624233681E+02  0.47000000000E+01 0.  1.
<mgrwt>
<rscale>  0 0.10962514E+03</rscale>
<asrwt>0</asrwt>
<pdfrwt beam="1">  1        3 0.48433215E-02 0.11653657E+03</pdfrwt>
<pdfrwt beam="2">  1       -3 0.71501520E-01 0.11653657E+03</pdfrwt>
<totfact> 0.10255447E+03</totfact>
</mgrwt>
</event>
<event>
 8    1  0.3177960E-004  0.1155521E+03  0.7546771E-02  0.1253549E+00
          1   -1    0    0  501    0  0.00000000000E+00  0.00000000000E+00  0.33997060188E+03  0.33997060188E+03  0.00000000000E+00 0. -1.
         -1   -1    0    0    0  501 -0.00000000000E+00 -0.00000000000E+00 -0.46330456919E+02  0.46330456919E+02  0.00000000000E+00 0.  1.
         23    2    1    2    0    0 -0.67141707990E+02 -0.50480755228E+01  0.22966448038E+03  0.25422092184E+03  0.85726375960E+02 0.  0.
         23    2    1    2    0    0  0.67141707990E+02  0.50480755228E+01  0.63975664588E+02  0.13208013696E+03  0.93908385688E+02 0.  0.
          5    1    3    3  502    0 -0.80446719951E+02 -0.25154088845E+02  0.17560347739E+03  0.19484115122E+03  0.47000000000E+01 0. -1.
         -5    1    3    3    0  502  0.13305011961E+02  0.20106013322E+02  0.54061002986E+02  0.59379770620E+02  0.47000000000E+01 0.  1.
          5    1    4    4  503    0  0.52922686855E+02 -0.25389255248E+02  0.75952709739E+02  0.96105822834E+02  0.47000000000E+01 0. -1.
         -5    1    4    4    0  503  0.14219021135E+02  0.30437330771E+02 -0.11977045151E+02  0.35974314129E+02  0.47000000000E+01 0.  1.
<mgrwt>
<rscale>  0 0.11387981E+03</rscale>
<asrwt>0</asrwt>
<pdfrwt beam="1">  1        1 0.52303168E-01 0.11555205E+03</pdfrwt>
<pdfrwt beam="2">  1       -1 0.71277628E-02 0.11555205E+03</pdfrwt>
<totfact> 0.72352260E+03</totfact>
</mgrwt>
</event>
<event>
 8    1  0.3177960E-004  0.9673554E+02  0.7546771E-02  0.1287443E+00
          2   -1    0    0  501    0  0.00000000000E+00  0.00000000000E+00  0.44917622211E+02  0.44917622211E+02  0.00000000000E+00 0. -1.
         -2   -1    0    0    0  501 -0.00000000000E+00 -0.00000000000E+00 -0.21798448752E+03  0.21798448752E+03  0.00000000000E+00 0.  1.
         23    2    1    2    0    0  0.21689473908E+02  0.15379816367E+02 -0.58261918019E+02  0.11292570507E+03  0.93009632532E+02 0.  0.
         23    2    1    2    0    0 -0.21689473908E+02 -0.15379816367E+02 -0.11480494729E+03  0.14997640466E+03  0.92767311073E+02 0.  0.
          5    1    4    4  502    0 -0.23632904590E+02  0.20040266100E+02 -0.10938342352E+03  0.11378466410E+03  0.47000000000E+01 0.  1.
         -5    1    4    4    0  502  0.19434306819E+01 -0.35420082467E+02 -0.54215237718E+01  0.36191740560E+02  0.47000000000E+01 0. -1.
          5    1    3    3  503    0 -0.11393928994E+02 -0.25521728321E+02  0.67786432873E+01  0.29141383619E+02  0.47000000000E+01 0. -1.
         -5    1    3    3    0  503  0.33083402902E+02  0.40901544688E+02 -0.65040561306E+02  0.83784321448E+02  0.47000000000E+01 0.  1.
<mgrwt>
<rscale>  0 0.96677241E+02</rscale>
<asrwt>0</asrwt>
<pdfrwt beam="1">  1        2 0.69104034E-02 0.96735535E+02</pdfrwt>
<pdfrwt beam="2">  1       -2 0.33536075E-01 0.96735535E+02</pdfrwt>
<totfact> 0.78082703E+03</totfact>
</mgrwt>
</event>
<event>
 8    1  0.3177960E-004  0.1135643E+03  0.7546771E-02  0.1257685E+00
         -1   -1    0    0    0  501 -0.00000000000E+00  0.00000000000E+00  0.34976168986E+03  0.34976168986E+03  0.00000000000E+00 0.  1.
          1   -1    0    0  501    0  0.00000000000E+00 -0.00000000000E+00 -0.37049186189E+02  0.37049186189E+02  0.00000000000E+00 0. -1.
         23    2    1    2    0    0 -0.13674856539E+02 -0.53004792606E+02  0.20293903789E+03  0.22886446939E+03  0.90543815421E+02 0.  0.
         23    2    1    2    0    0  0.13674856539E+02  0.53004792606E+02  0.10977346578E+03  0.15794640665E+03  0.99500471581E+02 0.  0.
          5    1    4    4  502    0 -0.22052344640E+02  0.65267007638E+02  0.43776255330E+02  0.81759028375E+02  0.47000000000E+01 0. -1.
         -5    1    4    4    0  502  0.35727201180E+02 -0.12262215032E+02  0.65997210452E+02  0.76187378280E+02  0.47000000000E+01 0.  1.
          5    1    3    3  503    0 -0.49617917544E+02 -0.12626567337E+02  0.10436963095E+03  0.11634636999E+03  0.47000000000E+01 0. -1.
         -5    1    3    3    0  503  0.35943061004E+02 -0.40378225269E+02  0.98569406936E+02  0.11251809941E+03  0.47000000000E+01 0.  1.
<mgrwt>
<rscale>  0 0.11157270E+03</rscale>
<asrwt>0</asrwt>
<pdfrwt beam="1">  1        1 0.56998750E-02 0.11356431E+03</pdfrwt>
<pdfrwt beam="2">  1       -1 0.53809489E-01 0.11356431E+03</pdfrwt>
<totfact> 0.46852154E+03</totfact>
</mgrwt>
</event>
<event>
 8    1  0.3177960E-004  0.9209972E+02  0.7546771E-02  0.1298634E+00
          3   -1    0    0  501    0  0.00000000000E+00  0.00000000000E+00  0.12324185965E+03  0.12324185965E+03  0.00000000000E+00 0. -1.
         -3   -1    0    0    0  501 -0.00000000000E+00 -0.00000000000E+00 -0.70085436176E+02  0.70085436176E+02  0.00000000000E+00 0.  1.
         23    2    1    2    0    0  0.68044946350E+01 -0.15642963873E+02  0.94420236530E+01  0.92582446037E+02  0.90506099450E+02 0.  0.
         23    2    1    2    0    0 -0.68044946350E+01  0.15642963873E+02  0.43714399820E+02  0.10074484979E+03  0.89149158947E+02 0.  0.
          5    1    4    4  502    0  0.24773914523E+02  0.15374312104E+02  0.58521261871E+02  0.65551082405E+02  0.47000000000E+01 0. -1.
         -5    1    4    4    0  502 -0.31578409158E+02  0.26865176873E+00 -0.14806862051E+02  0.35193767382E+02  0.47000000000E+01 0.  1.
          5    1    3    3  503    0  0.39668709089E+02 -0.27461876121E+02 -0.13760067096E+02  0.50390381695E+02  0.47000000000E+01 0. -1.
         -5    1    3    3    0  503 -0.32864214454E+02  0.11818912248E+02  0.23202090749E+02  0.42192064343E+02  0.47000000000E+01 0.  1.
<mgrwt>
<rscale>  0 0.91764612E+02</rscale>
<asrwt>0</asrwt>
<pdfrwt beam="1">  1        3 0.18960286E-01 0.92099715E+02</pdfrwt>
<pdfrwt beam="2">  1       -3 0.10782375E-01 0.92099715E+02</pdfrwt>
<totfact> 0.33870845E+03</totfact>
</mgrwt>
</event>
<event>
 8    1  0.3177960E-004  0.1156152E+03  0.7546771E-02  0.1250561E+00
          2   -1    0    0  501    0  0.00000000000E+00  0.00000000000E+00  0.26679830882E+02  0.26679830882E+02  0.00000000000E+00 0. -1.
         -2   -1    0    0    0  501 -0.00000000000E+00 -0.00000000000E+00 -0.56490021779E+03  0.56490021779E+03  0.00000000000E+00 0.  1.
         23    2    1    2    0    0 -0.38347438432E+02 -0.61194487680E+02 -0.36908868562E+03  0.38677296725E+03  0.90286095210E+02 0.  0.
         23    2    1    2    0    0  0.38347438432E+02  0.61194487680E+02 -0.16913170129E+03  0.20480708143E+03  0.90139430123E+02 0.  0.
          5    1    3    3  502    0  0.24731877658E+02 -0.58157372802E+00 -0.51562728310E+02  0.57383002285E+02  0.47000000000E+01 0. -1.
         -5    1    4    4    0  503  0.22223694893E+02  0.84049914395E+02 -0.13064943504E+03  0.15700205604E+03  0.47000000000E+01 0.  1.
          5    1    4    4  503    0  0.16123743539E+02 -0.22855426716E+02 -0.38482266254E+02  0.47805025385E+02  0.47000000000E+01 0. -1.
         -5    1    3    3    0  502 -0.63079316089E+02 -0.60612913952E+02 -0.31752595731E+03  0.32938996496E+03  0.47000000000E+01 0.  1.
<mgrwt>
<rscale>  0 0.11558655E+03</rscale>
<asrwt>0</asrwt>
<pdfrwt beam="1">  1        2 0.41045893E-02 0.11561518E+03</pdfrwt>
<pdfrwt beam="2">  1       -2 0.86907727E-01 0.11561518E+03</pdfrwt>
<totfact> 0.22955310E+03</totfact>
</mgrwt>
</event>
<event>
 8    1  0.3177960E-004  0.1086377E+03  0.7546771E-02  0.1264291E+00
         -2   -1    0    0    0  501 -0.00000000000E+00  0.00000000000E+00  0.96947110657E+02  0.96947110657E+02  0.00000000000E+00 0.  1.
          2   -1    0    0  501    0  0.00000000000E+00 -0.00000000000E+00 -0.11900247957E+03  0.11900247957E+03  0.00000000000E+00 0. -1.
         23    2    1    2    0    0 -0.47441935065E+02 -0.20274126122E+02 -0.12473823579E+02  0.10935149895E+03  0.95605317089E+02 0.  0.
         23    2    1    2    0    0  0.47441935065E+02  0.20274126122E+02 -0.95815453292E+01  0.10659809127E+03  0.92787766753E+02 0.  0.
          5    1    3    3  502    0  0.55567384241E+01 -0.19453348607E+02 -0.43179229426E+02  0.47914986880E+02  0.47000000000E+01 0. -1.
         -5    1    3    3    0  502 -0.52998673489E+02 -0.82077751525E+00  0.30705405847E+02  0.61436512072E+02  0.47000000000E+01 0.  1.
          5    1    4    4  503    0  0.46387430658E+02 -0.19436898105E+00 -0.45391017511E+02  0.65071237679E+02  0.47000000000E+01 0. -1.
         -5    1    4    4    0  503  0.10545044064E+01  0.20468495103E+02  0.35809472182E+02  0.41526853592E+02  0.47000000000E+01 0.  1.
<mgrwt>
<rscale>  0 0.10801460E+03</rscale>
<asrwt>0</asrwt>
<pdfrwt beam="1">  1        2 0.18308074E-01 0.10863772E+03</pdfrwt>
<pdfrwt beam="2">  1       -2 0.14914940E-01 0.10863772E+03</pdfrwt>
<totfact> 0.98159400E+03</totfact>
</mgrwt>
</event>
<event>
 8    1  0.3177960E-004  0.1057589E+03  0.7546771E-02  0.1269675E+00
          1   -1    0    0  501    0  0.00000000000E+00  0.00000000000E+00  0.24532521671E+03  0.24532521671E+03  0.00000000000E+00 0. -1.
         -1   -1    0    0    0  501 -0.00000000000E+00 -0.00000000000E+00 -0.46370091715E+02  0.46370091715E+02  0.00000000000E+00 0.  1.
         23    2    1    2    0    0  0.29255136889E+02 -0.41549765781E+02  0.12631046955E+03  0.16339022538E+03  0.90331528061E+02 0.  0.
         23    2    1    2    0    0 -0.29255136889E+02  0.41549765781E+02  0.72644655452E+02  0.12830508305E+03  0.92750753634E+02 0.  0.
          5    1    4    4  502    0  0.13354826662E+01  0.63945926665E+02  0.60636129606E+02  0.88259250306E+02  0.47000000000E+01 0. -1.
         -5    1    4    4    0  502 -0.30590619555E+02 -0.22396160884E+02  0.12008525846E+02  0.40045832743E+02  0.47000000000E+01 0.  1.
          5    1    3    3  503    0 -0.21794852043E+02 -0.33078117178E+02  0.94224880610E+02  0.10232104152E+03  0.47000000000E+01 0. -1.
         -5    1    3    3    0  503  0.51049988932E+02 -0.84716486029E+01  0.32085588937E+02  0.61069183861E+02  0.47000000000E+01 0.  1.
<mgrwt>
<rscale>  0 0.10522612E+03</rscale>
<asrwt>0</asrwt>
<pdfrwt beam="1">  1        1 0.37742340E-01 0.10575892E+03</pdfrwt>
<pdfrwt beam="2">  1       -1 0.71338604E-02 0.10575892E+03</pdfrwt>
<totfact> 0.10718879E+04</totfact>
</mgrwt>
</event>
<event>
 8    1  0.3177960E-004  0.9969852E+02  0.7546771E-02  0.1282715E+00
          2   -1    0    0  501    0  0.00000000000E+00  0.00000000000E+00  0.39654093504E+03  0.39654093504E+03  0.00000000000E+00 0. -1.
         -2   -1    0    0    0  501 -0.00000000000E+00 -0.00000000000E+00 -0.24520240756E+02  0.24520240756E+02  0.00000000000E+00 0.  1.
         23    2    1    2    0    0  0.19309300986E+02 -0.17918740584E+02  0.16657159910E+03  0.19412854651E+03  0.96155418851E+02 0.  0.
         23    2    1    2    0    0 -0.19309300986E+02  0.17918740584E+02  0.20544909518E+03  0.22693262928E+03  0.92710070402E+02 0.  0.
          5    1    3    3  502    0  0.49261191392E+02 -0.15559389539E+02  0.15160707141E+03  0.16023593131E+03  0.47000000000E+01 0. -1.
         -5    1    3    3    0  502 -0.29951890406E+02 -0.23593510455E+01  0.14964527688E+02  0.33892615201E+02  0.47000000000E+01 0.  1.
          5    1    4    4  503    0  0.36301638506E+02  0.11874038108E+02  0.10548478318E+03  0.11228504451E+03  0.47000000000E+01 0. -1.
         -5    1    4    4    0  503 -0.55610939493E+02  0.60447024768E+01  0.99964311999E+02  0.11464758477E+03  0.47000000000E+01 0.  1.
<mgrwt>
<rscale>  0 0.98858306E+02</rscale>
<asrwt>0</asrwt>
<pdfrwt beam="1">  1        2 0.61006293E-01 0.99698520E+02</pdfrwt>
<pdfrwt beam="2">  1       -2 0.37723450E-02 0.99698520E+02</pdfrwt>
<totfact> 0.21976641E+04</totfact>
</mgrwt>
</event>
<event>
 8    1  0.3177960E-004  0.1148963E+03  0.7546771E-02  0.1252144E+00
          2   -1    0    0  501    0  0.00000000000E+00  0.00000000000E+00  0.50385118073E+03  0.50385118073E+03  0.00000000000E+00 0. -1.
         -2   -1    0    0    0  501 -0.00000000000E+00 -0.00000000000E+00 -0.27943213346E+02  0.27943213346E+02  0.00000000000E+00 0.  1.
         23    2    1    2    0    0 -0.56008004426E+02  0.36544296379E+02  0.16704092528E+03  0.20224922772E+03  0.92356360027E+02 0.  0.
         23    2    1    2    0    0  0.56008004426E+02 -0.36544296379E+02  0.30886704210E+03  0.32954516636E+03  0.93427965900E+02 0.  0.
          5    1    4    4  502    0 -0.68423129747E+01  0.21799703391E+02  0.31574465546E+02  0.39256606951E+02  0.47000000000E+01 0. -1.
         -5    1    4    4    0  502  0.62850317401E+02 -0.58343999770E+02  0.27729257656E+03  0.29028855940E+03  0.47000000000E+01 0.  1.
          5    1    3    3  503    0 -0.80078221440E+02  0.38588621337E+02  0.12353055602E+03  0.15226126072E+03  0.47000000000E+01 0. -1.
         -5    1    3    3    0  503  0.24070217014E+02 -0.20443249578E+01  0.43510369256E+02  0.49987966996E+02  0.47000000000E+01 0.  1.
<mgrwt>
<rscale>  0 0.11467829E+03</rscale>
<asrwt>0</asrwt>
<pdfrwt beam="1">  1        2 0.77515560E-01 0.11489633E+03</pdfrwt>
<pdfrwt beam="2">  1       -2 0.42989563E-02 0.11489633E+03</pdfrwt>
<totfact> 0.14199846E+04</totfact>
</mgrwt>
</event>
<event>
 8    1  0.3177960E-004  0.1164063E+03  0.7546771E-02  0.1249459E+00
          2   -1    0    0  501    0  0.00000000000E+00  0.00000000000E+00  0.48377309370E+03  0.48377309370E+03  0.00000000000E+00 0. -1.
         -2   -1    0    0    0  501 -0.00000000000E+00 -0.00000000000E+00 -0.66708090111E+02  0.66708090111E+02  0.00000000000E+00 0.  1.
         23    2    1    2    0    0  0.72849126854E+02  0.69580999399E+01  0.41891480034E+03  0.43478734313E+03  0.90526313085E+02 0.  0.
         23    2    1    2    0    0 -0.72849126854E+02 -0.69580999399E+01 -0.18497967517E+01  0.11569384068E+03  0.89589243697E+02 0.  0.
          5    1    4    4  502    0 -0.45497469759E+02 -0.44833828591E+02 -0.17157542219E+02  0.66306584859E+02  0.47000000000E+01 0. -1.
         -5    1    3    3    0  503  0.23257273205E+02 -0.22576033206E+02  0.41068805430E+02  0.52529180573E+02  0.47000000000E+01 0.  1.
          5    1    3    3  503    0  0.49591853649E+02  0.29534133145E+02  0.37784599491E+03  0.38225816256E+03  0.47000000000E+01 0. -1.
         -5    1    4    4    0  502 -0.27351657095E+02  0.37875728651E+02  0.15307745468E+02  0.49387255826E+02  0.47000000000E+01 0.  1.
<mgrwt>
<rscale>  0 0.11622405E+03</rscale>
<asrwt>0</asrwt>
<pdfrwt beam="1">  1        2 0.74426628E-01 0.11640629E+03</pdfrwt>
<pdfrwt beam="2">  1       -2 0.10262783E-01 0.11640629E+03</pdfrwt>
<totfact> 0.39524102E+03</totfact>
</mgrwt>
</event>
<event>
 8    1  0.3177960E-004  0.1155703E+03  0.7546771E-02  0.1251412E+00
          2   -1    0    0  501    0  0.00000000000E+00  0.00000000000E+00  0.46775350532E+03  0.46775350532E+03  0.00000000000E+00 0. -1.
         -2   -1    0    0    0  501 -0.00000000000E+00 -0.00000000000E+00 -0.42927068177E+02  0.42927068177E+02  0.00000000000E+00 0.  1.
         23    2    1    2    0    0 -0.67912014560E+02  0.10394910854E+02  0.63449339671E+02  0.13184200593E+03  0.92932232992E+02 0.  0.
         23    2    1    2    0    0  0.67912014560E+02 -0.10394910854E+02  0.36137709747E+03  0.37883856757E+03  0.90582326132E+02 0.  0.
          5    1    4    4  502    0  0.41043696577E+02 -0.33415036941E+02  0.31917306427E+03  0.32356558018E+03  0.47000000000E+01 0. -1.
         -5    1    3    3    0  503 -0.65436876633E+02 -0.31132619170E+02  0.31392636057E+02  0.79112656374E+02  0.47000000000E+01 0.  1.
          5    1    3    3  503    0 -0.24751379270E+01  0.41527530024E+02  0.32056703614E+02  0.52729349553E+02  0.47000000000E+01 0. -1.
         -5    1    4    4    0  502  0.26868317984E+02  0.23020126087E+02  0.42204033201E+02  0.55272987388E+02  0.47000000000E+01 0.  1.
<mgrwt>
<rscale>  0 0.11509715E+03</rscale>
<asrwt>0</asrwt>
<pdfrwt beam="1">  1        2 0.71962074E-01 0.11557031E+03</pdfrwt>
<pdfrwt beam="2">  1       -2 0.66041647E-02 0.11557031E+03</pdfrwt>
<totfact> 0.80865539E+03</totfact>
</mgrwt>
</event>
<event>
 8    1  0.3177960E-004  0.9114804E+02  0.7546771E-02  0.1300509E+00
         -2   -1    0    0    0  501 -0.00000000000E+00  0.00000000000E+00  0.62953232477E+01  0.62953232477E+01  0.00000000000E+00 0.  1.
          2   -1    0    0  501    0  0.00000000000E+00 -0.00000000000E+00 -0.13245787355E+04  0.13245787355E+04  0.00000000000E+00 0. -1.
         23    2    1    2    0    0  0.51399553780E+01  0.44049022144E+01 -0.72720359432E+03  0.73280774426E+03  0.90201442076E+02 0.  0.
         23    2    1    2    0    0 -0.51399553780E+01 -0.44049022144E+01 -0.59107981795E+03  0.59806631450E+03  0.90896331345E+02 0.  0.
          5    1    4    4  502    0  0.16664819593E+02 -0.43098967646E+02 -0.29267127839E+03  0.29633394071E+03  0.47000000000E+01 0. -1.
         -5    1    3    3    0  503 -0.20970165530E+02 -0.35897499449E+02 -0.30508858430E+03  0.30794400884E+03  0.47000000000E+01 0.  1.
          5    1    3    3  503    0  0.26110120908E+02  0.40302401663E+02 -0.42211501002E+03  0.42486373543E+03  0.47000000000E+01 0. -1.
         -5    1    4    4    0  502 -0.21804774971E+02  0.38694065431E+02 -0.29840853956E+03  0.30173237379E+03  0.47000000000E+01 0.  1.
<mgrwt>
<rscale>  0 0.90974306E+02</rscale>
<asrwt>0</asrwt>
<pdfrwt beam="1">  1        2 0.20378143E+00 0.91148041E+02</pdfrwt>
<pdfrwt beam="2">  1       -2 0.96851088E-03 0.91148041E+02</pdfrwt>
<totfact> 0.34937785E+04</totfact>
</mgrwt>
</event>
<event>
 8    1  0.3177960E-004  0.1349010E+03  0.7546771E-02  0.1221210E+00
         -1   -1    0    0    0  501 -0.00000000000E+00  0.00000000000E+00  0.11872821859E+03  0.11872821859E+03  0.00000000000E+00 0.  1.
          1   -1    0    0  501    0  0.00000000000E+00 -0.00000000000E+00 -0.18302149297E+03  0.18302149297E+03  0.00000000000E+00 0. -1.
         23    2    1    2    0    0  0.49260007583E+01 -0.96498843938E+02 -0.95902129413E+02  0.16551586031E+03  0.94138139057E+02 0.  0.
         23    2    1    2    0    0 -0.49260007583E+01  0.96498843938E+02  0.31608855035E+02  0.13623385124E+03  0.90687651548E+02 0.  0.
          5    1    3    3  502    0  0.12859708395E+02  0.16198344610E+02 -0.21239340943E+02  0.30015963616E+02  0.47000000000E+01 0.  1.
         -5    1    3    3    0  502 -0.79337076370E+01 -0.11269718855E+03 -0.74662788470E+02  0.13549989670E+03  0.47000000000E+01 0. -1.
          5    1    4    4  503    0 -0.21137704197E+02  0.37803168356E+01 -0.19183769328E+02  0.29175337869E+02  0.47000000000E+01 0. -1.
         -5    1    4    4    0  503  0.16211703439E+02  0.92718527102E+02  0.50792624363E+02  0.10705851337E+03  0.47000000000E+01 0.  1.
<mgrwt>
<rscale>  0 0.13430081E+03</rscale>
<asrwt>0</asrwt>
<pdfrwt beam="1">  1        1 0.28157153E-01 0.13490101E+03</pdfrwt>
<pdfrwt beam="2">  1       -1 0.18265880E-01 0.13490101E+03</pdfrwt>
<totfact> 0.36957904E+03</totfact>
</mgrwt>
</event>
<event>
 8    1  0.3177960E-004  0.9375750E+02  0.7546771E-02  0.1295368E+00
          1   -1    0    0  501    0  0.00000000000E+00  0.00000000000E+00  0.98210253409E+02  0.98210253409E+02  0.00000000000E+00 0. -1.
         -1   -1    0    0    0  501 -0.00000000000E+00 -0.00000000000E+00 -0.95694328893E+02  0.95694328893E+02  0.00000000000E+00 0.  1.
         23    2    1    2    0    0 -0.67974084523E+01 -0.15635787012E+02  0.30033232602E+02  0.98450312913E+02  0.92194286455E+02 0.  0.
         23    2    1    2    0    0  0.67974084523E+01  0.15635787012E+02 -0.27517308086E+02  0.95454269389E+02  0.89797732172E+02 0.  0.
          5    1    3    3  502    0 -0.28518911258E+02  0.21376237297E+02 -0.12291017300E+02  0.37992511454E+02  0.47000000000E+01 0. -1.
         -5    1    4    4    0  503  0.53521212021E+01  0.47037460609E+02 -0.39146494026E+02  0.61609300405E+02  0.47000000000E+01 0.  1.
          5    1    4    4  503    0  0.14452872501E+01 -0.31401673597E+02  0.11629185940E+02  0.33844968984E+02  0.47000000000E+01 0. -1.
         -5    1    3    3    0  502  0.21721502806E+02 -0.37012024309E+02  0.42324249901E+02  0.60457801459E+02  0.47000000000E+01 0.  1.
<mgrwt>
<rscale>  0 0.93162981E+02</rscale>
<asrwt>0</asrwt>
<pdfrwt beam="1">  1        1 0.15109270E-01 0.93757501E+02</pdfrwt>
<pdfrwt beam="2">  1       -1 0.14722204E-01 0.93757501E+02</pdfrwt>
<totfact> 0.11074890E+04</totfact>
</mgrwt>
</event>
<event>
 8    1  0.3177960E-004  0.1054052E+03  0.7546771E-02  0.1271645E+00
          1   -1    0    0  501    0  0.00000000000E+00  0.00000000000E+00  0.22129642265E+03  0.22129642265E+03  0.00000000000E+00 0. -1.
         -1   -1    0    0    0  501 -0.00000000000E+00 -0.00000000000E+00 -0.49055330689E+02  0.49055330689E+02  0.00000000000E+00 0.  1.
         23    2    1    2    0    0 -0.37253786514E+02  0.28206501322E+02  0.68441997440E+02  0.12567638715E+03  0.94481722824E+02 0.  0.
         23    2    1    2    0    0  0.37253786514E+02 -0.28206501322E+02  0.10379909452E+03  0.14467536619E+03  0.89293102932E+02 0.  0.
          5    1    4    4  502    0  0.64819663367E+02 -0.63908686490E+01  0.66267701978E+02  0.93037252144E+02  0.47000000000E+01 0. -1.
         -5    1    3    3    0  503 -0.68648673085E+02  0.12661132521E+02  0.47955577215E+02  0.84822001739E+02  0.47000000000E+01 0.  1.
          5    1    3    3  503    0  0.31394886571E+02  0.15545368800E+02  0.20486420225E+02  0.40854385414E+02  0.47000000000E+01 0. -1.
         -5    1    4    4    0  502 -0.27565876853E+02 -0.21815632673E+02  0.37531392542E+02  0.51638114041E+02  0.47000000000E+01 0.  1.
<mgrwt>
<rscale>  0 0.10422947E+03</rscale>
<asrwt>0</asrwt>
<pdfrwt beam="1">  1        1 0.34045603E-01 0.10540516E+03</pdfrwt>
<pdfrwt beam="2">  1       -1 0.75469741E-02 0.10540516E+03</pdfrwt>
<totfact> 0.11181740E+04</totfact>
</mgrwt>
</event>
<event>
 8    1  0.3177960E-004  0.9764446E+02  0.7546771E-02  0.1289656E+00
          1   -1    0    0  501    0  0.00000000000E+00  0.00000000000E+00  0.45877775932E+02  0.45877775932E+02  0.00000000000E+00 0. -1.
         -1   -1    0    0    0  501 -0.00000000000E+00 -0.00000000000E+00 -0.19307631634E+03  0.19307631634E+03  0.00000000000E+00 0.  1.
         23    2    1    2    0    0  0.28317295604E+02 -0.18805487084E+02 -0.85891212037E+02  0.13004514719E+03  0.91536465010E+02 0.  0.
         23    2    1    2    0    0 -0.28317295604E+02  0.18805487084E+02 -0.61307328368E+02  0.10890894508E+03  0.83348990594E+02 0.  0.
          5    1    4    4  502    0 -0.49378664876E+02 -0.12799323679E+02 -0.29265657422E+02  0.58996982431E+02  0.47000000000E+01 0. -1.
         -5    1    3    3    0  503  0.52238865041E+02 -0.27190924648E+02 -0.85911161094E+02  0.10426438992E+03  0.47000000000E+01 0.  1.
          5    1    3    3  503    0 -0.23921569437E+02  0.83854375646E+01  0.19949056481E-01  0.25780757270E+02  0.47000000000E+01 0. -1.
         -5    1    4    4    0  502  0.21061369272E+02  0.31604810762E+02 -0.32041670947E+02  0.49911962654E+02  0.47000000000E+01 0.  1.
<mgrwt>
<rscale>  0 0.95678321E+02</rscale>
<asrwt>0</asrwt>
<pdfrwt beam="1">  1        1 0.70581195E-02 0.97644457E+02</pdfrwt>
<pdfrwt beam="2">  1       -1 0.29704048E-01 0.97644457E+02</pdfrwt>
<totfact> 0.97900263E+03</totfact>
</mgrwt>
</event>
<event>
 8    1  0.3177960E-004  0.1036447E+03  0.7546771E-02  0.1273650E+00
          1   -1    0    0  501    0  0.00000000000E+00  0.00000000000E+00  0.21376799620E+03  0.21376799620E+03  0.00000000000E+00 0. -1.
         -1   -1    0    0    0  501 -0.00000000000E+00 -0.00000000000E+00 -0.64315725786E+02  0.64315725786E+02  0.00000000000E+00 0.  1.
         23    2    1    2    0    0 -0.24837587816E+02  0.39952937328E+02  0.14202832300E+03  0.17582453563E+03  0.92353017410E+02 0.  0.
         23    2    1    2    0    0  0.24837587816E+02 -0.39952937328E+02  0.74239474091E+01  0.10225918635E+03  0.90491343393E+02 0.  0.
          5    1    4    4  502    0 -0.87781464158E+00 -0.64354245397E+02 -0.41705957404E+01  0.64666245662E+02  0.47000000000E+01 0.  1.
         -5    1    4    4    0  502  0.25715402458E+02  0.24401308069E+02  0.11594543149E+02  0.37592940692E+02  0.47000000000E+01 0. -1.
          5    1    3    3  503    0 -0.57825169757E+02  0.38054244467E+02  0.10623750950E+03  0.12688724997E+03  0.47000000000E+01 0. -1.
         -5    1    3    3    0  503  0.32987581940E+02  0.18986928614E+01  0.35790813498E+02  0.48937285659E+02  0.47000000000E+01 0.  1.
<mgrwt>
<rscale>  0 0.10322836E+03</rscale>
<asrwt>0</asrwt>
<pdfrwt beam="1">  1        1 0.32887384E-01 0.10364469E+03</pdfrwt>
<pdfrwt beam="2">  1       -1 0.98947271E-02 0.10364469E+03</pdfrwt>
<totfact> 0.77527286E+03</totfact>
</mgrwt>
</event>
<event>
 8    1  0.3177960E-004  0.1036520E+03  0.7546771E-02  0.1275238E+00
          1   -1    0    0  501    0  0.00000000000E+00  0.00000000000E+00  0.21818674537E+03  0.21818674537E+03  0.00000000000E+00 0. -1.
         -1   -1    0    0    0  501 -0.00000000000E+00 -0.00000000000E+00 -0.49805913693E+02  0.49805913693E+02  0.00000000000E+00 0.  1.
         23    2    1    2    0    0 -0.17848869908E+02  0.40514465341E+02  0.11777949884E+03  0.15689404777E+03  0.93721544054E+02 0.  0.
         23    2    1    2    0    0  0.17848869908E+02 -0.40514465341E+02  0.50601332840E+02  0.11109861130E+03  0.88444346839E+02 0.  0.
          5    1    4    4  502    0  0.50267673954E+02 -0.18340715070E+02  0.47006560871E+02  0.71378761820E+02  0.47000000000E+01 0. -1.
         -5    1    3    3    0  503 -0.42632044782E+02  0.19165815656E+02  0.15594673086E+02  0.49498520793E+02  0.47000000000E+01 0.  1.
          5    1    3    3  503    0  0.24783174874E+02  0.21348649685E+02  0.10218482575E+03  0.10739552698E+03  0.47000000000E+01 0. -1.
         -5    1    4    4    0  502 -0.32418804046E+02 -0.22173750271E+02  0.35947719694E+01  0.39719849476E+02  0.47000000000E+01 0.  1.
<mgrwt>
<rscale>  0 0.10244456E+03</rscale>
<asrwt>0</asrwt>
<pdfrwt beam="1">  1        1 0.33567191E-01 0.10365197E+03</pdfrwt>
<pdfrwt beam="2">  1       -1 0.76624484E-02 0.10365197E+03</pdfrwt>
<totfact> 0.11106030E+04</totfact>
</mgrwt>
</event>
<event>
 8    1  0.3177960E-004  0.1743425E+03  0.7546771E-02  0.1173395E+00
         -1   -1    0    0    0  501 -0.00000000000E+00  0.00000000000E+00  0.64066397449E+02  0.64066397449E+02  0.00000000000E+00 0.  1.
          1   -1    0    0  501    0  0.00000000000E+00 -0.00000000000E+00 -0.87396352753E+03  0.87396352753E+03  0.00000000000E+00 0. -1.
         23    2    1    2    0    0  0.22080233935E+02 -0.14607508098E+03 -0.72206950209E+03  0.74281873115E+03  0.92573405934E+02 0.  0.
         23    2    1    2    0    0 -0.22080233935E+02  0.14607508098E+03 -0.87827627992E+02  0.19521119383E+03  0.92564852633E+02 0.  0.
          5    1    4    4  502    0 -0.32146565746E+02  0.12169675351E+02 -0.92645747846E-02  0.34692834609E+02  0.47000000000E+01 0. -1.
         -5    1    3    3    0  503 -0.22160637406E+02 -0.96688111379E+01 -0.51706923895E+02  0.57273691498E+02  0.47000000000E+01 0.  1.
          5    1    3    3  503    0  0.44240871341E+02 -0.13640626984E+03 -0.67036257820E+03  0.68554503966E+03  0.47000000000E+01 0. -1.
         -5    1    4    4    0  502  0.10066331811E+02  0.13390540563E+03 -0.87818363417E+02  0.16051835922E+03  0.47000000000E+01 0.  1.
<mgrwt>
<rscale>  0 0.17434135E+03</rscale>
<asrwt>0</asrwt>
<pdfrwt beam="1">  1        1 0.13445592E+00 0.17434248E+03</pdfrwt>
<pdfrwt beam="2">  1       -1 0.98563694E-02 0.17434248E+03</pdfrwt>
<totfact> 0.12493220E+03</totfact>
</mgrwt>
</event>
<event>
 8    1  0.3177960E-004  0.1009811E+03  0.7546771E-02  0.1282059E+00
         -3   -1    0    0    0  501 -0.00000000000E+00  0.00000000000E+00  0.10334749896E+03  0.10334749896E+03  0.00000000000E+00 0.  1.
          3   -1    0    0  501    0  0.00000000000E+00 -0.00000000000E+00 -0.95012976906E+02  0.95012976906E+02  0.00000000000E+00 0. -1.
         23    2    1    2    0    0 -0.12630268305E+02 -0.23284631561E+02  0.22001707390E+02  0.96458672435E+02  0.90102733674E+02 0.  0.
         23    2    1    2    0    0  0.12630268305E+02  0.23284631561E+02 -0.13667185340E+02  0.10190180343E+03  0.97444793818E+02 0.  0.
          5    1    3    3  502    0  0.30854409481E+02 -0.36677422566E+02  0.10447028803E+02  0.49279390432E+02  0.47000000000E+01 0. -1.
         -5    1    3    3    0  502 -0.43484677786E+02  0.13392791005E+02  0.11554678587E+02  0.47179282003E+02  0.47000000000E+01 0.  1.
          5    1    4    4  503    0  0.26966965690E+02 -0.23368094862E+02 -0.33349696881E+02  0.49067070200E+02  0.47000000000E+01 0. -1.
         -5    1    4    4    0  503 -0.14336697385E+02  0.46652726423E+02  0.19682511541E+02  0.52834733227E+02  0.47000000000E+01 0.  1.
<mgrwt>
<rscale>  0 0.99166487E+02</rscale>
<asrwt>0</asrwt>
<pdfrwt beam="1">  1        3 0.14617381E-01 0.10098111E+03</pdfrwt>
<pdfrwt beam="2">  1       -3 0.15899615E-01 0.10098111E+03</pdfrwt>
<totfact> 0.28114733E+03</totfact>
</mgrwt>
</event>
<event>
 8    1  0.3177960E-004  0.1173292E+03  0.7546771E-02  0.1247896E+00
         -2   -1    0    0    0  501 -0.00000000000E+00  0.00000000000E+00  0.22721739215E+02  0.22721739215E+02  0.00000000000E+00 0. -1.
          2   -1    0    0  501    0  0.00000000000E+00 -0.00000000000E+00 -0.72779822823E+03  0.72779822823E+03  0.00000000000E+00 0.  1.
         23    2    1    2    0    0 -0.53822817927E+02  0.46182519118E+02 -0.50956002675E+03  0.52289346018E+03  0.93468866652E+02 0.  0.
         23    2    1    2    0    0  0.53822817927E+02 -0.46182519118E+02 -0.19551646226E+03  0.22762650726E+03  0.92506318659E+02 0.  0.
          5    1    4    4  502    0  0.36130977241E+02 -0.74420328462E+02 -0.13596110809E+03  0.15922105928E+03  0.47000000000E+01 0. -1.
         -5    1    3    3    0  503 -0.16651821017E+02  0.56458197293E+02 -0.43332370949E+03  0.43732863888E+03  0.47000000000E+01 0.  1.
          5    1    3    3  503    0 -0.37170996910E+02 -0.10275678175E+02 -0.76236317267E+02  0.85564821298E+02  0.47000000000E+01 0. -1.
         -5    1    4    4    0  502  0.17691840686E+02  0.28237809344E+02 -0.59555354166E+02  0.68405447979E+02  0.47000000000E+01 0.  1.
<mgrwt>
<rscale>  0 0.11713743E+03</rscale>
<asrwt>0</asrwt>
<pdfrwt beam="1">  1        2 0.11196894E+00 0.11732924E+03</pdfrwt>
<pdfrwt beam="2">  1       -2 0.34956527E-02 0.11732924E+03</pdfrwt>
<totfact> 0.12712982E+04</totfact>
</mgrwt>
</event>
<event>
 8    1  0.3177960E-004  0.1029548E+03  0.7546771E-02  0.1276969E+00
         -1   -1    0    0    0  501 -0.00000000000E+00  0.00000000000E+00  0.15684355181E+03  0.15684355181E+03  0.00000000000E+00 0.  1.
          1   -1    0    0  501    0  0.00000000000E+00 -0.00000000000E+00 -0.10518087353E+03  0.10518087353E+03  0.00000000000E+00 0. -1.
         23    2    1    2    0    0  0.26264682593E+02 -0.23241685452E+02  0.10723751047E+03  0.14502762716E+03  0.91121454625E+02 0.  0.
         23    2    1    2    0    0 -0.26264682593E+02  0.23241685452E+02 -0.55574832187E+02  0.11699679819E+03  0.96797103884E+02 0.  0.
          5    1    4    4  502    0 -0.20787544872E+02 -0.26132482298E+02  0.94615907503E+01  0.35023425766E+02  0.47000000000E+01 0. -1.
         -5    1    3    3    0  503  0.22345235255E+02  0.30837758099E+02  0.67484672991E+02  0.77630844075E+02  0.47000000000E+01 0.  1.
          5    1    3    3  503    0  0.39194473386E+01 -0.54079443551E+02  0.39752837476E+02  0.67396783080E+02  0.47000000000E+01 0. -1.
         -5    1    4    4    0  502 -0.54771377212E+01  0.49374167749E+02 -0.65036422938E+02  0.81973372427E+02  0.47000000000E+01 0.  1.
<mgrwt>
<rscale>  0 0.10159898E+03</rscale>
<asrwt>0</asrwt>
<pdfrwt beam="1">  1        1 0.16181673E-01 0.10295479E+03</pdfrwt>
<pdfrwt beam="2">  1       -1 0.24129777E-01 0.10295479E+03</pdfrwt>
<totfact> 0.46731864E+03</totfact>
</mgrwt>
</event>
<event>
 8    1  0.3177960E-004  0.9348142E+02  0.7546771E-02  0.1295561E+00
         -1   -1    0    0    0  501 -0.00000000000E+00  0.00000000000E+00  0.82443188086E+02  0.82443188086E+02  0.00000000000E+00 0.  1.
          1   -1    0    0  501    0  0.00000000000E+00 -0.00000000000E+00 -0.11103081232E+03  0.11103081232E+03  0.00000000000E+00 0. -1.
         23    2    1    2    0    0 -0.10446177857E+02  0.23786273503E+02 -0.38412180753E+02  0.10106567965E+03  0.89799034153E+02 0.  0.
         23    2    1    2    0    0  0.10446177857E+02 -0.23786273503E+02  0.98245565216E+01  0.92408320749E+02  0.88135500191E+02 0.  0.
          5    1    4    4  502    0  0.66616247962E+01  0.25252152833E+02 -0.21288728071E+02  0.34019823787E+02  0.47000000000E+01 0. -1.
         -5    1    3    3    0  503 -0.46804962242E+02  0.26115004053E+02 -0.34970777667E+02  0.64169644052E+02  0.47000000000E+01 0.  1.
          5    1    3    3  503    0  0.36358784385E+02 -0.23287305507E+01 -0.34414030862E+01  0.36896035602E+02  0.47000000000E+01 0. -1.
         -5    1    4    4    0  502  0.37845530606E+01 -0.49038426335E+02  0.31113284593E+02  0.58388496962E+02  0.47000000000E+01 0.  1.
<mgrwt>
<rscale>  0 0.93079627E+02</rscale>
<asrwt>0</asrwt>
<pdfrwt beam="1">  1        1 0.17081663E-01 0.93481420E+02</pdfrwt>
<pdfrwt beam="2">  1       -1 0.12683567E-01 0.93481420E+02</pdfrwt>
<totfact> 0.11914465E+04</totfact>
</mgrwt>
</event>
<event>
 8    1  0.3177960E-004  0.1021583E+03  0.7546771E-02  0.1277601E+00
          2   -1    0    0  501    0  0.00000000000E+00  0.00000000000E+00  0.58339579312E+03  0.58339579312E+03  0.00000000000E+00 0. -1.
         -2   -1    0    0    0  501 -0.00000000000E+00 -0.00000000000E+00 -0.25544444196E+02  0.25544444196E+02  0.00000000000E+00 0.  1.
         23    2    1    2    0    0  0.33873723021E+02  0.17284022030E+02  0.10913473796E+03  0.14948818716E+03  0.94816457126E+02 0.  0.
         23    2    1    2    0    0 -0.33873723021E+02 -0.17284022030E+02  0.44871661096E+03  0.45945205016E+03  0.91123119509E+02 0.  0.
          5    1    3    3  502    0 -0.19607241492E+02  0.30566363817E+02  0.13526108221E+02  0.39035779991E+02  0.47000000000E+01 0. -1.
         -5    1    4    4    0  503  0.13958746323E+02 -0.32175453254E+02  0.82137899397E+02  0.89436183441E+02  0.47000000000E+01 0.  1.
          5    1    4    4  503    0 -0.47832469345E+02  0.14891431224E+02  0.36657871157E+03  0.37001586672E+03  0.47000000000E+01 0. -1.
         -5    1    3    3    0  502  0.53480964514E+02 -0.13282341787E+02  0.95608629742E+02  0.11045240717E+03  0.47000000000E+01 0.  1.
<mgrwt>
<rscale>  0 0.10129282E+03</rscale>
<asrwt>0</asrwt>
<pdfrwt beam="1">  1        2 0.89753189E-01 0.10215834E+03</pdfrwt>
<pdfrwt beam="2">  1       -2 0.39299149E-02 0.10215834E+03</pdfrwt>
<totfact> 0.13659753E+04</totfact>
</mgrwt>
</event>
<event>
 8    1  0.3177960E-004  0.9505011E+02  0.7546771E-02  0.1292798E+00
         -3   -1    0    0    0  501 -0.00000000000E+00  0.00000000000E+00  0.25821683599E+03  0.25821683599E+03  0.00000000000E+00 0.  1.
          3   -1    0    0  501    0  0.00000000000E+00 -0.00000000000E+00 -0.45475957761E+02  0.45475957761E+02  0.00000000000E+00 0. -1.
         23    2    1    2    0    0  0.91965619835E+01  0.10841241212E+02  0.30989777527E+02  0.99974442143E+02  0.93980920975E+02 0.  0.
         23    2    1    2    0    0 -0.91965619835E+01 -0.10841241212E+02  0.18175110070E+03  0.20371835161E+03  0.90915317259E+02 0.  0.
          5    1    3    3  502    0  0.44620437240E+02 -0.16049518641E+02  0.41853352874E+01  0.47834898344E+02  0.47000000000E+01 0. -1.
         -5    1    4    4    0  503 -0.35791808412E+02  0.17766704345E+02  0.14278485641E+03  0.14834525457E+03  0.47000000000E+01 0.  1.
          5    1    4    4  503    0  0.26595246429E+02 -0.28607945557E+02  0.38966244290E+02  0.55373097039E+02  0.47000000000E+01 0. -1.
         -5    1    3    3    0  502 -0.35423875257E+02  0.26890759854E+02  0.26804442240E+02  0.52139543799E+02  0.47000000000E+01 0.  1.
<mgrwt>
<rscale>  0 0.94283385E+02</rscale>
<asrwt>0</asrwt>
<pdfrwt beam="1">  1        3 0.69963014E-02 0.95050107E+02</pdfrwt>
<pdfrwt beam="2">  1       -3 0.39725666E-01 0.95050107E+02</pdfrwt>
<totfact> 0.17951861E+03</totfact>
</mgrwt>
</event>
<event>
 8    1  0.3177960E-004  0.1027846E+03  0.7546771E-02  0.1275155E+00
         -1   -1    0    0    0  501 -0.00000000000E+00  0.00000000000E+00  0.10738029359E+03  0.10738029359E+03  0.00000000000E+00 0.  1.
          1   -1    0    0  501    0  0.00000000000E+00 -0.00000000000E+00 -0.12635155695E+03  0.12635155695E+03  0.00000000000E+00 0. -1.
         23    2    1    2    0    0 -0.46910664797E+01 -0.45457684059E+02  0.46559346516E+02  0.11283813730E+03  0.92066635302E+02 0.  0.
         23    2    1    2    0    0  0.46910664797E+01  0.45457684059E+02 -0.65530609886E+02  0.12089371324E+03  0.90733797038E+02 0.  0.
          5    1    4    4  502    0  0.83091230861E+01 -0.26425490130E+02 -0.27665674522E+02  0.39431302309E+02  0.47000000000E+01 0. -1.
         -5    1    4    4    0  502 -0.36180566064E+01  0.71883174189E+02 -0.37864935364E+02  0.81462410934E+02  0.47000000000E+01 0.  1.
          5    1    3    3  503    0  0.14722855130E+02 -0.22622722360E+02  0.69563414357E+02  0.74764354121E+02  0.47000000000E+01 0. -1.
         -5    1    3    3    0  503 -0.19413921610E+02 -0.22834961699E+02 -0.23004067841E+02  0.38073783176E+02  0.47000000000E+01 0.  1.
<mgrwt>
<rscale>  0 0.10248526E+03</rscale>
<asrwt>0</asrwt>
<pdfrwt beam="1">  1        1 0.19438701E-01 0.10278459E+03</pdfrwt>
<pdfrwt beam="2">  1       -1 0.16520045E-01 0.10278459E+03</pdfrwt>
<totfact> 0.67722334E+03</totfact>
</mgrwt>
</event>
<event>
 8    1  0.3177960E-004  0.9525373E+02  0.7546771E-02  0.1292007E+00
          1   -1    0    0  501    0  0.00000000000E+00  0.00000000000E+00  0.10678990581E+04  0.10678990581E+04  0.00000000000E+00 0. -1.
         -1   -1    0    0    0  501 -0.00000000000E+00 -0.00000000000E+00 -0.83604249526E+01  0.83604249526E+01  0.00000000000E+00 0.  1.
         23    2    1    2    0    0 -0.67567895762E-01  0.24165868684E+02  0.46954426618E+03  0.47862529215E+03  0.89589947029E+02 0.  0.
         23    2    1    2    0    0  0.67567895762E-01 -0.24165868684E+02  0.58999436693E+03  0.59763419086E+03  0.92137285107E+02 0.  0.
          5    1    3    3  502    0 -0.43926389307E+02  0.12340635507E+02  0.19603085622E+03  0.20132562071E+03  0.47000000000E+01 0. -1.
         -5    1    3    3    0  502  0.43858821411E+02  0.11825233177E+02  0.27351340996E+03  0.27729967145E+03  0.47000000000E+01 0.  1.
          5    1    4    4  503    0 -0.42981482579E+02 -0.89231795938E+01  0.38716784018E+03  0.38967686286E+03  0.47000000000E+01 0. -1.
         -5    1    4    4    0  503  0.43049050475E+02 -0.15242689090E+02  0.20282652675E+03  0.20795732800E+03  0.47000000000E+01 0.  1.
<mgrwt>
<rscale>  0 0.94632238E+02</rscale>
<asrwt>0</asrwt>
<pdfrwt beam="1">  1        1 0.16429205E+00 0.95253730E+02</pdfrwt>
<pdfrwt beam="2">  1       -1 0.12862201E-02 0.95253730E+02</pdfrwt>
<totfact> 0.17322939E+04</totfact>
</mgrwt>
</event>
<event>
 8    1  0.3177960E-004  0.1183168E+03  0.7546771E-02  0.1246448E+00
          2   -1    0    0  501    0  0.00000000000E+00  0.00000000000E+00  0.22810630582E+03  0.22810630582E+03  0.00000000000E+00 0. -1.
         -2   -1    0    0    0  501 -0.00000000000E+00 -0.00000000000E+00 -0.73483246374E+02  0.73483246374E+02  0.00000000000E+00 0.  1.
         23    2    1    2    0    0  0.54147994957E+02  0.47547737815E+02  0.13985435694E+03  0.18235462043E+03  0.92201809668E+02 0.  0.
         23    2    1    2    0    0 -0.54147994957E+02 -0.47547737815E+02  0.14768702506E+02  0.11923493177E+03  0.93840618344E+02 0.  0.
          5    1    3    3  502    0  0.76431528114E+02  0.42507535318E+02  0.13062672649E+03  0.15727078789E+03  0.47000000000E+01 0. -1.
         -5    1    4    4    0  503 -0.42868999188E+02  0.51756945974E+01  0.40428921224E+02  0.59339081366E+02  0.47000000000E+01 0.  1.
          5    1    4    4  503    0 -0.11278995769E+02 -0.52723432412E+02 -0.25660218718E+02  0.59895850403E+02  0.47000000000E+01 0. -1.
         -5    1    3    3    0  502 -0.22283533157E+02  0.50402024972E+01  0.92276304511E+01  0.25083832540E+02  0.47000000000E+01 0.  1.
<mgrwt>
<rscale>  0 0.11799153E+03</rscale>
<asrwt>0</asrwt>
<pdfrwt beam="1">  1        2 0.35093278E-01 0.11831675E+03</pdfrwt>
<pdfrwt beam="2">  1       -2 0.11305115E-01 0.11831675E+03</pdfrwt>
<totfact> 0.75470765E+03</totfact>
</mgrwt>
</event>
<event>
 8    1  0.3177960E-004  0.1022767E+03  0.7546771E-02  0.1276809E+00
          1   -1    0    0  501    0  0.00000000000E+00  0.00000000000E+00  0.22618186444E+03  0.22618186444E+03  0.00000000000E+00 0. -1.
         -1   -1    0    0    0  501 -0.00000000000E+00 -0.00000000000E+00 -0.19972310957E+03  0.19972310957E+03  0.00000000000E+00 0.  1.
         23    2    1    2    0    0 -0.13453517493E+01 -0.42661265944E+02 -0.17412746866E+03  0.20074866655E+03  0.90320862464E+02 0.  0.
         23    2    1    2    0    0  0.13453517493E+01  0.42661265944E+02  0.20058622352E+03  0.22515630747E+03  0.92944801599E+02 0.  0.
          5    1    4    4  502    0 -0.33149079770E+02  0.17054889345E+01  0.25831914863E+02  0.42321956566E+02  0.47000000000E+01 0. -1.
         -5    1    4    4    0  502  0.34494431519E+02  0.40955777009E+02  0.17475430866E+03  0.18283435091E+03  0.47000000000E+01 0.  1.
          5    1    3    3  503    0 -0.28479134735E+02 -0.32645694063E+02 -0.28192644437E+02  0.51901037143E+02  0.47000000000E+01 0. -1.
         -5    1    3    3    0  503  0.27133782986E+02 -0.10015571880E+02 -0.14593482422E+03  0.14884762940E+03  0.47000000000E+01 0.  1.
<mgrwt>
<rscale>  0 0.10167684E+03</rscale>
<asrwt>0</asrwt>
<pdfrwt beam="1">  1        1 0.34797210E-01 0.10227673E+03</pdfrwt>
<pdfrwt beam="2">  1       -1 0.30726632E-01 0.10227673E+03</pdfrwt>
<totfact> 0.12054785E+03</totfact>
</mgrwt>
</event>
<event>
 8    1  0.3177960E-004  0.1008653E+03  0.7546771E-02  0.1281157E+00
          1   -1    0    0  501    0  0.00000000000E+00  0.00000000000E+00  0.60509796516E+02  0.60509796516E+02  0.00000000000E+00 0. -1.
         -1   -1    0    0    0  501 -0.00000000000E+00 -0.00000000000E+00 -0.53621188389E+03  0.53621188389E+03  0.00000000000E+00 0.  1.
         23    2    1    2    0    0 -0.82318559152E+01 -0.39931006401E+02  0.10267749896E+02  0.10138653172E+03  0.92258080418E+02 0.  0.
         23    2    1    2    0    0  0.82318559152E+01  0.39931006401E+02 -0.48596983727E+03  0.49533514869E+03  0.86763921442E+02 0.  0.
          5    1    4    4  502    0 -0.58668135687E+01 -0.21652113058E+02 -0.52838729757E+02  0.57595614969E+02  0.47000000000E+01 0. -1.
         -5    1    4    4    0  502  0.14098669484E+02  0.61583119459E+02 -0.43313110752E+03  0.43773953372E+03  0.47000000000E+01 0.  1.
          5    1    3    3  503    0  0.40859233593E+02 -0.26677695214E+02 -0.12470602837E+01  0.49038979915E+02  0.47000000000E+01 0. -1.
         -5    1    3    3    0  503 -0.49091089509E+02 -0.13253311186E+02  0.11514810180E+02  0.52347551805E+02  0.47000000000E+01 0.  1.
<mgrwt>
<rscale>  0 0.99591440E+02</rscale>
<asrwt>0</asrwt>
<pdfrwt beam="1">  1        1 0.93091996E-02 0.10086527E+03</pdfrwt>
<pdfrwt beam="2">  1       -1 0.82494135E-01 0.10086527E+03</pdfrwt>
<totfact> 0.10547797E+03</totfact>
</mgrwt>
</event>
<event>
 8    1  0.3177960E-004  0.1067742E+03  0.7546771E-02  0.1267597E+00
          2   -1    0    0  501    0  0.00000000000E+00  0.00000000000E+00  0.64128671932E+03  0.64128671932E+03  0.00000000000E+00 0. -1.
         -2   -1    0    0    0  501 -0.00000000000E+00 -0.00000000000E+00 -0.26619901596E+02  0.26619901596E+02  0.00000000000E+00 0.  1.
         23    2    1    2    0    0  0.41374578705E+02 -0.30412111266E+02  0.50140025222E+03  0.51224657946E+03  0.91419871855E+02 0.  0.
         23    2    1    2    0    0 -0.41374578705E+02  0.30412111266E+02  0.11326656550E+03  0.15566004145E+03  0.93616138402E+02 0.  0.
          5    1    3    3  502    0  0.70540831177E+02 -0.19245647565E+02  0.35162105475E+03  0.35917385757E+03  0.47000000000E+01 0. -1.
         -5    1    4    4    0  503 -0.38399394480E+02  0.95228113283E+00  0.11900209246E+03  0.12513595945E+03  0.47000000000E+01 0.  1.
          5    1    4    4  503    0 -0.29751842256E+01  0.29459830134E+02 -0.57355269632E+01  0.30524082005E+02  0.47000000000E+01 0. -1.
         -5    1    3    3    0  502 -0.29166252472E+02 -0.11166463702E+02  0.14977919746E+03  0.15307272189E+03  0.47000000000E+01 0.  1.
<mgrwt>
<rscale>  0 0.10629087E+03</rscale>
<asrwt>0</asrwt>
<pdfrwt beam="1">  1        2 0.98659484E-01 0.10677422E+03</pdfrwt>
<pdfrwt beam="2">  1       -2 0.40953699E-02 0.10677422E+03</pdfrwt>
<totfact> 0.11589330E+04</totfact>
</mgrwt>
</event>
<event>
 8    1  0.3177960E-004  0.1168457E+03  0.7546771E-02  0.1253203E+00
         -1   -1    0    0    0  501 -0.00000000000E+00  0.00000000000E+00  0.21324977951E+03  0.21324977951E+03  0.00000000000E+00 0.  1.
          1   -1    0    0  501    0  0.00000000000E+00 -0.00000000000E+00 -0.18656744559E+03  0.18656744559E+03  0.00000000000E+00 0. -1.
         23    2    1    2    0    0  0.35710661676E+02  0.39356543072E+02  0.17923951927E+03  0.21396195707E+03  0.10406115974E+03 0.  0.
         23    2    1    2    0    0 -0.35710661676E+02 -0.39356543072E+02 -0.15255718534E+03  0.18585526803E+03  0.91892856174E+02 0.  0.
          5    1    3    3  502    0 -0.23736887185E+02 -0.62960491217E+01  0.68516891702E+01  0.25925194161E+02  0.47000000000E+01 0. -1.
         -5    1    4    4    0  503  0.11328540121E+02  0.19349801248E+02 -0.10848772511E+02  0.25348303584E+02  0.47000000000E+01 0.  1.
          5    1    4    4  503    0 -0.47039201797E+02 -0.58706344320E+02 -0.14170841283E+03  0.16050696445E+03  0.47000000000E+01 0. -1.
         -5    1    3    3    0  502  0.59447548861E+02  0.45652592194E+02  0.17238783009E+03  0.18803676291E+03  0.47000000000E+01 0.  1.
<mgrwt>
<rscale>  0 0.11407558E+03</rscale>
<asrwt>0</asrwt>
<pdfrwt beam="1">  1        1 0.28702684E-01 0.11684568E+03</pdfrwt>
<pdfrwt beam="2">  1       -1 0.32807658E-01 0.11684568E+03</pdfrwt>
<totfact> 0.13743124E+03</totfact>
</mgrwt>
</event>
<event>
 8    1  0.3177960E-004  0.1071661E+03  0.7546771E-02  0.1271498E+00
          2   -1    0    0  501    0  0.00000000000E+00  0.00000000000E+00  0.41320339445E+03  0.41320339445E+03  0.00000000000E+00 0. -1.
         -2   -1    0    0    0  501 -0.00000000000E+00 -0.00000000000E+00 -0.31067024052E+02  0.31067024052E+02  0.00000000000E+00 0.  1.
         23    2    1    2    0    0 -0.31963742730E+02 -0.20889149034E+01  0.84813353604E+02  0.12822366213E+03  0.90675014007E+02 0.  0.
         23    2    1    2    0    0  0.31963742730E+02  0.20889149034E+01  0.29732301680E+03  0.31604675638E+03  0.10226696184E+03 0.  0.
          5    1    4    4  502    0  0.14136623605E+02  0.46293164801E+02  0.21822744606E+03  0.22358043172E+03  0.47000000000E+01 0. -1.
         -5    1    4    4    0  502  0.17827119125E+02 -0.44204249897E+02  0.79095570732E+02  0.92466324652E+02  0.47000000000E+01 0.  1.
          5    1    3    3  503    0 -0.22985877809E+02  0.36082947404E+02  0.10865479967E+02  0.44390070138E+02  0.47000000000E+01 0. -1.
         -5    1    3    3    0  503 -0.89778649212E+01 -0.38171862307E+02  0.73947873637E+02  0.83833591990E+02  0.47000000000E+01 0.  1.
<mgrwt>
<rscale>  0 0.10430355E+03</rscale>
<asrwt>0</asrwt>
<pdfrwt beam="1">  1        2 0.63569749E-01 0.10716611E+03</pdfrwt>
<pdfrwt beam="2">  1       -2 0.47795425E-02 0.10716611E+03</pdfrwt>
<totfact> 0.14927219E+04</totfact>
</mgrwt>
</event>
<event>
 8    1  0.3177960E-004  0.9498653E+02  0.7546771E-02  0.1292024E+00
         -2   -1    0    0    0  501 -0.00000000000E+00  0.00000000000E+00  0.44046551555E+03  0.44046551555E+03  0.00000000000E+00 0.  1.
          2   -1    0    0  501    0  0.00000000000E+00 -0.00000000000E+00 -0.47781998182E+02  0.47781998182E+02  0.00000000000E+00 0. -1.
         23    2    1    2    0    0  0.19117809041E+02 -0.10560312262E+02  0.38253519888E+03  0.39415177171E+03  0.92441494726E+02 0.  0.
         23    2    1    2    0    0 -0.19117809041E+02  0.10560312262E+02  0.10148318495E+02  0.94095742022E+02  0.90961582444E+02 0.  0.
          5    1    4    4  502    0  0.96681335291E+00  0.47622540060E+02  0.17664476053E+02  0.51019258756E+02  0.47000000000E+01 0. -1.
         -5    1    4    4    0  502 -0.20084622394E+02 -0.37062227798E+02 -0.75161575579E+01  0.43076483266E+02  0.47000000000E+01 0.  1.
          5    1    3    3  503    0 -0.22969512567E+02  0.18051208919E+02  0.53204830795E+02  0.60879295914E+02  0.47000000000E+01 0. -1.
         -5    1    3    3    0  503  0.42087321608E+02 -0.28611521181E+02  0.32933036808E+03  0.33327247580E+03  0.47000000000E+01 0.  1.
<mgrwt>
<rscale>  0 0.94624555E+02</rscale>
<asrwt>0</asrwt>
<pdfrwt beam="1">  1        2 0.73510769E-02 0.94986529E+02</pdfrwt>
<pdfrwt beam="2">  1       -2 0.67763923E-01 0.94986529E+02</pdfrwt>
<totfact> 0.18318721E+03</totfact>
</mgrwt>
</event>
<event>
 8    1  0.3177960E-004  0.9191567E+02  0.7546771E-02  0.1298782E+00
         -1   -1    0    0    0  501 -0.00000000000E+00  0.00000000000E+00  0.35755316939E+03  0.35755316939E+03  0.00000000000E+00 0.  1.
          1   -1    0    0  501    0  0.00000000000E+00 -0.00000000000E+00 -0.24167973447E+02  0.24167973447E+02  0.00000000000E+00 0. -1.
         23    2    1    2    0    0 -0.10897330490E+02  0.39492734239E+01  0.20124224177E+03  0.22123953264E+03  0.91181919031E+02 0.  0.
         23    2    1    2    0    0  0.10897330490E+02 -0.39492734239E+01  0.13214295418E+03  0.16048161020E+03  0.90322966633E+02 0.  0.
          5    1    4    4  502    0 -0.31512988734E+02 -0.27372923922E+02  0.68574212265E+02  0.80416776923E+02  0.47000000000E+01 0. -1.
         -5    1    4    4    0  502  0.42410319224E+02  0.23423650498E+02  0.63568741912E+02  0.80064833277E+02  0.47000000000E+01 0.  1.
          5    1    3    3  503    0 -0.25390422452E+02  0.18371205336E+02  0.17300007612E+02  0.36104778093E+02  0.47000000000E+01 0. -1.
         -5    1    3    3    0  503  0.14493091961E+02 -0.14421931912E+02  0.18394223415E+03  0.18513475454E+03  0.47000000000E+01 0.  1.
<mgrwt>
<rscale>  0 0.91701921E+02</rscale>
<asrwt>0</asrwt>
<pdfrwt beam="1">  1        1 0.37181500E-02 0.91915673E+02</pdfrwt>
<pdfrwt beam="2">  1       -1 0.55008176E-01 0.91915673E+02</pdfrwt>
<totfact> 0.78993456E+03</totfact>
</mgrwt>
</event>
<event>
 8    1  0.3177960E-004  0.9833076E+02  0.7546771E-02  0.1284231E+00
         -1   -1    0    0    0  501 -0.00000000000E+00  0.00000000000E+00  0.14787990447E+02  0.14787990447E+02  0.00000000000E+00 0.  1.
          1   -1    0    0  501    0  0.00000000000E+00 -0.00000000000E+00 -0.82916768818E+03  0.82916768818E+03  0.00000000000E+00 0. -1.
         23    2    1    2    0    0  0.26928989433E+02  0.23671111753E+02 -0.60267322475E+03  0.61052781135E+03  0.90794826942E+02 0.  0.
         23    2    1    2    0    0 -0.26928989433E+02 -0.23671111753E+02 -0.21170647299E+03  0.23342786728E+03  0.91561162697E+02 0.  0.
          5    1    3    3  502    0  0.59261066020E+02  0.25111248219E+02 -0.42467077669E+03  0.42954604795E+03  0.47000000000E+01 0. -1.
         -5    1    3    3    0  502 -0.32332076586E+02 -0.14401364658E+01 -0.17800244805E+03  0.18098176340E+03  0.47000000000E+01 0.  1.
          5    1    4    4  503    0  0.73939533151E+01 -0.47198663231E+02 -0.15912254813E+03  0.16620607594E+03  0.47000000000E+01 0. -1.
         -5    1    4    4    0  503 -0.34322942748E+02  0.23527551478E+02 -0.52583924865E+02  0.67221791345E+02  0.47000000000E+01 0.  1.
<mgrwt>
<rscale>  0 0.98151979E+02</rscale>
<asrwt>0</asrwt>
<pdfrwt beam="1">  1        1 0.12756424E+00 0.98330761E+02</pdfrwt>
<pdfrwt beam="2">  1       -1 0.22750759E-02 0.98330761E+02</pdfrwt>
<totfact> 0.11580622E+04</totfact>
</mgrwt>
</event>
<event>
 8    1  0.3177960E-004  0.1287855E+03  0.7546771E-02  0.1229399E+00
          3   -1    0    0  501    0  0.00000000000E+00  0.00000000000E+00  0.19461676741E+03  0.19461676741E+03  0.00000000000E+00 0. -1.
         -3   -1    0    0    0  501 -0.00000000000E+00 -0.00000000000E+00 -0.86300386141E+02  0.86300386141E+02  0.00000000000E+00 0.  1.
         23    2    1    2    0    0  0.90691475044E+02  0.70143112460E+01  0.71372639437E+02  0.14693748715E+03  0.90677600665E+02 0.  0.
         23    2    1    2    0    0 -0.90691475044E+02 -0.70143112460E+01  0.36943741834E+02  0.13397966640E+03  0.91167794426E+02 0.  0.
          5    1    4    4  502    0 -0.65697360734E+02  0.38753207427E+02  0.21268147419E+02  0.79324513159E+02  0.47000000000E+01 0. -1.
         -5    1    4    4    0  502 -0.24994114310E+02 -0.45767518673E+02  0.15675594415E+02  0.54655153242E+02  0.47000000000E+01 0.  1.
          5    1    3    3  503    0  0.55389432735E+02 -0.56892691158E+01  0.89103283596E+02  0.10517529268E+03  0.47000000000E+01 0. -1.
         -5    1    3    3    0  503  0.35302042309E+02  0.12703580362E+02 -0.17730644159E+02  0.41762194476E+02  0.47000000000E+01 0.  1.
<mgrwt>
<rscale>  0 0.12869880E+03</rscale>
<asrwt>0</asrwt>
<pdfrwt beam="1">  1        3 0.29941041E-01 0.12878552E+03</pdfrwt>
<pdfrwt beam="2">  1       -3 0.13276983E-01 0.12878552E+03</pdfrwt>
<totfact> 0.11262909E+03</totfact>
</mgrwt>
</event>
<event>
 8    1  0.3177960E-004  0.1635683E+03  0.7546771E-02  0.1185181E+00
          3   -1    0    0  501    0  0.00000000000E+00  0.00000000000E+00  0.76506182263E+03  0.76506182263E+03  0.00000000000E+00 0. -1.
         -3   -1    0    0    0  501 -0.00000000000E+00 -0.00000000000E+00 -0.34780477801E+02  0.34780477801E+02  0.00000000000E+00 0.  1.
         23    2    1    2    0    0  0.11483435185E+03 -0.72856852718E+02  0.33970258875E+03  0.37703110098E+03  0.90882082653E+02 0.  0.
         23    2    1    2    0    0 -0.11483435185E+03  0.72856852718E+02  0.39057875608E+03  0.42281119946E+03  0.87877735139E+02 0.  0.
          5    1    4    4  502    0 -0.43705808722E+02  0.75135840841E+02  0.17003802514E+03  0.19102516140E+03  0.47000000000E+01 0. -1.
         -5    1    3    3    0  503  0.11208780705E+03 -0.35011035850E+02  0.29859629463E+03  0.32089139329E+03  0.47000000000E+01 0.  1.
          5    1    3    3  503    0  0.27465447966E+01 -0.37845816868E+02  0.41106294117E+02  0.56139707683E+02  0.47000000000E+01 0. -1.
         -5    1    4    4    0  502 -0.71128543123E+02 -0.22789881227E+01  0.22054073094E+03  0.23178603806E+03  0.47000000000E+01 0.  1.
<mgrwt>
<rscale>  0 0.16315427E+03</rscale>
<asrwt>0</asrwt>
<pdfrwt beam="1">  1        3 0.11770181E+00 0.16356834E+03</pdfrwt>
<pdfrwt beam="2">  1       -3 0.53508433E-02 0.16356834E+03</pdfrwt>
<totfact> 0.30312416E+02</totfact>
</mgrwt>
</event>
<event>
 8    1  0.3177960E-004  0.1157847E+03  0.7546771E-02  0.1258639E+00
          1   -1    0    0  501    0  0.00000000000E+00  0.00000000000E+00  0.12064711674E+04  0.12064711674E+04  0.00000000000E+00 0. -1.
         -1   -1    0    0    0  501 -0.00000000000E+00 -0.00000000000E+00 -0.10827375456E+02  0.10827375456E+02  0.00000000000E+00 0.  1.
         23    2    1    2    0    0 -0.31058015601E+01 -0.37003076888E+02  0.42639587223E+03  0.44183654995E+03  0.10966869796E+03 0.  0.
         23    2    1    2    0    0  0.31058015601E+01  0.37003076888E+02  0.76924791971E+03  0.77546199290E+03  0.90664583813E+02 0.  0.
          5    1    4    4  502    0  0.36872893571E+02  0.48570263826E+02  0.43446876466E+03  0.43875263905E+03  0.47000000000E+01 0. -1.
         -5    1    4    4    0  502 -0.33767092011E+02 -0.11567186938E+02  0.33477915505E+03  0.33670935385E+03  0.47000000000E+01 0.  1.
          5    1    3    3  503    0 -0.44776385135E+02 -0.46962836994E+00  0.30501789451E+03  0.30832312788E+03  0.47000000000E+01 0. -1.
         -5    1    3    3    0  503  0.41670583575E+02 -0.36533448518E+02  0.12137797772E+03  0.13351342207E+03  0.47000000000E+01 0.  1.
<mgrwt>
<rscale>  0 0.11104942E+03</rscale>
<asrwt>0</asrwt>
<pdfrwt beam="1">  1        1 0.18561084E+00 0.11578470E+03</pdfrwt>
<pdfrwt beam="2">  1       -1 0.16657510E-02 0.11578470E+03</pdfrwt>
<totfact> 0.97482562E+03</totfact>
</mgrwt>
</event>
<event>
 8    1  0.3177960E-004  0.9568324E+02  0.7546771E-02  0.1289807E+00
         -2   -1    0    0    0  501 -0.00000000000E+00  0.00000000000E+00  0.82339145720E+02  0.82339145720E+02  0.00000000000E+00 0.  1.
          2   -1    0    0  501    0  0.00000000000E+00 -0.00000000000E+00 -0.16845385872E+03  0.16845385872E+03  0.00000000000E+00 0. -1.
         23    2    1    2    0    0 -0.67644791865E+01  0.26115671915E+02 -0.11634062987E+03  0.15044915409E+03  0.91498739389E+02 0.  0.
         23    2    1    2    0    0  0.67644791865E+01 -0.26115671915E+02  0.30225916861E+02  0.10034385036E+03  0.91801392997E+02 0.  0.
          5    1    4    4  502    0  0.30364538246E+02 -0.51963200212E+02  0.19223248811E+02  0.63354578793E+02  0.47000000000E+01 0. -1.
         -5    1    4    4    0  502 -0.23600059060E+02  0.25847528297E+02  0.11002668050E+02  0.36989271565E+02  0.47000000000E+01 0.  1.
          5    1    3    3  503    0  0.36979431705E+02 -0.76648021401E+01 -0.62324762373E+02  0.73025294015E+02  0.47000000000E+01 0. -1.
         -5    1    3    3    0  503 -0.43743910892E+02  0.33780474055E+02 -0.54015867492E+02  0.77423860072E+02  0.47000000000E+01 0.  1.
<mgrwt>
<rscale>  0 0.95610572E+02</rscale>
<asrwt>0</asrwt>
<pdfrwt beam="1">  1        2 0.25915978E-01 0.95683239E+02</pdfrwt>
<pdfrwt beam="2">  1       -2 0.12667561E-01 0.95683239E+02</pdfrwt>
<totfact> 0.85825200E+03</totfact>
</mgrwt>
</event>
<event>
 8    1  0.3177960E-004  0.9021116E+02  0.7546771E-02  0.1303449E+00
         -1   -1    0    0    0  501 -0.00000000000E+00  0.00000000000E+00  0.11517587377E+03  0.11517587377E+03  0.00000000000E+00 0.  1.
          1   -1    0    0  501    0  0.00000000000E+00 -0.00000000000E+00 -0.69836072406E+02  0.69836072406E+02  0.00000000000E+00 0. -1.
         23    2    1    2    0    0  0.13721299513E+01  0.49772584706E+01  0.13912117213E+02  0.89483144566E+02  0.88244151725E+02 0.  0.
         23    2    1    2    0    0 -0.13721299513E+01 -0.49772584706E+01  0.31427684154E+02  0.95528801613E+02  0.90063293099E+02 0.  0.
          5    1    4    4  502    0 -0.38561625273E+02 -0.25248192901E+02  0.24315889531E+02  0.52324207324E+02  0.47000000000E+01 0. -1.
         -5    1    4    4    0  502  0.37189495321E+02  0.20270934430E+02  0.71117946238E+01  0.43204594289E+02  0.47000000000E+01 0.  1.
          5    1    3    3  503    0 -0.38791076638E+02  0.19495904231E+02 -0.18780899277E+01  0.43708753475E+02  0.47000000000E+01 0. -1.
         -5    1    3    3    0  503  0.40163206589E+02 -0.14518645761E+02  0.15790207141E+02  0.45774391092E+02  0.47000000000E+01 0.  1.
<mgrwt>
<rscale>  0 0.89753663E+02</rscale>
<asrwt>0</asrwt>
<pdfrwt beam="1">  1        1 0.10744011E-01 0.90211156E+02</pdfrwt>
<pdfrwt beam="2">  1       -1 0.17719365E-01 0.90211156E+02</pdfrwt>
<totfact> 0.12837366E+04</totfact>
</mgrwt>
</event>
<event>
 8    1  0.3177960E-004  0.9460360E+02  0.7546771E-02  0.1293372E+00
         -2   -1    0    0    0  501 -0.00000000000E+00  0.00000000000E+00  0.99949665160E+02  0.99949665160E+02  0.00000000000E+00 0.  1.
          2   -1    0    0  501    0  0.00000000000E+00 -0.00000000000E+00 -0.27493290071E+03  0.27493290071E+03  0.00000000000E+00 0. -1.
         23    2    1    2    0    0  0.21834866652E+02  0.75101973013E+01  0.67644915408E+02  0.11446317299E+03  0.89402566658E+02 0.  0.
         23    2    1    2    0    0 -0.21834866652E+02 -0.75101973013E+01 -0.24262815095E+03  0.26041939288E+03  0.91742444299E+02 0.  0.
          5    1    3    3  502    0  0.44339327250E+01 -0.39338609647E+02  0.42675398362E+02  0.58399191722E+02  0.47000000000E+01 0.  1.
         -5    1    3    3    0  502  0.17400933927E+02  0.46848806949E+02  0.24969517046E+02  0.56063981267E+02  0.47000000000E+01 0. -1.
          5    1    4    4  503    0 -0.38333704546E+02  0.15435293812E+02 -0.22004011425E+03  0.22393629246E+03  0.47000000000E+01 0. -1.
         -5    1    4    4    0  503  0.16498837894E+02 -0.22945491113E+02 -0.22588036703E+02  0.36483100421E+02  0.47000000000E+01 0.  1.
<mgrwt>
<rscale>  0 0.94031594E+02</rscale>
<asrwt>0</asrwt>
<pdfrwt beam="1">  1        2 0.42297369E-01 0.94603597E+02</pdfrwt>
<pdfrwt beam="2">  1       -2 0.15376872E-01 0.94603597E+02</pdfrwt>
<totfact> 0.37288340E+03</totfact>
</mgrwt>
</event>
<event>
 8    1  0.3177960E-004  0.1014823E+03  0.7546771E-02  0.1277327E+00
          1   -1    0    0  501    0  0.00000000000E+00  0.00000000000E+00  0.17736221111E+02  0.17736221111E+02  0.00000000000E+00 0. -1.
         -1   -1    0    0    0  501 -0.00000000000E+00 -0.00000000000E+00 -0.67801528533E+03  0.67801528533E+03  0.00000000000E+00 0.  1.
         23    2    1    2    0    0  0.43536341032E+02  0.37110671482E+00 -0.19711749568E+03  0.22160247356E+03  0.91415526426E+02 0.  0.
         23    2    1    2    0    0 -0.43536341032E+02 -0.37110671482E+00 -0.46316156854E+03  0.47414903289E+03  0.91668512069E+02 0.  0.
          5    1    3    3  502    0  0.71032231566E+02 -0.89168345029E+01 -0.13504645726E+03  0.15292064438E+03  0.47000000000E+01 0. -1.
         -5    1    3    3    0  502 -0.27495890535E+02  0.92879412177E+01 -0.62071038419E+02  0.68681829175E+02  0.47000000000E+01 0.  1.
          5    1    4    4  503    0  0.26740454547E+01  0.37309967559E+02 -0.24719456077E+03  0.25005284456E+03  0.47000000000E+01 0. -1.
         -5    1    4    4    0  503 -0.46210386486E+02 -0.37681074274E+02 -0.21596700777E+03  0.22409618832E+03  0.47000000000E+01 0.  1.
<mgrwt>
<rscale>  0 0.10142518E+03</rscale>
<asrwt>0</asrwt>
<pdfrwt beam="1">  1        1 0.27286494E-02 0.10148235E+03</pdfrwt>
<pdfrwt beam="2">  1       -1 0.10431004E+00 0.10148235E+03</pdfrwt>
<totfact> 0.33653994E+03</totfact>
</mgrwt>
</event>
<event>
 7    1  0.1136823E-003  0.2771583E+03  0.7546771E-02  0.1120449E+00
         -2   -1    0    0    0  501 -0.00000000000E+00  0.00000000000E+00  0.39681652825E+03  0.39681652825E+03  0.00000000000E+00 0. -1.
          2   -1    0    0  501    0  0.00000000000E+00 -0.00000000000E+00 -0.16386115385E+03  0.16386115385E+03  0.00000000000E+00 0.  1.
         23    2    1    2    0    0 -0.95635543095E+02  0.79222858291E+02 -0.53236575866E+02  0.16227769118E+03  0.89874900097E+02 0.  0.
          5    1    1    2  502    0  0.80936009242E+02 -0.11406191490E+03  0.34885926187E+02  0.14422162067E+03  0.47000000000E+01 0.  1.
         -5    1    1    2    0  502  0.14699533852E+02  0.34839056604E+02  0.25130602408E+03  0.25417837025E+03  0.47000000000E+01 0. -1.
          5    1    3    3  503    0  0.14982061830E+02  0.21354802717E+02 -0.68809642957E-01  0.26506310768E+02  0.47000000000E+01 0. -1.
         -5    1    3    3    0  503 -0.11061760492E+03  0.57868055574E+02 -0.53167766224E+02  0.13577138042E+03  0.47000000000E+01 0.  1.
<mgrwt>
<rscale>  0 0.23901722E+03</rscale>
<asrwt>0</asrwt>
<pdfrwt beam="1">  1        2 0.25209408E-01 0.27715829E+03</pdfrwt>
<pdfrwt beam="2">  1       -2 0.61048697E-01 0.27715829E+03</pdfrwt>
<totfact> 0.54500018E+02</totfact>
</mgrwt>
</event>
<event>
 8    1  0.3177960E-004  0.1019631E+03  0.7546771E-02  0.1277420E+00
         -2   -1    0    0    0  501 -0.00000000000E+00  0.00000000000E+00  0.24952580794E+02  0.24952580794E+02  0.00000000000E+00 0.  1.
          2   -1    0    0  501    0  0.00000000000E+00 -0.00000000000E+00 -0.47383855656E+03  0.47383855656E+03  0.00000000000E+00 0. -1.
         23    2    1    2    0    0 -0.32129230852E+02  0.11313907665E+02 -0.31571162817E+03  0.33106551832E+03  0.93649630403E+02 0.  0.
         23    2    1    2    0    0  0.32129230852E+02 -0.11313907665E+02 -0.13317434760E+03  0.16772561904E+03  0.96105069806E+02 0.  0.
          5    1    4    4  502    0  0.19689831120E+02  0.41939040428E+02 -0.52863822053E+02  0.70450310458E+02  0.47000000000E+01 0. -1.
         -5    1    3    3    0  503 -0.63622088091E+01 -0.36822003467E+02 -0.71851028510E+02  0.81123350142E+02  0.47000000000E+01 0.  1.
          5    1    3    3  503    0 -0.25767022043E+02  0.48135911132E+02 -0.24386059966E+03  0.24994216818E+03  0.47000000000E+01 0. -1.
         -5    1    4    4    0  502  0.12439399732E+02 -0.53252948094E+02 -0.80310525545E+02  0.97275308581E+02  0.47000000000E+01 0.  1.
<mgrwt>
<rscale>  0 0.10138039E+03</rscale>
<asrwt>0</asrwt>
<pdfrwt beam="1">  1        2 0.72898235E-01 0.10196311E+03</pdfrwt>
<pdfrwt beam="2">  1       -2 0.38388588E-02 0.10196311E+03</pdfrwt>
<totfact> 0.17755569E+04</totfact>
</mgrwt>
</event>
<event>
 8    1  0.3177960E-004  0.9306515E+02  0.7546771E-02  0.1295617E+00
         -2   -1    0    0    0  501 -0.00000000000E+00  0.00000000000E+00  0.71746746678E+02  0.71746746678E+02  0.00000000000E+00 0.  1.
          2   -1    0    0  501    0  0.00000000000E+00 -0.00000000000E+00 -0.22767710929E+03  0.22767710929E+03  0.00000000000E+00 0. -1.
         23    2    1    2    0    0 -0.17908254968E+02 -0.11012210088E+02  0.24681490335E+02  0.96244715692E+02  0.90619506545E+02 0.  0.
         23    2    1    2    0    0  0.17908254968E+02  0.11012210088E+02 -0.18061185294E+03  0.20317914027E+03  0.90659512747E+02 0.  0.
          5    1    3    3  502    0  0.31598177006E+02 -0.21720915577E+02 -0.22313903885E+01  0.38695116832E+02  0.47000000000E+01 0. -1.
         -5    1    4    4    0  503 -0.36886092668E+02  0.44972120887E+01 -0.65955041836E+02  0.75848311072E+02  0.47000000000E+01 0.  1.
          5    1    4    4  503    0  0.54794347636E+02  0.65149979991E+01 -0.11465681111E+03  0.12733082920E+03  0.47000000000E+01 0. -1.
         -5    1    3    3    0  502 -0.49506431974E+02  0.10708705490E+02  0.26912880724E+02  0.57549598860E+02  0.47000000000E+01 0.  1.
<mgrwt>
<rscale>  0 0.93055403E+02</rscale>
<asrwt>0</asrwt>
<pdfrwt beam="1">  1        2 0.35027247E-01 0.93065147E+02</pdfrwt>
<pdfrwt beam="2">  1       -2 0.11037961E-01 0.93065147E+02</pdfrwt>
<totfact> 0.77091055E+03</totfact>
</mgrwt>
</event>
<event>
 8    1  0.3177960E-004  0.1110300E+03  0.7546771E-02  0.1259037E+00
         -1   -1    0    0    0  501 -0.00000000000E+00  0.00000000000E+00  0.16625455130E+03  0.16625455130E+03  0.00000000000E+00 0.  1.
          1   -1    0    0  501    0  0.00000000000E+00 -0.00000000000E+00 -0.77219344962E+02  0.77219344962E+02  0.00000000000E+00 0. -1.
         23    2    1    2    0    0  0.56066656406E+01  0.63697876997E+02  0.70945041578E+02  0.13176061281E+03  0.90767868383E+02 0.  0.
         23    2    1    2    0    0 -0.56066656406E+01 -0.63697876997E+02  0.18090164760E+02  0.11171328345E+03  0.89798381970E+02 0.  0.
          5    1    4    4  502    0  0.18580934236E+02 -0.67433266431E+02 -0.13586222562E+02  0.71408486765E+02  0.47000000000E+01 0. -1.
         -5    1    3    3    0  503 -0.18197247304E+02  0.30884449032E+02  0.81884027829E+02  0.89510183862E+02  0.47000000000E+01 0.  1.
          5    1    3    3  503    0  0.23803912945E+02  0.32813427966E+02 -0.10938986251E+02  0.42250428951E+02  0.47000000000E+01 0. -1.
         -5    1    4    4    0  502 -0.24187599876E+02  0.37353894334E+01  0.31676387322E+02  0.40304796684E+02  0.47000000000E+01 0.  1.
<mgrwt>
<rscale>  0 0.11083168E+03</rscale>
<asrwt>0</asrwt>
<pdfrwt beam="1">  1        1 0.11879899E-01 0.11103000E+03</pdfrwt>
<pdfrwt beam="2">  1       -1 0.25577623E-01 0.11103000E+03</pdfrwt>
<totfact> 0.63689338E+03</totfact>
</mgrwt>
</event>
<event>
 8    1  0.3177960E-004  0.1071166E+03  0.7546771E-02  0.1266634E+00
         -1   -1    0    0    0  501 -0.00000000000E+00  0.00000000000E+00  0.10146470887E+03  0.10146470887E+03  0.00000000000E+00 0.  1.
          1   -1    0    0  501    0  0.00000000000E+00 -0.00000000000E+00 -0.15460438286E+03  0.15460438286E+03  0.00000000000E+00 0. -1.
         23    2    1    2    0    0 -0.30741951939E+02 -0.46972511706E+02  0.40750336231E+02  0.11460605879E+03  0.91227596391E+02 0.  0.
         23    2    1    2    0    0  0.30741951939E+02  0.46972511706E+02 -0.93890010222E+02  0.14146303294E+03  0.89693763456E+02 0.  0.
          5    1    3    3  502    0  0.30241577973E+02 -0.27162304919E+02  0.55107359182E+01  0.41289248687E+02  0.47000000000E+01 0. -1.
         -5    1    4    4    0  503 -0.17543597066E+02  0.14494767575E+02  0.75412005516E+01  0.24430222897E+02  0.47000000000E+01 0.  1.
          5    1    4    4  503    0  0.48285549004E+02  0.32477744131E+02 -0.10143121077E+03  0.11703281004E+03  0.47000000000E+01 0. -1.
         -5    1    3    3    0  502 -0.60983529911E+02 -0.19810206787E+02  0.35239600313E+02  0.73316810102E+02  0.47000000000E+01 0.  1.
<mgrwt>
<rscale>  0 0.10678925E+03</rscale>
<asrwt>0</asrwt>
<pdfrwt beam="1">  1        1 0.23785289E-01 0.10711657E+03</pdfrwt>
<pdfrwt beam="2">  1       -1 0.15609955E-01 0.10711657E+03</pdfrwt>
<totfact> 0.57615563E+03</totfact>
</mgrwt>
</event>
<event>
 8    1  0.3177960E-004  0.1039349E+03  0.7546771E-02  0.1274611E+00
          1   -1    0    0  501    0  0.00000000000E+00  0.00000000000E+00  0.42274144323E+03  0.42274144323E+03  0.00000000000E+00 0. -1.
         -1   -1    0    0    0  501 -0.00000000000E+00 -0.00000000000E+00 -0.63561543939E+02  0.63561543939E+02  0.00000000000E+00 0.  1.
         23    2    1    2    0    0 -0.37810775868E+02 -0.28831406690E+02 -0.12770205519E+02  0.10010440103E+03  0.87160244220E+02 0.  0.
         23    2    1    2    0    0  0.37810775868E+02  0.28831406690E+02  0.37195010481E+03  0.38619858614E+03  0.92420575019E+02 0.  0.
          5    1    3    3  502    0  0.53321842776E+01  0.22363676632E+02 -0.22233373411E+02  0.32326136715E+02  0.47000000000E+01 0.  1.
         -5    1    4    4    0  503  0.23379883046E+02 -0.26621391416E+02  0.67608907532E+02  0.76474648020E+02  0.47000000000E+01 0.  1.
          5    1    4    4  503    0  0.14430892822E+02  0.55452798106E+02  0.30434119728E+03  0.30972393812E+03  0.47000000000E+01 0. -1.
         -5    1    3    3    0  502 -0.43142960145E+02 -0.51195083323E+02  0.94631678920E+01  0.67778264312E+02  0.47000000000E+01 0. -1.
<mgrwt>
<rscale>  0 0.10275280E+03</rscale>
<asrwt>0</asrwt>
<pdfrwt beam="1">  1        1 0.65037143E-01 0.10393492E+03</pdfrwt>
<pdfrwt beam="2">  1       -1 0.97786993E-02 0.10393492E+03</pdfrwt>
<totfact> 0.34065412E+03</totfact>
</mgrwt>
</event>
<event>
 8    1  0.3177960E-004  0.1009714E+03  0.7546771E-02  0.1280145E+00
         -1   -1    0    0    0  501 -0.00000000000E+00  0.00000000000E+00  0.26167555150E+02  0.26167555150E+02  0.00000000000E+00 0.  1.
          1   -1    0    0  501    0  0.00000000000E+00 -0.00000000000E+00 -0.43064278249E+03  0.43064278249E+03  0.00000000000E+00 0. -1.
         23    2    1    2    0    0 -0.43101441390E+02 -0.41851093023E+00 -0.28040097057E+03  0.29684271250E+03  0.87366940375E+02 0.  0.
         23    2    1    2    0    0  0.43101441390E+02  0.41851093023E+00 -0.12407425677E+03  0.15996762513E+03  0.91308874137E+02 0.  0.
          5    1    4    4  502    0  0.31380393369E+02 -0.43733544414E+02 -0.55682339530E+02  0.77588432968E+02  0.47000000000E+01 0. -1.
         -5    1    4    4    0  502  0.11721048021E+02  0.44152055344E+02 -0.68391917240E+02  0.82379192164E+02  0.47000000000E+01 0.  1.
          5    1    3    3  503    0 -0.24581159851E+02 -0.35795271058E+02 -0.21992975192E+03  0.22422471012E+03  0.47000000000E+01 0. -1.
         -5    1    3    3    0  503 -0.18520281539E+02  0.35376760127E+02 -0.60471218650E+02  0.72618002385E+02  0.47000000000E+01 0.  1.
<mgrwt>
<rscale>  0 0.10007189E+03</rscale>
<asrwt>0</asrwt>
<pdfrwt beam="1">  1        1 0.66252738E-01 0.10097138E+03</pdfrwt>
<pdfrwt beam="2">  1       -1 0.40257776E-02 0.10097138E+03</pdfrwt>
<totfact> 0.12380244E+04</totfact>
</mgrwt>
</event>
<event>
 8    1  0.3177960E-004  0.1023711E+03  0.7546771E-02  0.1282623E+00
         -1   -1    0    0    0  501 -0.00000000000E+00  0.00000000000E+00  0.99729897082E+02  0.99729897082E+02  0.00000000000E+00 0.  1.
          1   -1    0    0  501    0  0.00000000000E+00 -0.00000000000E+00 -0.11259101821E+03  0.11259101821E+03  0.00000000000E+00 0. -1.
         23    2    1    2    0    0 -0.97907564680E+01  0.11670744629E+02  0.38540542633E+02  0.10938565253E+03  0.10123133092E+03 0.  0.
         23    2    1    2    0    0  0.97907564680E+01 -0.11670744629E+02 -0.51401663761E+02  0.10293526277E+03  0.87871907289E+02 0.  0.
          5    1    3    3  502    0 -0.30025806019E+02 -0.29312490755E+02 -0.91050179340E+01  0.43194472944E+02  0.47000000000E+01 0. -1.
         -5    1    3    3    0  502  0.20235049551E+02  0.40983235384E+02  0.47645560567E+02  0.66191179584E+02  0.47000000000E+01 0.  1.
          5    1    4    4  503    0  0.16512812860E+02  0.18343004837E+02 -0.64466491537E+02  0.69189286353E+02  0.47000000000E+01 0. -1.
         -5    1    4    4    0  503 -0.67220563918E+01 -0.30013749466E+02  0.13064827776E+02  0.33745976412E+02  0.47000000000E+01 0.  1.
<mgrwt>
<rscale>  0 0.98901562E+02</rscale>
<asrwt>0</asrwt>
<pdfrwt beam="1">  1        1 0.17321695E-01 0.10237113E+03</pdfrwt>
<pdfrwt beam="2">  1       -1 0.15343061E-01 0.10237113E+03</pdfrwt>
<totfact> 0.87944388E+03</totfact>
</mgrwt>
</event>
<event>
 8    1  0.3177960E-004  0.9500002E+02  0.7546771E-02  0.1295434E+00
         -1   -1    0    0    0  501 -0.00000000000E+00  0.00000000000E+00  0.32094428602E+02  0.32094428602E+02  0.00000000000E+00 0.  1.
          1   -1    0    0  501    0  0.00000000000E+00 -0.00000000000E+00 -0.30883538734E+03  0.30883538734E+03  0.00000000000E+00 0. -1.
         23    2    1    2    0    0 -0.65383452151E+01 -0.23966068940E+02 -0.75364330570E+02  0.12126329251E+03  0.91694500221E+02 0.  0.
         23    2    1    2    0    0  0.65383452151E+01  0.23966068940E+02 -0.20137662817E+03  0.21966652343E+03  0.84164795036E+02 0.  0.
          5    1    4    4  502    0  0.38253910013E+02  0.31270610980E+02 -0.15545300641E+03  0.16318376127E+03  0.47000000000E+01 0. -1.
         -5    1    3    3    0  503 -0.71289471216E+01 -0.55104758812E+02 -0.23345793271E+02  0.60452232334E+02  0.47000000000E+01 0.  1.
          5    1    3    3  503    0  0.59060190651E+00  0.31138689872E+02 -0.52018537299E+02  0.60811060181E+02  0.47000000000E+01 0. -1.
         -5    1    4    4    0  502 -0.31715564798E+02 -0.73045420408E+01 -0.45923621763E+02  0.56482762155E+02  0.47000000000E+01 0.  1.
<mgrwt>
<rscale>  0 0.93134374E+02</rscale>
<asrwt>0</asrwt>
<pdfrwt beam="1">  1        1 0.47513134E-01 0.95000020E+02</pdfrwt>
<pdfrwt beam="2">  1       -1 0.49376046E-02 0.95000020E+02</pdfrwt>
<totfact> 0.13791462E+04</totfact>
</mgrwt>
</event>
<event>
 8    1  0.3177960E-004  0.9221208E+02  0.7546771E-02  0.1297786E+00
         -1   -1    0    0    0  501 -0.00000000000E+00  0.00000000000E+00  0.20316192858E+03  0.20316192858E+03  0.00000000000E+00 0.  1.
          1   -1    0    0  501    0  0.00000000000E+00 -0.00000000000E+00 -0.41732607460E+02  0.41732607460E+02  0.00000000000E+00 0. -1.
         23    2    1    2    0    0 -0.37313838157E+01 -0.78878561544E+01  0.84209268790E+02  0.12461983618E+03  0.91448133492E+02 0.  0.
         23    2    1    2    0    0  0.37313838157E+01  0.78878561544E+01  0.77220052327E+02  0.12027469986E+03  0.91798286720E+02 0.  0.
          5    1    3    3  502    0 -0.19138662286E+02  0.34846765245E+02  0.62085834910E+02  0.73873718862E+02  0.47000000000E+01 0. -1.
         -5    1    4    4    0  503 -0.20344195544E+02 -0.30097569750E+02  0.62997331059E+02  0.72873203016E+02  0.47000000000E+01 0.  1.
          5    1    4    4  503    0  0.24075579359E+02  0.37985425905E+02  0.14222721268E+02  0.47401496843E+02  0.47000000000E+01 0. -1.
         -5    1    3    3    0  502  0.15407278470E+02 -0.42734621400E+02  0.22123433880E+02  0.50746117317E+02  0.47000000000E+01 0.  1.
<mgrwt>
<rscale>  0 0.92124808E+02</rscale>
<asrwt>0</asrwt>
<pdfrwt beam="1">  1        1 0.64204012E-02 0.92212076E+02</pdfrwt>
<pdfrwt beam="2">  1       -1 0.31255681E-01 0.92212076E+02</pdfrwt>
<totfact> 0.10151604E+04</totfact>
</mgrwt>
</event>
<event>
 8    1  0.3177960E-004  0.9705455E+02  0.7546771E-02  0.1287703E+00
          2   -1    0    0  501    0  0.00000000000E+00  0.00000000000E+00  0.53539736012E+03  0.53539736012E+03  0.00000000000E+00 0. -1.
         -2   -1    0    0    0  501 -0.00000000000E+00 -0.00000000000E+00 -0.21607757489E+02  0.21607757489E+02  0.00000000000E+00 0.  1.
         23    2    1    2    0    0  0.19167071645E+02  0.20739627806E+02  0.13376677006E+03  0.16526685904E+03  0.92855140559E+02 0.  0.
         23    2    1    2    0    0 -0.19167071645E+02 -0.20739627806E+02  0.38002283257E+03  0.39173825857E+03  0.90796482055E+02 0.  0.
          5    1    4    4  502    0 -0.38030316476E+02  0.35312138896E+00  0.34183926741E+03  0.34398052912E+03  0.47000000000E+01 0. -1.
         -5    1    3    3    0  503  0.46294017411E+02  0.86407364812E+01  0.27304927425E+02  0.54639248134E+02  0.47000000000E+01 0.  1.
          5    1    3    3  503    0 -0.27126945765E+02  0.12098891325E+02  0.10646184264E+03  0.11062761091E+03  0.47000000000E+01 0. -1.
         -5    1    4    4    0  502  0.18863244831E+02 -0.21092749195E+02  0.38183565157E+02  0.47757729450E+02  0.47000000000E+01 0.  1.
<mgrwt>
<rscale>  0 0.96558842E+02</rscale>
<asrwt>0</asrwt>
<pdfrwt beam="1">  1        2 0.82368814E-01 0.97054551E+02</pdfrwt>
<pdfrwt beam="2">  1       -2 0.33242708E-02 0.97054551E+02</pdfrwt>
<totfact> 0.19116478E+04</totfact>
</mgrwt>
</event>
<event>
 8    1  0.3177960E-004  0.9385923E+02  0.7546771E-02  0.1295084E+00
          1   -1    0    0  501    0  0.00000000000E+00  0.00000000000E+00  0.57015465976E+03  0.57015465976E+03  0.00000000000E+00 0. -1.
         -1   -1    0    0    0  501 -0.00000000000E+00 -0.00000000000E+00 -0.18270156534E+02  0.18270156534E+02  0.00000000000E+00 0.  1.
         23    2    1    2    0    0  0.49989601085E+01  0.80964324520E+01  0.40167981509E+03  0.41249997506E+03  0.93375659324E+02 0.  0.
         23    2    1    2    0    0 -0.49989601085E+01 -0.80964324520E+01  0.15020468814E+03  0.17592484124E+03  0.91090941397E+02 0.  0.
          5    1    3    3  502    0 -0.23926145554E+02 -0.30216684228E+02  0.25883287003E+03  0.26172896870E+03  0.47000000000E+01 0. -1.
         -5    1    4    4    0  503 -0.31873703703E+02  0.30387190441E+02  0.68139757442E+02  0.81267649621E+02  0.47000000000E+01 0.  1.
          5    1    4    4  503    0  0.26874743594E+02 -0.38483622893E+02  0.82064930701E+02  0.94657191619E+02  0.47000000000E+01 0. -1.
         -5    1    3    3    0  502  0.28925105662E+02  0.38313116680E+02  0.14284694505E+03  0.15077100636E+03  0.47000000000E+01 0.  1.
<mgrwt>
<rscale>  0 0.93285836E+02</rscale>
<asrwt>0</asrwt>
<pdfrwt beam="1">  1        1 0.87716088E-01 0.93859233E+02</pdfrwt>
<pdfrwt beam="2">  1       -1 0.28107938E-02 0.93859233E+02</pdfrwt>
<totfact> 0.14418531E+04</totfact>
</mgrwt>
</event>
<event>
 8    1  0.3177960E-004  0.1163608E+03  0.7546771E-02  0.1257785E+00
          1   -1    0    0  501    0  0.00000000000E+00  0.00000000000E+00  0.16883862924E+02  0.16883862924E+02  0.00000000000E+00 0. -1.
         -1   -1    0    0    0  501 -0.00000000000E+00 -0.00000000000E+00 -0.80729590192E+03  0.80729590192E+03  0.00000000000E+00 0.  1.
         23    2    1    2    0    0 -0.19401858274E+02  0.50820269541E+02 -0.58571699766E+03  0.59716349393E+03  0.10286255503E+03 0.  0.
         23    2    1    2    0    0  0.19401858274E+02 -0.50820269541E+02 -0.20469504133E+03  0.22701627091E+03  0.81714107801E+02 0.  0.
          5    1    4    4  502    0  0.20573496813E+02 -0.72449133711E+02 -0.14762352512E+03  0.16579186022E+03  0.47000000000E+01 0. -1.
         -5    1    3    3    0  503 -0.44655687562E+02  0.54671138887E+02 -0.53973829453E+03  0.54435519694E+03  0.47000000000E+01 0.  1.
          5    1    3    3  503    0  0.25253829287E+02 -0.38508693459E+01 -0.45978703134E+02  0.52808296983E+02  0.47000000000E+01 0. -1.
         -5    1    4    4    0  502 -0.11716385383E+01  0.21628864170E+02 -0.57071516212E+02  0.61224410694E+02  0.47000000000E+01 0.  1.
<mgrwt>
<rscale>  0 0.11151775E+03</rscale>
<asrwt>0</asrwt>
<pdfrwt beam="1">  1        1 0.25975181E-02 0.11636081E+03</pdfrwt>
<pdfrwt beam="2">  1       -1 0.12419933E+00 0.11636081E+03</pdfrwt>
<totfact> 0.24361796E+03</totfact>
</mgrwt>
</event>
<event>
 8    1  0.3177960E-004  0.1061050E+03  0.7546771E-02  0.1268491E+00
         -1   -1    0    0    0  501 -0.00000000000E+00  0.00000000000E+00  0.52250574100E+03  0.52250574100E+03  0.00000000000E+00 0.  1.
          1   -1    0    0  501    0  0.00000000000E+00 -0.00000000000E+00 -0.27458488476E+02  0.27458488476E+02  0.00000000000E+00 0. -1.
         23    2    1    2    0    0  0.45230130266E+02  0.30219002178E+02  0.11856178105E+03  0.15910741600E+03  0.91100609902E+02 0.  0.
         23    2    1    2    0    0 -0.45230130266E+02 -0.30219002178E+02  0.37648547148E+03  0.39085681348E+03  0.89826419451E+02 0.  0.
          5    1    3    3  502    0 -0.12751725469E+02 -0.18824212953E+02  0.73396406199E+01  0.24349903904E+02  0.47000000000E+01 0. -1.
         -5    1    4    4    0  503 -0.30980350329E+02 -0.61496848599E+02  0.27801464645E+03  0.28645397210E+03  0.47000000000E+01 0.  1.
          5    1    4    4  503    0 -0.14249779937E+02  0.31277846421E+02  0.98470825027E+02  0.10440284137E+03  0.47000000000E+01 0. -1.
         -5    1    3    3    0  502  0.57981855734E+02  0.49043215131E+02  0.11122214043E+03  0.13475751210E+03  0.47000000000E+01 0.  1.
<mgrwt>
<rscale>  0 0.10583096E+03</rscale>
<asrwt>0</asrwt>
<pdfrwt beam="1">  1        1 0.42243832E-02 0.10610501E+03</pdfrwt>
<pdfrwt beam="2">  1       -1 0.80385491E-01 0.10610501E+03</pdfrwt>
<totfact> 0.32232137E+03</totfact>
</mgrwt>
</event>
<event>
 8    1  0.3177960E-004  0.9313210E+02  0.7546771E-02  0.1295746E+00
         -3   -1    0    0    0  501 -0.00000000000E+00  0.00000000000E+00  0.19411962271E+03  0.19411962271E+03  0.00000000000E+00 0.  1.
          3   -1    0    0  501    0  0.00000000000E+00 -0.00000000000E+00 -0.48291976708E+02  0.48291976708E+02  0.00000000000E+00 0. -1.
         23    2    1    2    0    0  0.18269178401E+02  0.82174139476E+01  0.10738618987E+03  0.14214563774E+03  0.90952184053E+02 0.  0.
         23    2    1    2    0    0 -0.18269178401E+02 -0.82174139476E+01  0.38441456136E+02  0.10026596168E+03  0.90411441474E+02 0.  0.
          5    1    4    4  502    0  0.24340943474E+02  0.16829080831E+02 -0.93140987010E+01  0.31377411069E+02  0.47000000000E+01 0. -1.
         -5    1    3    3    0  503 -0.29428243950E+01 -0.30171491481E+02  0.89386221197E+02  0.94503786450E+02  0.47000000000E+01 0.  1.
          5    1    3    3  503    0  0.21212002796E+02  0.38388905428E+02  0.17999968670E+02  0.47641851294E+02  0.47000000000E+01 0. -1.
         -5    1    4    4    0  502 -0.42610121875E+02 -0.25046494778E+02  0.47755554837E+02  0.68888550606E+02  0.47000000000E+01 0.  1.
<mgrwt>
<rscale>  0 0.92999818E+02</rscale>
<asrwt>0</asrwt>
<pdfrwt beam="1">  1        3 0.74295350E-02 0.93132103E+02</pdfrwt>
<pdfrwt beam="2">  1       -3 0.29864557E-01 0.93132103E+02</pdfrwt>
<totfact> 0.27681928E+03</totfact>
</mgrwt>
</event>
<event>
 8    1  0.3177960E-004  0.9598762E+02  0.7546771E-02  0.1290420E+00
         -1   -1    0    0    0  501 -0.00000000000E+00  0.00000000000E+00  0.19815227185E+03  0.19815227185E+03  0.00000000000E+00 0.  1.
          1   -1    0    0  501    0  0.00000000000E+00 -0.00000000000E+00 -0.49500717914E+02  0.49500717914E+02  0.00000000000E+00 0. -1.
         23    2    1    2    0    0  0.38271743811E+02 -0.78955147215E+01  0.10965422439E+03  0.14404596651E+03  0.84841770462E+02 0.  0.
         23    2    1    2    0    0 -0.38271743811E+02  0.78955147215E+01  0.38997329550E+02  0.10360702325E+03  0.87673017676E+02 0.  0.
          5    1    3    3  502    0  0.30767847278E+02  0.34894890108E+02  0.74524083778E+02  0.87978649937E+02  0.47000000000E+01 0. -1.
         -5    1    4    4    0  503 -0.12992186171E+02 -0.37685162962E+02  0.30893164813E+02  0.50650232390E+02  0.47000000000E+01 0.  1.
          5    1    4    4  503    0 -0.25279557639E+02  0.45580677684E+02  0.81041647371E+01  0.52956790864E+02  0.47000000000E+01 0. -1.
         -5    1    3    3    0  502  0.75038965326E+01 -0.42790404829E+02  0.35130140608E+02  0.56067316574E+02  0.47000000000E+01 0.  1.
<mgrwt>
<rscale>  0 0.95336301E+02</rscale>
<asrwt>0</asrwt>
<pdfrwt beam="1">  1        1 0.76154952E-02 0.95987622E+02</pdfrwt>
<pdfrwt beam="2">  1       -1 0.30484965E-01 0.95987622E+02</pdfrwt>
<totfact> 0.84592143E+03</totfact>
</mgrwt>
</event>
<event>
 8    1  0.3177960E-004  0.9897523E+02  0.7546771E-02  0.1282907E+00
         -2   -1    0    0    0  501 -0.00000000000E+00  0.00000000000E+00  0.59952000636E+02  0.59952000636E+02  0.00000000000E+00 0.  1.
          2   -1    0    0  501    0  0.00000000000E+00 -0.00000000000E+00 -0.22357193120E+03  0.22357193120E+03  0.00000000000E+00 0. -1.
         23    2    1    2    0    0 -0.20447570351E+02 -0.33787831310E+02 -0.76887270290E+01  0.99273422046E+02  0.90754477153E+02 0.  0.
         23    2    1    2    0    0  0.20447570351E+02  0.33787831310E+02 -0.15593120354E+03  0.18425050979E+03  0.89855380718E+02 0.  0.
          5    1    4    4  502    0  0.20611175604E+02  0.63402306037E+02 -0.92818691901E+02  0.11437688812E+03  0.47000000000E+01 0. -1.
         -5    1    3    3    0  503 -0.36030873942E+02  0.11133488763E+02  0.21123125443E+02  0.43479361512E+02  0.47000000000E+01 0.  1.
          5    1    3    3  503    0  0.15583303591E+02 -0.44921320073E+02 -0.28811852472E+02  0.55794060533E+02  0.47000000000E+01 0. -1.
         -5    1    4    4    0  502 -0.16360525240E+00 -0.29614474727E+02 -0.63112511634E+02  0.69873621667E+02  0.47000000000E+01 0.  1.
<mgrwt>
<rscale>  0 0.98768642E+02</rscale>
<asrwt>0</asrwt>
<pdfrwt beam="1">  1        2 0.34395681E-01 0.98975228E+02</pdfrwt>
<pdfrwt beam="2">  1       -2 0.92233848E-02 0.98975228E+02</pdfrwt>
<totfact> 0.10451447E+04</totfact>
</mgrwt>
</event>
<event>
 8    1  0.3177960E-004  0.1052283E+03  0.7546771E-02  0.1270645E+00
         -2   -1    0    0    0  501 -0.00000000000E+00  0.00000000000E+00  0.11225423519E+03  0.11225423519E+03  0.00000000000E+00 0.  1.
          2   -1    0    0  501    0  0.00000000000E+00 -0.00000000000E+00 -0.99121672262E+02  0.99121672262E+02  0.00000000000E+00 0. -1.
         23    2    1    2    0    0  0.32992587277E+01 -0.48552164048E+02  0.22649764058E+02  0.10571813065E+03  0.91077514208E+02 0.  0.
         23    2    1    2    0    0 -0.32992587277E+01  0.48552164048E+02 -0.95172011335E+01  0.10565777680E+03  0.93299469124E+02 0.  0.
          5    1    3    3  502    0 -0.33899526724E+02 -0.54882457688E+02  0.19540162107E+02  0.67566041834E+02  0.47000000000E+01 0. -1.
         -5    1    4    4    0  503  0.20277308679E+02 -0.18854263869E+02  0.12559312892E+02  0.30764896451E+02  0.47000000000E+01 0.  1.
          5    1    4    4  503    0 -0.23576567407E+02  0.67406427917E+02 -0.22076514025E+02  0.74892880347E+02  0.47000000000E+01 0. -1.
         -5    1    3    3    0  502  0.37198785452E+02  0.63302936403E+01  0.31096019503E+01  0.38152088815E+02  0.47000000000E+01 0.  1.
<mgrwt>
<rscale>  0 0.10473355E+03</rscale>
<asrwt>0</asrwt>
<pdfrwt beam="1">  1        2 0.15249488E-01 0.10522827E+03</pdfrwt>
<pdfrwt beam="2">  1       -2 0.17269882E-01 0.10522827E+03</pdfrwt>
<totfact> 0.94964996E+03</totfact>
</mgrwt>
</event>
<event>
 8    1  0.3177960E-004  0.1489964E+03  0.7546771E-02  0.1201713E+00
         -3   -1    0    0    0  501 -0.00000000000E+00  0.00000000000E+00  0.61555247481E+03  0.61555247481E+03  0.00000000000E+00 0.  1.
          3   -1    0    0  501    0  0.00000000000E+00 -0.00000000000E+00 -0.40138425503E+02  0.40138425503E+02  0.00000000000E+00 0. -1.
         23    2    1    2    0    0 -0.10680183725E+03  0.52028963182E+02  0.18325563669E+03  0.23618329861E+03  0.89923727192E+02 0.  0.
         23    2    1    2    0    0  0.10680183725E+03 -0.52028963182E+02  0.39215841261E+03  0.41950760170E+03  0.89915303763E+02 0.  0.
          5    1    3    3  502    0 -0.48374123137E+02 -0.21505752217E+02  0.84435594490E+02  0.99769798960E+02  0.47000000000E+01 0. -1.
         -5    1    3    3    0  502 -0.58427714117E+02  0.73534715399E+02  0.98820042201E+02  0.13641349965E+03  0.47000000000E+01 0.  1.
          5    1    4    4  503    0  0.51543850352E+02 -0.67075386816E+02  0.16870237254E+03  0.18878150473E+03  0.47000000000E+01 0. -1.
         -5    1    4    4    0  503  0.55257986902E+02  0.15046423634E+02  0.22345604007E+03  0.23072609697E+03  0.47000000000E+01 0.  1.
<mgrwt>
<rscale>  0 0.14899511E+03</rscale>
<asrwt>0</asrwt>
<pdfrwt beam="1">  1        3 0.61751428E-02 0.14899638E+03</pdfrwt>
<pdfrwt beam="2">  1       -3 0.94700374E-01 0.14899638E+03</pdfrwt>
<totfact> 0.39195321E+02</totfact>
</mgrwt>
</event>
<event>
 8    1  0.3177960E-004  0.9581800E+02  0.7546771E-02  0.1290378E+00
         -1   -1    0    0    0  501 -0.00000000000E+00  0.00000000000E+00  0.89880477157E+02  0.89880477157E+02  0.00000000000E+00 0.  1.
          1   -1    0    0  501    0  0.00000000000E+00 -0.00000000000E+00 -0.10223145115E+03  0.10223145115E+03  0.00000000000E+00 0. -1.
         23    2    1    2    0    0 -0.18049201215E+02 -0.93060011386E+01  0.73107257852E+01  0.96096495562E+02  0.93641414054E+02 0.  0.
         23    2    1    2    0    0  0.18049201215E+02  0.93060011386E+01 -0.19661699779E+02  0.96015432746E+02  0.91760588302E+02 0.  0.
          5    1    4    4  502    0  0.33865879516E+02  0.29866303508E+02 -0.41708677349E+02  0.61648987396E+02  0.47000000000E+01 0. -1.
         -5    1    3    3    0  503 -0.48283548422E+02 -0.29310560520E+02  0.15235193766E+02  0.58690809632E+02  0.47000000000E+01 0.  1.
          5    1    3    3  503    0  0.30234347207E+02  0.20004559381E+02 -0.79244679803E+01  0.37405685929E+02  0.47000000000E+01 0. -1.
         -5    1    4    4    0  502 -0.15816678301E+02 -0.20560302370E+02  0.22046977570E+02  0.34366445350E+02  0.47000000000E+01 0.  1.
<mgrwt>
<rscale>  0 0.95355349E+02</rscale>
<asrwt>0</asrwt>
<pdfrwt beam="1">  1        1 0.15727916E-01 0.95818003E+02</pdfrwt>
<pdfrwt beam="2">  1       -1 0.13827766E-01 0.95818003E+02</pdfrwt>
<totfact> 0.11615878E+04</totfact>
</mgrwt>
</event>
<event>
 8    1  0.3177960E-004  0.1017308E+03  0.7546771E-02  0.1277119E+00
         -1   -1    0    0    0  501 -0.00000000000E+00  0.00000000000E+00  0.87490441097E+02  0.87490441097E+02  0.00000000000E+00 0.  1.
          1   -1    0    0  501    0  0.00000000000E+00 -0.00000000000E+00 -0.14602008309E+03  0.14602008309E+03  0.00000000000E+00 0. -1.
         23    2    1    2    0    0  0.62597300205E+01 -0.38418924075E+02 -0.81101011197E+02  0.13010199818E+03  0.93989137492E+02 0.  0.
         23    2    1    2    0    0 -0.62597300205E+01  0.38418924075E+02  0.22571369203E+02  0.10340852601E+03  0.93105631388E+02 0.  0.
          5    1    3    3  502    0  0.20662065652E+02 -0.65282509190E+02 -0.42637721852E+02  0.80800942370E+02  0.47000000000E+01 0. -1.
         -5    1    4    4    0  503 -0.37944912704E+02  0.32278034006E+02 -0.16338046474E+02  0.52637530736E+02  0.47000000000E+01 0.  1.
          5    1    4    4  503    0  0.31685182683E+02  0.61408900690E+01  0.38909415677E+02  0.50770995271E+02  0.47000000000E+01 0. -1.
         -5    1    3    3    0  502 -0.14402335631E+02  0.26863585115E+02 -0.38463289345E+02  0.49301055811E+02  0.47000000000E+01 0.  1.
<mgrwt>
<rscale>  0 0.10152626E+03</rscale>
<asrwt>0</asrwt>
<pdfrwt beam="1">  1        1 0.22464628E-01 0.10173080E+03</pdfrwt>
<pdfrwt beam="2">  1       -1 0.13460068E-01 0.10173080E+03</pdfrwt>
<totfact> 0.77575931E+03</totfact>
</mgrwt>
</event>
<event>
 8    1  0.3177960E-004  0.1872199E+03  0.7546771E-02  0.1161079E+00
         -2   -1    0    0    0  501 -0.00000000000E+00  0.00000000000E+00  0.51787636441E+02  0.51787636441E+02  0.00000000000E+00 0.  1.
          2   -1    0    0  501    0  0.00000000000E+00 -0.00000000000E+00 -0.69632600407E+03  0.69632600407E+03  0.00000000000E+00 0. -1.
         23    2    1    2    0    0  0.87515439466E+02  0.13728669723E+03 -0.38731474797E+03  0.43019064251E+03  0.92437468219E+02 0.  0.
         23    2    1    2    0    0 -0.87515439466E+02 -0.13728669723E+03 -0.25722361967E+03  0.31792299800E+03  0.91675802504E+02 0.  0.
          5    1    4    4  502    0 -0.85205369228E+01 -0.31762990602E+02 -0.13175794141E+03  0.13588131676E+03  0.47000000000E+01 0. -1.
         -5    1    3    3    0  503  0.32317526334E+01  0.89263631038E+02 -0.20371620844E+03  0.22248780558E+03  0.47000000000E+01 0.  1.
          5    1    3    3  503    0  0.84283686833E+02  0.48023066190E+02 -0.18359853953E+03  0.20770283693E+03  0.47000000000E+01 0. -1.
         -5    1    4    4    0  502 -0.78994902543E+02 -0.10552370663E+03 -0.12546567826E+03  0.18204168124E+03  0.47000000000E+01 0.  1.
<mgrwt>
<rscale>  0 0.18712606E+03</rscale>
<asrwt>0</asrwt>
<pdfrwt beam="1">  1        2 0.10712707E+00 0.18721986E+03</pdfrwt>
<pdfrwt beam="2">  1       -2 0.79673291E-02 0.18721986E+03</pdfrwt>
<totfact> 0.39578734E+03</totfact>
</mgrwt>
</event>
<event>
 8    1  0.3177960E-004  0.1040328E+03  0.7546771E-02  0.1272714E+00
         -1   -1    0    0    0  501 -0.00000000000E+00  0.00000000000E+00  0.31525043390E+02  0.31525043390E+02  0.00000000000E+00 0.  1.
          1   -1    0    0  501    0  0.00000000000E+00 -0.00000000000E+00 -0.44050467864E+03  0.44050467864E+03  0.00000000000E+00 0. -1.
         23    2    1    2    0    0 -0.31979716892E+02 -0.36781539864E+02 -0.31682702814E+03  0.33305158008E+03  0.90379230294E+02 0.  0.
         23    2    1    2    0    0  0.31979716892E+02  0.36781539864E+02 -0.92152607114E+02  0.13897814195E+03  0.91908851449E+02 0.  0.
          5    1    4    4  502    0  0.54759259621E+02  0.52462936737E+02 -0.67103439446E+02  0.10137010324E+03  0.47000000000E+01 0. -1.
         -5    1    4    4    0  502 -0.22779542728E+02 -0.15681396873E+02 -0.25049167668E+02  0.37608038711E+02  0.47000000000E+01 0.  1.
          5    1    3    3  503    0  0.91890800362E+01  0.22493206157E+02 -0.13715967500E+03  0.13937449537E+03  0.47000000000E+01 0. -1.
         -5    1    3    3    0  503 -0.41168796928E+02 -0.59274746021E+02 -0.17966735314E+03  0.19367708471E+03  0.47000000000E+01 0.  1.
<mgrwt>
<rscale>  0 0.10369392E+03</rscale>
<asrwt>0</asrwt>
<pdfrwt beam="1">  1        1 0.67769952E-01 0.10403279E+03</pdfrwt>
<pdfrwt beam="2">  1       -1 0.48500066E-02 0.10403279E+03</pdfrwt>
<totfact> 0.91858765E+03</totfact>
</mgrwt>
</event>
<event>
 8    1  0.3177960E-004  0.9640852E+02  0.7546771E-02  0.1289168E+00
         -2   -1    0    0    0  501 -0.00000000000E+00  0.00000000000E+00  0.19283488973E+02  0.19283488973E+02  0.00000000000E+00 0.  1.
          2   -1    0    0  501    0  0.00000000000E+00 -0.00000000000E+00 -0.47875979161E+03  0.47875979161E+03  0.00000000000E+00 0. -1.
         23    2    1    2    0    0 -0.33676580655E+02 -0.72996999877E+01 -0.20234861391E+03  0.22414184163E+03  0.90040023961E+02 0.  0.
         23    2    1    2    0    0  0.33676580655E+02  0.72996999877E+01 -0.25712768873E+03  0.27390143895E+03  0.87863258782E+02 0.  0.
          5    1    3    3  502    0 -0.63889498359E+02  0.20717618240E+01 -0.12599018212E+03  0.14135691065E+03  0.47000000000E+01 0. -1.
         -5    1    3    3    0  502  0.30212917704E+02 -0.93714618117E+01 -0.76358431789E+02  0.82784930983E+02  0.47000000000E+01 0.  1.
          5    1    4    4  503    0 -0.89405012058E+01  0.20373736779E+02 -0.19999372207E+03  0.20128239014E+03  0.47000000000E+01 0. -1.
         -5    1    4    4    0  503  0.42617081861E+02 -0.13074036791E+02 -0.57133966659E+02  0.72619048814E+02  0.47000000000E+01 0.  1.
<mgrwt>
<rscale>  0 0.95897027E+02</rscale>
<asrwt>0</asrwt>
<pdfrwt beam="1">  1        2 0.73655349E-01 0.96408525E+02</pdfrwt>
<pdfrwt beam="2">  1       -2 0.29666907E-02 0.96408525E+02</pdfrwt>
<totfact> 0.25466039E+04</totfact>
</mgrwt>
</event>
<event>
 8    1  0.3177960E-004  0.9497903E+02  0.7546771E-02  0.1291396E+00
          3   -1    0    0  501    0  0.00000000000E+00  0.00000000000E+00  0.13380810744E+03  0.13380810744E+03  0.00000000000E+00 0. -1.
         -3   -1    0    0    0  501 -0.00000000000E+00 -0.00000000000E+00 -0.76062249503E+02  0.76062249503E+02  0.00000000000E+00 0.  1.
         23    2    1    2    0    0  0.84163635863E+01  0.24175784055E+02  0.64731448558E+02  0.11493988078E+03  0.91464266525E+02 0.  0.
         23    2    1    2    0    0 -0.84163635863E+01 -0.24175784055E+02 -0.69855906249E+01  0.94930476157E+02  0.91146547474E+02 0.  0.
          5    1    4    4  502    0 -0.38493106676E+02 -0.38976476969E+02  0.11777512211E+02  0.56228861027E+02  0.47000000000E+01 0. -1.
         -5    1    3    3    0  503  0.22319468055E+02  0.51772508621E+02  0.19261892690E+02  0.59763381875E+02  0.47000000000E+01 0.  1.
          5    1    3    3  503    0 -0.13903104469E+02 -0.27596724567E+02  0.45469555869E+02  0.55176498906E+02  0.47000000000E+01 0. -1.
         -5    1    4    4    0  502  0.30076743090E+02  0.14800692914E+02 -0.18763102836E+02  0.38701615130E+02  0.47000000000E+01 0.  1.
<mgrwt>
<rscale>  0 0.94902455E+02</rscale>
<asrwt>0</asrwt>
<pdfrwt beam="1">  1        3 0.20585863E-01 0.94979028E+02</pdfrwt>
<pdfrwt beam="2">  1       -3 0.11701885E-01 0.94979028E+02</pdfrwt>
<totfact> 0.25795650E+03</totfact>
</mgrwt>
</event>
<event>
 8    1  0.3177960E-004  0.1076761E+03  0.7546771E-02  0.1267972E+00
          2   -1    0    0  501    0  0.00000000000E+00  0.00000000000E+00  0.13194384460E+03  0.13194384460E+03  0.00000000000E+00 0. -1.
         -2   -1    0    0    0  501 -0.00000000000E+00 -0.00000000000E+00 -0.12709121079E+03  0.12709121079E+03  0.00000000000E+00 0.  1.
         23    2    1    2    0    0 -0.31053600406E+02  0.32707152937E+02  0.78727258224E+02  0.12845326491E+03  0.90929511856E+02 0.  0.
         23    2    1    2    0    0  0.31053600406E+02 -0.32707152937E+02 -0.73874624410E+02  0.13058179049E+03  0.97775558930E+02 0.  0.
          5    1    4    4  502    0  0.62035718643E+02 -0.10635824415E+02 -0.23648045791E+02  0.67400825056E+02  0.47000000000E+01 0. -1.
         -5    1    3    3    0  503 -0.10305026017E+02 -0.20505693815E+02 -0.77815634435E+01  0.24684403369E+02  0.47000000000E+01 0.  1.
          5    1    3    3  503    0 -0.20748574389E+02  0.53212846752E+02  0.86508821668E+02  0.10376886154E+03  0.47000000000E+01 0. -1.
         -5    1    4    4    0  502 -0.30982118237E+02 -0.22071328522E+02 -0.50226578619E+02  0.63180965432E+02  0.47000000000E+01 0.  1.
<mgrwt>
<rscale>  0 0.10609772E+03</rscale>
<asrwt>0</asrwt>
<pdfrwt beam="1">  1        2 0.20299053E-01 0.10767611E+03</pdfrwt>
<pdfrwt beam="2">  1       -2 0.19552494E-01 0.10767611E+03</pdfrwt>
<totfact> 0.55855212E+03</totfact>
</mgrwt>
</event>
<event>
 8    1  0.3177960E-004  0.1050508E+03  0.7546771E-02  0.1272174E+00
         -2   -1    0    0    0  501 -0.00000000000E+00  0.00000000000E+00  0.39330872277E+02  0.39330872277E+02  0.00000000000E+00 0.  1.
          2   -1    0    0  501    0  0.00000000000E+00 -0.00000000000E+00 -0.30225957951E+03  0.30225957951E+03  0.00000000000E+00 0. -1.
         23    2    1    2    0    0  0.17992517946E+02 -0.45887698031E+02 -0.19031071745E+03  0.21737949615E+03  0.92769955456E+02 0.  0.
         23    2    1    2    0    0 -0.17992517946E+02  0.45887698031E+02 -0.72617989784E+02  0.12421095564E+03  0.87895264543E+02 0.  0.
          5    1    3    3  502    0 -0.28750409722E+01 -0.67637979371E+02 -0.16249380161E+03  0.17609510975E+03  0.47000000000E+01 0. -1.
         -5    1    3    3    0  502  0.20867558918E+02  0.21750281340E+02 -0.27816915835E+02  0.41284386397E+02  0.47000000000E+01 0.  1.
          5    1    4    4  503    0 -0.12846096280E+02 -0.17769787298E+02  0.56086366893E+01  0.23115672946E+02  0.47000000000E+01 0. -1.
         -5    1    4    4    0  503 -0.51464216663E+01  0.63657485329E+02 -0.78226626473E+02  0.10109528270E+03  0.47000000000E+01 0.  1.
<mgrwt>
<rscale>  0 0.10396437E+03</rscale>
<asrwt>0</asrwt>
<pdfrwt beam="1">  1        2 0.46501473E-01 0.10505083E+03</pdfrwt>
<pdfrwt beam="2">  1       -2 0.60509035E-02 0.10505083E+03</pdfrwt>
<totfact> 0.14551848E+04</totfact>
</mgrwt>
</event>
<event>
 8    1  0.3177960E-004  0.3831585E+03  0.7546771E-02  0.1049846E+00
          1   -1    0    0  501    0  0.00000000000E+00  0.00000000000E+00  0.27419572214E+03  0.27419572214E+03  0.00000000000E+00 0. -1.
         -1   -1    0    0    0  501 -0.00000000000E+00 -0.00000000000E+00 -0.69151352576E+03  0.69151352576E+03  0.00000000000E+00 0.  1.
         23    2    1    2    0    0  0.21133068052E+02 -0.37067023538E+03 -0.43872259610E+03  0.58195337772E+03  0.91373888782E+02 0.  0.
         23    2    1    2    0    0 -0.21133068052E+02  0.37067023538E+03  0.21404792471E+02  0.38375587018E+03  0.94696213219E+02 0.  0.
          5    1    3    3  502    0  0.46860151071E+02 -0.11618691704E+03 -0.12346935953E+03  0.17596035404E+03  0.47000000000E+01 0. -1.
         -5    1    3    3    0  502 -0.25727083019E+02 -0.25448331833E+03 -0.31525323656E+03  0.40599302367E+03  0.47000000000E+01 0.  1.
          5    1    4    4  503    0 -0.21552773869E+02  0.32112501064E+03  0.50932295895E+02  0.32588645766E+03  0.47000000000E+01 0. -1.
         -5    1    4    4    0  503  0.41970581661E+00  0.49545224733E+02 -0.29527503424E+02  0.57869412519E+02  0.47000000000E+01 0.  1.
<mgrwt>
<rscale>  0 0.38295641E+03</rscale>
<asrwt>0</asrwt>
<pdfrwt beam="1">  1        1 0.42183958E-01 0.38315846E+03</pdfrwt>
<pdfrwt beam="2">  1       -1 0.10638669E+00 0.38315846E+03</pdfrwt>
<totfact> 0.85513245E+01</totfact>
</mgrwt>
</event>
<event>
 8    1  0.3177960E-004  0.1643265E+03  0.7546771E-02  0.1184024E+00
          1   -1    0    0  501    0  0.00000000000E+00  0.00000000000E+00  0.61646595965E+03  0.61646595965E+03  0.00000000000E+00 0. -1.
         -1   -1    0    0    0  501 -0.00000000000E+00 -0.00000000000E+00 -0.46667661290E+02  0.46667661290E+02  0.00000000000E+00 0.  1.
         23    2    1    2    0    0  0.13454685957E+03 -0.21253353072E+02  0.20136889363E+03  0.25990886568E+03  0.91916400605E+02 0.  0.
         23    2    1    2    0    0 -0.13454685957E+03  0.21253353072E+02  0.36842940472E+03  0.40322475525E+03  0.91079166374E+02 0.  0.
          5    1    4    4  502    0 -0.13169228736E+03 -0.55039205082E+01  0.26171910835E+03  0.29307359718E+03  0.47000000000E+01 0. -1.
         -5    1    4    4    0  502 -0.28545722128E+01  0.26757273580E+02  0.10671029638E+03  0.11015115807E+03  0.47000000000E+01 0.  1.
          5    1    3    3  503    0  0.22446797526E+02 -0.24180968916E+02  0.11075126415E+03  0.11565686529E+03  0.47000000000E+01 0. -1.
         -5    1    3    3    0  503  0.11210006205E+03  0.29276158441E+01  0.90617629482E+02  0.14425200040E+03  0.47000000000E+01 0.  1.
<mgrwt>
<rscale>  0 0.16420963E+03</rscale>
<asrwt>0</asrwt>
<pdfrwt beam="1">  1        1 0.94840911E-01 0.16432647E+03</pdfrwt>
<pdfrwt beam="2">  1       -1 0.71796406E-02 0.16432647E+03</pdfrwt>
<totfact> 0.33777199E+03</totfact>
</mgrwt>
</event>
<event>
 8    1  0.3177960E-004  0.1276837E+03  0.7546771E-02  0.1233655E+00
         -1   -1    0    0    0  501 -0.00000000000E+00  0.00000000000E+00  0.16607838209E+03  0.16607838209E+03  0.00000000000E+00 0.  1.
          1   -1    0    0  501    0  0.00000000000E+00 -0.00000000000E+00 -0.93479653590E+02  0.93479653590E+02  0.00000000000E+00 0. -1.
         23    2    1    2    0    0  0.56442573138E+02 -0.71344933601E+02  0.27035690741E+02  0.13051455982E+03  0.89594967154E+02 0.  0.
         23    2    1    2    0    0 -0.56442573138E+02  0.71344933601E+02  0.45563037759E+02  0.12904347586E+03  0.79374836303E+02 0.  0.
          5    1    3    3  502    0  0.49460049245E+02 -0.31518758436E+02  0.55468799378E+02  0.80861649186E+02  0.47000000000E+01 0. -1.
         -5    1    3    3    0  502  0.69825238935E+01 -0.39826175165E+02 -0.28433108636E+02  0.49652910639E+02  0.47000000000E+01 0.  1.
          5    1    4    4  503    0  0.14323156750E+02  0.39823599358E+02  0.10368897414E+02  0.43825516754E+02  0.47000000000E+01 0. -1.
         -5    1    4    4    0  503 -0.70765729888E+02  0.31521334242E+02  0.35194140345E+02  0.85217959102E+02  0.47000000000E+01 0.  1.
<mgrwt>
<rscale>  0 0.12590912E+03</rscale>
<asrwt>0</asrwt>
<pdfrwt beam="1">  1        1 0.14381485E-01 0.12768368E+03</pdfrwt>
<pdfrwt beam="2">  1       -1 0.25550520E-01 0.12768368E+03</pdfrwt>
<totfact> 0.50258352E+03</totfact>
</mgrwt>
</event>
<event>
 8    1  0.3177960E-004  0.1184250E+03  0.7546771E-02  0.1248034E+00
         -1   -1    0    0    0  501 -0.00000000000E+00  0.00000000000E+00  0.39749486823E+03  0.39749486823E+03  0.00000000000E+00 0.  1.
          1   -1    0    0  501    0  0.00000000000E+00 -0.00000000000E+00 -0.33858540335E+02  0.33858540335E+02  0.00000000000E+00 0. -1.
         23    2    1    2    0    0 -0.54854289383E+02  0.37569290929E+02  0.16271822080E+03  0.19813128280E+03  0.91423963799E+02 0.  0.
         23    2    1    2    0    0  0.54854289383E+02 -0.37569290929E+02  0.20091810709E+03  0.23322212577E+03  0.98000150540E+02 0.  0.
          5    1    3    3  502    0  0.94426571498E+01 -0.21652743000E+02  0.23320645495E+02  0.33525327139E+02  0.47000000000E+01 0. -1.
         -5    1    4    4    0  503  0.73385243496E+02 -0.12708700016E+02  0.18173207458E+03  0.19645748128E+03  0.47000000000E+01 0.  1.
          5    1    4    4  503    0 -0.18530954113E+02 -0.24860590913E+02  0.19186032510E+02  0.36764644489E+02  0.47000000000E+01 0. -1.
         -5    1    3    3    0  502 -0.64296946533E+02  0.59222033929E+02  0.13939757531E+03  0.16460595566E+03  0.47000000000E+01 0.  1.
<mgrwt>
<rscale>  0 0.11705600E+03</rscale>
<asrwt>0</asrwt>
<pdfrwt beam="1">  1        1 0.52090065E-02 0.11842497E+03</pdfrwt>
<pdfrwt beam="2">  1       -1 0.61153053E-01 0.11842497E+03</pdfrwt>
<totfact> 0.41783821E+03</totfact>
</mgrwt>
</event>
<event>
 8    1  0.3177960E-004  0.9465748E+02  0.7546771E-02  0.1293919E+00
          2   -1    0    0  501    0  0.00000000000E+00  0.00000000000E+00  0.88074901623E+02  0.88074901623E+02  0.00000000000E+00 0. -1.
         -2   -1    0    0    0  501 -0.00000000000E+00 -0.00000000000E+00 -0.22889273210E+03  0.22889273210E+03  0.00000000000E+00 0.  1.
         23    2    1    2    0    0 -0.13611669123E+02  0.98138617069E+01 -0.18964839669E+03  0.21045724862E+03  0.89689183921E+02 0.  0.
         23    2    1    2    0    0  0.13611669123E+02 -0.98138617069E+01  0.48830566211E+02  0.10651038510E+03  0.93158190840E+02 0.  0.
          5    1    3    3  502    0  0.27604462251E+02  0.33337960565E+02 -0.88368840886E+02  0.98511765746E+02  0.47000000000E+01 0. -1.
         -5    1    4    4    0  503  0.23144937939E+02 -0.46643046224E+02  0.43090789061E+02  0.67750778705E+02  0.47000000000E+01 0.  1.
          5    1    4    4  503    0 -0.95332688160E+01  0.36829184517E+02  0.57397771506E+01  0.38759606399E+02  0.47000000000E+01 0. -1.
         -5    1    3    3    0  502 -0.41216131374E+02 -0.23524098858E+02 -0.10127955581E+03  0.11194548288E+03  0.47000000000E+01 0.  1.
<mgrwt>
<rscale>  0 0.93792701E+02</rscale>
<asrwt>0</asrwt>
<pdfrwt beam="1">  1        2 0.13549985E-01 0.94657477E+02</pdfrwt>
<pdfrwt beam="2">  1       -2 0.35214266E-01 0.94657477E+02</pdfrwt>
<totfact> 0.31410413E+03</totfact>
</mgrwt>
</event>
<event>
 8    1  0.3177960E-004  0.1099164E+03  0.7546771E-02  0.1261521E+00
         -1   -1    0    0    0  501 -0.00000000000E+00  0.00000000000E+00  0.45514608718E+03  0.45514608718E+03  0.00000000000E+00 0.  1.
          1   -1    0    0  501    0  0.00000000000E+00 -0.00000000000E+00 -0.12302570606E+03  0.12302570606E+03  0.00000000000E+00 0. -1.
         23    2    1    2    0    0  0.16277308769E+02 -0.56785614688E+02  0.42288344740E+03  0.43693479458E+03  0.92693299749E+02 0.  0.
         23    2    1    2    0    0 -0.16277308769E+02  0.56785614688E+02 -0.90763066280E+02  0.14123699866E+03  0.90666414807E+02 0.  0.
          5    1    4    4  502    0  0.17197920952E+02  0.69510137690E+02 -0.65511210764E+02  0.97166025248E+02  0.47000000000E+01 0. -1.
         -5    1    3    3    0  503  0.40761022869E+02 -0.30079976680E+02  0.36470477703E+03  0.36823624261E+03  0.47000000000E+01 0.  1.
          5    1    3    3  503    0 -0.24483714100E+02 -0.26705638008E+02  0.58178670364E+02  0.68698551970E+02  0.47000000000E+01 0. -1.
         -5    1    4    4    0  502 -0.33475229722E+02 -0.12724523002E+02 -0.25251855516E+02  0.44070973413E+02  0.47000000000E+01 0.  1.
<mgrwt>
<rscale>  0 0.10948790E+03</rscale>
<asrwt>0</asrwt>
<pdfrwt beam="1">  1        1 0.18927032E-01 0.10991635E+03</pdfrwt>
<pdfrwt beam="2">  1       -1 0.70022474E-01 0.10991635E+03</pdfrwt>
<totfact> 0.58608910E+02</totfact>
</mgrwt>
</event>
<event>
 8    1  0.3177960E-004  0.9829722E+02  0.7546771E-02  0.1283963E+00
          1   -1    0    0  501    0  0.00000000000E+00  0.00000000000E+00  0.20876270982E+03  0.20876270982E+03  0.00000000000E+00 0. -1.
         -1   -1    0    0    0  501 -0.00000000000E+00 -0.00000000000E+00 -0.66099134550E+02  0.66099134550E+02  0.00000000000E+00 0.  1.
         23    2    1    2    0    0 -0.33625965578E+02  0.13946440106E+02  0.14667401282E+03  0.17656616148E+03  0.91307910882E+02 0.  0.
         23    2    1    2    0    0  0.33625965578E+02 -0.13946440106E+02 -0.40104375576E+01  0.98295682885E+02  0.91218139160E+02 0.  0.
          5    1    3    3  502    0 -0.58510801692E+02  0.31772543783E+02  0.10879939219E+03  0.12764171025E+03  0.47000000000E+01 0. -1.
         -5    1    3    3    0  502  0.24884836114E+02 -0.17826103677E+02  0.37874620632E+02  0.48924451236E+02  0.47000000000E+01 0.  1.
          5    1    4    4  503    0 -0.19553465181E+02  0.24963557134E+02 -0.33493665712E+01  0.32230815097E+02  0.47000000000E+01 0. -1.
         -5    1    4    4    0  503  0.53179430759E+02 -0.38909997240E+02 -0.66107098644E+00  0.66064867788E+02  0.47000000000E+01 0.  1.
<mgrwt>
<rscale>  0 0.98276367E+02</rscale>
<asrwt>0</asrwt>
<pdfrwt beam="1">  1        1 0.32117340E-01 0.98297219E+02</pdfrwt>
<pdfrwt beam="2">  1       -1 0.10169098E-01 0.98297219E+02</pdfrwt>
<totfact> 0.76257707E+03</totfact>
</mgrwt>
</event>
<event>
 8    1  0.3177960E-004  0.9740374E+02  0.7546771E-02  0.1287355E+00
         -2   -1    0    0    0  501 -0.00000000000E+00  0.00000000000E+00  0.64527292991E+03  0.64527292991E+03  0.00000000000E+00 0.  1.
          2   -1    0    0  501    0  0.00000000000E+00 -0.00000000000E+00 -0.17739543833E+02  0.17739543833E+02  0.00000000000E+00 0. -1.
         23    2    1    2    0    0  0.25606341330E+02  0.43712121626E+00  0.17129274183E+03  0.19704997204E+03  0.93976658202E+02 0.  0.
         23    2    1    2    0    0 -0.25606341330E+02 -0.43712121626E+00  0.45624064425E+03  0.46596250170E+03  0.91157291189E+02 0.  0.
          5    1    3    3  502    0  0.48500821768E+02 -0.30067173098E+02  0.11998282613E+03  0.13294485013E+03  0.47000000000E+01 0. -1.
         -5    1    4    4    0  503 -0.15293209957E+02  0.44462369903E+02  0.26618220687E+03  0.27034393254E+03  0.47000000000E+01 0.  1.
          5    1    4    4  503    0 -0.10313131373E+02 -0.44899491119E+02  0.19005843738E+03  0.19561856916E+03  0.47000000000E+01 0. -1.
         -5    1    3    3    0  502 -0.22894480437E+02  0.30504294314E+02  0.51309915703E+02  0.64105121913E+02  0.47000000000E+01 0.  1.
<mgrwt>
<rscale>  0 0.96717196E+02</rscale>
<asrwt>0</asrwt>
<pdfrwt beam="1">  1        2 0.27291611E-02 0.97403737E+02</pdfrwt>
<pdfrwt beam="2">  1       -2 0.99272740E-01 0.97403737E+02</pdfrwt>
<totfact> 0.28847182E+03</totfact>
</mgrwt>
</event>
<event>
 8    1  0.3177960E-004  0.9594211E+02  0.7546771E-02  0.1289790E+00
         -2   -1    0    0    0  501 -0.00000000000E+00  0.00000000000E+00  0.11318033118E+02  0.11318033118E+02  0.00000000000E+00 0.  1.
          2   -1    0    0  501    0  0.00000000000E+00 -0.00000000000E+00 -0.90011604363E+03  0.90011604363E+03  0.00000000000E+00 0. -1.
         23    2    1    2    0    0  0.18463781302E+02  0.24148083086E+02 -0.29156843031E+03  0.30654726017E+03  0.89638340157E+02 0.  0.
         23    2    1    2    0    0 -0.18463781302E+02 -0.24148083086E+02 -0.59722958020E+03  0.60488681658E+03  0.90999166310E+02 0.  0.
          5    1    3    3  502    0 -0.73664130773E+01  0.54063819482E+02 -0.17520145553E+03  0.18356143560E+03  0.47000000000E+01 0. -1.
         -5    1    3    3    0  502  0.25830194379E+02 -0.29915736396E+02 -0.11636697478E+03  0.12298582457E+03  0.47000000000E+01 0.  1.
          5    1    4    4  503    0  0.75845278866E+01  0.32338992482E+02 -0.21376129849E+03  0.21637772120E+03  0.47000000000E+01 0. -1.
         -5    1    4    4    0  503 -0.26048309188E+02 -0.56487075568E+02 -0.38346828170E+03  0.38850909538E+03  0.47000000000E+01 0.  1.
<mgrwt>
<rscale>  0 0.95618043E+02</rscale>
<asrwt>0</asrwt>
<pdfrwt beam="1">  1        2 0.13847938E+00 0.95942115E+02</pdfrwt>
<pdfrwt beam="2">  1       -2 0.17412360E-02 0.95942115E+02</pdfrwt>
<totfact> 0.26434475E+04</totfact>
</mgrwt>
</event>
<event>
 8    1  0.4852683E-004  0.9180308E+02  0.7546771E-02  0.1299056E+00
          2   -1    0    0  501    0  0.00000000000E+00  0.00000000000E+00  0.24582147277E+03  0.24582147277E+03  0.00000000000E+00 0. -1.
         -2   -1    0    0    0  501 -0.00000000000E+00 -0.00000000000E+00 -0.18871480287E+03  0.18871480287E+03  0.00000000000E+00 0.  1.
         23    2    1    2    0    0  0.54872458804E+01  0.67670626769E+01  0.22527768905E+03  0.24293957006E+03  0.90519028453E+02 0.  0.
         23    2    1    2    0    0 -0.54872458804E+01 -0.67670626769E+01 -0.16817101916E+03  0.19159670558E+03  0.91388746029E+02 0.  0.
          5    1    4    4  502    0  0.13547218298E+02  0.29808673313E+02 -0.13344909486E+03  0.13748758143E+03  0.47000000000E+01 0. -1.
         -5    1    3    3    0  503 -0.22431345642E+02  0.40667046387E+02  0.11035915288E+03  0.11982573411E+03  0.47000000000E+01 0.  1.
          5    1    3    3  503    0  0.27918591522E+02 -0.33899983710E+02  0.11491853617E+03  0.12311383596E+03  0.47000000000E+01 0. -1.
         -5    1    4    4    0  502 -0.19034464178E+02 -0.36575735990E+02 -0.34721924299E+02  0.54109124154E+02  0.47000000000E+01 0.  1.
<mgrwt>
<rscale>  0 0.91585874E+02</rscale>
<asrwt>0</asrwt>
<pdfrwt beam="1">  1        2 0.37818688E-01 0.91803082E+02</pdfrwt>
<pdfrwt beam="2">  1       -2 0.29033046E-01 0.91803082E+02</pdfrwt>
<totfact> 0.14283504E+03</totfact>
</mgrwt>
</event>
<event>
 8    1  0.3177960E-004  0.1083116E+03  0.7546771E-02  0.1267339E+00
         -1   -1    0    0    0  501 -0.00000000000E+00  0.00000000000E+00  0.80220414260E+02  0.80220414260E+02  0.00000000000E+00 0.  1.
          1   -1    0    0  501    0  0.00000000000E+00 -0.00000000000E+00 -0.16488247048E+03  0.16488247048E+03  0.00000000000E+00 0. -1.
         23    2    1    2    0    0  0.54168089730E+01 -0.43486545278E+02  0.72774418039E+01  0.10855576562E+03  0.99050349073E+02 0.  0.
         23    2    1    2    0    0 -0.54168089730E+01  0.43486545278E+02 -0.91939498024E+02  0.13654711912E+03  0.90949562958E+02 0.  0.
          5    1    3    3  502    0 -0.21626495550E+02 -0.45796113776E+02 -0.32361536550E+02  0.60285557098E+02  0.47000000000E+01 0. -1.
         -5    1    4    4    0  503  0.13548105250E+02  0.67523261288E+02 -0.54472858058E+02  0.87933635406E+02  0.47000000000E+01 0.  1.
          5    1    4    4  503    0 -0.18964914223E+02 -0.24036716010E+02 -0.37466639966E+02  0.48613483710E+02  0.47000000000E+01 0. -1.
         -5    1    3    3    0  502  0.27043304523E+02  0.23095684980E+01  0.39638978354E+02  0.48270208526E+02  0.47000000000E+01 0.  1.
<mgrwt>
<rscale>  0 0.10642406E+03</rscale>
<asrwt>0</asrwt>
<pdfrwt beam="1">  1        1 0.25366534E-01 0.10831156E+03</pdfrwt>
<pdfrwt beam="2">  1       -1 0.12341602E-01 0.10831156E+03</pdfrwt>
<totfact> 0.76572885E+03</totfact>
</mgrwt>
</event>
<event>
 8    1  0.3177960E-004  0.1541625E+03  0.7546771E-02  0.1196892E+00
         -3   -1    0    0    0  501 -0.00000000000E+00  0.00000000000E+00  0.40854933924E+03  0.40854933924E+03  0.00000000000E+00 0.  1.
          3   -1    0    0  501    0  0.00000000000E+00 -0.00000000000E+00 -0.19807989816E+03  0.19807989816E+03  0.00000000000E+00 0. -1.
         23    2    1    2    0    0 -0.60067313920E+02 -0.99027660326E+02  0.36223993209E+03  0.39367985928E+03  0.10174233871E+03 0.  0.
         23    2    1    2    0    0  0.60067313920E+02  0.99027660326E+02 -0.15177049101E+03  0.21294937813E+03  0.94332369804E+02 0.  0.
          5    1    4    4  502    0  0.55092638961E+02  0.60118915004E+02 -0.15298541585E+03  0.17342465301E+03  0.47000000000E+01 0. -1.
         -5    1    3    3    0  503 -0.77042285844E+02 -0.83334542157E+02  0.34812859221E+03  0.36619088798E+03  0.47000000000E+01 0.  1.
          5    1    3    3  503    0  0.16974971924E+02 -0.15693118169E+02  0.14111339879E+02  0.27488971295E+02  0.47000000000E+01 0. -1.
         -5    1    4    4    0  502  0.49746749587E+01  0.38908745322E+02  0.12149248379E+01  0.39524725120E+02  0.47000000000E+01 0.  1.
<mgrwt>
<rscale>  0 0.15295162E+03</rscale>
<asrwt>0</asrwt>
<pdfrwt beam="1">  1        3 0.30473831E-01 0.15416246E+03</pdfrwt>
<pdfrwt beam="2">  1       -3 0.62853744E-01 0.15416246E+03</pdfrwt>
<totfact> 0.62236002E+01</totfact>
</mgrwt>
</event>
<event>
 8    1  0.3177960E-004  0.1090606E+03  0.7546771E-02  0.1262571E+00
          1   -1    0    0  501    0  0.00000000000E+00  0.00000000000E+00  0.28254879845E+03  0.28254879845E+03  0.00000000000E+00 0. -1.
         -1   -1    0    0    0  501 -0.00000000000E+00 -0.00000000000E+00 -0.96633233311E+02  0.96633233311E+02  0.00000000000E+00 0.  1.
         23    2    1    2    0    0 -0.29653062888E+02  0.51286414623E+02 -0.49840772826E+02  0.11942202082E+03  0.90928081241E+02 0.  0.
         23    2    1    2    0    0  0.29653062888E+02 -0.51286414623E+02  0.23575633797E+03  0.25976001094E+03  0.91567526604E+02 0.  0.
          5    1    3    3  502    0 -0.36424680350E+01  0.30652352651E+02  0.23301227028E+02  0.38959870090E+02  0.47000000000E+01 0. -1.
         -5    1    4    4    0  503 -0.61414005209E+01 -0.24787399164E+02  0.73235011661E+01  0.26978799585E+02  0.47000000000E+01 0.  1.
          5    1    4    4  503    0  0.35794463409E+02 -0.26499015458E+02  0.22843283680E+03  0.23278121136E+03  0.47000000000E+01 0. -1.
         -5    1    3    3    0  502 -0.26010594853E+02  0.20634061972E+02 -0.73141999854E+02  0.80462150734E+02  0.47000000000E+01 0.  1.
<mgrwt>
<rscale>  0 0.10892626E+03</rscale>
<asrwt>0</asrwt>
<pdfrwt beam="1">  1        1 0.43469046E-01 0.10906059E+03</pdfrwt>
<pdfrwt beam="2">  1       -1 0.14866651E-01 0.10906059E+03</pdfrwt>
<totfact> 0.29570860E+03</totfact>
</mgrwt>
</event>
<event>
 8    1  0.3177960E-004  0.9730129E+02  0.7546771E-02  0.1287367E+00
         -2   -1    0    0    0  501 -0.00000000000E+00  0.00000000000E+00  0.80751056668E+02  0.80751056668E+02  0.00000000000E+00 0.  1.
          2   -1    0    0  501    0  0.00000000000E+00 -0.00000000000E+00 -0.16354291894E+03  0.16354291894E+03  0.00000000000E+00 0. -1.
         23    2    1    2    0    0 -0.26164941258E+01 -0.23922385779E+02  0.25175801127E+02  0.10050553664E+03  0.94278392810E+02 0.  0.
         23    2    1    2    0    0  0.26164941258E+01  0.23922385779E+02 -0.10796766340E+03  0.14378843897E+03  0.91863878959E+02 0.  0.
          5    1    4    4  502    0 -0.41893060515E+02  0.26858445512E+02 -0.60586931406E+02  0.78544706198E+02  0.47000000000E+01 0. -1.
         -5    1    4    4    0  502  0.44509554641E+02 -0.29360597329E+01 -0.47380731999E+02  0.65243732771E+02  0.47000000000E+01 0.  1.
          5    1    3    3  503    0 -0.32814732430E+02  0.20333186455E+02 -0.43836112240E+01  0.39135037795E+02  0.47000000000E+01 0. -1.
         -5    1    3    3    0  503  0.30198238304E+02 -0.44255572234E+02  0.29559412351E+02  0.61370498849E+02  0.47000000000E+01 0.  1.
<mgrwt>
<rscale>  0 0.96711549E+02</rscale>
<asrwt>0</asrwt>
<pdfrwt beam="1">  1        2 0.25160449E-01 0.97301295E+02</pdfrwt>
<pdfrwt beam="2">  1       -2 0.12423240E-01 0.97301295E+02</pdfrwt>
<totfact> 0.91553309E+03</totfact>
</mgrwt>
</event>
<event>
 8    1  0.3177960E-004  0.9261030E+02  0.7546771E-02  0.1305707E+00
         -1   -1    0    0    0  501 -0.00000000000E+00  0.00000000000E+00  0.30090883092E+02  0.30090883092E+02  0.00000000000E+00 0.  1.
          1   -1    0    0  501    0  0.00000000000E+00 -0.00000000000E+00 -0.28698187281E+03  0.28698187281E+03  0.00000000000E+00 0. -1.
         23    2    1    2    0    0 -0.97832971410E+01 -0.20957265194E+02 -0.19940160856E+03  0.21985829242E+03  0.89675790380E+02 0.  0.
         23    2    1    2    0    0  0.97832971410E+01  0.20957265194E+02 -0.57489381156E+02  0.97214463484E+02  0.74904626675E+02 0.  0.
          5    1    4    4  502    0 -0.30834677489E+02  0.20454887266E+02 -0.23945550891E+02  0.44324475817E+02  0.47000000000E+01 0. -1.
         -5    1    4    4    0  502  0.40617974630E+02  0.50237792796E+00 -0.33543830265E+02  0.52889987667E+02  0.47000000000E+01 0.  1.
          5    1    3    3  503    0 -0.48144510068E+02 -0.23532148014E+02 -0.12049047858E+03  0.13195340567E+03  0.47000000000E+01 0. -1.
         -5    1    3    3    0  503  0.38361212927E+02  0.25748828193E+01 -0.78911129978E+02  0.87904886743E+02  0.47000000000E+01 0.  1.
<mgrwt>
<rscale>  0 0.88831133E+02</rscale>
<asrwt>0</asrwt>
<pdfrwt beam="1">  1        1 0.44151058E-01 0.92610298E+02</pdfrwt>
<pdfrwt beam="2">  1       -1 0.46293666E-02 0.92610298E+02</pdfrwt>
<totfact> 0.16536328E+04</totfact>
</mgrwt>
</event>
<event>
 8    1  0.3177960E-004  0.1889061E+03  0.7546771E-02  0.1159464E+00
          1   -1    0    0  501    0  0.00000000000E+00  0.00000000000E+00  0.15951262924E+03  0.15951262924E+03  0.00000000000E+00 0. -1.
         -1   -1    0    0    0  501 -0.00000000000E+00 -0.00000000000E+00 -0.32139134578E+03  0.32139134578E+03  0.00000000000E+00 0.  1.
         23    2    1    2    0    0  0.34621040096E+02  0.16236434865E+03 -0.21354903035E+03  0.28511174548E+03  0.90137233808E+02 0.  0.
         23    2    1    2    0    0 -0.34621040096E+02 -0.16236434865E+03  0.51670313810E+02  0.19579222954E+03  0.90022095564E+02 0.  0.
          5    1    3    3  502    0  0.43834844378E+02  0.28642290534E+02 -0.80838139333E+02  0.96430125788E+02  0.47000000000E+01 0. -1.
         -5    1    4    4    0  503  0.28138441675E+02 -0.67909202833E+02  0.76546071925E+01  0.74054809031E+02  0.47000000000E+01 0.  1.
          5    1    4    4  503    0 -0.62759481771E+02 -0.94455145813E+02  0.44015706617E+02  0.12173742051E+03  0.47000000000E+01 0. -1.
         -5    1    3    3    0  502 -0.92138042818E+01  0.13372205811E+03 -0.13271089102E+03  0.18868161969E+03  0.47000000000E+01 0.  1.
<mgrwt>
<rscale>  0 0.18889238E+03</rscale>
<asrwt>0</asrwt>
<pdfrwt beam="1">  1        1 0.24540405E-01 0.18890611E+03</pdfrwt>
<pdfrwt beam="2">  1       -1 0.49444822E-01 0.18890611E+03</pdfrwt>
<totfact> 0.82044788E+02</totfact>
</mgrwt>
</event>
<event>
 8    1  0.3177960E-004  0.1080984E+03  0.7546771E-02  0.1265520E+00
         -1   -1    0    0    0  501 -0.00000000000E+00  0.00000000000E+00  0.20641460015E+02  0.20641460015E+02  0.00000000000E+00 0.  1.
          1   -1    0    0  501    0  0.00000000000E+00 -0.00000000000E+00 -0.56365469960E+03  0.56365469960E+03  0.00000000000E+00 0. -1.
         23    2    1    2    0    0 -0.55404133508E+02 -0.14026027798E+02 -0.31870521306E+03  0.33653868194E+03  0.91754695483E+02 0.  0.
         23    2    1    2    0    0  0.55404133508E+02  0.14026027798E+02 -0.22430802653E+03  0.24775747768E+03  0.88336456323E+02 0.  0.
          5    1    4    4  502    0  0.19329214877E+02  0.49919230898E+02 -0.12532386845E+03  0.13635875537E+03  0.47000000000E+01 0. -1.
         -5    1    4    4    0  502  0.36074918631E+02 -0.35893203100E+02 -0.98984158075E+02  0.11139872231E+03  0.47000000000E+01 0.  1.
          5    1    3    3  503    0 -0.44608860098E+02  0.21113457389E+02 -0.27409830354E+03  0.27854568474E+03  0.47000000000E+01 0. -1.
         -5    1    3    3    0  503 -0.10795273410E+02 -0.35139485187E+02 -0.44606909514E+02  0.57992997195E+02  0.47000000000E+01 0.  1.
<mgrwt>
<rscale>  0 0.10736962E+03</rscale>
<asrwt>0</asrwt>
<pdfrwt beam="1">  1        1 0.86716112E-01 0.10809843E+03</pdfrwt>
<pdfrwt beam="2">  1       -1 0.31756091E-02 0.10809843E+03</pdfrwt>
<totfact> 0.12421362E+04</totfact>
</mgrwt>
</event>
<event>
 8    1  0.3177960E-004  0.1243763E+03  0.7546771E-02  0.1236117E+00
          3   -1    0    0  501    0  0.00000000000E+00  0.00000000000E+00  0.16714999766E+03  0.16714999766E+03  0.00000000000E+00 0. -1.
         -3   -1    0    0    0  501 -0.00000000000E+00 -0.00000000000E+00 -0.94973780598E+02  0.94973780598E+02  0.00000000000E+00 0.  1.
         23    2    1    2    0    0 -0.16924695448E+02 -0.83132939022E+02  0.57567607080E+02  0.13689251223E+03  0.90708321852E+02 0.  0.
         23    2    1    2    0    0  0.16924695448E+02  0.83132939022E+02  0.14608609981E+02  0.12523126603E+03  0.90950138202E+02 0.  0.
          5    1    4    4  502    0 -0.35631841479E+02  0.21503719808E+02 -0.37435533769E+01  0.42049283997E+02  0.47000000000E+01 0. -1.
         -5    1    4    4    0  502  0.52556536927E+02  0.61629219215E+02  0.18352163358E+02  0.83181982031E+02  0.47000000000E+01 0.  1.
          5    1    3    3  503    0 -0.40722501338E+02 -0.81122731745E+02  0.64654074930E+02  0.11154128888E+03  0.47000000000E+01 0. -1.
         -5    1    3    3    0  503  0.23797805890E+02 -0.20102072774E+01 -0.70864678505E+01  0.25351223345E+02  0.47000000000E+01 0.  1.
<mgrwt>
<rscale>  0 0.12433207E+03</rscale>
<asrwt>0</asrwt>
<pdfrwt beam="1">  1        3 0.25715384E-01 0.12437628E+03</pdfrwt>
<pdfrwt beam="2">  1       -3 0.14611351E-01 0.12437628E+03</pdfrwt>
<totfact> 0.12569144E+03</totfact>
</mgrwt>
</event>
<event>
 8    1  0.3177960E-004  0.1622116E+03  0.7546771E-02  0.1186564E+00
         -2   -1    0    0    0  501 -0.00000000000E+00  0.00000000000E+00  0.52930645652E+02  0.52930645652E+02  0.00000000000E+00 0.  1.
          2   -1    0    0  501    0  0.00000000000E+00 -0.00000000000E+00 -0.49575352617E+03  0.49575352617E+03  0.00000000000E+00 0. -1.
         23    2    1    2    0    0 -0.30593635307E+02 -0.12947457858E+03 -0.23964888552E+03  0.28869902494E+03  0.90641611018E+02 0.  0.
         23    2    1    2    0    0  0.30593635307E+02  0.12947457858E+03 -0.20317399500E+03  0.25998514689E+03  0.92806073823E+02 0.  0.
          5    1    4    4  502    0  0.45045078972E+02  0.90553178776E+02 -0.19147437899E+03  0.21659516415E+03  0.47000000000E+01 0. -1.
         -5    1    3    3    0  503 -0.61880970814E+02 -0.80693114922E+02 -0.13632075400E+03  0.17013544991E+03  0.47000000000E+01 0.  1.
          5    1    3    3  503    0  0.31287335506E+02 -0.48781463658E+02 -0.10332813152E+03  0.11856357503E+03  0.47000000000E+01 0. -1.
         -5    1    4    4    0  502 -0.14451443664E+02  0.38921399804E+02 -0.11699616008E+02  0.43389982731E+02  0.47000000000E+01 0.  1.
<mgrwt>
<rscale>  0 0.16190359E+03</rscale>
<asrwt>0</asrwt>
<pdfrwt beam="1">  1        2 0.76269772E-01 0.16221160E+03</pdfrwt>
<pdfrwt beam="2">  1       -2 0.81431764E-02 0.16221160E+03</pdfrwt>
<totfact> 0.56135761E+03</totfact>
</mgrwt>
</event>
<event>
 8    1  0.3177960E-004  0.9689108E+02  0.7546771E-02  0.1287954E+00
         -2   -1    0    0    0  501 -0.00000000000E+00  0.00000000000E+00  0.19244870320E+02  0.19244870320E+02  0.00000000000E+00 0.  1.
          2   -1    0    0  501    0  0.00000000000E+00 -0.00000000000E+00 -0.53890451727E+03  0.53890451727E+03  0.00000000000E+00 0. -1.
         23    2    1    2    0    0  0.19960234925E+02 -0.11845049594E+02 -0.16461115164E+03  0.19011770948E+03  0.92245303593E+02 0.  0.
         23    2    1    2    0    0 -0.19960234925E+02  0.11845049594E+02 -0.35504849531E+03  0.36803167811E+03  0.94070005281E+02 0.  0.
          5    1    4    4  502    0  0.29123336125E+02 -0.21967538317E+01 -0.24320459496E+03  0.24499706008E+03  0.47000000000E+01 0. -1.
         -5    1    4    4    0  502 -0.49083571050E+02  0.14041803425E+02 -0.11184390034E+03  0.12303461803E+03  0.47000000000E+01 0.  1.
          5    1    3    3  503    0  0.46928134092E+02  0.15488074362E+02 -0.56059359441E+02  0.74879049125E+02  0.47000000000E+01 0. -1.
         -5    1    3    3    0  503 -0.26967899167E+02 -0.27333123956E+02 -0.10855179220E+03  0.11523866035E+03  0.47000000000E+01 0.  1.
<mgrwt>
<rscale>  0 0.96445375E+02</rscale>
<asrwt>0</asrwt>
<pdfrwt beam="1">  1        2 0.82908384E-01 0.96891084E+02</pdfrwt>
<pdfrwt beam="2">  1       -2 0.29607494E-02 0.96891084E+02</pdfrwt>
<totfact> 0.22470293E+04</totfact>
</mgrwt>
</event>
<event>
 8    1  0.3177960E-004  0.1087363E+03  0.7546771E-02  0.1263750E+00
          3   -1    0    0  501    0  0.00000000000E+00  0.00000000000E+00  0.37266165593E+03  0.37266165593E+03  0.00000000000E+00 0. -1.
         -3   -1    0    0    0  501 -0.00000000000E+00 -0.00000000000E+00 -0.33748253320E+02  0.33748253320E+02  0.00000000000E+00 0.  1.
         23    2    1    2    0    0  0.37573916484E+01 -0.57820636391E+02  0.11513823991E+03  0.15836794730E+03  0.92012219082E+02 0.  0.
         23    2    1    2    0    0 -0.37573916484E+01  0.57820636391E+02  0.22377516270E+03  0.24804196194E+03  0.89956364182E+02 0.  0.
          5    1    4    4  502    0  0.28647829888E+02  0.54437213168E+02  0.82699464292E+02  0.10317654641E+03  0.47000000000E+01 0. -1.
         -5    1    3    3    0  503 -0.20546162674E+02 -0.53723477267E+02  0.21757694133E+02  0.61675311627E+02  0.47000000000E+01 0.  1.
          5    1    3    3  503    0  0.24303554322E+02 -0.40971591242E+01  0.93380545773E+02  0.96692635678E+02  0.47000000000E+01 0. -1.
         -5    1    4    4    0  502 -0.32405221536E+02  0.33834232235E+01  0.14107569841E+03  0.14486541553E+03  0.47000000000E+01 0.  1.
<mgrwt>
<rscale>  0 0.10830022E+03</rscale>
<asrwt>0</asrwt>
<pdfrwt beam="1">  1        3 0.57332559E-01 0.10873634E+03</pdfrwt>
<pdfrwt beam="2">  1       -3 0.51920393E-02 0.10873634E+03</pdfrwt>
<totfact> 0.14370478E+03</totfact>
</mgrwt>
</event>
<event>
 8    1  0.3177960E-004  0.1197617E+03  0.7546771E-02  0.1247225E+00
         -1   -1    0    0    0  501 -0.00000000000E+00  0.00000000000E+00  0.14443117268E+03  0.14443117268E+03  0.00000000000E+00 0.  1.
          1   -1    0    0  501    0  0.00000000000E+00 -0.00000000000E+00 -0.14346737066E+03  0.14346737066E+03  0.00000000000E+00 0. -1.
         23    2    1    2    0    0 -0.60034257268E+02 -0.56809742517E+01  0.86467610745E+02  0.14771425644E+03  0.10347206548E+03 0.  0.
         23    2    1    2    0    0  0.60034257268E+02  0.56809742517E+01 -0.85503808717E+02  0.14018428690E+03  0.93297092526E+02 0.  0.
          5    1    4    4  502    0  0.50552073154E+02  0.31890847048E+02 -0.93263646251E+02  0.11087261130E+03  0.47000000000E+01 0. -1.
         -5    1    4    4    0  502  0.94821841141E+01 -0.26209872796E+02  0.77598375334E+01  0.29311675594E+02  0.47000000000E+01 0.  1.
          5    1    3    3  503    0 -0.32405879565E+02 -0.53935568594E+02  0.37020493177E+02  0.73155953312E+02  0.47000000000E+01 0. -1.
         -5    1    3    3    0  503 -0.27628377703E+02  0.48254594343E+02  0.49447117568E+02  0.74558303129E+02  0.47000000000E+01 0.  1.
<mgrwt>
<rscale>  0 0.11753195E+03</rscale>
<asrwt>0</asrwt>
<pdfrwt beam="1">  1        1 0.22071903E-01 0.11976165E+03</pdfrwt>
<pdfrwt beam="2">  1       -1 0.22220181E-01 0.11976165E+03</pdfrwt>
<totfact> 0.36375282E+03</totfact>
</mgrwt>
</event>
<event>
 8    1  0.3177960E-004  0.1377664E+03  0.7546771E-02  0.1218451E+00
          2   -1    0    0  501    0  0.00000000000E+00  0.00000000000E+00  0.16549978077E+04  0.16549978077E+04  0.00000000000E+00 0. -1.
         -2   -1    0    0    0  501 -0.00000000000E+00 -0.00000000000E+00 -0.11330574231E+02  0.11330574231E+02  0.00000000000E+00 0.  1.
         23    2    1    2    0    0 -0.92305673255E+02  0.12987219170E+01  0.69285687858E+03  0.70642072561E+03  0.10226222853E+03 0.  0.
         23    2    1    2    0    0  0.92305673255E+02 -0.12987219170E+01  0.95081035492E+03  0.95990765635E+03  0.94129451852E+02 0.  0.
          5    1    3    3  502    0 -0.80870106141E+02 -0.40510793993E+02  0.38609546190E+03  0.39657646703E+03  0.47000000000E+01 0. -1.
         -5    1    3    3    0  502 -0.11435567114E+02  0.41809515910E+02  0.30676141668E+03  0.30984425859E+03  0.47000000000E+01 0.  1.
          5    1    4    4  503    0 -0.13242019410E+01 -0.30869726164E+02  0.16118542799E+03  0.16418747120E+03  0.47000000000E+01 0. -1.
         -5    1    4    4    0  503  0.93629875196E+02  0.29571004247E+02  0.78962492693E+03  0.79572018515E+03  0.47000000000E+01 0.  1.
<mgrwt>
<rscale>  0 0.13626088E+03</rscale>
<asrwt>0</asrwt>
<pdfrwt beam="1">  1        2 0.25461486E+00 0.13776642E+03</pdfrwt>
<pdfrwt beam="2">  1       -2 0.17431666E-02 0.13776642E+03</pdfrwt>
<totfact> 0.10439174E+04</totfact>
</mgrwt>
</event>
<event>
 8    1  0.3177960E-004  0.1024545E+03  0.7546771E-02  0.1276769E+00
          2   -1    0    0  501    0  0.00000000000E+00  0.00000000000E+00  0.38714050537E+02  0.38714050537E+02  0.00000000000E+00 0. -1.
         -2   -1    0    0    0  501 -0.00000000000E+00 -0.00000000000E+00 -0.29482728970E+03  0.29482728970E+03  0.00000000000E+00 0.  1.
         23    2    1    2    0    0 -0.32791759009E+02 -0.26921923290E+02 -0.18092136562E+03  0.20645578924E+03  0.89952003647E+02 0.  0.
         23    2    1    2    0    0  0.32791759009E+02  0.26921923290E+02 -0.75191873547E+02  0.12708555100E+03  0.93256796072E+02 0.  0.
          5    1    4    4  502    0 -0.22027168125E+02 -0.19260781261E+02 -0.30272017593E+02  0.42363414399E+02  0.47000000000E+01 0.  1.
         -5    1    4    4    0  502  0.54818927134E+02  0.46182704550E+02 -0.44919855954E+02  0.84722136603E+02  0.47000000000E+01 0. -1.
          5    1    3    3  503    0  0.79574662912E+01 -0.47830707184E+02 -0.61432958599E+02  0.78404057432E+02  0.47000000000E+01 0. -1.
         -5    1    3    3    0  503 -0.40749225300E+02  0.20908783895E+02 -0.11948840702E+03  0.12805173181E+03  0.47000000000E+01 0.  1.
<mgrwt>
<rscale>  0 0.10169643E+03</rscale>
<asrwt>0</asrwt>
<pdfrwt beam="1">  1        2 0.59560080E-02 0.10245447E+03</pdfrwt>
<pdfrwt beam="2">  1       -2 0.45358043E-01 0.10245447E+03</pdfrwt>
<totfact> 0.53849529E+03</totfact>
</mgrwt>
</event>
<event>
 8    1  0.3177960E-004  0.1116806E+03  0.7546771E-02  0.1257780E+00
          1   -1    0    0  501    0  0.00000000000E+00  0.00000000000E+00  0.18946513728E+03  0.18946513728E+03  0.00000000000E+00 0. -1.
         -1   -1    0    0    0  501 -0.00000000000E+00 -0.00000000000E+00 -0.80174346975E+02  0.80174346975E+02  0.00000000000E+00 0.  1.
         23    2    1    2    0    0 -0.57918097021E+02 -0.26598919854E+02 -0.29959317668E+01  0.11172076000E+03  0.91709018684E+02 0.  0.
         23    2    1    2    0    0  0.57918097021E+02  0.26598919854E+02  0.11228672207E+03  0.15791872425E+03  0.90928581957E+02 0.  0.
          5    1    4    4  502    0  0.46877791032E+02 -0.28137242611E+02  0.51750265811E+02  0.75428189195E+02  0.47000000000E+01 0. -1.
         -5    1    4    4    0  502  0.11040305989E+02  0.54736162465E+02  0.60536456260E+02  0.82490535058E+02  0.47000000000E+01 0.  1.
          5    1    3    3  503    0 -0.15744239760E+02 -0.53163096123E+02  0.16431559950E+02  0.58019669401E+02  0.47000000000E+01 0. -1.
         -5    1    3    3    0  503 -0.42173857261E+02  0.26564176269E+02 -0.19427491717E+02  0.53701090599E+02  0.47000000000E+01 0.  1.
<mgrwt>
<rscale>  0 0.11152024E+03</rscale>
<asrwt>0</asrwt>
<pdfrwt beam="1">  1        1 0.29148483E-01 0.11168058E+03</pdfrwt>
<pdfrwt beam="2">  1       -1 0.12334515E-01 0.11168058E+03</pdfrwt>
<totfact> 0.64644248E+03</totfact>
</mgrwt>
</event>
<event>
 8    1  0.3177960E-004  0.1135170E+03  0.7546771E-02  0.1259299E+00
          1   -1    0    0  501    0  0.00000000000E+00  0.00000000000E+00  0.10675492753E+04  0.10675492753E+04  0.00000000000E+00 0. -1.
         -1   -1    0    0    0  501 -0.00000000000E+00 -0.00000000000E+00 -0.17517728624E+02  0.17517728624E+02  0.00000000000E+00 0.  1.
         23    2    1    2    0    0 -0.39901439416E+02  0.24504457826E+02  0.20935726513E+03  0.23815242358E+03  0.10340947283E+03 0.  0.
         23    2    1    2    0    0  0.39901439416E+02 -0.24504457826E+02  0.84067428155E+03  0.84691458035E+03  0.91315198260E+02 0.  0.
          5    1    4    4  502    0  0.55196443245E+02  0.16492811544E+02  0.52907618401E+03  0.53222397416E+03  0.47000000000E+01 0. -1.
         -5    1    4    4    0  502 -0.15295003829E+02 -0.40997269370E+02  0.31159809754E+03  0.31469060619E+03  0.47000000000E+01 0.  1.
          5    1    3    3  503    0  0.31188842835E+02  0.22140130779E+02  0.46605223037E+02  0.60473681239E+02  0.47000000000E+01 0. -1.
         -5    1    3    3    0  503 -0.71090282251E+02  0.23643270463E+01  0.16275204209E+03  0.17767874234E+03  0.47000000000E+01 0.  1.
<mgrwt>
<rscale>  0 0.11068907E+03</rscale>
<asrwt>0</asrwt>
<pdfrwt beam="1">  1        1 0.16423830E+00 0.11351701E+03</pdfrwt>
<pdfrwt beam="2">  1       -1 0.26950360E-02 0.11351701E+03</pdfrwt>
<totfact> 0.60836207E+03</totfact>
</mgrwt>
</event>
<event>
 8    1  0.3177960E-004  0.9193961E+02  0.7546771E-02  0.1298936E+00
          1   -1    0    0  501    0  0.00000000000E+00  0.00000000000E+00  0.31295917371E+03  0.31295917371E+03  0.00000000000E+00 0. -1.
         -1   -1    0    0    0  501 -0.00000000000E+00 -0.00000000000E+00 -0.51290017345E+02  0.51290017345E+02  0.00000000000E+00 0.  1.
         23    2    1    2    0    0 -0.59363525465E+01  0.83886430862E+01  0.41713405374E+01  0.90830066561E+02  0.90150381559E+02 0.  0.
         23    2    1    2    0    0  0.59363525465E+01 -0.83886430862E+01  0.25749781583E+03  0.27341912450E+03  0.91363465724E+02 0.  0.
          5    1    3    3  502    0  0.34029322412E+02  0.25644027366E+02 -0.11401139955E+02  0.44358617152E+02  0.47000000000E+01 0. -1.
         -5    1    4    4    0  503  0.32410872422E+02  0.30409301184E+02  0.12946328948E+03  0.13695993419E+03  0.47000000000E+01 0. -1.
          5    1    4    4  503    0 -0.26474519876E+02 -0.38797944270E+02  0.12803452635E+03  0.13645919031E+03  0.47000000000E+01 0.  1.
         -5    1    3    3    0  502 -0.39965674958E+02 -0.17255384280E+02  0.15572480493E+02  0.46471449409E+02  0.47000000000E+01 0.  1.
<mgrwt>
<rscale>  0 0.91636775E+02</rscale>
<asrwt>0</asrwt>
<pdfrwt beam="1">  1        1 0.48147564E-01 0.91939613E+02</pdfrwt>
<pdfrwt beam="2">  1       -1 0.78907721E-02 0.91939613E+02</pdfrwt>
<totfact> 0.67697198E+03</totfact>
</mgrwt>
</event>
<event>
 8    1  0.3177960E-004  0.1103652E+03  0.7546771E-02  0.1262456E+00
         -2   -1    0    0    0  501 -0.00000000000E+00  0.00000000000E+00  0.19065555365E+03  0.19065555365E+03  0.00000000000E+00 0.  1.
          2   -1    0    0  501    0  0.00000000000E+00 -0.00000000000E+00 -0.62082606308E+02  0.62082606308E+02  0.00000000000E+00 0. -1.
         23    2    1    2    0    0  0.28519397161E+02  0.34201847461E+02  0.44515115880E+02  0.11400752722E+03  0.95042087190E+02 0.  0.
         23    2    1    2    0    0 -0.28519397161E+02 -0.34201847461E+02  0.84057831467E+02  0.13873063274E+03  0.10098191445E+03 0.  0.
          5    1    3    3  502    0  0.42328252342E+02  0.60741768716E+02  0.26531937069E+02  0.78786274806E+02  0.47000000000E+01 0. -1.
         -5    1    3    3    0  502 -0.13808855182E+02 -0.26539921255E+02  0.17983178811E+02  0.35221252417E+02  0.47000000000E+01 0.  1.
          5    1    4    4  503    0  0.36980718369E+02 -0.19600612334E+02  0.41495855882E+02  0.59124898227E+02  0.47000000000E+01 0. -1.
         -5    1    4    4    0  503 -0.65500115529E+02 -0.14601235128E+02  0.42561975585E+02  0.79605734513E+02  0.47000000000E+01 0.  1.
<mgrwt>
<rscale>  0 0.10898773E+03</rscale>
<asrwt>0</asrwt>
<pdfrwt beam="1">  1        2 0.95511703E-02 0.11036516E+03</pdfrwt>
<pdfrwt beam="2">  1       -2 0.29331623E-01 0.11036516E+03</pdfrwt>
<totfact> 0.67256804E+03</totfact>
</mgrwt>
</event>
<event>
 8    1  0.3177960E-004  0.1223077E+03  0.7546771E-02  0.1239742E+00
          1   -1    0    0  501    0  0.00000000000E+00  0.00000000000E+00  0.60681205830E+03  0.60681205830E+03  0.00000000000E+00 0. -1.
         -1   -1    0    0    0  501 -0.00000000000E+00 -0.00000000000E+00 -0.24753341942E+02  0.24753341942E+02  0.00000000000E+00 0.  1.
         23    2    1    2    0    0  0.79255634609E+02 -0.16403291810E+02  0.25492466390E+03  0.28231495451E+03  0.90358318256E+02 0.  0.
         23    2    1    2    0    0 -0.79255634609E+02  0.16403291810E+02  0.32713405245E+03  0.34925044572E+03  0.91698756608E+02 0.  0.
          5    1    4    4  502    0 -0.54700052469E+02  0.31081781575E+01  0.31264160669E+03  0.31744073580E+03  0.47000000000E+01 0. -1.
         -5    1    4    4    0  502 -0.24555582140E+02  0.13295113652E+02  0.14492445767E+02  0.31809709926E+02  0.47000000000E+01 0.  1.
          5    1    3    3  503    0  0.52105325713E+02 -0.49112406195E+02  0.11103509392E+03  0.13220391633E+03  0.47000000000E+01 0. -1.
         -5    1    3    3    0  503  0.27150308897E+02  0.32709114385E+02  0.14388956998E+03  0.15011103819E+03  0.47000000000E+01 0.  1.
<mgrwt>
<rscale>  0 0.12205654E+03</rscale>
<asrwt>0</asrwt>
<pdfrwt beam="1">  1        1 0.93355690E-01 0.12230775E+03</pdfrwt>
<pdfrwt beam="2">  1       -1 0.38082069E-02 0.12230775E+03</pdfrwt>
<totfact> 0.87134733E+03</totfact>
</mgrwt>
</event>
<event>
 8    1  0.3177960E-004  0.1272424E+03  0.7546771E-02  0.1234574E+00
         -1   -1    0    0    0  501 -0.00000000000E+00  0.00000000000E+00  0.66131023032E+02  0.66131023032E+02  0.00000000000E+00 0.  1.
          1   -1    0    0  501    0  0.00000000000E+00 -0.00000000000E+00 -0.23079290352E+03  0.23079290352E+03  0.00000000000E+00 0. -1.
         23    2    1    2    0    0 -0.32691928185E+02 -0.67231705674E+02 -0.80105621926E+02  0.15035800633E+03  0.10296482402E+03 0.  0.
         23    2    1    2    0    0  0.32691928185E+02  0.67231705674E+02 -0.84556258561E+02  0.14656592022E+03  0.93503709515E+02 0.  0.
          5    1    4    4  502    0  0.14051404228E+02 -0.18399627490E+02  0.14740575158E+01  0.23669623953E+02  0.47000000000E+01 0. -1.
         -5    1    4    4    0  502  0.18640523958E+02  0.85631333164E+02 -0.86030316077E+02  0.12289629627E+03  0.47000000000E+01 0.  1.
          5    1    3    3  503    0  0.80890212380E+01 -0.72329766601E+02 -0.80981876517E+02  0.10898248357E+03  0.47000000000E+01 0. -1.
         -5    1    3    3    0  503 -0.40780949423E+02  0.50980609270E+01  0.87625459093E+00  0.41375522754E+02  0.47000000000E+01 0.  1.
<mgrwt>
<rscale>  0 0.12531741E+03</rscale>
<asrwt>0</asrwt>
<pdfrwt beam="1">  1        1 0.35506601E-01 0.12724236E+03</pdfrwt>
<pdfrwt beam="2">  1       -1 0.10174003E-01 0.12724236E+03</pdfrwt>
<totfact> 0.68650979E+03</totfact>
</mgrwt>
</event>
<event>
 8    1  0.3177960E-004  0.1045947E+03  0.7546771E-02  0.1271859E+00
         -2   -1    0    0    0  501 -0.00000000000E+00  0.00000000000E+00  0.26848031480E+02  0.26848031480E+02  0.00000000000E+00 0.  1.
          2   -1    0    0  501    0  0.00000000000E+00 -0.00000000000E+00 -0.40078692219E+03  0.40078692219E+03  0.00000000000E+00 0. -1.
         23    2    1    2    0    0 -0.23198168466E+02  0.46775577630E+02 -0.18046740173E+03  0.20858698177E+03  0.90630768486E+02 0.  0.
         23    2    1    2    0    0  0.23198168466E+02 -0.46775577630E+02 -0.19347148898E+03  0.21904797190E+03  0.88457262335E+02 0.  0.
          5    1    3    3  502    0 -0.16921515783E+01 -0.20013507234E+02 -0.98272590172E+02  0.10041412166E+03  0.47000000000E+01 0. -1.
         -5    1    3    3    0  502 -0.21506016888E+02  0.66789084864E+02 -0.82194811554E+02  0.10817286012E+03  0.47000000000E+01 0.  1.
          5    1    4    4  503    0  0.41467019264E+02 -0.58863474729E+02 -0.17728952827E+03  0.19141078647E+03  0.47000000000E+01 0. -1.
         -5    1    4    4    0  503 -0.18268850797E+02  0.12087897099E+02 -0.16181960717E+02  0.27637185428E+02  0.47000000000E+01 0.  1.
<mgrwt>
<rscale>  0 0.10412208E+03</rscale>
<asrwt>0</asrwt>
<pdfrwt beam="1">  1        2 0.61659519E-01 0.10459467E+03</pdfrwt>
<pdfrwt beam="2">  1       -2 0.41304669E-02 0.10459467E+03</pdfrwt>
<totfact> 0.19101919E+04</totfact>
</mgrwt>
</event>
<event>
 8    1  0.3177960E-004  0.9595784E+02  0.7546771E-02  0.1298277E+00
          2   -1    0    0  501    0  0.00000000000E+00  0.00000000000E+00  0.61387009497E+02  0.61387009497E+02  0.00000000000E+00 0. -1.
         -2   -1    0    0    0  501 -0.00000000000E+00 -0.00000000000E+00 -0.19160616005E+03  0.19160616005E+03  0.00000000000E+00 0.  1.
         23    2    1    2    0    0 -0.65575424058E+01 -0.26659192785E+02 -0.14197256435E+03  0.17135961304E+03  0.91946691241E+02 0.  0.
         23    2    1    2    0    0  0.65575424058E+01  0.26659192785E+02  0.11753413791E+02  0.81633556514E+02  0.75974870128E+02 0.  0.
          5    1    4    4  502    0  0.76977308452E+01 -0.24910070920E+02 -0.54662510406E+01  0.27050630193E+02  0.47000000000E+01 0.  1.
         -5    1    3    3    0  503 -0.24331794400E+02 -0.47729333871E+02 -0.13047629054E+03  0.14112504357E+03  0.47000000000E+01 0.  1.
          5    1    3    3  503    0  0.17774251994E+02  0.21070141085E+02 -0.11496273812E+02  0.30234569467E+02  0.47000000000E+01 0. -1.
         -5    1    4    4    0  502 -0.11401884394E+01  0.51569263706E+02  0.17219664831E+02  0.54582926321E+02  0.47000000000E+01 0. -1.
<mgrwt>
<rscale>  0 0.91915842E+02</rscale>
<asrwt>0</asrwt>
<pdfrwt beam="1">  1        2 0.94441556E-02 0.95957845E+02</pdfrwt>
<pdfrwt beam="2">  1       -2 0.29477870E-01 0.95957845E+02</pdfrwt>
<totfact> 0.66784484E+03</totfact>
</mgrwt>
</event>
<event>
 8    1  0.3177960E-004  0.1099548E+03  0.7546771E-02  0.1261327E+00
         -1   -1    0    0    0  501 -0.00000000000E+00  0.00000000000E+00  0.14763103084E+03  0.14763103084E+03  0.00000000000E+00 0.  1.
          1   -1    0    0  501    0  0.00000000000E+00 -0.00000000000E+00 -0.12297698188E+03  0.12297698188E+03  0.00000000000E+00 0. -1.
         23    2    1    2    0    0  0.54425485615E+02 -0.22722264834E+02 -0.66836163881E+02  0.12867449124E+03  0.92798798972E+02 0.  0.
         23    2    1    2    0    0 -0.54425485615E+02  0.22722264834E+02  0.91490212843E+02  0.14193352148E+03  0.91083646559E+02 0.  0.
          5    1    4    4  502    0 -0.61343218252E+02  0.43977663848E+02  0.91991674988E+02  0.11908645435E+03  0.47000000000E+01 0. -1.
         -5    1    3    3    0  503  0.60539048365E+02  0.21235707602E+02 -0.30841483205E+02  0.71338760436E+02  0.47000000000E+01 0.  1.
          5    1    3    3  503    0 -0.61135627500E+01 -0.43957972436E+02 -0.35994680676E+02  0.57335730807E+02  0.47000000000E+01 0. -1.
         -5    1    4    4    0  502  0.69177326376E+01 -0.21255399014E+02 -0.50146214513E+00  0.22847067129E+02  0.47000000000E+01 0.  1.
<mgrwt>
<rscale>  0 0.10959207E+03</rscale>
<asrwt>0</asrwt>
<pdfrwt beam="1">  1        1 0.18919536E-01 0.10995477E+03</pdfrwt>
<pdfrwt beam="2">  1       -1 0.22712466E-01 0.10995477E+03</pdfrwt>
<totfact> 0.42437983E+03</totfact>
</mgrwt>
</event>
<event>
 8    1  0.3177960E-004  0.1094978E+03  0.7546771E-02  0.1266044E+00
          2   -1    0    0  501    0  0.00000000000E+00  0.00000000000E+00  0.89984010230E+03  0.89984010230E+03  0.00000000000E+00 0. -1.
         -2   -1    0    0    0  501 -0.00000000000E+00 -0.00000000000E+00 -0.12360814083E+02  0.12360814083E+02  0.00000000000E+00 0.  1.
         23    2    1    2    0    0 -0.41790262238E+02 -0.75732453395E+01  0.51231120472E+03  0.52388218986E+03  0.10092570689E+03 0.  0.
         23    2    1    2    0    0  0.41790262238E+02  0.75732453395E+01  0.37516808349E+03  0.38831872651E+03  0.90755509078E+02 0.  0.
          5    1    3    3  502    0  0.64370406184E+01  0.34643288339E+02  0.90988138632E+02  0.97685844883E+02  0.47000000000E+01 0. -1.
         -5    1    4    4    0  503 -0.20545926868E+02 -0.11634523910E+02  0.38874825372E+02  0.45725696333E+02  0.47000000000E+01 0.  1.
          5    1    4    4  503    0  0.62336189106E+02  0.19207769249E+02  0.33629325812E+03  0.34259303018E+03  0.47000000000E+01 0. -1.
         -5    1    3    3    0  502 -0.48227302857E+02 -0.42216533679E+02  0.42132306609E+03  0.42619634498E+03  0.47000000000E+01 0.  1.
<mgrwt>
<rscale>  0 0.10709588E+03</rscale>
<asrwt>0</asrwt>
<pdfrwt beam="1">  1        2 0.13843689E+00 0.10949785E+03</pdfrwt>
<pdfrwt beam="2">  1       -2 0.19016644E-02 0.10949785E+03</pdfrwt>
<totfact> 0.23577086E+04</totfact>
</mgrwt>
</event>
<event>
 8    1  0.3177960E-004  0.1092263E+03  0.7546771E-02  0.1262161E+00
          1   -1    0    0  501    0  0.00000000000E+00  0.00000000000E+00  0.41132986781E+03  0.41132986781E+03  0.00000000000E+00 0. -1.
         -1   -1    0    0    0  501 -0.00000000000E+00 -0.00000000000E+00 -0.53015203151E+02  0.53015203151E+02  0.00000000000E+00 0.  1.
         23    2    1    2    0    0 -0.45426635935E+02  0.39219892949E+02  0.33553915305E+03  0.35276953097E+03  0.90873755799E+02 0.  0.
         23    2    1    2    0    0  0.45426635935E+02 -0.39219892949E+02  0.22775511607E+02  0.11157553999E+03  0.91261152416E+02 0.  0.
          5    1    3    3  502    0 -0.67300581472E+02  0.33444995572E+02  0.17411362714E+03  0.18969865880E+03  0.47000000000E+01 0. -1.
         -5    1    3    3    0  502  0.21873945537E+02  0.57748973774E+01  0.16142552591E+03  0.16307087216E+03  0.47000000000E+01 0.  1.
          5    1    4    4  503    0 -0.19047591116E+02 -0.37596706691E+02  0.19903376748E+02  0.46846104291E+02  0.47000000000E+01 0. -1.
         -5    1    4    4    0  503  0.64474227052E+02 -0.16231862584E+01  0.28721348584E+01  0.64729435701E+02  0.47000000000E+01 0.  1.
<mgrwt>
<rscale>  0 0.10914531E+03</rscale>
<asrwt>0</asrwt>
<pdfrwt beam="1">  1        1 0.63281516E-01 0.10922627E+03</pdfrwt>
<pdfrwt beam="2">  1       -1 0.81561854E-02 0.10922627E+03</pdfrwt>
<totfact> 0.46471666E+03</totfact>
</mgrwt>
</event>
<event>
 8    1  0.3177960E-004  0.9173864E+02  0.7546771E-02  0.1298935E+00
          3   -1    0    0  501    0  0.00000000000E+00  0.00000000000E+00  0.16596642101E+03  0.16596642101E+03  0.00000000000E+00 0. -1.
         -3   -1    0    0    0  501 -0.00000000000E+00 -0.00000000000E+00 -0.53434891153E+02  0.53434891153E+02  0.00000000000E+00 0.  1.
         23    2    1    2    0    0 -0.14296654274E+02  0.55747603072E+01  0.30607470637E+02  0.96709854849E+02  0.90446152435E+02 0.  0.
         23    2    1    2    0    0  0.14296654274E+02 -0.55747603072E+01  0.81924059224E+02  0.12269145732E+03  0.90034270936E+02 0.  0.
          5    1    4    4  502    0  0.50035035526E+02 -0.91091152742E+01  0.29527768193E+02  0.58995422328E+02  0.47000000000E+01 0. -1.
         -5    1    4    4    0  502 -0.35738381253E+02  0.35343549670E+01  0.52396291030E+02  0.63696034989E+02  0.47000000000E+01 0.  1.
          5    1    3    3  503    0 -0.19485058000E+02  0.45147392521E+02  0.64379796046E+01  0.49814577365E+02  0.47000000000E+01 0. -1.
         -5    1    3    3    0  503  0.51884037262E+01 -0.39572632213E+02  0.24169491033E+02  0.46895277484E+02  0.47000000000E+01 0.  1.
<mgrwt>
<rscale>  0 0.91636962E+02</rscale>
<asrwt>0</asrwt>
<pdfrwt beam="1">  1        3 0.25533295E-01 0.91738644E+02</pdfrwt>
<pdfrwt beam="2">  1       -3 0.82207525E-02 0.91738644E+02</pdfrwt>
<totfact> 0.31155828E+03</totfact>
</mgrwt>
</event>
<event>
 8    1  0.3177960E-004  0.9326865E+02  0.7546771E-02  0.1296595E+00
         -2   -1    0    0    0  501 -0.00000000000E+00  0.00000000000E+00  0.32031002895E+03  0.32031002895E+03  0.00000000000E+00 0.  1.
          2   -1    0    0  501    0  0.00000000000E+00 -0.00000000000E+00 -0.27356016487E+02  0.27356016487E+02  0.00000000000E+00 0. -1.
         23    2    1    2    0    0  0.15510813003E+02 -0.49374290087E+01  0.11259974770E+03  0.14462244900E+03  0.89285979008E+02 0.  0.
         23    2    1    2    0    0 -0.15510813003E+02  0.49374290087E+01  0.18035426476E+03  0.20304359644E+03  0.91837234883E+02 0.  0.
          5    1    4    4  502    0  0.25170484815E+02 -0.29435401829E+02  0.89343670694E+02  0.97490397885E+02  0.47000000000E+01 0. -1.
         -5    1    3    3    0  503  0.45057981481E+02 -0.23275989023E+02  0.88308544876E+02  0.10194352583E+03  0.47000000000E+01 0.  1.
          5    1    3    3  503    0 -0.29547168478E+02  0.18338560014E+02  0.24291202822E+02  0.42678923170E+02  0.47000000000E+01 0. -1.
         -5    1    4    4    0  502 -0.40681297818E+02  0.34372830838E+02  0.91010594069E+02  0.10555319855E+03  0.47000000000E+01 0.  1.
<mgrwt>
<rscale>  0 0.92634460E+02</rscale>
<asrwt>0</asrwt>
<pdfrwt beam="1">  1        2 0.42086181E-02 0.93268651E+02</pdfrwt>
<pdfrwt beam="2">  1       -2 0.49278464E-01 0.93268651E+02</pdfrwt>
<totfact> 0.71179755E+03</totfact>
</mgrwt>
</event>
<event>
 8    1  0.3177960E-004  0.8982788E+02  0.7546771E-02  0.1303397E+00
          1   -1    0    0  501    0  0.00000000000E+00  0.00000000000E+00  0.24740389640E+03  0.24740389640E+03  0.00000000000E+00 0. -1.
         -1   -1    0    0    0  501 -0.00000000000E+00 -0.00000000000E+00 -0.34187360480E+02  0.34187360480E+02  0.00000000000E+00 0.  1.
         23    2    1    2    0    0  0.29458673163E+01 -0.46102777735E+01  0.75565961296E+02  0.11722359613E+03  0.89449562258E+02 0.  0.
         23    2    1    2    0    0 -0.29458673163E+01  0.46102777735E+01  0.13765057463E+03  0.16436766075E+03  0.89661108681E+02 0.  0.
          5    1    3    3  502    0 -0.28565886118E+02 -0.18384616440E+02  0.25119008930E+00  0.34295146417E+02  0.47000000000E+01 0. -1.
         -5    1    4    4    0  503 -0.19629546892E+02  0.23722297701E+02  0.79775962241E+01  0.32152738000E+02  0.47000000000E+01 0.  1.
          5    1    4    4  503    0  0.16683679576E+02 -0.19112019927E+02  0.12967297840E+03  0.13221492275E+03  0.47000000000E+01 0. -1.
         -5    1    3    3    0  502  0.31511753434E+02  0.13774338666E+02  0.75314771207E+02  0.82928449715E+02  0.47000000000E+01 0.  1.
<mgrwt>
<rscale>  0 0.89775041E+02</rscale>
<asrwt>0</asrwt>
<pdfrwt beam="1">  1        1 0.38062137E-01 0.89827875E+02</pdfrwt>
<pdfrwt beam="2">  1       -1 0.52595941E-02 0.89827875E+02</pdfrwt>
<totfact> 0.16391115E+04</totfact>
</mgrwt>
</event>
<event>
 8    1  0.3177960E-004  0.1240183E+03  0.7546771E-02  0.1237071E+00
         -3   -1    0    0    0  501 -0.00000000000E+00  0.00000000000E+00  0.46581821171E+02  0.46581821171E+02  0.00000000000E+00 0.  1.
          3   -1    0    0  501    0  0.00000000000E+00 -0.00000000000E+00 -0.34092878750E+03  0.34092878750E+03  0.00000000000E+00 0. -1.
         23    2    1    2    0    0  0.11688915603E+02 -0.84671334114E+02 -0.18552367014E+03  0.22251649896E+03  0.88253580988E+02 0.  0.
         23    2    1    2    0    0 -0.11688915603E+02  0.84671334114E+02 -0.10882329619E+03  0.16499410971E+03  0.89859228117E+02 0.  0.
          5    1    4    4  502    0  0.25167025260E+02  0.75002732928E+02 -0.96067823812E+02  0.12453877259E+03  0.47000000000E+01 0. -1.
         -5    1    3    3    0  503 -0.30120578030E+02 -0.26887537922E+01 -0.50380160240E+02  0.58946833364E+02  0.47000000000E+01 0.  1.
          5    1    3    3  503    0  0.41809493633E+02 -0.81982580322E+02 -0.13514350990E+03  0.16356966559E+03  0.47000000000E+01 0. -1.
         -5    1    4    4    0  502 -0.36855940863E+02  0.96686011860E+01 -0.12755472375E+02  0.40455337118E+02  0.47000000000E+01 0.  1.
<mgrwt>
<rscale>  0 0.12372771E+03</rscale>
<asrwt>0</asrwt>
<pdfrwt beam="1">  1        3 0.52450584E-01 0.12401833E+03</pdfrwt>
<pdfrwt beam="2">  1       -3 0.71664339E-02 0.12401833E+03</pdfrwt>
<totfact> 0.10525793E+03</totfact>
</mgrwt>
</event>
<event>
 8    1  0.3177960E-004  0.1002342E+03  0.7546771E-02  0.1282146E+00
          1   -1    0    0  501    0  0.00000000000E+00  0.00000000000E+00  0.31118000588E+03  0.31118000588E+03  0.00000000000E+00 0. -1.
         -1   -1    0    0    0  501 -0.00000000000E+00 -0.00000000000E+00 -0.38213613626E+02  0.38213613626E+02  0.00000000000E+00 0.  1.
         23    2    1    2    0    0  0.32129985334E+02 -0.12712187776E+02  0.57600105798E+02  0.11184460588E+03  0.89428787314E+02 0.  0.
         23    2    1    2    0    0 -0.32129985334E+02  0.12712187776E+02  0.21536628645E+03  0.23754901362E+03  0.94090174077E+02 0.  0.
          5    1    3    3  502    0 -0.14386240780E+02 -0.29408119863E+02  0.52350475558E+02  0.61923046831E+02  0.47000000000E+01 0. -1.
         -5    1    3    3    0  502  0.46516226114E+02  0.16695932087E+02  0.52496302406E+01  0.49921559048E+02  0.47000000000E+01 0.  1.
          5    1    4    4  503    0 -0.31519680194E+02 -0.24522050467E+02  0.34972064077E+02  0.53291241911E+02  0.47000000000E+01 0. -1.
         -5    1    4    4    0  503 -0.61030513951E+00  0.37234238243E+02  0.18039422238E+03  0.18425777171E+03  0.47000000000E+01 0.  1.
<mgrwt>
<rscale>  0 0.99125397E+02</rscale>
<asrwt>0</asrwt>
<pdfrwt beam="1">  1        1 0.47873845E-01 0.10023421E+03</pdfrwt>
<pdfrwt beam="2">  1       -1 0.58790177E-02 0.10023421E+03</pdfrwt>
<totfact> 0.10622742E+04</totfact>
</mgrwt>
</event>
<event>
 8    1  0.3177960E-004  0.1164869E+03  0.7546771E-02  0.1250163E+00
          1   -1    0    0  501    0  0.00000000000E+00  0.00000000000E+00  0.13419713126E+03  0.13419713126E+03  0.00000000000E+00 0. -1.
         -1   -1    0    0    0  501 -0.00000000000E+00 -0.00000000000E+00 -0.10081665623E+03  0.10081665623E+03  0.00000000000E+00 0.  1.
         23    2    1    2    0    0 -0.66098325957E+02 -0.32363073014E+02  0.33039659371E+02  0.11852643415E+03  0.86836278776E+02 0.  0.
         23    2    1    2    0    0  0.66098325957E+02  0.32363073014E+02  0.34081565884E+00  0.11648735335E+03  0.90293023789E+02 0.  0.
          5    1    3    3  502    0 -0.48750791461E+02 -0.61624608114E+02  0.29258556489E+02  0.83978480107E+02  0.47000000000E+01 0. -1.
         -5    1    4    4    0  503  0.61466307091E+02  0.55406512440E+02 -0.19755625168E+02  0.85207765221E+02  0.47000000000E+01 0.  1.
          5    1    4    4  503    0  0.46320188662E+01 -0.23043439426E+02  0.20096440827E+02  0.31279588125E+02  0.47000000000E+01 0. -1.
         -5    1    3    3    0  502 -0.17347534496E+02  0.29261535100E+02  0.37811028817E+01  0.34547954043E+02  0.47000000000E+01 0.  1.
<mgrwt>
<rscale>  0 0.11581647E+03</rscale>
<asrwt>0</asrwt>
<pdfrwt beam="1">  1        1 0.20645713E-01 0.11648685E+03</pdfrwt>
<pdfrwt beam="2">  1       -1 0.15510255E-01 0.11648685E+03</pdfrwt>
<totfact> 0.69945517E+03</totfact>
</mgrwt>
</event>
<event>
 8    1  0.3177960E-004  0.1680607E+03  0.7546771E-02  0.1181512E+00
          3   -1    0    0  501    0  0.00000000000E+00  0.00000000000E+00  0.70858570980E+03  0.70858570980E+03  0.00000000000E+00 0. -1.
         -3   -1    0    0    0  501 -0.00000000000E+00 -0.00000000000E+00 -0.38863856276E+02  0.38863856276E+02  0.00000000000E+00 0.  1.
         23    2    1    2    0    0 -0.44388118346E+02  0.12762144877E+03  0.30205894467E+03  0.34566459318E+03  0.99934306838E+02 0.  0.
         23    2    1    2    0    0  0.44388118346E+02 -0.12762144877E+03  0.36766290885E+03  0.40178497290E+03  0.89429361302E+02 0.  0.
          5    1    4    4  502    0  0.45187790943E+02 -0.81448952613E+02  0.13217503624E+03  0.16176587569E+03  0.47000000000E+01 0. -1.
         -5    1    4    4    0  502 -0.79967259755E+00 -0.46172496161E+02  0.23548787261E+03  0.24001909721E+03  0.47000000000E+01 0.  1.
          5    1    3    3  503    0 -0.59138392172E+02  0.51592088175E+02  0.88141096813E+02  0.11811027025E+03  0.47000000000E+01 0. -1.
         -5    1    3    3    0  503  0.14750273826E+02  0.76029360600E+02  0.21391784786E+03  0.22755432293E+03  0.47000000000E+01 0.  1.
<mgrwt>
<rscale>  0 0.16653345E+03</rscale>
<asrwt>0</asrwt>
<pdfrwt beam="1">  1        3 0.10901318E+00 0.16806072E+03</pdfrwt>
<pdfrwt beam="2">  1       -3 0.59790553E-02 0.16806072E+03</pdfrwt>
<totfact> 0.30447761E+02</totfact>
</mgrwt>
</event>
<event>
 8    1  0.3177960E-004  0.1286093E+03  0.7546771E-02  0.1244543E+00
          1   -1    0    0  501    0  0.00000000000E+00  0.00000000000E+00  0.32142185203E+03  0.32142185203E+03  0.00000000000E+00 0. -1.
         -1   -1    0    0    0  501 -0.00000000000E+00 -0.00000000000E+00 -0.92225744512E+02  0.92225744512E+02  0.00000000000E+00 0.  1.
         23    2    1    2    0    0 -0.18626722196E+02 -0.16000749090E+02 -0.49408469987E+02  0.10679118534E+03  0.91434028724E+02 0.  0.
         23    2    1    2    0    0  0.18626722196E+02  0.16000749090E+02  0.27860457751E+03  0.30685641121E+03  0.12624328789E+03 0.  0.
          5    1    3    3  502    0 -0.42131329659E+02 -0.27380114527E+02  0.27456792826E+00  0.50466672149E+02  0.47000000000E+01 0. -1.
         -5    1    3    3    0  502  0.23504607462E+02  0.11379365436E+02 -0.49683037915E+02  0.56324513191E+02  0.47000000000E+01 0.  1.
          5    1    4    4  503    0  0.65481825237E+02  0.27620503954E+02  0.21736201447E+03  0.22873368140E+03  0.47000000000E+01 0. -1.
         -5    1    4    4    0  503 -0.46855103040E+02 -0.11619754864E+02  0.61242563041E+02  0.78122729803E+02  0.47000000000E+01 0.  1.
<mgrwt>
<rscale>  0 0.11912746E+03</rscale>
<asrwt>0</asrwt>
<pdfrwt beam="1">  1        1 0.49449515E-01 0.12860928E+03</pdfrwt>
<pdfrwt beam="2">  1       -1 0.14188576E-01 0.12860928E+03</pdfrwt>
<totfact> 0.27333658E+03</totfact>
</mgrwt>
</event>
<event>
 8    1  0.3177960E-004  0.1015978E+03  0.7546771E-02  0.1279655E+00
          1   -1    0    0  501    0  0.00000000000E+00  0.00000000000E+00  0.79391075321E+03  0.79391075321E+03  0.00000000000E+00 0. -1.
         -1   -1    0    0    0  501 -0.00000000000E+00 -0.00000000000E+00 -0.15496877434E+02  0.15496877434E+02  0.00000000000E+00 0.  1.
         23    2    1    2    0    0 -0.21072143543E+02 -0.20867373733E+02  0.57917096915E+03  0.58801456010E+03  0.97173190027E+02 0.  0.
         23    2    1    2    0    0  0.21072143543E+02  0.20867373733E+02  0.19924290662E+03  0.22139307054E+03  0.91856808813E+02 0.  0.
          5    1    4    4  502    0 -0.35237135930E+02 -0.43585899151E+00  0.85914139070E+02  0.92979433284E+02  0.47000000000E+01 0. -1.
         -5    1    3    3    0  503  0.38529946394E+02 -0.11519823793E+02  0.20168326899E+03  0.20570730201E+03  0.47000000000E+01 0.  1.
          5    1    3    3  503    0 -0.59602089937E+02 -0.93475499405E+01  0.37748770016E+03  0.38230725808E+03  0.47000000000E+01 0. -1.
         -5    1    4    4    0  502  0.56309279473E+02  0.21303232725E+02  0.11332876755E+03  0.12841363726E+03  0.47000000000E+01 0.  1.
<mgrwt>
<rscale>  0 0.10030524E+03</rscale>
<asrwt>0</asrwt>
<pdfrwt beam="1">  1        1 0.12214008E+00 0.10159779E+03</pdfrwt>
<pdfrwt beam="2">  1       -1 0.23841356E-02 0.10159779E+03</pdfrwt>
<totfact> 0.11584093E+04</totfact>
</mgrwt>
</event>
<event>
 8    1  0.3177960E-004  0.9410296E+02  0.7546771E-02  0.1294765E+00
          1   -1    0    0  501    0  0.00000000000E+00  0.00000000000E+00  0.13525643179E+03  0.13525643179E+03  0.00000000000E+00 0. -1.
         -1   -1    0    0    0  501 -0.00000000000E+00 -0.00000000000E+00 -0.21115189863E+03  0.21115189863E+03  0.00000000000E+00 0.  1.
         23    2    1    2    0    0 -0.34261283718E+01  0.11659911638E+02 -0.18255832685E+03  0.20416792602E+03  0.90605228425E+02 0.  0.
         23    2    1    2    0    0  0.34261283718E+01 -0.11659911638E+02  0.10666286001E+03  0.14224040440E+03  0.93314924007E+02 0.  0.
          5    1    4    4  502    0 -0.98079338286E+01  0.31976627034E+02  0.85147131338E+02  0.91601442225E+02  0.47000000000E+01 0. -1.
         -5    1    4    4    0  502  0.13234062200E+02 -0.43636538673E+02  0.21515728672E+02  0.50638962173E+02  0.47000000000E+01 0.  1.
          5    1    3    3  503    0  0.33385311529E+02 -0.89474656423E+00 -0.25456909470E+02  0.42255459258E+02  0.47000000000E+01 0. -1.
         -5    1    3    3    0  503 -0.36811439901E+02  0.12554658202E+02 -0.15710141738E+03  0.16191246676E+03  0.47000000000E+01 0.  1.
<mgrwt>
<rscale>  0 0.93424064E+02</rscale>
<asrwt>0</asrwt>
<pdfrwt beam="1">  1        1 0.20808682E-01 0.94102959E+02</pdfrwt>
<pdfrwt beam="2">  1       -1 0.32484907E-01 0.94102959E+02</pdfrwt>
<totfact> 0.20693866E+03</totfact>
</mgrwt>
</event>
<event>
 8    1  0.3177960E-004  0.9042422E+02  0.7546771E-02  0.1302300E+00
         -3   -1    0    0    0  501 -0.00000000000E+00  0.00000000000E+00  0.33125382784E+02  0.33125382784E+02  0.00000000000E+00 0.  1.
          3   -1    0    0  501    0  0.00000000000E+00 -0.00000000000E+00 -0.24795755503E+03  0.24795755503E+03  0.00000000000E+00 0. -1.
         23    2    1    2    0    0 -0.30387435571E+01 -0.33848622618E+01 -0.12305013943E+03  0.15224008582E+03  0.89526619849E+02 0.  0.
         23    2    1    2    0    0  0.30387435571E+01  0.33848622618E+01 -0.91782032812E+02  0.12884285199E+03  0.90309732075E+02 0.  0.
          5    1    3    3  502    0  0.33211033532E+01 -0.31040617957E+02 -0.11909145798E+03  0.12320476880E+03  0.47000000000E+01 0.  1.
         -5    1    4    4    0  503 -0.33550181184E+02  0.14053061601E+02 -0.92665756112E+01  0.37829388329E+02  0.47000000000E+01 0.  1.
          5    1    4    4  503    0  0.36588924741E+02 -0.10668199339E+02 -0.82515457201E+02  0.91013463663E+02  0.47000000000E+01 0. -1.
         -5    1    3    3    0  502 -0.63598469103E+01  0.27655755696E+02 -0.39586814530E+01  0.29035317024E+02  0.47000000000E+01 0.  1.
<mgrwt>
<rscale>  0 0.90228051E+02</rscale>
<asrwt>0</asrwt>
<pdfrwt beam="1">  1        3 0.38147317E-01 0.90424217E+02</pdfrwt>
<pdfrwt beam="2">  1       -3 0.50962126E-02 0.90424217E+02</pdfrwt>
<totfact> 0.31711938E+03</totfact>
</mgrwt>
</event>
<event>
 8    1  0.3177960E-004  0.9436953E+02  0.7546771E-02  0.1292789E+00
          2   -1    0    0  501    0  0.00000000000E+00  0.00000000000E+00  0.63800231020E+03  0.63800231020E+03  0.00000000000E+00 0. -1.
         -2   -1    0    0    0  501 -0.00000000000E+00 -0.00000000000E+00 -0.14713134850E+02  0.14713134850E+02  0.00000000000E+00 0.  1.
         23    2    1    2    0    0  0.17415313320E+02  0.13529066038E+02  0.23591409489E+03  0.25408870217E+03  0.91756632645E+02 0.  0.
         23    2    1    2    0    0 -0.17415313320E+02 -0.13529066038E+02  0.38737508046E+03  0.39862674288E+03  0.91419354711E+02 0.  0.
          5    1    3    3  502    0 -0.26234847584E+02  0.53188425325E+01  0.18227061166E+03  0.18428571075E+03  0.47000000000E+01 0. -1.
         -5    1    3    3    0  502  0.43650160903E+02  0.82102235058E+01  0.53643483235E+02  0.69802991415E+02  0.47000000000E+01 0.  1.
          5    1    4    4  503    0 -0.35972995483E+02 -0.44090117087E+02  0.26315834966E+03  0.26928126898E+03  0.47000000000E+01 0. -1.
         -5    1    4    4    0  503  0.18557682164E+02  0.30561051049E+02  0.12421673080E+03  0.12934547390E+03  0.47000000000E+01 0.  1.
<mgrwt>
<rscale>  0 0.94287447E+02</rscale>
<asrwt>0</asrwt>
<pdfrwt beam="1">  1        2 0.98154180E-01 0.94369531E+02</pdfrwt>
<pdfrwt beam="2">  1       -2 0.22635597E-02 0.94369531E+02</pdfrwt>
<totfact> 0.27391732E+04</totfact>
</mgrwt>
</event>
<event>
 8    1  0.3177960E-004  0.9663134E+02  0.7546771E-02  0.1288028E+00
          1   -1    0    0  501    0  0.00000000000E+00  0.00000000000E+00  0.27936179796E+02  0.27936179796E+02  0.00000000000E+00 0. -1.
         -1   -1    0    0    0  501 -0.00000000000E+00 -0.00000000000E+00 -0.34935565583E+03  0.34935565583E+03  0.00000000000E+00 0.  1.
         23    2    1    2    0    0  0.28678525057E+02 -0.27280181236E+01 -0.11704122039E+03  0.15122085650E+03  0.91319221907E+02 0.  0.
         23    2    1    2    0    0 -0.28678525057E+02  0.27280181236E+01 -0.20437825565E+03  0.22607097912E+03  0.92237282796E+02 0.  0.
          5    1    4    4  502    0 -0.31014557791E+02 -0.29493294439E+02 -0.40971039447E+02  0.59434613528E+02  0.47000000000E+01 0. -1.
         -5    1    3    3    0  503  0.47392982327E+02 -0.25707540223E+02 -0.36518756881E+02  0.65289218117E+02  0.47000000000E+01 0.  1.
          5    1    3    3  503    0 -0.18714457270E+02  0.22979522100E+02 -0.80522463504E+02  0.85931638386E+02  0.47000000000E+01 0. -1.
         -5    1    4    4    0  502  0.23360327341E+01  0.32221312562E+02 -0.16340721620E+03  0.16663636560E+03  0.47000000000E+01 0.  1.
<mgrwt>
<rscale>  0 0.96411613E+02</rscale>
<asrwt>0</asrwt>
<pdfrwt beam="1">  1        1 0.42978740E-02 0.96631342E+02</pdfrwt>
<pdfrwt beam="2">  1       -1 0.53747022E-01 0.96631342E+02</pdfrwt>
<totfact> 0.67985251E+03</totfact>
</mgrwt>
</event>
<event>
 8    1  0.3177960E-004  0.1133485E+03  0.7546771E-02  0.1255015E+00
          1   -1    0    0  501    0  0.00000000000E+00  0.00000000000E+00  0.68274816732E+02  0.68274816732E+02  0.00000000000E+00 0. -1.
         -1   -1    0    0    0  501 -0.00000000000E+00 -0.00000000000E+00 -0.22052370736E+03  0.22052370736E+03  0.00000000000E+00 0.  1.
         23    2    1    2    0    0 -0.58053212520E+02 -0.31745009376E+02 -0.18856674306E+02  0.11375176379E+03  0.90586800890E+02 0.  0.
         23    2    1    2    0    0  0.58053212520E+02  0.31745009376E+02 -0.13339221632E+03  0.17504676030E+03  0.92032406313E+02 0.  0.
          5    1    3    3  502    0 -0.14561095785E+02 -0.57198744160E+02 -0.21697842113E+02  0.63060353601E+02  0.47000000000E+01 0. -1.
         -5    1    4    4    0  503  0.21522586729E+02  0.24145273290E+02  0.36963486924E+01  0.32893296512E+02  0.47000000000E+01 0. -1.
          5    1    4    4  503    0  0.36530625792E+02  0.75997360859E+01 -0.13708856501E+03  0.14215346378E+03  0.47000000000E+01 0.  1.
         -5    1    3    3    0  502 -0.43492116736E+02  0.25453734784E+02  0.28411678079E+01  0.50691410190E+02  0.47000000000E+01 0.  1.
<mgrwt>
<rscale>  0 0.11305473E+03</rscale>
<asrwt>0</asrwt>
<pdfrwt beam="1">  1        1 0.10503818E-01 0.11334851E+03</pdfrwt>
<pdfrwt beam="2">  1       -1 0.33926725E-01 0.11334851E+03</pdfrwt>
<totfact> 0.46784853E+03</totfact>
</mgrwt>
</event>
<event>
 8    1  0.3177960E-004  0.1038003E+03  0.7546771E-02  0.1272693E+00
         -1   -1    0    0    0  501 -0.00000000000E+00  0.00000000000E+00  0.21184534173E+02  0.21184534173E+02  0.00000000000E+00 0.  1.
          1   -1    0    0  501    0  0.00000000000E+00 -0.00000000000E+00 -0.50941479789E+03  0.50941479789E+03  0.00000000000E+00 0. -1.
         23    2    1    2    0    0  0.38433254999E+02  0.29763794474E+02 -0.26381270561E+03  0.28349894835E+03  0.91714292886E+02 0.  0.
         23    2    1    2    0    0 -0.38433254999E+02 -0.29763794474E+02 -0.22441755811E+03  0.24710038372E+03  0.91281765411E+02 0.  0.
          5    1    4    4  502    0 -0.29187588486E+02 -0.61637335317E+02 -0.16944493665E+03  0.18271495008E+03  0.47000000000E+01 0. -1.
         -5    1    4    4    0  502 -0.92456665130E+01  0.31873540842E+02 -0.54972621455E+02  0.64385433638E+02  0.47000000000E+01 0.  1.
          5    1    3    3  503    0 -0.19396188211E+02 -0.16802740364E+02 -0.10393542440E+03  0.10715972492E+03  0.47000000000E+01 0. -1.
         -5    1    3    3    0  503  0.57829443211E+02  0.46566534838E+02 -0.15987728122E+03  0.17633922342E+03  0.47000000000E+01 0.  1.
<mgrwt>
<rscale>  0 0.10370471E+03</rscale>
<asrwt>0</asrwt>
<pdfrwt beam="1">  1        1 0.78371505E-01 0.10380034E+03</pdfrwt>
<pdfrwt beam="2">  1       -1 0.32591592E-02 0.10380034E+03</pdfrwt>
<totfact> 0.13613178E+04</totfact>
</mgrwt>
</event>
<event>
 8    1  0.3177960E-004  0.1188610E+03  0.7546771E-02  0.1254028E+00
         -1   -1    0    0    0  501 -0.00000000000E+00  0.00000000000E+00  0.19002456672E+03  0.19002456672E+03  0.00000000000E+00 0.  1.
          1   -1    0    0  501    0  0.00000000000E+00 -0.00000000000E+00 -0.62645197017E+02  0.62645197017E+02  0.00000000000E+00 0. -1.
         23    2    1    2    0    0 -0.44878635099E+02  0.96214129704E+01  0.74001690170E+02  0.14001496796E+03  0.10964158714E+03 0.  0.
         23    2    1    2    0    0  0.44878635099E+02 -0.96214129704E+01  0.53377679535E+02  0.11265479577E+03  0.87950343162E+02 0.  0.
          5    1    3    3  502    0  0.21299920069E+02  0.71501298712E+01 -0.16141438835E+02  0.28061486058E+02  0.47000000000E+01 0. -1.
         -5    1    4    4    0  503  0.22039073640E+02  0.30331549044E+02 -0.50596024692E+01  0.38123656849E+02  0.47000000000E+01 0.  1.
          5    1    4    4  503    0  0.22839561459E+02 -0.39952962015E+02  0.58437282004E+02  0.74531138925E+02  0.47000000000E+01 0. -1.
         -5    1    3    3    0  502 -0.66178555168E+02  0.24712830992E+01  0.90143129005E+02  0.11195348191E+03  0.47000000000E+01 0.  1.
<mgrwt>
<rscale>  0 0.11360949E+03</rscale>
<asrwt>0</asrwt>
<pdfrwt beam="1">  1        1 0.96377227E-02 0.11886102E+03</pdfrwt>
<pdfrwt beam="2">  1       -1 0.29234548E-01 0.11886102E+03</pdfrwt>
<totfact> 0.67570470E+03</totfact>
</mgrwt>
</event>
<event>
 8    1  0.3177960E-004  0.1073043E+03  0.7546771E-02  0.1268496E+00
          4   -1    0    0  501    0  0.00000000000E+00  0.00000000000E+00  0.10615082919E+03  0.10615082919E+03  0.00000000000E+00 0. -1.
         -4   -1    0    0    0  501 -0.00000000000E+00 -0.00000000000E+00 -0.13727512342E+03  0.13727512342E+03  0.00000000000E+00 0.  1.
         23    2    1    2    0    0  0.19907207319E-01 -0.38245079352E+02 -0.76947106967E+02  0.13204192304E+03  0.10025729738E+03 0.  0.
         23    2    1    2    0    0 -0.19907207319E-01  0.38245079352E+02  0.45822812733E+02  0.11138402958E+03  0.94042465873E+02 0.  0.
          5    1    4    4  502    0  0.45005211418E+02  0.27919728184E+02  0.35157242628E+02  0.63742466111E+02  0.47000000000E+01 0. -1.
         -5    1    4    4    0  502 -0.45025118626E+02  0.10325351168E+02  0.10665570105E+02  0.47641563468E+02  0.47000000000E+01 0.  1.
          5    1    3    3  503    0  0.31103034974E+02  0.19529361345E+02 -0.46836877162E+02  0.59704085299E+02  0.47000000000E+01 0. -1.
         -5    1    3    3    0  503 -0.31083127767E+02 -0.57774440697E+02 -0.30110229805E+02  0.72337837737E+02  0.47000000000E+01 0.  1.
<mgrwt>
<rscale>  0 0.10582850E+03</rscale>
<asrwt>0</asrwt>
<pdfrwt beam="1">  1        4 0.16330897E-01 0.10730430E+03</pdfrwt>
<pdfrwt beam="2">  1       -4 0.21119250E-01 0.10730430E+03</pdfrwt>
<totfact> 0.10383895E+03</totfact>
</mgrwt>
</event>
<event>
 8    1  0.3177960E-004  0.9507589E+02  0.7546771E-02  0.1291399E+00
         -1   -1    0    0    0  501 -0.00000000000E+00  0.00000000000E+00  0.40896782998E+02  0.40896782998E+02  0.00000000000E+00 0.  1.
          1   -1    0    0  501    0  0.00000000000E+00 -0.00000000000E+00 -0.23674863067E+03  0.23674863067E+03  0.00000000000E+00 0. -1.
         23    2    1    2    0    0  0.19822721959E+02  0.35651246645E-02 -0.60694421758E+02  0.11279732932E+03  0.92986474025E+02 0.  0.
         23    2    1    2    0    0 -0.19822721959E+02 -0.35651246645E-02 -0.13515742592E+03  0.16484808435E+03  0.92273619272E+02 0.  0.
          5    1    4    4  502    0 -0.47135060943E+02  0.21040482271E+02 -0.46602657713E+02  0.69701603785E+02  0.47000000000E+01 0. -1.
         -5    1    4    4    0  502  0.27312338984E+02 -0.21044047395E+02 -0.88554768205E+02  0.95146480562E+02  0.47000000000E+01 0.  1.
          5    1    3    3  503    0  0.51349095990E+02 -0.85318092757E+00 -0.62294131377E+02  0.80870924199E+02  0.47000000000E+01 0. -1.
         -5    1    3    3    0  503 -0.31526374031E+02  0.85674605223E+00  0.15997096196E+01  0.31926405125E+02  0.47000000000E+01 0.  1.
<mgrwt>
<rscale>  0 0.94901140E+02</rscale>
<asrwt>0</asrwt>
<pdfrwt beam="1">  1        1 0.36422866E-01 0.95075889E+02</pdfrwt>
<pdfrwt beam="2">  1       -1 0.62918129E-02 0.95075889E+02</pdfrwt>
<totfact> 0.13361739E+04</totfact>
</mgrwt>
</event>
<event>
 8    1  0.3177960E-004  0.1364672E+03  0.7546771E-02  0.1218602E+00
         -1   -1    0    0    0  501 -0.00000000000E+00  0.00000000000E+00  0.25386388800E+03  0.25386388800E+03  0.00000000000E+00 0.  1.
          1   -1    0    0  501    0  0.00000000000E+00 -0.00000000000E+00 -0.15030181330E+03  0.15030181330E+03  0.00000000000E+00 0. -1.
         23    2    1    2    0    0 -0.41198071755E+02 -0.91798798787E+02 -0.93552432985E+02  0.16442118912E+03  0.90321476613E+02 0.  0.
         23    2    1    2    0    0  0.41198071755E+02  0.91798798787E+02  0.19711450768E+03  0.23974451219E+03  0.92190028795E+02 0.  0.
          5    1    4    4  502    0  0.22702508039E+02 -0.11850810492E+02  0.17108585351E+02  0.31155084228E+02  0.47000000000E+01 0. -1.
         -5    1    4    4    0  502  0.18495563716E+02  0.10364960928E+03  0.18000592233E+03  0.20858942796E+03  0.47000000000E+01 0.  1.
          5    1    3    3  503    0 -0.54733002158E+01 -0.49340722036E+02 -0.96536081755E+02  0.10865435540E+03  0.47000000000E+01 0. -1.
         -5    1    3    3    0  503 -0.35724771539E+02 -0.42458076751E+02  0.29836487700E+01  0.55766833718E+02  0.47000000000E+01 0.  1.
<mgrwt>
<rscale>  0 0.13615231E+03</rscale>
<asrwt>0</asrwt>
<pdfrwt beam="1">  1        1 0.23123356E-01 0.13646722E+03</pdfrwt>
<pdfrwt beam="2">  1       -1 0.39055983E-01 0.13646722E+03</pdfrwt>
<totfact> 0.13406236E+03</totfact>
</mgrwt>
</event>
<event>
 8    1  0.3177960E-004  0.9668481E+02  0.7546771E-02  0.1291014E+00
         -1   -1    0    0    0  501 -0.00000000000E+00  0.00000000000E+00  0.21167460443E+03  0.21167460443E+03  0.00000000000E+00 0.  1.
          1   -1    0    0  501    0  0.00000000000E+00 -0.00000000000E+00 -0.51633897886E+02  0.51633897886E+02  0.00000000000E+00 0. -1.
         23    2    1    2    0    0  0.29703906403E+02 -0.11202617171E+02  0.13663762131E+03  0.16383158909E+03  0.84635272437E+02 0.  0.
         23    2    1    2    0    0 -0.29703906403E+02  0.11202617171E+02  0.23403085239E+02  0.99476913227E+02  0.91324318664E+02 0.  0.
          5    1    4    4  502    0 -0.51388582916E+02  0.17645612795E+02 -0.13274236369E+02  0.56128864732E+02  0.47000000000E+01 0. -1.
         -5    1    3    3    0  503  0.38992385730E+02 -0.41609438748E+02  0.75171956180E+02  0.94470442646E+02  0.47000000000E+01 0.  1.
          5    1    3    3  503    0 -0.92884793269E+01  0.30406821576E+02  0.61465665130E+02  0.69361146447E+02  0.47000000000E+01 0. -1.
         -5    1    4    4    0  502  0.21684676512E+02 -0.64429956236E+01  0.36677321607E+02  0.43348048495E+02  0.47000000000E+01 0.  1.
<mgrwt>
<rscale>  0 0.95072025E+02</rscale>
<asrwt>0</asrwt>
<pdfrwt beam="1">  1        1 0.79436767E-02 0.96684807E+02</pdfrwt>
<pdfrwt beam="2">  1       -1 0.32565323E-01 0.96684807E+02</pdfrwt>
<totfact> 0.71649742E+03</totfact>
</mgrwt>
</event>
<event>
 8    1  0.3177960E-004  0.1054244E+03  0.7546771E-02  0.1273439E+00
          1   -1    0    0  501    0  0.00000000000E+00  0.00000000000E+00  0.26211671997E+02  0.26211671997E+02  0.00000000000E+00 0. -1.
         -1   -1    0    0    0  501 -0.00000000000E+00 -0.00000000000E+00 -0.40617333103E+03  0.40617333103E+03  0.00000000000E+00 0.  1.
         23    2    1    2    0    0  0.51149262018E+02 -0.17763133949E+01 -0.22299922027E+03  0.24330430321E+03  0.82758258947E+02 0.  0.
         23    2    1    2    0    0 -0.51149262018E+02  0.17763133949E+01 -0.15696243876E+03  0.18908069982E+03  0.92167790294E+02 0.  0.
          5    1    3    3  502    0  0.59009255789E+02 -0.30465892411E+02 -0.14036792082E+03  0.15535606221E+03  0.47000000000E+01 0. -1.
         -5    1    4    4    0  503 -0.43544430165E+02  0.20979178825E+02 -0.16042809378E+03  0.16761714296E+03  0.47000000000E+01 0.  1.
          5    1    4    4  503    0 -0.76048318530E+01 -0.19202865430E+02  0.34656550139E+01  0.21463556856E+02  0.47000000000E+01 0. -1.
         -5    1    3    3    0  502 -0.78599937713E+01  0.28689579016E+02 -0.82631299449E+02  0.87948240999E+02  0.47000000000E+01 0.  1.
<mgrwt>
<rscale>  0 0.10333324E+03</rscale>
<asrwt>0</asrwt>
<pdfrwt beam="1">  1        1 0.40325653E-02 0.10542440E+03</pdfrwt>
<pdfrwt beam="2">  1       -1 0.62488199E-01 0.10542440E+03</pdfrwt>
<totfact> 0.56353329E+03</totfact>
</mgrwt>
</event>
<event>
 8    1  0.3177960E-004  0.9841510E+02  0.7546771E-02  0.1285656E+00
          3   -1    0    0  501    0  0.00000000000E+00  0.00000000000E+00  0.19615539600E+03  0.19615539600E+03  0.00000000000E+00 0. -1.
         -3   -1    0    0    0  501 -0.00000000000E+00 -0.00000000000E+00 -0.62984228985E+02  0.62984228985E+02  0.00000000000E+00 0.  1.
         23    2    1    2    0    0 -0.15769076939E+02 -0.31143688652E+02  0.15504662634E+01  0.94793826045E+02  0.88118513266E+02 0.  0.
         23    2    1    2    0    0  0.15769076939E+02  0.31143688652E+02  0.13162070075E+03  0.16434579894E+03  0.92015974876E+02 0.  0.
          5    1    4    4  502    0 -0.25216369606E+02  0.46022728129E+02  0.55719365478E+02  0.76685686342E+02  0.47000000000E+01 0. -1.
         -5    1    4    4    0  502  0.40985446545E+02 -0.14879039477E+02  0.75901335272E+02  0.87660112596E+02  0.47000000000E+01 0.  1.
          5    1    3    3  503    0 -0.41109730643E+02 -0.39100285669E+02  0.21909642446E+02  0.60999710861E+02  0.47000000000E+01 0. -1.
         -5    1    3    3    0  503  0.25340653704E+02  0.79565970172E+01 -0.20359176182E+02  0.33794115184E+02  0.47000000000E+01 0.  1.
<mgrwt>
<rscale>  0 0.97493757E+02</rscale>
<asrwt>0</asrwt>
<pdfrwt beam="1">  1        3 0.30177753E-01 0.98415104E+02</pdfrwt>
<pdfrwt beam="2">  1       -3 0.96898815E-02 0.98415104E+02</pdfrwt>
<totfact> 0.17857785E+03</totfact>
</mgrwt>
</event>
<event>
 8    1  0.3177960E-004  0.9397686E+02  0.7546771E-02  0.1293509E+00
          1   -1    0    0  501    0  0.00000000000E+00  0.00000000000E+00  0.67286721453E+03  0.67286721453E+03  0.00000000000E+00 0. -1.
         -1   -1    0    0    0  501 -0.00000000000E+00 -0.00000000000E+00 -0.44063037412E+02  0.44063037412E+02  0.00000000000E+00 0.  1.
         23    2    1    2    0    0  0.15234088945E+02  0.17451068270E+02  0.61477367995E+03  0.62191180328E+03  0.91054907861E+02 0.  0.
         23    2    1    2    0    0 -0.15234088945E+02 -0.17451068270E+02  0.14030497170E+02  0.95018448668E+02  0.91077074430E+02 0.  0.
          5    1    4    4  502    0  0.31945781776E+02 -0.23366644718E+02 -0.10627491917E+02  0.41250050219E+02  0.47000000000E+01 0. -1.
         -5    1    3    3    0  503  0.50562253227E+02  0.18081152066E+02  0.45664387555E+03  0.45981429794E+03  0.47000000000E+01 0. -1.
          5    1    3    3  503    0 -0.35328164283E+02 -0.63008379634E+00  0.15812980440E+03  0.16209750533E+03  0.47000000000E+01 0.  1.
         -5    1    4    4    0  502 -0.47179870721E+02  0.59155764483E+01  0.24657989087E+02  0.53768398449E+02  0.47000000000E+01 0.  1.
<mgrwt>
<rscale>  0 0.93971492E+02</rscale>
<asrwt>0</asrwt>
<pdfrwt beam="1">  1        1 0.10351803E+00 0.93976863E+02</pdfrwt>
<pdfrwt beam="2">  1       -1 0.67789293E-02 0.93976863E+02</pdfrwt>
<totfact> 0.31896628E+03</totfact>
</mgrwt>
</event>
<event>
 8    1  0.3177960E-004  0.9638852E+02  0.7546771E-02  0.1290188E+00
          2   -1    0    0  501    0  0.00000000000E+00  0.00000000000E+00  0.36501099096E+03  0.36501099096E+03  0.00000000000E+00 0. -1.
         -2   -1    0    0    0  501 -0.00000000000E+00 -0.00000000000E+00 -0.24508019714E+02  0.24508019714E+02  0.00000000000E+00 0.  1.
         23    2    1    2    0    0  0.27548336680E+02  0.14124488865E+02  0.18069051850E+03  0.20479211454E+03  0.91281622812E+02 0.  0.
         23    2    1    2    0    0 -0.27548336680E+02 -0.14124488865E+02  0.15981245274E+03  0.18472689613E+03  0.87324647506E+02 0.  0.
          5    1    4    4  502    0 -0.52945890020E+02  0.46796998894E+01  0.13196698191E+03  0.14234655309E+03  0.47000000000E+01 0. -1.
         -5    1    4    4    0  502  0.25397553340E+02 -0.18804188754E+02  0.27845470827E+02  0.42380343037E+02  0.47000000000E+01 0.  1.
          5    1    3    3  503    0 -0.15830868831E+02  0.41415379429E+02  0.92457176230E+02  0.10264633212E+03  0.47000000000E+01 0. -1.
         -5    1    3    3    0  503  0.43379205511E+02 -0.27290890564E+02  0.88233342273E+02  0.10214578242E+03  0.47000000000E+01 0.  1.
<mgrwt>
<rscale>  0 0.95439957E+02</rscale>
<asrwt>0</asrwt>
<pdfrwt beam="1">  1        2 0.56155533E-01 0.96388520E+02</pdfrwt>
<pdfrwt beam="2">  1       -2 0.37704648E-02 0.96388520E+02</pdfrwt>
<totfact> 0.23913695E+04</totfact>
</mgrwt>
</event>
<event>
 7    1  0.3177960E-004  0.1449923E+03  0.7546771E-02  0.1224751E+00
         -1   -1    0    0    0  501 -0.00000000000E+00  0.00000000000E+00  0.41555371587E+03  0.41555371587E+03  0.00000000000E+00 0.  1.
          1   -1    0    0  501    0  0.00000000000E+00 -0.00000000000E+00 -0.54727752809E+02  0.54727752809E+02  0.00000000000E+00 0. -1.
         23    2    1    2    0    0  0.87552004880E+01 -0.37263045621E+02  0.29470066364E+03  0.31092240026E+03  0.91427948272E+02 0.  0.
          5    1    1    2  502    0  0.39965734731E+02  0.72990659333E+02  0.47640635687E+02  0.96003210734E+02  0.47000000000E+01 0. -1.
         -5    1    3    3    0  503 -0.23700558924E+02 -0.52220986454E+02  0.22751799352E+03  0.23468122059E+03  0.47000000000E+01 0.  1.
          5    1    3    3  503    0  0.32455759412E+02  0.14957940832E+02  0.67182670120E+02  0.76241179670E+02  0.47000000000E+01 0. -1.
         -5    1    1    2    0  502 -0.48720935220E+02 -0.35727613712E+02  0.18484663731E+02  0.63355857688E+02  0.47000000000E+01 0.  1.
<mgrwt>
<rscale>  0 0.13183967E+03</rscale>
<asrwt>0</asrwt>
<pdfrwt beam="1">  1        1 0.84196545E-02 0.14499227E+03</pdfrwt>
<pdfrwt beam="2">  1       -1 0.63931339E-01 0.14499227E+03</pdfrwt>
<totfact> 0.20286455E+03</totfact>
</mgrwt>
</event>
<event>
 8    1  0.3177960E-004  0.9844352E+02  0.7546771E-02  0.1286428E+00
          3   -1    0    0  501    0  0.00000000000E+00  0.00000000000E+00  0.10097409078E+03  0.10097409078E+03  0.00000000000E+00 0. -1.
         -3   -1    0    0    0  501 -0.00000000000E+00 -0.00000000000E+00 -0.10332795351E+03  0.10332795351E+03  0.00000000000E+00 0.  1.
         23    2    1    2    0    0  0.20033990662E+02  0.50652399662E+01 -0.36394991428E+02  0.10495581130E+03  0.96250244092E+02 0.  0.
         23    2    1    2    0    0 -0.20033990662E+02 -0.50652399662E+01  0.34041128696E+02  0.99346232987E+02  0.91015702646E+02 0.  0.
          5    1    3    3  502    0  0.25476136483E+02 -0.37289739763E+02  0.45188017727E+01  0.45629681033E+02  0.47000000000E+01 0. -1.
         -5    1    4    4    0  503  0.98214295472E+01  0.31374248642E+02 -0.10003757051E+02  0.34683845106E+02  0.47000000000E+01 0.  1.
          5    1    4    4  503    0 -0.29855420209E+02 -0.36439488609E+02  0.44044885747E+02  0.64662387881E+02  0.47000000000E+01 0. -1.
         -5    1    3    3    0  502 -0.54421458205E+01  0.42354979729E+02 -0.40913793201E+02  0.59326130272E+02  0.47000000000E+01 0.  1.
<mgrwt>
<rscale>  0 0.97139996E+02</rscale>
<asrwt>0</asrwt>
<pdfrwt beam="1">  1        3 0.15534475E-01 0.98443522E+02</pdfrwt>
<pdfrwt beam="2">  1       -3 0.15896608E-01 0.98443522E+02</pdfrwt>
<totfact> 0.25232203E+03</totfact>
</mgrwt>
</event>
<event>
 8    1  0.3177960E-004  0.1073258E+03  0.7546771E-02  0.1265689E+00
          2   -1    0    0  501    0  0.00000000000E+00  0.00000000000E+00  0.11557429538E+04  0.11557429538E+04  0.00000000000E+00 0. -1.
         -2   -1    0    0    0  501 -0.00000000000E+00 -0.00000000000E+00 -0.18130034966E+02  0.18130034966E+02  0.00000000000E+00 0.  1.
         23    2    1    2    0    0  0.52691271683E+02 -0.20077844400E+02  0.17481953771E+03  0.20513581736E+03  0.91320002479E+02 0.  0.
         23    2    1    2    0    0 -0.52691271683E+02  0.20077844400E+02  0.96279338108E+03  0.96873717136E+03  0.91110496500E+02 0.  0.
          5    1    3    3  502    0  0.23127876905E+02  0.39653116572E+01  0.16330847052E+03  0.16505262473E+03  0.47000000000E+01 0. -1.
         -5    1    4    4    0  503  0.10596595435E+02 -0.26109859503E+02  0.23975788856E+03  0.24145382111E+03  0.47000000000E+01 0.  1.
          5    1    4    4  503    0 -0.63287867118E+02  0.46187703903E+02  0.72303549252E+03  0.72728335025E+03  0.47000000000E+01 0. -1.
         -5    1    3    3    0  502  0.29563394778E+02 -0.24043156058E+02  0.11511067193E+02  0.40083192636E+02  0.47000000000E+01 0.  1.
<mgrwt>
<rscale>  0 0.10728125E+03</rscale>
<asrwt>0</asrwt>
<pdfrwt beam="1">  1        2 0.17780655E+00 0.10732583E+03</pdfrwt>
<pdfrwt beam="2">  1       -2 0.27892371E-02 0.10732583E+03</pdfrwt>
<totfact> 0.95705762E+03</totfact>
</mgrwt>
</event>
<event>
 8    1  0.3177960E-004  0.9473100E+02  0.7546771E-02  0.1292460E+00
         -3   -1    0    0    0  501 -0.00000000000E+00  0.00000000000E+00  0.10822029452E+03  0.10822029452E+03  0.00000000000E+00 0.  1.
          3   -1    0    0  501    0  0.00000000000E+00 -0.00000000000E+00 -0.10402545487E+03  0.10402545487E+03  0.00000000000E+00 0. -1.
         23    2    1    2    0    0 -0.12160118774E+02  0.24286394499E+02 -0.46850568248E+02  0.10568319946E+03  0.90753872952E+02 0.  0.
         23    2    1    2    0    0  0.12160118774E+02 -0.24286394499E+02  0.51045407904E+02  0.10656254993E+03  0.89511149772E+02 0.  0.
          5    1    4    4  502    0  0.29807741974E+02 -0.40347513231E+01 -0.15849236807E+02  0.34323009879E+02  0.47000000000E+01 0. -1.
         -5    1    4    4    0  502 -0.17647623200E+02 -0.20251643176E+02  0.66894644711E+02  0.72239540052E+02  0.47000000000E+01 0.  1.
          5    1    3    3  503    0  0.28130780511E+02 -0.72892798207E+01 -0.45583645120E+02  0.54262630925E+02  0.47000000000E+01 0. -1.
         -5    1    3    3    0  503 -0.40290899284E+02  0.31575674320E+02 -0.12669231282E+01  0.51420568531E+02  0.47000000000E+01 0.  1.
<mgrwt>
<rscale>  0 0.94432124E+02</rscale>
<asrwt>0</asrwt>
<pdfrwt beam="1">  1        3 0.16003916E-01 0.94731003E+02</pdfrwt>
<pdfrwt beam="2">  1       -3 0.16649276E-01 0.94731003E+02</pdfrwt>
<totfact> 0.21990451E+03</totfact>
</mgrwt>
</event>
<event>
 8    1  0.3177960E-004  0.1134997E+03  0.7546771E-02  0.1254274E+00
         -1   -1    0    0    0  501 -0.00000000000E+00  0.00000000000E+00  0.16672465849E+02  0.16672465849E+02  0.00000000000E+00 0.  1.
          1   -1    0    0  501    0  0.00000000000E+00 -0.00000000000E+00 -0.12196624105E+04  0.12196624105E+04  0.00000000000E+00 0. -1.
         23    2    1    2    0    0 -0.12391834924E+02 -0.67778980890E+02 -0.22673744891E+03  0.25350675113E+03  0.90045845574E+02 0.  0.
         23    2    1    2    0    0  0.12391834924E+02  0.67778980890E+02 -0.97625249572E+03  0.98282812520E+03  0.90192241712E+02 0.  0.
          5    1    3    3  502    0  0.77372281766E+01  0.20063075148E+02 -0.60091928975E+02  0.63996262486E+02  0.47000000000E+01 0. -1.
         -5    1    4    4    0  503  0.48357415337E+02  0.58329479436E+02 -0.67306103534E+03  0.67732858723E+03  0.47000000000E+01 0.  1.
          5    1    4    4  503    0 -0.35965580413E+02  0.94495014543E+01 -0.30319146038E+03  0.30549953797E+03  0.47000000000E+01 0. -1.
         -5    1    3    3    0  502 -0.20129063100E+02 -0.87842056038E+02 -0.16664551994E+03  0.18951048864E+03  0.47000000000E+01 0.  1.
<mgrwt>
<rscale>  0 0.11347064E+03</rscale>
<asrwt>0</asrwt>
<pdfrwt beam="1">  1        1 0.18764043E+00 0.11349973E+03</pdfrwt>
<pdfrwt beam="2">  1       -1 0.25649939E-02 0.11349973E+03</pdfrwt>
<totfact> 0.51303009E+03</totfact>
</mgrwt>
</event>
<event>
 8    1  0.3177960E-004  0.1358362E+03  0.7546771E-02  0.1223379E+00
          2   -1    0    0  501    0  0.00000000000E+00  0.00000000000E+00  0.46319509097E+03  0.46319509097E+03  0.00000000000E+00 0. -1.
         -2   -1    0    0    0  501 -0.00000000000E+00 -0.00000000000E+00 -0.37685630192E+02  0.37685630192E+02  0.00000000000E+00 0.  1.
         23    2    1    2    0    0 -0.42497983444E+02 -0.63131367617E+02  0.15813834621E+03  0.20098274838E+03  0.97952439641E+02 0.  0.
         23    2    1    2    0    0  0.42497983444E+02  0.63131367617E+02  0.26737111457E+03  0.29989797278E+03  0.11251592330E+03 0.  0.
          5    1    4    4  502    0  0.57949394285E+02 -0.98452551201E+00  0.18696095788E+03  0.19579476847E+03  0.47000000000E+01 0. -1.
         -5    1    4    4    0  502 -0.15451410841E+02  0.64115893130E+02  0.80410156690E+02  0.10410320431E+03  0.47000000000E+01 0.  1.
          5    1    3    3  503    0 -0.17489579861E+02 -0.80226766647E+02  0.14685375744E+03  0.16831617737E+03  0.47000000000E+01 0. -1.
         -5    1    3    3    0  503 -0.25008403584E+02  0.17095399029E+02  0.11284588762E+02  0.32666571006E+02  0.47000000000E+01 0.  1.
<mgrwt>
<rscale>  0 0.13278640E+03</rscale>
<asrwt>0</asrwt>
<pdfrwt beam="1">  1        2 0.71260779E-01 0.13583623E+03</pdfrwt>
<pdfrwt beam="2">  1       -2 0.57977896E-02 0.13583623E+03</pdfrwt>
<totfact> 0.10068715E+04</totfact>
</mgrwt>
</event>
<event>
 8    1  0.3177960E-004  0.9372797E+02  0.7546771E-02  0.1294088E+00
          1   -1    0    0  501    0  0.00000000000E+00  0.00000000000E+00  0.45242993188E+03  0.45242993188E+03  0.00000000000E+00 0. -1.
         -1   -1    0    0    0  501 -0.00000000000E+00 -0.00000000000E+00 -0.29783755928E+02  0.29783755928E+02  0.00000000000E+00 0.  1.
         23    2    1    2    0    0 -0.87141444526E+01  0.13667191284E+02  0.35364782350E+03  0.36585750680E+03  0.92315782938E+02 0.  0.
         23    2    1    2    0    0  0.87141444526E+01 -0.13667191284E+02  0.68998352449E+02  0.11635618101E+03  0.92278165281E+02 0.  0.
          5    1    4    4  502    0  0.46076451227E+02 -0.64194169887E+01  0.61542022708E+02  0.77290095298E+02  0.47000000000E+01 0. -1.
         -5    1    4    4    0  502 -0.37362306775E+02 -0.72477742953E+01  0.74563297411E+01  0.39066085713E+02  0.47000000000E+01 0.  1.
          5    1    3    3  503    0 -0.20171087449E+02 -0.35103788259E+02  0.20227241901E+03  0.20633799992E+03  0.47000000000E+01 0. -1.
         -5    1    3    3    0  503  0.11456942996E+02  0.48770979543E+02  0.15137540450E+03  0.15951950688E+03  0.47000000000E+01 0.  1.
<mgrwt>
<rscale>  0 0.93718705E+02</rscale>
<asrwt>0</asrwt>
<pdfrwt beam="1">  1        1 0.69604600E-01 0.93727969E+02</pdfrwt>
<pdfrwt beam="2">  1       -1 0.45821166E-02 0.93727969E+02</pdfrwt>
<totfact> 0.95725068E+03</totfact>
</mgrwt>
</event>
<event>
 8    1  0.3177960E-004  0.1003713E+03  0.7546771E-02  0.1283205E+00
          2   -1    0    0  501    0  0.00000000000E+00  0.00000000000E+00  0.70644798535E+03  0.70644798535E+03  0.00000000000E+00 0. -1.
         -2   -1    0    0    0  501 -0.00000000000E+00 -0.00000000000E+00 -0.13770898394E+02  0.13770898394E+02  0.00000000000E+00 0.  1.
         23    2    1    2    0    0 -0.16766430699E+02 -0.97097724227E+01  0.26895525314E+03  0.28477132051E+03  0.91555359827E+02 0.  0.
         23    2    1    2    0    0  0.16766430699E+02  0.97097724227E+01  0.42372183382E+03  0.43544756324E+03  0.98483475763E+02 0.  0.
          5    1    3    3  502    0 -0.47719154224E+02 -0.15254543631E+02  0.90882059559E+02  0.10388194035E+03  0.47000000000E+01 0. -1.
         -5    1    3    3    0  502  0.30952723526E+02  0.55447712084E+01  0.17807319358E+03  0.18088938016E+03  0.47000000000E+01 0.  1.
          5    1    4    4  503    0 -0.39991205099E+02  0.15416509790E+02  0.18607287916E+03  0.19100306704E+03  0.47000000000E+01 0. -1.
         -5    1    4    4    0  503  0.56757635798E+02 -0.57067373674E+01  0.23764895465E+03  0.24444449619E+03  0.47000000000E+01 0.  1.
<mgrwt>
<rscale>  0 0.98629364E+02</rscale>
<asrwt>0</asrwt>
<pdfrwt beam="1">  1        2 0.10868428E+00 0.10037125E+03</pdfrwt>
<pdfrwt beam="2">  1       -2 0.21186003E-02 0.10037125E+03</pdfrwt>
<totfact> 0.26952381E+04</totfact>
</mgrwt>
</event>
<event>
 8    1  0.3177960E-004  0.9161160E+02  0.7546771E-02  0.1305090E+00
          2   -1    0    0  501    0  0.00000000000E+00  0.00000000000E+00  0.24245489164E+03  0.24245489164E+03  0.00000000000E+00 0. -1.
         -2   -1    0    0    0  501 -0.00000000000E+00 -0.00000000000E+00 -0.33338258091E+02  0.33338258091E+02  0.00000000000E+00 0.  1.
         23    2    1    2    0    0  0.28995926066E+01  0.16461826219E+01  0.13522672243E+03  0.15809690942E+03  0.81836720078E+02 0.  0.
         23    2    1    2    0    0 -0.28995926066E+01 -0.16461826219E+01  0.73889911121E+02  0.11769624032E+03  0.91550906411E+02 0.  0.
          5    1    4    4  502    0 -0.23937979172E+02  0.16731709126E+01  0.88254878603E+02  0.91579691771E+02  0.47000000000E+01 0. -1.
         -5    1    4    4    0  502  0.21038386565E+02 -0.33193535345E+01 -0.14364967482E+02  0.26116548545E+02  0.47000000000E+01 0.  1.
          5    1    3    3  503    0 -0.30174757397E+02 -0.48006875873E+01  0.17437755713E+02  0.35492645852E+02  0.47000000000E+01 0. -1.
         -5    1    3    3    0  503  0.33074350004E+02  0.64468702092E+01  0.11778896672E+03  0.12260426357E+03  0.47000000000E+01 0.  1.
<mgrwt>
<rscale>  0 0.89082001E+02</rscale>
<asrwt>0</asrwt>
<pdfrwt beam="1">  1        2 0.37300752E-01 0.91611604E+02</pdfrwt>
<pdfrwt beam="2">  1       -2 0.51289629E-02 0.91611604E+02</pdfrwt>
<totfact> 0.23173408E+04</totfact>
</mgrwt>
</event>
<event>
 8    1  0.3177960E-004  0.9536897E+02  0.7546771E-02  0.1290953E+00
          1   -1    0    0  501    0  0.00000000000E+00  0.00000000000E+00  0.14284867552E+03  0.14284867552E+03  0.00000000000E+00 0. -1.
         -1   -1    0    0    0  501 -0.00000000000E+00 -0.00000000000E+00 -0.89543932395E+02  0.89543932395E+02  0.00000000000E+00 0.  1.
         23    2    1    2    0    0 -0.20755533471E+02  0.19246305065E+02 -0.36558800733E+02  0.10213611375E+03  0.91071550946E+02 0.  0.
         23    2    1    2    0    0  0.20755533471E+02 -0.19246305065E+02  0.89863543859E+02  0.13025649417E+03  0.89944901634E+02 0.  0.
          5    1    4    4  502    0 -0.81380268461E+01 -0.35595293062E+02  0.27551569211E+01  0.36917925981E+02  0.47000000000E+01 0. -1.
         -5    1    3    3    0  503  0.26330140337E+02  0.22268054926E+01 -0.43761002945E+02  0.51335663350E+02  0.47000000000E+01 0.  1.
          5    1    3    3  503    0 -0.47085673809E+02  0.17019499572E+02  0.72022022116E+01  0.50800450396E+02  0.47000000000E+01 0. -1.
         -5    1    4    4    0  502  0.28893560317E+02  0.16348987997E+02  0.87108386938E+02  0.93338568187E+02  0.47000000000E+01 0.  1.
<mgrwt>
<rscale>  0 0.95099000E+02</rscale>
<asrwt>0</asrwt>
<pdfrwt beam="1">  1        1 0.21976719E-01 0.95368967E+02</pdfrwt>
<pdfrwt beam="2">  1       -1 0.13775990E-01 0.95368967E+02</pdfrwt>
<totfact> 0.76527057E+03</totfact>
</mgrwt>
</event>
<event>
 8    1  0.3177960E-004  0.9504474E+02  0.7546771E-02  0.1293163E+00
          1   -1    0    0  501    0  0.00000000000E+00  0.00000000000E+00  0.16439511371E+02  0.16439511371E+02  0.00000000000E+00 0. -1.
         -1   -1    0    0    0  501 -0.00000000000E+00 -0.00000000000E+00 -0.56006527927E+03  0.56006527927E+03  0.00000000000E+00 0.  1.
         23    2    1    2    0    0  0.22232289298E+01  0.27027538490E+02 -0.33502104345E+03  0.34726815635E+03  0.87296290146E+02 0.  0.
         23    2    1    2    0    0 -0.22232289298E+01 -0.27027538490E+02 -0.20860472445E+03  0.22923663429E+03  0.91093758609E+02 0.  0.
          5    1    3    3  502    0 -0.13511931695E+02  0.51122313837E+02 -0.13381854824E+03  0.14396373545E+03  0.47000000000E+01 0. -1.
         -5    1    3    3    0  502  0.15735160625E+02 -0.24094775347E+02 -0.20120249521E+03  0.20330442090E+03  0.47000000000E+01 0.  1.
          5    1    4    4  503    0  0.35856214245E+02 -0.35947561760E+02 -0.15160170285E+03  0.15994705875E+03  0.47000000000E+01 0.  1.
         -5    1    4    4    0  503 -0.38079443175E+02  0.89200232697E+01 -0.57003021594E+02  0.69289575540E+02  0.47000000000E+01 0. -1.
<mgrwt>
<rscale>  0 0.94123129E+02</rscale>
<asrwt>0</asrwt>
<pdfrwt beam="1">  1        1 0.25291555E-02 0.95044744E+02</pdfrwt>
<pdfrwt beam="2">  1       -1 0.86163892E-01 0.95044744E+02</pdfrwt>
<totfact> 0.55976589E+03</totfact>
</mgrwt>
</event>
<event>
 8    1  0.3177960E-004  0.2978506E+03  0.7546771E-02  0.1086343E+00
         -2   -1    0    0    0  501 -0.00000000000E+00  0.00000000000E+00  0.10051272325E+03  0.10051272325E+03  0.00000000000E+00 0.  1.
          2   -1    0    0  501    0  0.00000000000E+00 -0.00000000000E+00 -0.16222366406E+04  0.16222366406E+04  0.00000000000E+00 0. -1.
         23    2    1    2    0    0  0.25625226938E+03  0.12122349022E+03 -0.17916004618E+03  0.34758204516E+03  0.91403478202E+02 0.  0.
         23    2    1    2    0    0 -0.25625226938E+03 -0.12122349022E+03 -0.13425638712E+04  0.13751673187E+04  0.90813248555E+02 0.  0.
          5    1    4    4  502    0 -0.18556947484E+03 -0.12465688785E+03 -0.10975506397E+04  0.11200959184E+04  0.47000000000E+01 0. -1.
         -5    1    4    4    0  502 -0.70682794540E+02  0.34333976358E+01 -0.24501323146E+03  0.25507140031E+03  0.47000000000E+01 0.  1.
          5    1    3    3  503    0  0.11594817959E+03  0.40882220906E+02 -0.12893204422E+03  0.17821587573E+03  0.47000000000E+01 0. -1.
         -5    1    3    3    0  503  0.14030408978E+03  0.80341269312E+02 -0.50228001965E+02  0.16936616942E+03  0.47000000000E+01 0.  1.
<mgrwt>
<rscale>  0 0.29780540E+03</rscale>
<asrwt>0</asrwt>
<pdfrwt beam="1">  1        2 0.24957487E+00 0.29785056E+03</pdfrwt>
<pdfrwt beam="2">  1       -2 0.15463496E-01 0.29785056E+03</pdfrwt>
<totfact> 0.38231405E+02</totfact>
</mgrwt>
</event>
<event>
 8    1  0.3177960E-004  0.1245816E+03  0.7546771E-02  0.1236031E+00
         -1   -1    0    0    0  501 -0.00000000000E+00  0.00000000000E+00  0.27064228132E+02  0.27064228132E+02  0.00000000000E+00 0.  1.
          1   -1    0    0  501    0  0.00000000000E+00 -0.00000000000E+00 -0.76160097682E+03  0.76160097682E+03  0.00000000000E+00 0. -1.
         23    2    1    2    0    0  0.79789858749E+02 -0.28006856220E+02 -0.56424642579E+03  0.57766908732E+03  0.90425327588E+02 0.  0.
         23    2    1    2    0    0 -0.79789858749E+02  0.28006856220E+02 -0.17029032290E+03  0.21099611764E+03  0.91486403526E+02 0.  0.
          5    1    3    3  502    0  0.20895683467E+02  0.23142595054E+02 -0.63898519578E+02  0.71255316277E+02  0.47000000000E+01 0.  1.
         -5    1    4    4    0  503 -0.40508969050E+02  0.11242297768E+02 -0.79199271337E+01  0.43036973388E+02  0.47000000000E+01 0.  1.
          5    1    4    4  503    0 -0.39280889698E+02  0.16764558452E+02 -0.16237039577E+03  0.16795914425E+03  0.47000000000E+01 0. -1.
         -5    1    3    3    0  502  0.58894175281E+02 -0.51149451275E+02 -0.50034790621E+03  0.50641377104E+03  0.47000000000E+01 0. -1.
<mgrwt>
<rscale>  0 0.12438684E+03</rscale>
<asrwt>0</asrwt>
<pdfrwt beam="1">  1        1 0.11716939E+00 0.12458157E+03</pdfrwt>
<pdfrwt beam="2">  1       -1 0.41637272E-02 0.12458157E+03</pdfrwt>
<totfact> 0.55542977E+03</totfact>
</mgrwt>
</event>
<event>
 8    1  0.3177960E-004  0.1020870E+03  0.7546771E-02  0.1276461E+00
         -2   -1    0    0    0  501 -0.00000000000E+00  0.00000000000E+00  0.18349220925E+02  0.18349220925E+02  0.00000000000E+00 0.  1.
          2   -1    0    0  501    0  0.00000000000E+00 -0.00000000000E+00 -0.83051392219E+03  0.83051392219E+03  0.00000000000E+00 0. -1.
         23    2    1    2    0    0  0.34525482661E+02 -0.29621833331E+02 -0.64582806473E+03  0.65369748031E+03  0.90316358449E+02 0.  0.
         23    2    1    2    0    0 -0.34525482661E+02  0.29621833331E+02 -0.16633663653E+03  0.19516566280E+03  0.91390903936E+02 0.  0.
          5    1    4    4  502    0 -0.40685091908E+02 -0.19756477157E+02 -0.45165945025E+02  0.64090932926E+02  0.47000000000E+01 0. -1.
         -5    1    3    3    0  503  0.93593692225E+01  0.32149691906E+02 -0.18882188229E+03  0.19182542510E+03  0.47000000000E+01 0.  1.
          5    1    3    3  503    0  0.25166113439E+02 -0.61771525237E+02 -0.45700618244E+03  0.46187205521E+03  0.47000000000E+01 0. -1.
         -5    1    4    4    0  502  0.61596092469E+01  0.49378310488E+02 -0.12117069150E+03  0.13107472987E+03  0.47000000000E+01 0.  1.
<mgrwt>
<rscale>  0 0.10184596E+03</rscale>
<asrwt>0</asrwt>
<pdfrwt beam="1">  1        2 0.12777138E+00 0.10208702E+03</pdfrwt>
<pdfrwt beam="2">  1       -2 0.28229568E-02 0.10208702E+03</pdfrwt>
<totfact> 0.14645009E+04</totfact>
</mgrwt>
</event>
<event>
 8    1  0.3177960E-004  0.1012836E+03  0.7546771E-02  0.1279592E+00
          1   -1    0    0  501    0  0.00000000000E+00  0.00000000000E+00  0.29238321464E+03  0.29238321464E+03  0.00000000000E+00 0. -1.
         -1   -1    0    0    0  501 -0.00000000000E+00 -0.00000000000E+00 -0.45921366535E+02  0.45921366535E+02  0.00000000000E+00 0.  1.
         23    2    1    2    0    0  0.12517949135E+02  0.35522833764E+02  0.20841208758E+03  0.23010961323E+03  0.89979248068E+02 0.  0.
         23    2    1    2    0    0 -0.12517949135E+02 -0.35522833764E+02  0.38049760525E+02  0.10819496794E+03  0.94020189550E+02 0.  0.
          5    1    4    4  502    0 -0.42848534823E+02  0.23199730853E+01 -0.46371007227E+01  0.43416263251E+02  0.47000000000E+01 0. -1.
         -5    1    3    3    0  503  0.24492128232E+02  0.62316838264E+02  0.15658371860E+03  0.17036373912E+03  0.47000000000E+01 0.  1.
          5    1    3    3  503    0 -0.11974179097E+02 -0.26794004500E+02  0.51828368980E+02  0.59745874111E+02  0.47000000000E+01 0. -1.
         -5    1    4    4    0  502  0.30330585687E+02 -0.37842806849E+02  0.42686861248E+02  0.64778704692E+02  0.47000000000E+01 0.  1.
<mgrwt>
<rscale>  0 0.10033547E+03</rscale>
<asrwt>0</asrwt>
<pdfrwt beam="1">  1        1 0.44982032E-01 0.10128360E+03</pdfrwt>
<pdfrwt beam="2">  1       -1 0.70648258E-02 0.10128360E+03</pdfrwt>
<totfact> 0.87399148E+03</totfact>
</mgrwt>
</event>
<event>
 8    1  0.3177960E-004  0.1017619E+03  0.7546771E-02  0.1277736E+00
          1   -1    0    0  501    0  0.00000000000E+00  0.00000000000E+00  0.88564330538E+02  0.88564330538E+02  0.00000000000E+00 0. -1.
         -1   -1    0    0    0  501 -0.00000000000E+00 -0.00000000000E+00 -0.22038260231E+03  0.22038260231E+03  0.00000000000E+00 0.  1.
         23    2    1    2    0    0 -0.36363468025E+02 -0.13081780825E+02 -0.17261706676E+03  0.19931109051E+03  0.91841299350E+02 0.  0.
         23    2    1    2    0    0  0.36363468025E+02  0.13081780825E+02  0.40798794996E+02  0.10963584233E+03  0.94138416464E+02 0.  0.
          5    1    4    4  502    0 -0.17396946698E+02 -0.23230270486E+02 -0.53493313600E+01  0.29883182014E+02  0.47000000000E+01 0. -1.
         -5    1    4    4    0  502  0.53760414724E+02  0.36312051311E+02  0.46148126356E+02  0.79752660318E+02  0.47000000000E+01 0.  1.
          5    1    3    3  503    0 -0.45112257858E+02 -0.45603751215E+02 -0.96834138129E+02  0.11624869135E+03  0.47000000000E+01 0. -1.
         -5    1    3    3    0  503  0.87487898330E+01  0.32521970390E+02 -0.75782928635E+02  0.83062399159E+02  0.47000000000E+01 0.  1.
<mgrwt>
<rscale>  0 0.10122736E+03</rscale>
<asrwt>0</asrwt>
<pdfrwt beam="1">  1        1 0.13625282E-01 0.10176186E+03</pdfrwt>
<pdfrwt beam="2">  1       -1 0.33905016E-01 0.10176186E+03</pdfrwt>
<totfact> 0.33133988E+03</totfact>
</mgrwt>
</event>
<event>
 8    1  0.3177960E-004  0.1012886E+03  0.7546771E-02  0.1277747E+00
          1   -1    0    0  501    0  0.00000000000E+00  0.00000000000E+00  0.48347787256E+03  0.48347787256E+03  0.00000000000E+00 0. -1.
         -1   -1    0    0    0  501 -0.00000000000E+00 -0.00000000000E+00 -0.21963927826E+02  0.21963927826E+02  0.00000000000E+00 0.  1.
         23    2    1    2    0    0 -0.94566399906E+01 -0.40070301617E+02  0.27868172949E+03  0.29642746822E+03  0.92253349278E+02 0.  0.
         23    2    1    2    0    0  0.94566399906E+01  0.40070301617E+02  0.18283221524E+03  0.20901433216E+03  0.92543584366E+02 0.  0.
          5    1    4    4  502    0 -0.31522407252E+02 -0.35055796574E+01  0.26614645601E+02  0.41669900506E+02  0.47000000000E+01 0. -1.
         -5    1    4    4    0  502  0.40979047243E+02  0.43575881275E+02  0.15621756964E+03  0.16734443166E+03  0.47000000000E+01 0.  1.
          5    1    3    3  503    0 -0.31485195846E+02 -0.32514298043E+02  0.26527169124E+03  0.26914616347E+03  0.47000000000E+01 0. -1.
         -5    1    3    3    0  503  0.22028555856E+02 -0.75560035748E+01  0.13410038241E+02  0.27281304748E+02  0.47000000000E+01 0.  1.
<mgrwt>
<rscale>  0 0.10122222E+03</rscale>
<asrwt>0</asrwt>
<pdfrwt beam="1">  1        1 0.74381203E-01 0.10128856E+03</pdfrwt>
<pdfrwt beam="2">  1       -1 0.33790662E-02 0.10128856E+03</pdfrwt>
<totfact> 0.13789310E+04</totfact>
</mgrwt>
</event>
<event>
 8    1  0.3177960E-004  0.1312209E+03  0.7546771E-02  0.1226096E+00
         -1   -1    0    0    0  501 -0.00000000000E+00  0.00000000000E+00  0.17665868431E+03  0.17665868431E+03  0.00000000000E+00 0.  1.
          1   -1    0    0  501    0  0.00000000000E+00 -0.00000000000E+00 -0.96725289261E+02  0.96725289261E+02  0.00000000000E+00 0. -1.
         23    2    1    2    0    0  0.93554182067E+02 -0.99793382290E+00  0.34542795281E+02  0.13453429316E+03  0.90293357879E+02 0.  0.
         23    2    1    2    0    0 -0.93554182067E+02  0.99793382290E+00  0.45390599766E+02  0.13884968041E+03  0.92008403680E+02 0.  0.
          5    1    3    3  502    0  0.72298408463E+02  0.29195641703E+01 -0.20384514721E+02  0.75320662249E+02  0.47000000000E+01 0. -1.
         -5    1    3    3    0  502  0.21255773604E+02 -0.39174979932E+01  0.54927310002E+02  0.59213630915E+02  0.47000000000E+01 0.  1.
          5    1    4    4  503    0  0.34480220713E+00  0.31800857238E+02  0.13904493521E+02  0.35026252293E+02  0.47000000000E+01 0. -1.
         -5    1    4    4    0  503 -0.93898984274E+02 -0.30802923415E+02  0.31486106245E+02  0.10382342811E+03  0.47000000000E+01 0.  1.
<mgrwt>
<rscale>  0 0.13092068E+03</rscale>
<asrwt>0</asrwt>
<pdfrwt beam="1">  1        1 0.14880814E-01 0.13122091E+03</pdfrwt>
<pdfrwt beam="2">  1       -1 0.27178259E-01 0.13122091E+03</pdfrwt>
<totfact> 0.43502958E+03</totfact>
</mgrwt>
</event>
<event>
 8    1  0.3177960E-004  0.9648208E+02  0.7546771E-02  0.1288237E+00
          1   -1    0    0  501    0  0.00000000000E+00  0.00000000000E+00  0.25825582746E+02  0.25825582746E+02  0.00000000000E+00 0. -1.
         -1   -1    0    0    0  501 -0.00000000000E+00 -0.00000000000E+00 -0.35812443743E+03  0.35812443743E+03  0.00000000000E+00 0.  1.
         23    2    1    2    0    0 -0.97289454895E+01 -0.28419693135E+02 -0.16930454717E+03  0.19454058097E+03  0.90992728349E+02 0.  0.
         23    2    1    2    0    0  0.97289454895E+01  0.28419693135E+02 -0.16299430751E+03  0.18940943920E+03  0.91686749537E+02 0.  0.
          5    1    4    4  502    0 -0.36278736206E+02  0.10215548456E+02 -0.33278543671E+02  0.50498075209E+02  0.47000000000E+01 0. -1.
         -5    1    4    4    0  502  0.46007681696E+02  0.18204144680E+02 -0.12971576384E+03  0.13891136399E+03  0.47000000000E+01 0.  1.
          5    1    3    3  503    0 -0.19673800948E+02 -0.59309578918E+02 -0.10283965399E+03  0.12042744300E+03  0.47000000000E+01 0. -1.
         -5    1    3    3    0  503  0.99448554585E+01  0.30889885782E+02 -0.66464893179E+02  0.74113137965E+02  0.47000000000E+01 0.  1.
<mgrwt>
<rscale>  0 0.96316833E+02</rscale>
<asrwt>0</asrwt>
<pdfrwt beam="1">  1        1 0.39731668E-02 0.96482078E+02</pdfrwt>
<pdfrwt beam="2">  1       -1 0.55096065E-01 0.96482078E+02</pdfrwt>
<totfact> 0.72271812E+03</totfact>
</mgrwt>
</event>
<event>
 8    1  0.3177960E-004  0.1328052E+03  0.7546771E-02  0.1223352E+00
          1   -1    0    0  501    0  0.00000000000E+00  0.00000000000E+00  0.33253576978E+03  0.33253576978E+03  0.00000000000E+00 0. -1.
         -1   -1    0    0    0  501 -0.00000000000E+00 -0.00000000000E+00 -0.12252694823E+03  0.12252694823E+03  0.00000000000E+00 0.  1.
         23    2    1    2    0    0  0.71609456334E+02  0.63747507957E+02  0.27635474691E+03  0.30660916395E+03  0.91899805637E+02 0.  0.
         23    2    1    2    0    0 -0.71609456334E+02 -0.63747507957E+02 -0.66345925353E+02  0.14845355405E+03  0.91896773026E+02 0.  0.
          5    1    3    3  502    0  0.38087195511E+02  0.48750801074E+02  0.25786810803E+03  0.26522693341E+03  0.47000000000E+01 0. -1.
         -5    1    4    4    0  503 -0.12419808710E+02  0.17802901261E+02 -0.37415521484E+02  0.43510989297E+02  0.47000000000E+01 0.  1.
          5    1    4    4  503    0 -0.59189647624E+02 -0.81550409217E+02 -0.28930403869E+02  0.10494256475E+03  0.47000000000E+01 0. -1.
         -5    1    3    3    0  502  0.33522260823E+02  0.14996706882E+02  0.18486638879E+02  0.41382230546E+02  0.47000000000E+01 0.  1.
<mgrwt>
<rscale>  0 0.13280472E+03</rscale>
<asrwt>0</asrwt>
<pdfrwt beam="1">  1        1 0.51159349E-01 0.13280525E+03</pdfrwt>
<pdfrwt beam="2">  1       -1 0.18850300E-01 0.13280525E+03</pdfrwt>
<totfact> 0.16764965E+03</totfact>
</mgrwt>
</event>
<event>
 8    1  0.3177960E-004  0.9283606E+02  0.7546771E-02  0.1296594E+00
         -3   -1    0    0    0  501 -0.00000000000E+00  0.00000000000E+00  0.32773520864E+02  0.32773520864E+02  0.00000000000E+00 0.  1.
          3   -1    0    0  501    0  0.00000000000E+00 -0.00000000000E+00 -0.46391415751E+03  0.46391415751E+03  0.00000000000E+00 0. -1.
         23    2    1    2    0    0 -0.35725417387E+01 -0.15009160505E+00 -0.51732656989E+02  0.10627700703E+03  0.92767175454E+02 0.  0.
         23    2    1    2    0    0  0.35725417387E+01  0.15009160505E+00 -0.37940797965E+03  0.39041067134E+03  0.91963534573E+02 0.  0.
          5    1    4    4  502    0  0.35963817969E+02  0.28575940508E+01 -0.32373158470E+03  0.32576953660E+03  0.47000000000E+01 0. -1.
         -5    1    3    3    0  503 -0.26371859026E+02  0.19258195138E+02  0.12478350649E+02  0.35272542627E+02  0.47000000000E+01 0.  1.
          5    1    3    3  503    0  0.22799317287E+02 -0.19408286743E+02 -0.64211007638E+02  0.71004464401E+02  0.47000000000E+01 0. -1.
         -5    1    4    4    0  502 -0.32391276230E+02 -0.27075024457E+01 -0.55676394957E+02  0.64641134742E+02  0.47000000000E+01 0.  1.
<mgrwt>
<rscale>  0 0.92634648E+02</rscale>
<asrwt>0</asrwt>
<pdfrwt beam="1">  1        3 0.71371414E-01 0.92836062E+02</pdfrwt>
<pdfrwt beam="2">  1       -3 0.50420798E-02 0.92836062E+02</pdfrwt>
<totfact> 0.92964418E+02</totfact>
</mgrwt>
</event>
<event>
 8    1  0.3177960E-004  0.1121336E+03  0.7546771E-02  0.1262451E+00
          1   -1    0    0  501    0  0.00000000000E+00  0.00000000000E+00  0.29718963431E+03  0.29718963431E+03  0.00000000000E+00 0. -1.
         -1   -1    0    0    0  501 -0.00000000000E+00 -0.00000000000E+00 -0.81515980061E+02  0.81515980061E+02  0.00000000000E+00 0.  1.
         23    2    1    2    0    0  0.48306433132E+02  0.20179993167E+02 -0.33439275566E+02  0.10551849830E+03  0.85294927913E+02 0.  0.
         23    2    1    2    0    0 -0.48306433132E+02 -0.20179993167E+02  0.24911292982E+03  0.27318711607E+03  0.99162518012E+02 0.  0.
          5    1    4    4  502    0 -0.77723437656E+02 -0.24419816808E+02  0.19227322811E+03  0.20887399182E+03  0.47000000000E+01 0. -1.
         -5    1    3    3    0  503  0.50660246093E+02 -0.89532367282E+01 -0.49748945155E+02  0.71719373437E+02  0.47000000000E+01 0.  1.
          5    1    3    3  503    0 -0.23538129617E+01  0.29133229895E+02  0.16309669590E+02  0.33799124866E+02  0.47000000000E+01 0. -1.
         -5    1    4    4    0  502  0.29417004525E+02  0.42398236410E+01  0.56839701712E+02  0.64313124247E+02  0.47000000000E+01 0.  1.
<mgrwt>
<rscale>  0 0.10899046E+03</rscale>
<asrwt>0</asrwt>
<pdfrwt beam="1">  1        1 0.45721482E-01 0.11213362E+03</pdfrwt>
<pdfrwt beam="2">  1       -1 0.12540920E-01 0.11213362E+03</pdfrwt>
<totfact> 0.36216452E+03</totfact>
</mgrwt>
</event>
<event>
 8    1  0.3177960E-004  0.1801541E+03  0.7546771E-02  0.1168151E+00
          2   -1    0    0  501    0  0.00000000000E+00  0.00000000000E+00  0.14453591592E+03  0.14453591592E+03  0.00000000000E+00 0. -1.
         -2   -1    0    0    0  501 -0.00000000000E+00 -0.00000000000E+00 -0.22223821357E+03  0.22223821357E+03  0.00000000000E+00 0.  1.
         23    2    1    2    0    0  0.89121897435E+01 -0.15403746472E+03 -0.44968267476E+02  0.18568158878E+03  0.92997525063E+02 0.  0.
         23    2    1    2    0    0 -0.89121897435E+01  0.15403746472E+03 -0.32734030179E+02  0.18109254070E+03  0.88972040001E+02 0.  0.
          5    1    3    3  502    0  0.44039763830E+02 -0.75301174081E+02  0.20109379529E+01  0.87383645424E+02  0.47000000000E+01 0. -1.
         -5    1    4    4    0  503 -0.39912871723E+01  0.61076060218E+02 -0.58069309393E+02  0.84500592888E+02  0.47000000000E+01 0.  1.
          5    1    4    4  503    0 -0.49209025711E+01  0.92961404507E+02  0.25335279214E+02  0.96591947816E+02  0.47000000000E+01 0. -1.
         -5    1    3    3    0  502 -0.35127574087E+02 -0.78736290644E+02 -0.46979205428E+02  0.98297943358E+02  0.47000000000E+01 0.  1.
<mgrwt>
<rscale>  0 0.17964077E+03</rscale>
<asrwt>0</asrwt>
<pdfrwt beam="1">  1        2 0.22236295E-01 0.18015412E+03</pdfrwt>
<pdfrwt beam="2">  1       -2 0.34190494E-01 0.18015412E+03</pdfrwt>
<totfact> 0.19402166E+03</totfact>
</mgrwt>
</event>
<event>
 8    1  0.3177960E-004  0.9351318E+02  0.7546771E-02  0.1294989E+00
         -3   -1    0    0    0  501 -0.00000000000E+00  0.00000000000E+00  0.11078294283E+04  0.11078294283E+04  0.00000000000E+00 0.  1.
          3   -1    0    0  501    0  0.00000000000E+00 -0.00000000000E+00 -0.92209703156E+01  0.92209703156E+01  0.00000000000E+00 0. -1.
         23    2    1    2    0    0 -0.47793298764E+01 -0.18470337009E+02  0.76801452769E+03  0.77368664802E+03  0.91546268264E+02 0.  0.
         23    2    1    2    0    0  0.47793298764E+01  0.18470337009E+02  0.33059393030E+03  0.34336375060E+03  0.90787241035E+02 0.  0.
          5    1    3    3  502    0  0.29469703669E+02  0.24268750387E+02  0.30069241516E+03  0.30314263015E+03  0.47000000000E+01 0. -1.
         -5    1    3    3    0  502 -0.34249033546E+02 -0.42739087396E+02  0.46732211253E+03  0.47054401787E+03  0.47000000000E+01 0.  1.
          5    1    4    4  503    0  0.11345883527E+02  0.50821969304E+02  0.13178414083E+03  0.14177711879E+03  0.47000000000E+01 0. -1.
         -5    1    4    4    0  503 -0.65665536502E+01 -0.32351632295E+02  0.19880978947E+03  0.20158663181E+03  0.47000000000E+01 0.  1.
<mgrwt>
<rscale>  0 0.93326889E+02</rscale>
<asrwt>0</asrwt>
<pdfrwt beam="1">  1        3 0.14186117E-02 0.93513179E+02</pdfrwt>
<pdfrwt beam="2">  1       -3 0.17043519E+00 0.93513179E+02</pdfrwt>
<totfact> 0.86712555E+02</totfact>
</mgrwt>
</event>
<event>
 8    1  0.3177960E-004  0.1288019E+03  0.7546771E-02  0.1229699E+00
          1   -1    0    0  501    0  0.00000000000E+00  0.00000000000E+00  0.41980287232E+02  0.41980287232E+02  0.00000000000E+00 0. -1.
         -1   -1    0    0    0  501 -0.00000000000E+00 -0.00000000000E+00 -0.41069341226E+03  0.41069341226E+03  0.00000000000E+00 0.  1.
         23    2    1    2    0    0 -0.18183655177E+02 -0.87997122768E+02 -0.23246394758E+03  0.26518032709E+03  0.90592383887E+02 0.  0.
         23    2    1    2    0    0  0.18183655177E+02  0.87997122768E+02 -0.13624917745E+03  0.18749337241E+03  0.92281024107E+02 0.  0.
          5    1    3    3  502    0  0.23000952844E+02 -0.42535715819E+02 -0.39404141020E+02  0.62554834198E+02  0.47000000000E+01 0. -1.
         -5    1    3    3    0  502 -0.41184608021E+02 -0.45461406949E+02 -0.19305980656E+03  0.20262549289E+03  0.47000000000E+01 0.  1.
          5    1    4    4  503    0 -0.87944184345E+01  0.92135945484E+02 -0.71436339126E+02  0.11701117380E+03  0.47000000000E+01 0. -1.
         -5    1    4    4    0  503  0.26978073611E+02 -0.41388227159E+01 -0.64812838328E+02  0.70482198613E+02  0.47000000000E+01 0.  1.
<mgrwt>
<rscale>  0 0.12849973E+03</rscale>
<asrwt>0</asrwt>
<pdfrwt beam="1">  1        1 0.64585057E-02 0.12880189E+03</pdfrwt>
<pdfrwt beam="2">  1       -1 0.63183602E-01 0.12880189E+03</pdfrwt>
<totfact> 0.29482958E+03</totfact>
</mgrwt>
</event>
<event>
 8    1  0.3177960E-004  0.3796944E+03  0.7546771E-02  0.1051123E+00
          2   -1    0    0  501    0  0.00000000000E+00  0.00000000000E+00  0.14067182510E+04  0.14067182510E+04  0.00000000000E+00 0. -1.
         -2   -1    0    0    0  501 -0.00000000000E+00 -0.00000000000E+00 -0.14587093858E+03  0.14587093858E+03  0.00000000000E+00 0.  1.
         23    2    1    2    0    0 -0.36301697591E+03 -0.60954773331E+02  0.20548960935E+03  0.43100650294E+03  0.89687328156E+02 0.  0.
         23    2    1    2    0    0  0.36301697591E+03  0.60954773331E+02  0.10553577030E+04  0.11215826866E+04  0.93118378194E+02 0.  0.
          5    1    4    4  502    0  0.13659678255E+03  0.13066528741E+02  0.52989650526E+03  0.54739547994E+03  0.47000000000E+01 0.  1.
         -5    1    3    3    0  503 -0.32210681549E+03 -0.78690969044E+02  0.16413302966E+03  0.37000920342E+03  0.47000000000E+01 0.  1.
          5    1    3    3  503    0 -0.40910160426E+02  0.17736195714E+02  0.41356579692E+02  0.60997299516E+02  0.47000000000E+01 0. -1.
         -5    1    4    4    0  502  0.22642019336E+03  0.47888244590E+02  0.52546119776E+03  0.57418720666E+03  0.47000000000E+01 0. -1.
<mgrwt>
<rscale>  0 0.37948752E+03</rscale>
<asrwt>0</asrwt>
<pdfrwt beam="1">  1        2 0.21641818E+00 0.37969441E+03</pdfrwt>
<pdfrwt beam="2">  1       -2 0.22441684E-01 0.37969441E+03</pdfrwt>
<totfact> 0.26143321E+02</totfact>
</mgrwt>
</event>
<event>
 8    1  0.3177960E-004  0.3940272E+03  0.7546771E-02  0.1046130E+00
         -2   -1    0    0    0  501 -0.00000000000E+00  0.00000000000E+00  0.15806255946E+03  0.15806255946E+03  0.00000000000E+00 0.  1.
          2   -1    0    0  501    0  0.00000000000E+00 -0.00000000000E+00 -0.14630580283E+04  0.14630580283E+04  0.00000000000E+00 0. -1.
         23    2    1    2    0    0  0.20164437724E+03 -0.32370041155E+03 -0.11223419352E+04  0.11894994288E+04  0.99070986142E+02 0.  0.
         23    2    1    2    0    0 -0.20164437724E+03  0.32370041155E+03 -0.18265353366E+03  0.43162115898E+03  0.86556918931E+02 0.  0.
          5    1    4    4  502    0 -0.11638389336E+03  0.14674207711E+03 -0.13053899187E+03  0.22834396473E+03  0.47000000000E+01 0. -1.
         -5    1    3    3    0  503  0.10784294225E+03 -0.84947099412E+02 -0.37843370314E+03  0.40259193678E+03  0.47000000000E+01 0.  1.
          5    1    3    3  503    0  0.93801434990E+02 -0.23875331214E+03 -0.74390823207E+03  0.78690749202E+03  0.47000000000E+01 0. -1.
         -5    1    4    4    0  502 -0.85260483875E+02  0.17695833444E+03 -0.52114541785E+02  0.20327719426E+03  0.47000000000E+01 0.  1.
<mgrwt>
<rscale>  0 0.39328545E+03</rscale>
<asrwt>0</asrwt>
<pdfrwt beam="1">  1        2 0.22508584E+00 0.39402725E+03</pdfrwt>
<pdfrwt beam="2">  1       -2 0.24317318E-01 0.39402725E+03</pdfrwt>
<totfact> 0.21088167E+02</totfact>
</mgrwt>
</event>
<event>
 8    1  0.3177960E-004  0.9305565E+02  0.7546771E-02  0.1298207E+00
          2   -1    0    0  501    0  0.00000000000E+00  0.00000000000E+00  0.11340273490E+03  0.11340273490E+03  0.00000000000E+00 0. -1.
         -2   -1    0    0    0  501 -0.00000000000E+00 -0.00000000000E+00 -0.85850723660E+02  0.85850723660E+02  0.00000000000E+00 0.  1.
         23    2    1    2    0    0  0.22073337108E+02  0.21103839314E+01  0.52295905100E+02  0.10296423386E+03  0.85878319921E+02 0.  0.
         23    2    1    2    0    0 -0.22073337108E+02 -0.21103839314E+01 -0.24743893858E+02  0.96289224703E+02  0.90375154657E+02 0.  0.
          5    1    4    4  502    0  0.61145438693E+01 -0.42698841865E+02 -0.10394390318E+02  0.44617396757E+02  0.47000000000E+01 0. -1.
         -5    1    3    3    0  503 -0.28314797313E+02 -0.17089862573E+02  0.12038414223E+02  0.35507809939E+02  0.47000000000E+01 0.  1.
          5    1    3    3  503    0  0.50388134421E+02  0.19200246505E+02  0.40257490877E+02  0.67456423919E+02  0.47000000000E+01 0. -1.
         -5    1    4    4    0  502 -0.28187880977E+02  0.40588457933E+02 -0.14349503539E+02  0.51671827946E+02  0.47000000000E+01 0.  1.
<mgrwt>
<rscale>  0 0.91945746E+02</rscale>
<asrwt>0</asrwt>
<pdfrwt beam="1">  1        2 0.17446574E-01 0.93055653E+02</pdfrwt>
<pdfrwt beam="2">  1       -2 0.13207804E-01 0.93055653E+02</pdfrwt>
<totfact> 0.12430623E+04</totfact>
</mgrwt>
</event>
<event>
 8    1  0.3177960E-004  0.1053946E+03  0.7546771E-02  0.1273347E+00
          3   -1    0    0  501    0  0.00000000000E+00  0.00000000000E+00  0.17665305349E+03  0.17665305349E+03  0.00000000000E+00 0. -1.
         -3   -1    0    0    0  501 -0.00000000000E+00 -0.00000000000E+00 -0.74900920895E+02  0.74900920895E+02  0.00000000000E+00 0.  1.
         23    2    1    2    0    0 -0.17230081122E+01  0.52345813592E+02 -0.67876918317E+01  0.10561296280E+03  0.91460221919E+02 0.  0.
         23    2    1    2    0    0  0.17230081122E+01 -0.52345813592E+02  0.10853982443E+03  0.14594101159E+03  0.82309370175E+02 0.  0.
          5    1    3    3  502    0  0.18221674367E+02 -0.13534726098E+02 -0.25164903543E+02  0.34213748664E+02  0.47000000000E+01 0. -1.
         -5    1    4    4    0  503 -0.32726131865E+02 -0.21519723035E+02  0.16348783946E+02  0.42702118482E+02  0.47000000000E+01 0.  1.
          5    1    4    4  503    0  0.34449139978E+02 -0.30826090557E+02  0.92191040484E+02  0.10323889311E+03  0.47000000000E+01 0. -1.
         -5    1    3    3    0  502 -0.19944682479E+02  0.65880539690E+02  0.18377211712E+02  0.71399214136E+02  0.47000000000E+01 0.  1.
<mgrwt>
<rscale>  0 0.10337877E+03</rscale>
<asrwt>0</asrwt>
<pdfrwt beam="1">  1        3 0.27177393E-01 0.10539462E+03</pdfrwt>
<pdfrwt beam="2">  1       -3 0.11523219E-01 0.10539462E+03</pdfrwt>
<totfact> 0.16461333E+03</totfact>
</mgrwt>
</event>
<event>
 8    1  0.3177960E-004  0.2611429E+03  0.7546771E-02  0.1106653E+00
         -2   -1    0    0    0  501 -0.00000000000E+00  0.00000000000E+00  0.16154895978E+03  0.16154895978E+03  0.00000000000E+00 0.  1.
          2   -1    0    0  501    0  0.00000000000E+00 -0.00000000000E+00 -0.43868318483E+03  0.43868318483E+03  0.00000000000E+00 0. -1.
         23    2    1    2    0    0 -0.24102378940E+03  0.33013001680E+02 -0.76374472147E+02  0.27083858518E+03  0.91313492396E+02 0.  0.
         23    2    1    2    0    0  0.24102378940E+03 -0.33013001680E+02 -0.20075975290E+03  0.32939355942E+03  0.94938470967E+02 0.  0.
          5    1    3    3  502    0 -0.62811418619E+02  0.42718662448E+02  0.13423872121E+01  0.76118660221E+02  0.47000000000E+01 0. -1.
         -5    1    3    3    0  502 -0.17821237078E+03 -0.97056607687E+01 -0.77716859359E+02  0.19471992496E+03  0.47000000000E+01 0.  1.
          5    1    4    4  503    0  0.13915094445E+03 -0.64746327592E+02 -0.13088787305E+03  0.20176421285E+03  0.47000000000E+01 0. -1.
         -5    1    4    4    0  503  0.10187284495E+03  0.31733325912E+02 -0.69871879848E+02  0.12762934657E+03  0.47000000000E+01 0.  1.
<mgrwt>
<rscale>  0 0.26081836E+03</rscale>
<asrwt>0</asrwt>
<pdfrwt beam="1">  1        2 0.67489721E-01 0.26114295E+03</pdfrwt>
<pdfrwt beam="2">  1       -2 0.24853686E-01 0.26114295E+03</pdfrwt>
<totfact> 0.10366224E+03</totfact>
</mgrwt>
</event>
<event>
 8    1  0.3177960E-004  0.9530039E+02  0.7546771E-02  0.1291240E+00
         -1   -1    0    0    0  501 -0.00000000000E+00  0.00000000000E+00  0.69947965897E+02  0.69947965897E+02  0.00000000000E+00 0.  1.
          1   -1    0    0  501    0  0.00000000000E+00 -0.00000000000E+00 -0.13441706790E+03  0.13441706790E+03  0.00000000000E+00 0. -1.
         23    2    1    2    0    0  0.45291395790E+00  0.15721500045E+02 -0.10235058788E+02  0.95848428832E+02  0.93993585880E+02 0.  0.
         23    2    1    2    0    0 -0.45291395790E+00 -0.15721500045E+02 -0.54234043210E+02  0.10851660496E+03  0.92666884130E+02 0.  0.
          5    1    4    4  502    0  0.32237975788E+02 -0.36797914652E+02 -0.11371063431E+02  0.50445660756E+02  0.47000000000E+01 0. -1.
         -5    1    4    4    0  502 -0.32690889746E+02  0.21076414607E+02 -0.42862979780E+02  0.58070944203E+02  0.47000000000E+01 0.  1.
          5    1    3    3  503    0  0.22632466693E+02 -0.19197833016E+02 -0.35996061278E+02  0.46889143398E+02  0.47000000000E+01 0. -1.
         -5    1    3    3    0  503 -0.22179552735E+02  0.34919333061E+02  0.25761002490E+02  0.48959285434E+02  0.47000000000E+01 0.  1.
<mgrwt>
<rscale>  0 0.94971632E+02</rscale>
<asrwt>0</asrwt>
<pdfrwt beam="1">  1        1 0.20679549E-01 0.95300393E+02</pdfrwt>
<pdfrwt beam="2">  1       -1 0.10761226E-01 0.95300393E+02</pdfrwt>
<totfact> 0.12050202E+04</totfact>
</mgrwt>
</event>
<event>
 8    1  0.3177960E-004  0.1291126E+03  0.7546771E-02  0.1229122E+00
          1   -1    0    0  501    0  0.00000000000E+00  0.00000000000E+00  0.28836878643E+03  0.28836878643E+03  0.00000000000E+00 0. -1.
         -1   -1    0    0    0  501 -0.00000000000E+00 -0.00000000000E+00 -0.57405328219E+02  0.57405328219E+02  0.00000000000E+00 0.  1.
         23    2    1    2    0    0  0.29966797972E+02 -0.85199248154E+02  0.11414700881E+03  0.17233571943E+03  0.92266677117E+02 0.  0.
         23    2    1    2    0    0 -0.29966797972E+02  0.85199248154E+02  0.11681644940E+03  0.17343839522E+03  0.90982818251E+02 0.  0.
          5    1    3    3  502    0  0.15772376626E+02  0.18113055921E+02  0.26030602040E+02  0.35728600613E+02  0.47000000000E+01 0. -1.
         -5    1    4    4    0  503  0.14287930039E+02  0.24125403144E+02 -0.61688836990E+01  0.29091668013E+02  0.47000000000E+01 0.  1.
          5    1    4    4  503    0 -0.44254728011E+02  0.61073845010E+02  0.12298533310E+03  0.14434672720E+03  0.47000000000E+01 0. -1.
         -5    1    3    3    0  502  0.14194421347E+02 -0.10331230408E+03  0.88116406768E+02  0.13660711882E+03  0.47000000000E+01 0.  1.
<mgrwt>
<rscale>  0 0.12888340E+03</rscale>
<asrwt>0</asrwt>
<pdfrwt beam="1">  1        1 0.44364428E-01 0.12911259E+03</pdfrwt>
<pdfrwt beam="2">  1       -1 0.88315891E-02 0.12911259E+03</pdfrwt>
<totfact> 0.64728176E+03</totfact>
</mgrwt>
</event>
<event>
 8    1  0.3177960E-004  0.9916431E+02  0.7546771E-02  0.1282965E+00
         -4   -1    0    0    0  501 -0.00000000000E+00  0.00000000000E+00  0.58162150281E+02  0.58162150281E+02  0.00000000000E+00 0.  1.
          4   -1    0    0  501    0  0.00000000000E+00 -0.00000000000E+00 -0.47275614423E+03  0.47275614423E+03  0.00000000000E+00 0. -1.
         23    2    1    2    0    0 -0.24492880643E+02  0.26462649105E+02 -0.42042871829E+03  0.43158247745E+03  0.90570164383E+02 0.  0.
         23    2    1    2    0    0  0.24492880643E+02 -0.26462649105E+02  0.58347243418E+01  0.99335817063E+02  0.92376336492E+02 0.  0.
          5    1    3    3  502    0 -0.39083942071E+02  0.12546894809E+02 -0.40121590379E+03  0.40333766319E+03  0.47000000000E+01 0. -1.
         -5    1    4    4    0  503  0.21595632547E+02 -0.60633178867E+02  0.29740023544E+01  0.64604089767E+02  0.47000000000E+01 0.  1.
          5    1    4    4  503    0  0.28972480963E+01  0.34170529762E+02  0.28607219874E+01  0.34731727297E+02  0.47000000000E+01 0. -1.
         -5    1    3    3    0  502  0.14591061428E+02  0.13915754296E+02 -0.19212814504E+02  0.28244814256E+02  0.47000000000E+01 0.  1.
<mgrwt>
<rscale>  0 0.98741534E+02</rscale>
<asrwt>0</asrwt>
<pdfrwt beam="1">  1        4 0.72731715E-01 0.99164311E+02</pdfrwt>
<pdfrwt beam="2">  1       -4 0.89480230E-02 0.99164311E+02</pdfrwt>
<totfact> 0.25187190E+02</totfact>
</mgrwt>
</event>
<event>
 8    1  0.3177960E-004  0.1051109E+03  0.7546771E-02  0.1271924E+00
          1   -1    0    0  501    0  0.00000000000E+00  0.00000000000E+00  0.42790124949E+02  0.42790124949E+02  0.00000000000E+00 0. -1.
         -1   -1    0    0    0  501 -0.00000000000E+00 -0.00000000000E+00 -0.51508084054E+03  0.51508084054E+03  0.00000000000E+00 0.  1.
         23    2    1    2    0    0  0.42977438397E+02  0.69575371224E+01 -0.33233152751E+02  0.10640684894E+03  0.91227778256E+02 0.  0.
         23    2    1    2    0    0 -0.42977438397E+02 -0.69575371224E+01 -0.43905756284E+03  0.45146411655E+03  0.95670463105E+02 0.  0.
          5    1    4    4  502    0  0.18994488730E+02  0.25824924762E+02 -0.18743234419E+03  0.19021222618E+03  0.47000000000E+01 0. -1.
         -5    1    3    3    0  503  0.87105272427E+01 -0.35156534905E+02 -0.36729840864E+02  0.51797938581E+02  0.47000000000E+01 0.  1.
          5    1    3    3  503    0  0.34266911155E+02  0.42114072027E+02  0.34966881127E+01  0.54608910359E+02  0.47000000000E+01 0. -1.
         -5    1    4    4    0  502 -0.61971927128E+02 -0.32782461885E+02 -0.25162521865E+03  0.26125189036E+03  0.47000000000E+01 0.  1.
<mgrwt>
<rscale>  0 0.10408939E+03</rscale>
<asrwt>0</asrwt>
<pdfrwt beam="1">  1        1 0.65830962E-02 0.10511092E+03</pdfrwt>
<pdfrwt beam="2">  1       -1 0.79243206E-01 0.10511092E+03</pdfrwt>
<totfact> 0.18189428E+03</totfact>
</mgrwt>
</event>
<event>
 8    1  0.3177960E-004  0.1197862E+03  0.7546771E-02  0.1244914E+00
          1   -1    0    0  501    0  0.00000000000E+00  0.00000000000E+00  0.15570877449E+03  0.15570877449E+03  0.00000000000E+00 0. -1.
         -1   -1    0    0    0  501 -0.00000000000E+00 -0.00000000000E+00 -0.37365846860E+03  0.37365846860E+03  0.00000000000E+00 0.  1.
         23    2    1    2    0    0 -0.32371268441E+02  0.64927195348E+02  0.12222652866E+03  0.16871700446E+03  0.90899194542E+02 0.  0.
         23    2    1    2    0    0  0.32371268441E+02 -0.64927195348E+02 -0.34017622277E+03  0.36065023863E+03  0.95316800037E+02 0.  0.
          5    1    3    3  502    0 -0.38503400268E+02 -0.79823254870E+01  0.63240230256E+02  0.74616660842E+02  0.47000000000E+01 0. -1.
         -5    1    4    4    0  503  0.45670556325E+02  0.18048994185E+01 -0.86274495882E+02  0.97746795429E+02  0.47000000000E+01 0.  1.
          5    1    4    4  503    0 -0.13299287884E+02 -0.66732094767E+02 -0.25390172689E+03  0.26290344320E+03  0.47000000000E+01 0. -1.
         -5    1    3    3    0  502  0.61321318265E+01  0.72909520835E+02  0.58986298406E+02  0.94100343616E+02  0.47000000000E+01 0.  1.
<mgrwt>
<rscale>  0 0.11890542E+03</rscale>
<asrwt>0</asrwt>
<pdfrwt beam="1">  1        1 0.23955197E-01 0.11978619E+03</pdfrwt>
<pdfrwt beam="2">  1       -1 0.57485917E-01 0.11978619E+03</pdfrwt>
<totfact> 0.63640215E+02</totfact>
</mgrwt>
</event>
<event>
 8    1  0.3177960E-004  0.2260446E+03  0.7546771E-02  0.1129851E+00
         -1   -1    0    0    0  501 -0.00000000000E+00  0.00000000000E+00  0.73440000138E+02  0.73440000138E+02  0.00000000000E+00 0.  1.
          1   -1    0    0  501    0  0.00000000000E+00 -0.00000000000E+00 -0.10370999743E+04  0.10370999743E+04  0.00000000000E+00 0. -1.
         23    2    1    2    0    0 -0.20529606062E+03  0.97280613431E+01 -0.15859159929E+03  0.27433949600E+03  0.88711645327E+02 0.  0.
         23    2    1    2    0    0  0.20529606062E+03 -0.97280613431E+01 -0.80506837492E+03  0.83620047848E+03  0.94101244643E+02 0.  0.
          5    1    4    4  502    0  0.14871736774E+03 -0.32783273374E+02 -0.68086599775E+03  0.69770494865E+03  0.47000000000E+01 0. -1.
         -5    1    4    4    0  502  0.56578692880E+02  0.23055212031E+02 -0.12420237716E+03  0.13849552983E+03  0.47000000000E+01 0.  1.
          5    1    3    3  503    0 -0.34393399927E+02 -0.24394019125E+02 -0.61715883021E+02  0.74892685522E+02  0.47000000000E+01 0. -1.
         -5    1    3    3    0  503 -0.17090266069E+03  0.34122080469E+02 -0.96875716271E+02  0.19944681048E+03  0.47000000000E+01 0.  1.
<mgrwt>
<rscale>  0 0.22549507E+03</rscale>
<asrwt>0</asrwt>
<pdfrwt beam="1">  1        1 0.15955382E+00 0.22604458E+03</pdfrwt>
<pdfrwt beam="2">  1       -1 0.11298463E-01 0.22604458E+03</pdfrwt>
<totfact> 0.75963335E+02</totfact>
</mgrwt>
</event>
<event>
 8    1  0.3177960E-004  0.1065756E+03  0.7546771E-02  0.1267079E+00
         -2   -1    0    0    0  501 -0.00000000000E+00  0.00000000000E+00  0.51541807723E+02  0.51541807723E+02  0.00000000000E+00 0.  1.
          2   -1    0    0  501    0  0.00000000000E+00 -0.00000000000E+00 -0.44263348783E+03  0.44263348783E+03  0.00000000000E+00 0. -1.
         23    2    1    2    0    0 -0.44122488808E+02  0.32462423647E+02 -0.20431114312E+02  0.10851627313E+03  0.91420720489E+02 0.  0.
         23    2    1    2    0    0  0.44122488808E+02 -0.32462423647E+02 -0.37066056579E+03  0.38565902242E+03  0.91340153116E+02 0.  0.
          5    1    3    3  502    0  0.23006891268E+02 -0.60704809384E+01  0.85729742530E+01  0.25724573314E+02  0.47000000000E+01 0. -1.
         -5    1    4    4    0  503 -0.25768396768E+02 -0.21477327076E+02 -0.89495434761E+02  0.95691215341E+02  0.47000000000E+01 0.  1.
          5    1    4    4  503    0  0.69890885576E+02 -0.10985096571E+02 -0.28116513103E+03  0.28996780708E+03  0.47000000000E+01 0. -1.
         -5    1    3    3    0  502 -0.67129380076E+02  0.38532904585E+02 -0.29004088565E+02  0.82791699817E+02  0.47000000000E+01 0.  1.
<mgrwt>
<rscale>  0 0.10655829E+03</rscale>
<asrwt>0</asrwt>
<pdfrwt beam="1">  1        2 0.68097457E-01 0.10657557E+03</pdfrwt>
<pdfrwt beam="2">  1       -2 0.79295092E-02 0.10657557E+03</pdfrwt>
<totfact> 0.64561556E+03</totfact>
</mgrwt>
</event>
<event>
 8    1  0.3177960E-004  0.1385453E+03  0.7546771E-02  0.1215693E+00
          3   -1    0    0  501    0  0.00000000000E+00  0.00000000000E+00  0.18922155832E+03  0.18922155832E+03  0.00000000000E+00 0. -1.
         -3   -1    0    0    0  501 -0.00000000000E+00 -0.00000000000E+00 -0.10505546903E+03  0.10505546903E+03  0.00000000000E+00 0.  1.
         23    2    1    2    0    0 -0.10375377611E+03  0.86918944870E+01  0.11620554278E+02  0.13788762920E+03  0.89652473016E+02 0.  0.
         23    2    1    2    0    0  0.10375377611E+03 -0.86918944870E+01  0.72545535010E+02  0.15638939815E+03  0.91402374790E+02 0.  0.
          5    1    4    4  502    0  0.56712216359E+02  0.40720776625E+02  0.32658006496E+02  0.77221062681E+02  0.47000000000E+01 0. -1.
         -5    1    3    3    0  503 -0.18624023581E+02 -0.33454227609E+02 -0.11025680778E+02  0.40121007413E+02  0.47000000000E+01 0.  1.
          5    1    3    3  503    0 -0.85129752532E+02  0.42146122096E+02  0.22646235055E+02  0.97766621789E+02  0.47000000000E+01 0. -1.
         -5    1    4    4    0  502  0.47041559755E+02 -0.49412671112E+02  0.39887528514E+02  0.79168335472E+02  0.47000000000E+01 0.  1.
<mgrwt>
<rscale>  0 0.13825732E+03</rscale>
<asrwt>0</asrwt>
<pdfrwt beam="1">  1        3 0.29111009E-01 0.13854526E+03</pdfrwt>
<pdfrwt beam="2">  1       -3 0.16162380E-01 0.13854526E+03</pdfrwt>
<totfact> 0.85797809E+02</totfact>
</mgrwt>
</event>
<event>
 8    1  0.3177960E-004  0.1014784E+03  0.7546771E-02  0.1278812E+00
          1   -1    0    0  501    0  0.00000000000E+00  0.00000000000E+00  0.54259752769E+03  0.54259752769E+03  0.00000000000E+00 0. -1.
         -1   -1    0    0    0  501 -0.00000000000E+00 -0.00000000000E+00 -0.25835306448E+02  0.25835306448E+02  0.00000000000E+00 0.  1.
         23    2    1    2    0    0 -0.33428784407E+02 -0.11584721222E+02  0.10326060177E+03  0.14266122415E+03  0.91857409103E+02 0.  0.
         23    2    1    2    0    0  0.33428784407E+02  0.11584721222E+02  0.41350161948E+03  0.42577160999E+03  0.95111435525E+02 0.  0.
          5    1    4    4  502    0  0.60960262224E+02  0.22619164788E+02  0.20493218466E+03  0.21505132061E+03  0.47000000000E+01 0. -1.
         -5    1    3    3    0  503 -0.90353039504E+01  0.38459972175E+02  0.60032248233E+02  0.72019212749E+02  0.47000000000E+01 0.  1.
          5    1    3    3  503    0 -0.24393480457E+02 -0.50044693397E+02  0.43228353534E+02  0.70642011405E+02  0.47000000000E+01 0. -1.
         -5    1    4    4    0  502 -0.27531477816E+02 -0.11034443566E+02  0.20856943481E+03  0.21072028938E+03  0.47000000000E+01 0.  1.
<mgrwt>
<rscale>  0 0.10070890E+03</rscale>
<asrwt>0</asrwt>
<pdfrwt beam="1">  1        1 0.83476534E-01 0.10147844E+03</pdfrwt>
<pdfrwt beam="2">  1       -1 0.39746629E-02 0.10147844E+03</pdfrwt>
<totfact> 0.93803510E+03</totfact>
</mgrwt>
</event>
<event>
 8    1  0.3177960E-004  0.1192103E+03  0.7546771E-02  0.1245913E+00
         -2   -1    0    0    0  501 -0.00000000000E+00  0.00000000000E+00  0.22311339757E+03  0.22311339757E+03  0.00000000000E+00 0.  1.
          2   -1    0    0  501    0  0.00000000000E+00 -0.00000000000E+00 -0.13645098671E+03  0.13645098671E+03  0.00000000000E+00 0. -1.
         23    2    1    2    0    0 -0.88025717639E+01  0.74684917691E+02  0.17659545336E+03  0.21306584821E+03  0.92497455781E+02 0.  0.
         23    2    1    2    0    0  0.88025717639E+01 -0.74684917691E+02 -0.89933042497E+02  0.14649853607E+03  0.87855260158E+02 0.  0.
          5    1    3    3  502    0  0.38951960689E+02  0.26921823663E+02  0.10060021367E+03  0.11128581590E+03  0.47000000000E+01 0. -1.
         -5    1    3    3    0  502 -0.47754532453E+02  0.47763094028E+02  0.75995239694E+02  0.10178003231E+03  0.47000000000E+01 0.  1.
          5    1    4    4  503    0  0.47748194849E+02 -0.44831600716E+02 -0.43413028045E+02  0.78718127126E+02  0.47000000000E+01 0. -1.
         -5    1    4    4    0  503 -0.38945623085E+02 -0.29853316975E+02 -0.46520014452E+02  0.67780408943E+02  0.47000000000E+01 0.  1.
<mgrwt>
<rscale>  0 0.11830893E+03</rscale>
<asrwt>0</asrwt>
<pdfrwt beam="1">  1        2 0.20992459E-01 0.11921032E+03</pdfrwt>
<pdfrwt beam="2">  1       -2 0.34325138E-01 0.11921032E+03</pdfrwt>
<totfact> 0.20195534E+03</totfact>
</mgrwt>
</event>
<event>
 8    1  0.3177960E-004  0.9836696E+02  0.7546771E-02  0.1284339E+00
          1   -1    0    0  501    0  0.00000000000E+00  0.00000000000E+00  0.13438088125E+03  0.13438088125E+03  0.00000000000E+00 0. -1.
         -1   -1    0    0    0  501 -0.00000000000E+00 -0.00000000000E+00 -0.77604213171E+02  0.77604213171E+02  0.00000000000E+00 0.  1.
         23    2    1    2    0    0  0.33247055591E+02 -0.93042834652E+01 -0.21195035438E+01  0.97334243558E+02  0.90980911611E+02 0.  0.
         23    2    1    2    0    0 -0.33247055591E+02  0.93042834652E+01  0.58896171618E+02  0.11465085086E+03  0.92109294726E+02 0.  0.
          5    1    4    4  502    0 -0.95783820188E+01  0.48032917180E+02  0.45692972750E+02  0.67147928439E+02  0.47000000000E+01 0. -1.
         -5    1    3    3    0  503  0.69682191997E+01 -0.45535746563E+02 -0.17898739412E+02  0.49643883475E+02  0.47000000000E+01 0.  1.
          5    1    3    3  503    0  0.26278836391E+02  0.36231463098E+02  0.15779235869E+02  0.47690360084E+02  0.47000000000E+01 0. -1.
         -5    1    4    4    0  502 -0.23668673572E+02 -0.38728633714E+02  0.13203198867E+02  0.47502922419E+02  0.47000000000E+01 0.  1.
<mgrwt>
<rscale>  0 0.98101941E+02</rscale>
<asrwt>0</asrwt>
<pdfrwt beam="1">  1        1 0.20673982E-01 0.98366959E+02</pdfrwt>
<pdfrwt beam="2">  1       -1 0.11939110E-01 0.98366959E+02</pdfrwt>
<totfact> 0.10320065E+04</totfact>
</mgrwt>
</event>
<event>
 8    1  0.3177960E-004  0.9049652E+02  0.7546771E-02  0.1304607E+00
          1   -1    0    0  501    0  0.00000000000E+00  0.00000000000E+00  0.33016880668E+03  0.33016880668E+03  0.00000000000E+00 0. -1.
         -1   -1    0    0    0  501 -0.00000000000E+00 -0.00000000000E+00 -0.23631699937E+02  0.23631699937E+02  0.00000000000E+00 0.  1.
         23    2    1    2    0    0  0.12069507013E+01 -0.15370792450E+01  0.13662846822E+03  0.16129449193E+03  0.85701548743E+02 0.  0.
         23    2    1    2    0    0 -0.12069507013E+01  0.15370792450E+01  0.16990863853E+03  0.19250601469E+03  0.90475416014E+02 0.  0.
          5    1    4    4  502    0 -0.29045070819E+02  0.80710227117E+01  0.15842364087E+03  0.16133473753E+03  0.47000000000E+01 0. -1.
         -5    1    4    4    0  502  0.27838120118E+02 -0.65339434667E+01  0.11484997662E+02  0.31171277167E+02  0.47000000000E+01 0.  1.
          5    1    3    3  503    0 -0.16968212716E+02 -0.13456725866E+02 -0.70543975825E+00  0.22171859621E+02  0.47000000000E+01 0. -1.
         -5    1    3    3    0  503  0.18175163417E+02  0.11919646621E+02  0.13733390798E+03  0.13912263231E+03  0.47000000000E+01 0.  1.
<mgrwt>
<rscale>  0 0.89278997E+02</rscale>
<asrwt>0</asrwt>
<pdfrwt beam="1">  1        1 0.50795198E-01 0.90496521E+02</pdfrwt>
<pdfrwt beam="2">  1       -1 0.36356464E-02 0.90496521E+02</pdfrwt>
<totfact> 0.19748690E+04</totfact>
</mgrwt>
</event>
<event>
 8    1  0.3177960E-004  0.9364761E+02  0.7546771E-02  0.1294985E+00
          1   -1    0    0  501    0  0.00000000000E+00  0.00000000000E+00  0.28069631724E+03  0.28069631724E+03  0.00000000000E+00 0. -1.
         -1   -1    0    0    0  501 -0.00000000000E+00 -0.00000000000E+00 -0.88627198438E+02  0.88627198438E+02  0.00000000000E+00 0.  1.
         23    2    1    2    0    0  0.13412904849E+02 -0.13733702320E+02  0.24539587177E+03  0.26265758812E+03  0.91658900906E+02 0.  0.
         23    2    1    2    0    0 -0.13412904849E+02  0.13733702320E+02 -0.53326752972E+02  0.10666592756E+03  0.90362364535E+02 0.  0.
          5    1    4    4  502    0 -0.42500800421E+02  0.22093303039E+02 -0.36013902924E+01  0.48264812106E+02  0.47000000000E+01 0. -1.
         -5    1    4    4    0  502  0.29087895572E+02 -0.83596007185E+01 -0.49725362680E+02  0.58401115457E+02  0.47000000000E+01 0.  1.
          5    1    3    3  503    0 -0.26986247394E+02  0.18283396968E+02  0.15527778208E+03  0.15873191160E+03  0.47000000000E+01 0. -1.
         -5    1    3    3    0  503  0.40399152243E+02 -0.32017099289E+02  0.90118089695E+02  0.10392567652E+03  0.47000000000E+01 0.  1.
<mgrwt>
<rscale>  0 0.93328830E+02</rscale>
<asrwt>0</asrwt>
<pdfrwt beam="1">  1        1 0.43184049E-01 0.93647609E+02</pdfrwt>
<pdfrwt beam="2">  1       -1 0.13634954E-01 0.93647609E+02</pdfrwt>
<totfact> 0.33809242E+03</totfact>
</mgrwt>
</event>
<event>
 8    1  0.3177960E-004  0.1336837E+03  0.7546771E-02  0.1222644E+00
         -2   -1    0    0    0  501 -0.00000000000E+00  0.00000000000E+00  0.31483278095E+02  0.31483278095E+02  0.00000000000E+00 0.  1.
          2   -1    0    0  501    0  0.00000000000E+00 -0.00000000000E+00 -0.65996691465E+03  0.65996691465E+03  0.00000000000E+00 0. -1.
         23    2    1    2    0    0  0.61148056451E+02 -0.72726555362E+02 -0.17890411330E+03  0.22241600245E+03  0.91836592527E+02 0.  0.
         23    2    1    2    0    0 -0.61148056451E+02  0.72726555362E+02 -0.44957952326E+03  0.46903419030E+03  0.94037690711E+02 0.  0.
          5    1    4    4  502    0 -0.17959519166E+02  0.60532114326E+02 -0.38548207340E+03  0.39064715551E+03  0.47000000000E+01 0. -1.
         -5    1    4    4    0  502 -0.43188537286E+02  0.12194441036E+02 -0.64097449855E+02  0.78387034789E+02  0.47000000000E+01 0.  1.
          5    1    3    3  503    0  0.40269019390E+02 -0.40490340186E+01 -0.12790306775E+03  0.13423588692E+03  0.47000000000E+01 0. -1.
         -5    1    3    3    0  503  0.20879037061E+02 -0.68677521344E+02 -0.51001045553E+02  0.88180115525E+02  0.47000000000E+01 0.  1.
<mgrwt>
<rscale>  0 0.13329723E+03</rscale>
<asrwt>0</asrwt>
<pdfrwt beam="1">  1        2 0.10153337E+00 0.13368367E+03</pdfrwt>
<pdfrwt beam="2">  1       -2 0.48435813E-02 0.13368367E+03</pdfrwt>
<totfact> 0.88687126E+03</totfact>
</mgrwt>
</event>
<event>
 8    1  0.3177960E-004  0.1065899E+03  0.7546771E-02  0.1268070E+00
         -2   -1    0    0    0  501 -0.00000000000E+00  0.00000000000E+00  0.16781129852E+03  0.16781129852E+03  0.00000000000E+00 0.  1.
          2   -1    0    0  501    0  0.00000000000E+00 -0.00000000000E+00 -0.87203092836E+02  0.87203092836E+02  0.00000000000E+00 0. -1.
         23    2    1    2    0    0  0.53598145268E+02  0.11574305339E+00  0.10298003812E+03  0.14821029606E+03  0.92133756214E+02 0.  0.
         23    2    1    2    0    0 -0.53598145268E+02 -0.11574305339E+00 -0.22371832439E+02  0.10680409529E+03  0.89631698144E+02 0.  0.
          5    1    4    4  502    0 -0.10885221437E+02 -0.30731047261E+02 -0.39407249467E+02  0.51360555118E+02  0.47000000000E+01 0. -1.
         -5    1    4    4    0  502 -0.42712923831E+02  0.30615304207E+02  0.17035417028E+02  0.55443540176E+02  0.47000000000E+01 0.  1.
          5    1    3    3  503    0  0.26882523268E+02  0.29926715488E+02  0.32358674914E+01  0.40630520494E+02  0.47000000000E+01 0. -1.
         -5    1    3    3    0  503  0.26715622000E+02 -0.29810972435E+02  0.99744170628E+02  0.10757977556E+03  0.47000000000E+01 0.  1.
<mgrwt>
<rscale>  0 0.10604697E+03</rscale>
<asrwt>0</asrwt>
<pdfrwt beam="1">  1        2 0.13415860E-01 0.10658989E+03</pdfrwt>
<pdfrwt beam="2">  1       -2 0.25817123E-01 0.10658989E+03</pdfrwt>
<totfact> 0.55839300E+03</totfact>
</mgrwt>
</event>
<event>
 8    1  0.3177960E-004  0.1024970E+03  0.7546771E-02  0.1277597E+00
          2   -1    0    0  501    0  0.00000000000E+00  0.00000000000E+00  0.71301510239E+03  0.71301510239E+03  0.00000000000E+00 0. -1.
         -2   -1    0    0    0  501 -0.00000000000E+00 -0.00000000000E+00 -0.14848577169E+02  0.14848577169E+02  0.00000000000E+00 0.  1.
         23    2    1    2    0    0 -0.29230760598E+02  0.22425666020E+02  0.27317539383E+03  0.29177119564E+03  0.95646677679E+02 0.  0.
         23    2    1    2    0    0  0.29230760598E+02 -0.22425666020E+02  0.42499113140E+03  0.43609248392E+03  0.90564037596E+02 0.  0.
          5    1    3    3  502    0 -0.57220868163E+02  0.10828091316E+02  0.99298308072E+02  0.11521162832E+03  0.47000000000E+01 0. -1.
         -5    1    4    4    0  503  0.47060885923E+02  0.63259591001E+01  0.11914068145E+03  0.12834070562E+03  0.47000000000E+01 0.  1.
          5    1    4    4  503    0 -0.17830125324E+02 -0.28751625120E+02  0.30585044995E+03  0.30775177830E+03  0.47000000000E+01 0. -1.
         -5    1    3    3    0  502  0.27990107565E+02  0.11597574704E+02  0.17387708575E+03  0.17655956732E+03  0.47000000000E+01 0.  1.
<mgrwt>
<rscale>  0 0.10129453E+03</rscale>
<asrwt>0</asrwt>
<pdfrwt beam="1">  1        2 0.10969460E+00 0.10249700E+03</pdfrwt>
<pdfrwt beam="2">  1       -2 0.22843970E-02 0.10249700E+03</pdfrwt>
<totfact> 0.23959327E+04</totfact>
</mgrwt>
</event>
<event>
 8    1  0.3177960E-004  0.1124482E+03  0.7546771E-02  0.1267114E+00
         -3   -1    0    0    0  501 -0.00000000000E+00  0.00000000000E+00  0.51350475939E+02  0.51350475939E+02  0.00000000000E+00 0.  1.
          3   -1    0    0  501    0  0.00000000000E+00 -0.00000000000E+00 -0.28889558471E+03  0.28889558471E+03  0.00000000000E+00 0. -1.
         23    2    1    2    0    0 -0.33787845821E+01  0.39618898301E-01 -0.20349003976E+03  0.22275413244E+03  0.90552688977E+02 0.  0.
         23    2    1    2    0    0  0.33787845821E+01 -0.39618898301E-01 -0.34055069013E+02  0.11749192822E+03  0.11239745422E+03 0.  0.
          5    1    3    3  502    0 -0.45219276634E+02 -0.51938642593E+01 -0.79784819946E+02  0.91975359196E+02  0.47000000000E+01 0. -1.
         -5    1    3    3    0  502  0.41840492052E+02  0.52334831576E+01 -0.12370521982E+03  0.13077877324E+03  0.47000000000E+01 0.  1.
          5    1    4    4  503    0 -0.35918091355E+02  0.41205940923E+02 -0.21760185217E+02  0.59022322172E+02  0.47000000000E+01 0. -1.
         -5    1    4    4    0  503  0.39296875937E+02 -0.41245559821E+02 -0.12294883796E+02  0.58469606044E+02  0.47000000000E+01 0.  1.
<mgrwt>
<rscale>  0 0.10654065E+03</rscale>
<asrwt>0</asrwt>
<pdfrwt beam="1">  1        3 0.44445475E-01 0.11244823E+03</pdfrwt>
<pdfrwt beam="2">  1       -3 0.79000731E-02 0.11244823E+03</pdfrwt>
<totfact> 0.12272162E+03</totfact>
</mgrwt>
</event>
<event>
 8    1  0.3177960E-004  0.1379755E+03  0.7546771E-02  0.1216909E+00
          1   -1    0    0  501    0  0.00000000000E+00  0.00000000000E+00  0.66415879527E+03  0.66415879527E+03  0.00000000000E+00 0. -1.
         -1   -1    0    0    0  501 -0.00000000000E+00 -0.00000000000E+00 -0.63236076104E+02  0.63236076104E+02  0.00000000000E+00 0.  1.
         23    2    1    2    0    0 -0.10042982534E+03 -0.15341084904E+02  0.57012533206E+03  0.58602399807E+03  0.89776017711E+02 0.  0.
         23    2    1    2    0    0  0.10042982534E+03  0.15341084904E+02  0.30797387104E+02  0.14137087330E+03  0.93358160119E+02 0.  0.
          5    1    3    3  502    0 -0.10808073003E+03  0.35676603294E+01  0.52804487073E+03  0.53902471920E+03  0.47000000000E+01 0. -1.
         -5    1    3    3    0  502  0.76509046876E+01 -0.18908745233E+02  0.42080461332E+02  0.46999278875E+02  0.47000000000E+01 0.  1.
          5    1    4    4  503    0  0.62318656485E+02 -0.35678815069E+02  0.28716320091E+02  0.77481028842E+02  0.47000000000E+01 0. -1.
         -5    1    4    4    0  503  0.38111168857E+02  0.51019899973E+02  0.20810670134E+01  0.63889844457E+02  0.47000000000E+01 0.  1.
<mgrwt>
<rscale>  0 0.13737204E+03</rscale>
<asrwt>0</asrwt>
<pdfrwt beam="1">  1        1 0.10217827E+00 0.13797552E+03</pdfrwt>
<pdfrwt beam="2">  1       -1 0.97286276E-02 0.13797552E+03</pdfrwt>
<totfact> 0.19112526E+03</totfact>
</mgrwt>
</event>
<event>
 8    1  0.3177960E-004  0.1191445E+03  0.7546771E-02  0.1244635E+00
          1   -1    0    0  501    0  0.00000000000E+00  0.00000000000E+00  0.22385870388E+03  0.22385870388E+03  0.00000000000E+00 0. -1.
         -1   -1    0    0    0  501 -0.00000000000E+00 -0.00000000000E+00 -0.63303598619E+02  0.63303598619E+02  0.00000000000E+00 0.  1.
         23    2    1    2    0    0  0.59198743092E+02 -0.47507473257E+02  0.76385600166E+02  0.14128595427E+03  0.91463160688E+02 0.  0.
         23    2    1    2    0    0 -0.59198743092E+02  0.47507473257E+02  0.84169505098E+02  0.14587634823E+03  0.91836551467E+02 0.  0.
          5    1    4    4  502    0 -0.76842537920E+02  0.18504957378E+02  0.36553451085E+02  0.87209253338E+02  0.47000000000E+01 0. -1.
         -5    1    3    3    0  503  0.79775631674E+02 -0.38131431814E+02  0.37713439719E+02  0.96242147922E+02  0.47000000000E+01 0.  1.
          5    1    3    3  503    0 -0.20576888582E+02 -0.93760414423E+01  0.38672160448E+02  0.45043806350E+02  0.47000000000E+01 0. -1.
         -5    1    4    4    0  502  0.17643794828E+02  0.29002515879E+02  0.47616054013E+02  0.58667094891E+02  0.47000000000E+01 0.  1.
<mgrwt>
<rscale>  0 0.11907251E+03</rscale>
<asrwt>0</asrwt>
<pdfrwt beam="1">  1        1 0.34439800E-01 0.11914446E+03</pdfrwt>
<pdfrwt beam="2">  1       -1 0.97390152E-02 0.11914446E+03</pdfrwt>
<totfact> 0.75828716E+03</totfact>
</mgrwt>
</event>
<event>
 8    1  0.3177960E-004  0.1088223E+03  0.7546771E-02  0.1262917E+00
          2   -1    0    0  501    0  0.00000000000E+00  0.00000000000E+00  0.70749434035E+03  0.70749434035E+03  0.00000000000E+00 0. -1.
         -2   -1    0    0    0  501 -0.00000000000E+00 -0.00000000000E+00 -0.35108086001E+02  0.35108086001E+02  0.00000000000E+00 0.  1.
         23    2    1    2    0    0  0.32261065607E+01 -0.54698945246E+02  0.67017991518E+02  0.12753085732E+03  0.93650018730E+02 0.  0.
         23    2    1    2    0    0 -0.32261065607E+01  0.54698945246E+02  0.60536826284E+03  0.61507156903E+03  0.94020843477E+02 0.  0.
          5    1    4    4  502    0  0.25471072526E+02  0.66615068110E+02  0.50106192345E+03  0.50613385973E+03  0.47000000000E+01 0. -1.
         -5    1    3    3    0  503 -0.11501568990E+02 -0.69007221855E+02  0.15411152307E+02  0.71790503361E+02  0.47000000000E+01 0.  1.
          5    1    3    3  503    0  0.14727675551E+02  0.14308276609E+02  0.51606839211E+02  0.55740353963E+02  0.47000000000E+01 0. -1.
         -5    1    4    4    0  502 -0.28697179086E+02 -0.11916122865E+02  0.10430633938E+03  0.10893770930E+03  0.47000000000E+01 0.  1.
<mgrwt>
<rscale>  0 0.10874219E+03</rscale>
<asrwt>0</asrwt>
<pdfrwt beam="1">  1        2 0.10884527E+00 0.10882234E+03</pdfrwt>
<pdfrwt beam="2">  1       -2 0.54012445E-02 0.10882234E+03</pdfrwt>
<totfact> 0.68570327E+03</totfact>
</mgrwt>
</event>
<event>
 8    1  0.3177960E-004  0.9722641E+02  0.7546771E-02  0.1287770E+00
         -1   -1    0    0    0  501 -0.00000000000E+00  0.00000000000E+00  0.22063530808E+02  0.22063530808E+02  0.00000000000E+00 0.  1.
          1   -1    0    0  501    0  0.00000000000E+00 -0.00000000000E+00 -0.41702843842E+03  0.41702843842E+03  0.00000000000E+00 0. -1.
         23    2    1    2    0    0  0.27984756534E+02 -0.39214537617E+01 -0.19153899744E+03  0.21480261253E+03  0.93029298674E+02 0.  0.
         23    2    1    2    0    0 -0.27984756534E+02  0.39214537617E+01 -0.20342591017E+03  0.22428935670E+03  0.90139282228E+02 0.  0.
          5    1    3    3  502    0  0.37666837990E+02 -0.42353387822E+02 -0.10233538773E+03  0.11707784473E+03  0.47000000000E+01 0. -1.
         -5    1    4    4    0  503  0.25336680122E+02  0.98054332758E+01 -0.13194032346E+03  0.13479032916E+03  0.47000000000E+01 0.  1.
          5    1    4    4  503    0 -0.53321436656E+02 -0.58839795141E+01 -0.71485586715E+02  0.89499027536E+02  0.47000000000E+01 0. -1.
         -5    1    3    3    0  502 -0.96820814558E+01  0.38431934060E+02 -0.89203609716E+02  0.97724767808E+02  0.47000000000E+01 0.  1.
<mgrwt>
<rscale>  0 0.96528551E+02</rscale>
<asrwt>0</asrwt>
<pdfrwt beam="1">  1        1 0.64158224E-01 0.97226410E+02</pdfrwt>
<pdfrwt beam="2">  1       -1 0.33943892E-02 0.97226410E+02</pdfrwt>
<totfact> 0.16457116E+04</totfact>
</mgrwt>
</event>
<event>
 7    1  0.3177960E-004  0.1466163E+03  0.7546771E-02  0.1218739E+00
         -2   -1    0    0    0  501 -0.00000000000E+00  0.00000000000E+00  0.90382585287E+02  0.90382585287E+02  0.00000000000E+00 0.  1.
          2   -1    0    0  501    0  0.00000000000E+00 -0.00000000000E+00 -0.19376500978E+03  0.19376500978E+03  0.00000000000E+00 0. -1.
         23    2    1    2    0    0 -0.56717414114E+02 -0.21214599367E+01 -0.81573498718E+02  0.13591810172E+03  0.92726096793E+02 0.  0.
          5    1    3    3  502    0 -0.72991272798E+02  0.20232321532E+02 -0.75845127718E+02  0.10729233960E+03  0.47000000000E+01 0. -1.
         -5    1    3    3    0  502  0.16273858685E+02 -0.22353781469E+02 -0.57283710003E+01  0.28625762117E+02  0.47000000000E+01 0.  1.
          5    1    1    2  503    0 -0.32995897708E+02 -0.16785762137E+02 -0.39930430775E+02  0.54653640116E+02  0.47000000000E+01 0. -1.
         -5    1    1    2    0  503  0.89713311822E+02  0.18907222073E+02  0.18121504998E+02  0.93575853231E+02  0.47000000000E+01 0.  1.
<mgrwt>
<rscale>  0 0.13605411E+03</rscale>
<asrwt>0</asrwt>
<pdfrwt beam="1">  1        2 0.29810002E-01 0.14661635E+03</pdfrwt>
<pdfrwt beam="2">  1       -2 0.13905013E-01 0.14661635E+03</pdfrwt>
<totfact> 0.65528229E+03</totfact>
</mgrwt>
</event>
<event>
 8    1  0.3177960E-004  0.1341043E+03  0.7546771E-02  0.1222083E+00
         -2   -1    0    0    0  501 -0.00000000000E+00  0.00000000000E+00  0.12241156513E+02  0.12241156513E+02  0.00000000000E+00 0.  1.
          2   -1    0    0  501    0  0.00000000000E+00 -0.00000000000E+00 -0.14517180175E+04  0.14517180175E+04  0.00000000000E+00 0. -1.
         23    2    1    2    0    0 -0.72020411048E+02  0.64097009234E+02 -0.70866812854E+03  0.72124509465E+03  0.93212681246E+02 0.  0.
         23    2    1    2    0    0  0.72020411048E+02 -0.64097009234E+02 -0.73080873247E+03  0.74271407939E+03  0.90815384521E+02 0.  0.
          5    1    3    3  502    0  0.53828620376E+01  0.47724638435E+02 -0.38510662319E+03  0.38811830354E+03  0.47000000000E+01 0. -1.
         -5    1    3    3    0  502 -0.77403273086E+02  0.16372370799E+02 -0.32356150536E+03  0.33312679112E+03  0.47000000000E+01 0.  1.
          5    1    4    4  503    0  0.47352820870E+02 -0.86500155255E+02 -0.53418844927E+03  0.54323471523E+03  0.47000000000E+01 0. -1.
         -5    1    4    4    0  503  0.24667590179E+02  0.22403146021E+02 -0.19662028320E+03  0.19947936415E+03  0.47000000000E+01 0.  1.
<mgrwt>
<rscale>  0 0.13368862E+03</rscale>
<asrwt>0</asrwt>
<pdfrwt beam="1">  1        2 0.22334124E+00 0.13410433E+03</pdfrwt>
<pdfrwt beam="2">  1       -2 0.18832548E-02 0.13410433E+03</pdfrwt>
<totfact> 0.11881203E+04</totfact>
</mgrwt>
</event>
<event>
 8    1  0.3177960E-004  0.1334424E+03  0.7546771E-02  0.1223963E+00
         -1   -1    0    0    0  501 -0.00000000000E+00  0.00000000000E+00  0.30729910281E+02  0.30729910281E+02  0.00000000000E+00 0.  1.
          1   -1    0    0  501    0  0.00000000000E+00 -0.00000000000E+00 -0.10762667370E+04  0.10762667370E+04  0.00000000000E+00 0. -1.
         23    2    1    2    0    0  0.88517810441E+02  0.38543425164E+02 -0.90991527398E+03  0.91964812721E+03  0.92118801930E+02 0.  0.
         23    2    1    2    0    0 -0.88517810441E+02 -0.38543425164E+02 -0.13562155269E+03  0.18734852002E+03  0.85937558798E+02 0.  0.
          5    1    4    4  502    0 -0.56200179667E+02 -0.42282089588E+02 -0.13740478601E+03  0.15442927350E+03  0.47000000000E+01 0. -1.
         -5    1    3    3    0  503  0.97024656537E+02  0.56952886421E+02 -0.76182616029E+03  0.77010298256E+03  0.47000000000E+01 0.  1.
          5    1    3    3  503    0 -0.85068460965E+01 -0.18409461257E+02 -0.14808911369E+03  0.14954514465E+03  0.47000000000E+01 0. -1.
         -5    1    4    4    0  502 -0.32317630773E+02  0.37386644246E+01  0.17832333238E+01  0.32919246522E+02  0.47000000000E+01 0.  1.
<mgrwt>
<rscale>  0 0.13238241E+03</rscale>
<asrwt>0</asrwt>
<pdfrwt beam="1">  1        1 0.16557949E+00 0.13344239E+03</pdfrwt>
<pdfrwt beam="2">  1       -1 0.47276787E-02 0.13344239E+03</pdfrwt>
<totfact> 0.26551960E+03</totfact>
</mgrwt>
</event>
<event>
 8    1  0.4472930E-004  0.1189459E+03  0.7546771E-02  0.1244891E+00
          3   -1    0    0  501    0  0.00000000000E+00  0.00000000000E+00  0.53671743291E+03  0.53671743291E+03  0.00000000000E+00 0. -1.
         -3   -1    0    0    0  501 -0.00000000000E+00 -0.00000000000E+00 -0.99624075739E+02  0.99624075739E+02  0.00000000000E+00 0.  1.
         23    2    1    2    0    0 -0.28100549307E+02 -0.70474288226E+02  0.49141378835E+03  0.50557902705E+03  0.91467890732E+02 0.  0.
         23    2    1    2    0    0  0.28100549307E+02  0.70474288226E+02 -0.54320431186E+02  0.13076248160E+03  0.91607047638E+02 0.  0.
          5    1    4    4  502    0  0.22254735951E+02 -0.14728976444E+02  0.37831733051E+01  0.27360892156E+02  0.47000000000E+01 0. -1.
         -5    1    3    3    0  503 -0.22394912549E+02  0.53668156271E+01  0.31003595342E+02  0.38905626100E+02  0.47000000000E+01 0.  1.
          5    1    3    3  503    0 -0.57056367580E+01 -0.75841103853E+02  0.46041019301E+03  0.46667340095E+03  0.47000000000E+01 0. -1.
         -5    1    4    4    0  502  0.58458133566E+01  0.85203264670E+02 -0.58103604491E+02  0.10340158944E+03  0.47000000000E+01 0.  1.
<mgrwt>
<rscale>  0 0.11891906E+03</rscale>
<asrwt>0</asrwt>
<pdfrwt beam="1">  1        3 0.82571911E-01 0.11894586E+03</pdfrwt>
<pdfrwt beam="2">  1       -3 0.15326781E-01 0.11894586E+03</pdfrwt>
<totfact> 0.11518718E+02</totfact>
</mgrwt>
</event>
<event>
 8    1  0.3177960E-004  0.9290783E+02  0.7546771E-02  0.1302317E+00
         -4   -1    0    0    0  501 -0.00000000000E+00  0.00000000000E+00  0.33449616782E+03  0.33449616782E+03  0.00000000000E+00 0.  1.
          4   -1    0    0  501    0  0.00000000000E+00 -0.00000000000E+00 -0.86282867215E+02  0.86282867215E+02  0.00000000000E+00 0. -1.
         23    2    1    2    0    0  0.31127792550E+01 -0.45095696785E+01  0.30222371655E+03  0.31331281238E+03  0.82436144622E+02 0.  0.
         23    2    1    2    0    0 -0.31127792550E+01  0.45095696785E+01 -0.54010415942E+02  0.10746622266E+03  0.92746096251E+02 0.  0.
          5    1    3    3  502    0  0.33765568978E+02 -0.27663499333E+02  0.15776707083E+03  0.16376178273E+03  0.47000000000E+01 0. -1.
         -5    1    4    4    0  503  0.34032962021E+02 -0.22929620771E+01 -0.59769438599E+02  0.68978083254E+02  0.47000000000E+01 0.  1.
          5    1    4    4  503    0 -0.37145741276E+02  0.68025317556E+01  0.57590226571E+01  0.38488139409E+02  0.47000000000E+01 0. -1.
         -5    1    3    3    0  502 -0.30652789723E+02  0.23153929655E+02  0.14445664572E+03  0.14955102965E+03  0.47000000000E+01 0.  1.
<mgrwt>
<rscale>  0 0.90221069E+02</rscale>
<asrwt>0</asrwt>
<pdfrwt beam="1">  1        4 0.13274288E-01 0.92907825E+02</pdfrwt>
<pdfrwt beam="2">  1       -4 0.51460948E-01 0.92907825E+02</pdfrwt>
<totfact> 0.26366801E+02</totfact>
</mgrwt>
</event>
<event>
 8    1  0.3177960E-004  0.1121315E+03  0.7546771E-02  0.1259794E+00
          1   -1    0    0  501    0  0.00000000000E+00  0.00000000000E+00  0.73498345780E+03  0.73498345780E+03  0.00000000000E+00 0. -1.
         -1   -1    0    0    0  501 -0.00000000000E+00 -0.00000000000E+00 -0.17879465244E+02  0.17879465244E+02  0.00000000000E+00 0.  1.
         23    2    1    2    0    0 -0.50871240826E+02 -0.10240654642E+01  0.46727284604E+03  0.47902158940E+03  0.92351711460E+02 0.  0.
         23    2    1    2    0    0  0.50871240826E+02  0.10240654642E+01  0.24983114652E+03  0.27384133365E+03  0.99922682060E+02 0.  0.
          5    1    3    3  502    0 -0.55228974192E+02 -0.38399109362E+02  0.30847125627E+03  0.31575518545E+03  0.47000000000E+01 0. -1.
         -5    1    3    3    0  502  0.43577333658E+01  0.37375043898E+02  0.15880158976E+03  0.16326640395E+03  0.47000000000E+01 0.  1.
          5    1    4    4  503    0  0.62867796427E+02 -0.32151644544E+02  0.20326535536E+03  0.21523239246E+03  0.47000000000E+01 0. -1.
         -5    1    4    4    0  503 -0.11996555601E+02  0.33175710008E+02  0.46565791152E+02  0.58608941181E+02  0.47000000000E+01 0.  1.
<mgrwt>
<rscale>  0 0.11042005E+03</rscale>
<asrwt>0</asrwt>
<pdfrwt beam="1">  1        1 0.11307435E+00 0.11213150E+03</pdfrwt>
<pdfrwt beam="2">  1       -1 0.27506875E-02 0.11213150E+03</pdfrwt>
<totfact> 0.10629121E+04</totfact>
</mgrwt>
</event>
<event>
 8    1  0.3177960E-004  0.3119800E+03  0.7546771E-02  0.1079423E+00
          2   -1    0    0  501    0  0.00000000000E+00  0.00000000000E+00  0.10153550751E+04  0.10153550751E+04  0.00000000000E+00 0. -1.
         -2   -1    0    0    0  501 -0.00000000000E+00 -0.00000000000E+00 -0.98687806917E+02  0.98687806917E+02  0.00000000000E+00 0.  1.
         23    2    1    2    0    0 -0.21651105565E+03 -0.20479061189E+03  0.55373025920E+03  0.63556960887E+03  0.92278360587E+02 0.  0.
         23    2    1    2    0    0  0.21651105565E+03  0.20479061189E+03  0.36293700895E+03  0.47847327311E+03  0.91636066484E+02 0.  0.
          5    1    4    4  502    0  0.32045795306E+02  0.12325288542E+02  0.98593080809E+01  0.36029733419E+02  0.47000000000E+01 0. -1.
         -5    1    3    3    0  503 -0.55754854631E+02 -0.16763162130E+02  0.62494785278E+02  0.85541192454E+02  0.47000000000E+01 0.  1.
          5    1    3    3  503    0 -0.16075620102E+03 -0.18802744976E+03  0.49123547392E+03  0.55002841641E+03  0.47000000000E+01 0. -1.
         -5    1    4    4    0  502  0.18446526034E+03  0.19246532335E+03  0.35307770087E+03  0.44244353969E+03  0.47000000000E+01 0.  1.
<mgrwt>
<rscale>  0 0.31193266E+03</rscale>
<asrwt>0</asrwt>
<pdfrwt beam="1">  1        2 0.15620847E+00 0.31198001E+03</pdfrwt>
<pdfrwt beam="2">  1       -2 0.15182740E-01 0.31198001E+03</pdfrwt>
<totfact> 0.86234182E+02</totfact>
</mgrwt>
</event>
<event>
 8    1  0.3177960E-004  0.3015964E+03  0.7546771E-02  0.1084529E+00
         -2   -1    0    0    0  501 -0.00000000000E+00  0.00000000000E+00  0.95214007926E+02  0.95214007926E+02  0.00000000000E+00 0.  1.
          2   -1    0    0  501    0  0.00000000000E+00 -0.00000000000E+00 -0.95417643706E+03  0.95417643706E+03  0.00000000000E+00 0. -1.
         23    2    1    2    0    0 -0.53040483990E+02  0.28201400899E+03 -0.41219633331E+03  0.51035398644E+03  0.90610044009E+02 0.  0.
         23    2    1    2    0    0  0.53040483990E+02 -0.28201400899E+03 -0.44676609583E+03  0.53903645855E+03  0.92817913422E+02 0.  0.
          5    1    3    3  502    0 -0.23345746861E+02  0.19514761855E+03 -0.34281991875E+03  0.39519008542E+03  0.47000000000E+01 0. -1.
         -5    1    4    4    0  503  0.72211194499E+02 -0.15431971745E+03 -0.22347995033E+03  0.28105944212E+03  0.47000000000E+01 0.  1.
          5    1    4    4  503    0 -0.19170710509E+02 -0.12769429154E+03 -0.22328614549E+03  0.25797701642E+03  0.47000000000E+01 0. -1.
         -5    1    3    3    0  502 -0.29694737129E+02  0.86866390443E+02 -0.69376414555E+02  0.11516390102E+03  0.47000000000E+01 0.  1.
<mgrwt>
<rscale>  0 0.30142817E+03</rscale>
<asrwt>0</asrwt>
<pdfrwt beam="1">  1        2 0.14679639E+00 0.30159635E+03</pdfrwt>
<pdfrwt beam="2">  1       -2 0.14648308E-01 0.30159635E+03</pdfrwt>
<totfact> 0.99957553E+02</totfact>
</mgrwt>
</event>
<event>
 8    1  0.3177960E-004  0.1034884E+03  0.7546771E-02  0.1273755E+00
          1   -1    0    0  501    0  0.00000000000E+00  0.00000000000E+00  0.65272887490E+02  0.65272887490E+02  0.00000000000E+00 0. -1.
         -1   -1    0    0    0  501 -0.00000000000E+00 -0.00000000000E+00 -0.16211273033E+03  0.16211273033E+03  0.00000000000E+00 0.  1.
         23    2    1    2    0    0 -0.28980269412E+02  0.36029980165E+02 -0.48795660920E+02  0.11441532455E+03  0.92584202115E+02 0.  0.
         23    2    1    2    0    0  0.28980269412E+02 -0.36029980165E+02 -0.48044181915E+02  0.11297029327E+03  0.91192259863E+02 0.  0.
          5    1    4    4  502    0 -0.31603526459E+01  0.28967787704E+02 -0.15736589635E+02  0.33449227295E+02  0.47000000000E+01 0. -1.
         -5    1    4    4    0  502  0.32140622058E+02 -0.64997767869E+02 -0.32307592280E+02  0.79521065971E+02  0.47000000000E+01 0.  1.
          5    1    3    3  503    0 -0.46426855159E+02  0.46052502079E+02 -0.61720834042E+02  0.90043529376E+02  0.47000000000E+01 0. -1.
         -5    1    3    3    0  503  0.17446585746E+02 -0.10022521914E+02  0.12925173122E+02  0.24371795173E+02  0.47000000000E+01 0.  1.
<mgrwt>
<rscale>  0 0.10317615E+03</rscale>
<asrwt>0</asrwt>
<pdfrwt beam="1">  1        1 0.10041983E-01 0.10348840E+03</pdfrwt>
<pdfrwt beam="2">  1       -1 0.24940420E-01 0.10348840E+03</pdfrwt>
<totfact> 0.82238589E+03</totfact>
</mgrwt>
</event>
<event>
 8    1  0.3177960E-004  0.1212118E+03  0.7546771E-02  0.1241675E+00
          1   -1    0    0  501    0  0.00000000000E+00  0.00000000000E+00  0.40843351267E+02  0.40843351267E+02  0.00000000000E+00 0. -1.
         -1   -1    0    0    0  501 -0.00000000000E+00 -0.00000000000E+00 -0.42312053960E+03  0.42312053960E+03  0.00000000000E+00 0.  1.
         23    2    1    2    0    0 -0.43982417559E+02  0.64281956067E+02 -0.97584874758E+02  0.15454181581E+03  0.91069984747E+02 0.  0.
         23    2    1    2    0    0  0.43982417559E+02 -0.64281956067E+02 -0.28469231357E+03  0.30942207505E+03  0.92874561610E+02 0.  0.
          5    1    4    4  502    0  0.22750676831E+02 -0.86819643520E+02 -0.21354435436E+03  0.23168626432E+03  0.47000000000E+01 0. -1.
         -5    1    3    3    0  503 -0.33102937694E+02  0.85221935190E+02 -0.92111410173E+02  0.12986602560E+03  0.47000000000E+01 0.  1.
          5    1    3    3  503    0 -0.10879479865E+02 -0.20939979123E+02 -0.54734645847E+01  0.24675790207E+02  0.47000000000E+01 0. -1.
         -5    1    4    4    0  502  0.21231740727E+02  0.22537687453E+02 -0.71147959212E+02  0.77735810732E+02  0.47000000000E+01 0.  1.
<mgrwt>
<rscale>  0 0.12086608E+03</rscale>
<asrwt>0</asrwt>
<pdfrwt beam="1">  1        1 0.62835923E-02 0.12121183E+03</pdfrwt>
<pdfrwt beam="2">  1       -1 0.65095470E-01 0.12121183E+03</pdfrwt>
<totfact> 0.28790367E+03</totfact>
</mgrwt>
</event>
<event>
 8    1  0.3177960E-004  0.1012672E+03  0.7546771E-02  0.1278372E+00
          1   -1    0    0  501    0  0.00000000000E+00  0.00000000000E+00  0.45178419084E+03  0.45178419084E+03  0.00000000000E+00 0. -1.
         -1   -1    0    0    0  501 -0.00000000000E+00 -0.00000000000E+00 -0.24904699115E+02  0.24904699115E+02  0.00000000000E+00 0.  1.
         23    2    1    2    0    0  0.32592563187E+02  0.25807761682E+02  0.29047828021E+03  0.30762423730E+03  0.92340264027E+02 0.  0.
         23    2    1    2    0    0 -0.32592563187E+02 -0.25807761682E+02  0.13640121151E+03  0.16906465266E+03  0.90825384872E+02 0.  0.
          5    1    4    4  502    0 -0.40760971578E+02  0.21234647183E+02  0.38888984206E+02  0.60388824608E+02  0.47000000000E+01 0. -1.
         -5    1    4    4    0  502  0.81684083909E+01 -0.47042408865E+02  0.97512227307E+02  0.10867582805E+03  0.47000000000E+01 0.  1.
          5    1    3    3  503    0  0.43134248134E+02 -0.16548791172E+02  0.21796540687E+03  0.22285743076E+03  0.47000000000E+01 0. -1.
         -5    1    3    3    0  503 -0.10541684947E+02  0.42356552853E+02  0.72512873343E+02  0.84766806544E+02  0.47000000000E+01 0.  1.
<mgrwt>
<rscale>  0 0.10092055E+03</rscale>
<asrwt>0</asrwt>
<pdfrwt beam="1">  1        1 0.69505254E-01 0.10126717E+03</pdfrwt>
<pdfrwt beam="2">  1       -1 0.38314925E-02 0.10126717E+03</pdfrwt>
<totfact> 0.12526295E+04</totfact>
</mgrwt>
</event>
<event>
 8    1  0.3177960E-004  0.1062148E+03  0.7546771E-02  0.1273259E+00
         -2   -1    0    0    0  501 -0.00000000000E+00  0.00000000000E+00  0.17595141779E+02  0.17595141779E+02  0.00000000000E+00 0.  1.
          2   -1    0    0  501    0  0.00000000000E+00 -0.00000000000E+00 -0.86207934728E+03  0.86207934728E+03  0.00000000000E+00 0. -1.
         23    2    1    2    0    0 -0.17051788771E+02  0.28286979090E+02 -0.65941797673E+03  0.66629431724E+03  0.89583103657E+02 0.  0.
         23    2    1    2    0    0  0.17051788771E+02 -0.28286979090E+02 -0.18506622877E+03  0.21338017182E+03  0.10094885838E+03 0.  0.
          5    1    4    4  502    0 -0.34110001756E+01  0.31647089054E+02 -0.23683515742E+02  0.39952122418E+02  0.47000000000E+01 0. -1.
         -5    1    4    4    0  502  0.20462788946E+02 -0.59934068144E+02 -0.16138271302E+03  0.17342804940E+03  0.47000000000E+01 0.  1.
          5    1    3    3  503    0 -0.48542304337E+02  0.37930459744E+02 -0.45777895606E+03  0.46192936440E+03  0.47000000000E+01 0. -1.
         -5    1    3    3    0  503  0.31490515567E+02 -0.96434806536E+01 -0.20163902067E+03  0.20436495283E+03  0.47000000000E+01 0.  1.
<mgrwt>
<rscale>  0 0.10342242E+03</rscale>
<asrwt>0</asrwt>
<pdfrwt beam="1">  1        2 0.13262760E+00 0.10621482E+03</pdfrwt>
<pdfrwt beam="2">  1       -2 0.27069447E-02 0.10621482E+03</pdfrwt>
<totfact> 0.14899657E+04</totfact>
</mgrwt>
</event>
<event>
 8    1  0.3177960E-004  0.1043591E+03  0.7546771E-02  0.1271585E+00
         -2   -1    0    0    0  501 -0.00000000000E+00  0.00000000000E+00  0.10872257488E+02  0.10872257488E+02  0.00000000000E+00 0.  1.
          2   -1    0    0  501    0  0.00000000000E+00 -0.00000000000E+00 -0.10248490683E+04  0.10248490683E+04  0.00000000000E+00 0. -1.
         23    2    1    2    0    0 -0.47937961536E+02  0.24682151752E+02 -0.42395025585E+03  0.43660583073E+03  0.89350854647E+02 0.  0.
         23    2    1    2    0    0  0.47937961536E+02 -0.24682151752E+02 -0.59002655501E+03  0.59911549510E+03  0.88886354867E+02 0.  0.
          5    1    4    4  502    0  0.30995262469E+02 -0.56323508259E+02 -0.30057575439E+03  0.30741001611E+03  0.47000000000E+01 0. -1.
         -5    1    4    4    0  502  0.16942699067E+02  0.31641356506E+02 -0.28945080062E+03  0.29170547899E+03  0.47000000000E+01 0.  1.
          5    1    3    3  503    0 -0.62386102821E+02  0.53245055085E+01 -0.38795287487E+03  0.39300114415E+03  0.47000000000E+01 0. -1.
         -5    1    3    3    0  503  0.14448141285E+02  0.19357646244E+02 -0.35997380976E+02  0.43604686581E+02  0.47000000000E+01 0.  1.
<mgrwt>
<rscale>  0 0.10425965E+03</rscale>
<asrwt>0</asrwt>
<pdfrwt beam="1">  1        2 0.15766912E+00 0.10435915E+03</pdfrwt>
<pdfrwt beam="2">  1       -2 0.16726547E-02 0.10435915E+03</pdfrwt>
<totfact> 0.23741949E+04</totfact>
</mgrwt>
</event>
<event>
 8    1  0.3177960E-004  0.9741864E+02  0.7546771E-02  0.1287434E+00
         -1   -1    0    0    0  501 -0.00000000000E+00  0.00000000000E+00  0.16604065558E+03  0.16604065558E+03  0.00000000000E+00 0.  1.
          1   -1    0    0  501    0  0.00000000000E+00 -0.00000000000E+00 -0.90954925742E+02  0.90954925742E+02  0.00000000000E+00 0. -1.
         23    2    1    2    0    0 -0.23966621657E+02 -0.69243262366E+01 -0.43072673219E+02  0.10385577707E+03  0.91150545835E+02 0.  0.
         23    2    1    2    0    0  0.23966621657E+02  0.69243262366E+01  0.11815840306E+03  0.15313980425E+03  0.94170304154E+02 0.  0.
          5    1    3    3  502    0 -0.38369640398E+02  0.33356979617E+02 -0.18556371159E+02  0.54326294775E+02  0.47000000000E+01 0. -1.
         -5    1    4    4    0  503 -0.35161559153E+02 -0.45355164004E+01  0.32521442152E+02  0.48338807916E+02  0.47000000000E+01 0.  1.
          5    1    4    4  503    0  0.59128180809E+02  0.11459842637E+02  0.85636960906E+02  0.10480099633E+03  0.47000000000E+01 0. -1.
         -5    1    3    3    0  502  0.14403018741E+02 -0.40281305853E+02 -0.24516302060E+02  0.49529482299E+02  0.47000000000E+01 0.  1.
<mgrwt>
<rscale>  0 0.96681336E+02</rscale>
<asrwt>0</asrwt>
<pdfrwt beam="1">  1        1 0.13993066E-01 0.97418640E+02</pdfrwt>
<pdfrwt beam="2">  1       -1 0.25544716E-01 0.97418640E+02</pdfrwt>
<totfact> 0.51112576E+03</totfact>
</mgrwt>
</event>
<event>
 8    1  0.3177960E-004  0.9899614E+02  0.7546771E-02  0.1286146E+00
         -1   -1    0    0    0  501 -0.00000000000E+00  0.00000000000E+00  0.55480791966E+03  0.55480791966E+03  0.00000000000E+00 0.  1.
          1   -1    0    0  501    0  0.00000000000E+00 -0.00000000000E+00 -0.39483977967E+02  0.39483977967E+02  0.00000000000E+00 0. -1.
         23    2    1    2    0    0 -0.37043659058E+02 -0.62626312210E+00  0.34715075987E+02  0.10490648968E+03  0.91802016283E+02 0.  0.
         23    2    1    2    0    0  0.37043659058E+02  0.62626312210E+00  0.48060886570E+03  0.48938540795E+03  0.84501898426E+02 0.  0.
          5    1    3    3  502    0 -0.44037319451E+02 -0.30757331181E+02  0.46769331312E+02  0.71377582456E+02  0.47000000000E+01 0. -1.
         -5    1    4    4    0  503  0.26757331369E+02 -0.37245872219E+02  0.34712285283E+03  0.35017077939E+03  0.47000000000E+01 0.  1.
          5    1    4    4  503    0  0.10286327690E+02  0.37872135341E+02  0.13348601287E+03  0.13921462856E+03  0.47000000000E+01 0. -1.
         -5    1    3    3    0  502  0.69936603928E+01  0.30131068059E+02 -0.12054255325E+02  0.33528907222E+02  0.47000000000E+01 0.  1.
<mgrwt>
<rscale>  0 0.97269182E+02</rscale>
<asrwt>0</asrwt>
<pdfrwt beam="1">  1        1 0.60744586E-02 0.98996137E+02</pdfrwt>
<pdfrwt beam="2">  1       -1 0.85355059E-01 0.98996137E+02</pdfrwt>
<totfact> 0.17352206E+03</totfact>
</mgrwt>
</event>
<event>
 8    1  0.3177960E-004  0.1045710E+03  0.7546771E-02  0.1271072E+00
          4   -1    0    0  501    0  0.00000000000E+00  0.00000000000E+00  0.65028436786E+02  0.65028436786E+02  0.00000000000E+00 0. -1.
         -4   -1    0    0    0  501 -0.00000000000E+00 -0.00000000000E+00 -0.20279320785E+03  0.20279320785E+03  0.00000000000E+00 0.  1.
         23    2    1    2    0    0  0.10545310753E+02 -0.50359985459E+02 -0.12443529875E+03  0.16240451521E+03  0.90795105983E+02 0.  0.
         23    2    1    2    0    0 -0.10545310753E+02  0.50359985459E+02 -0.13329472318E+02  0.10541712943E+03  0.91037160716E+02 0.  0.
          5    1    4    4  502    0 -0.18332454919E+02  0.74910065239E+02 -0.31530306075E+01  0.77328056871E+02  0.47000000000E+01 0. -1.
         -5    1    3    3    0  503  0.46466619752E+02 -0.10771866574E+02 -0.77441117091E+02  0.91073577271E+02  0.47000000000E+01 0.  1.
          5    1    3    3  503    0 -0.35921308999E+02 -0.39588118885E+02 -0.46994181658E+02  0.71330937935E+02  0.47000000000E+01 0. -1.
         -5    1    4    4    0  502  0.77871441665E+01 -0.24550079780E+02 -0.10176441710E+02  0.28089072562E+02  0.47000000000E+01 0.  1.
<mgrwt>
<rscale>  0 0.10451831E+03</rscale>
<asrwt>0</asrwt>
<pdfrwt beam="1">  1        4 0.10004375E-01 0.10457101E+03</pdfrwt>
<pdfrwt beam="2">  1       -4 0.31198955E-01 0.10457101E+03</pdfrwt>
<totfact> 0.11631807E+03</totfact>
</mgrwt>
</event>
<event>
 8    1  0.3177960E-004  0.9742547E+02  0.7546771E-02  0.1287802E+00
          1   -1    0    0  501    0  0.00000000000E+00  0.00000000000E+00  0.89672311883E+02  0.89672311883E+02  0.00000000000E+00 0. -1.
         -1   -1    0    0    0  501 -0.00000000000E+00 -0.00000000000E+00 -0.10213284602E+03  0.10213284602E+03  0.00000000000E+00 0.  1.
         23    2    1    2    0    0 -0.18857436410E+02  0.10566677642E+02 -0.10064124240E+02  0.97943910287E+02  0.94997186176E+02 0.  0.
         23    2    1    2    0    0  0.18857436410E+02 -0.10566677642E+02 -0.23964098956E+01  0.93861247614E+02  0.91306809379E+02 0.  0.
          5    1    3    3  502    0  0.22222017909E+02  0.22202704661E+02  0.26631369902E+02  0.41449946165E+02  0.47000000000E+01 0. -1.
         -5    1    4    4    0  503 -0.11989631601E+02 -0.44530962163E+02 -0.91431988568E+01  0.47248766570E+02  0.47000000000E+01 0.  1.
          5    1    4    4  503    0  0.30847068010E+02  0.33964284521E+02  0.67467889612E+01  0.46612481045E+02  0.47000000000E+01 0. -1.
         -5    1    3    3    0  502 -0.41079454319E+02 -0.11636027019E+02 -0.36695494142E+02  0.56493964122E+02  0.47000000000E+01 0.  1.
<mgrwt>
<rscale>  0 0.96514058E+02</rscale>
<asrwt>0</asrwt>
<pdfrwt beam="1">  1        1 0.13795740E-01 0.97425474E+02</pdfrwt>
<pdfrwt beam="2">  1       -1 0.15712745E-01 0.97425474E+02</pdfrwt>
<totfact> 0.11289308E+04</totfact>
</mgrwt>
</event>
<event>
 8    1  0.3177960E-004  0.9783158E+02  0.7546771E-02  0.1291882E+00
         -2   -1    0    0    0  501 -0.00000000000E+00  0.00000000000E+00  0.60974970754E+02  0.60974970754E+02  0.00000000000E+00 0.  1.
          2   -1    0    0  501    0  0.00000000000E+00 -0.00000000000E+00 -0.32271434697E+03  0.32271434697E+03  0.00000000000E+00 0. -1.
         23    2    1    2    0    0  0.15132871353E+02  0.29444128868E+02  0.10350492672E+02  0.98377591751E+02  0.92060074626E+02 0.  0.
         23    2    1    2    0    0 -0.15132871353E+02 -0.29444128868E+02 -0.27208986888E+03  0.28531172597E+03  0.79208103786E+02 0.  0.
          5    1    3    3  502    0 -0.74733641921E+01  0.21250375053E+02 -0.37856639138E+02  0.44301746456E+02  0.47000000000E+01 0. -1.
         -5    1    3    3    0  502  0.22606235545E+02  0.81937538150E+01  0.48207131810E+02  0.54075845295E+02  0.47000000000E+01 0.  1.
          5    1    4    4  503    0 -0.37963683968E+02 -0.40786518127E+02 -0.14100185224E+03  0.15168517955E+03  0.47000000000E+01 0. -1.
         -5    1    4    4    0  503  0.22830812615E+02  0.11342389259E+02 -0.13108801665E+03  0.13362654642E+03  0.47000000000E+01 0.  1.
<mgrwt>
<rscale>  0 0.94687332E+02</rscale>
<asrwt>0</asrwt>
<pdfrwt beam="1">  1        2 0.49648361E-01 0.97831579E+02</pdfrwt>
<pdfrwt beam="2">  1       -2 0.93807647E-02 0.97831579E+02</pdfrwt>
<totfact> 0.69141819E+03</totfact>
</mgrwt>
</event>
<event>
 8    1  0.3177960E-004  0.1323002E+03  0.7546771E-02  0.1224446E+00
         -2   -1    0    0    0  501 -0.00000000000E+00  0.00000000000E+00  0.11970961815E+03  0.11970961815E+03  0.00000000000E+00 0.  1.
          2   -1    0    0  501    0  0.00000000000E+00 -0.00000000000E+00 -0.14771934507E+03  0.14771934507E+03  0.00000000000E+00 0. -1.
         23    2    1    2    0    0  0.72301429580E+02 -0.62438211963E+02 -0.31716893402E+02  0.13507686630E+03  0.90076475570E+02 0.  0.
         23    2    1    2    0    0 -0.72301429580E+02  0.62438211963E+02  0.37071664780E+01  0.13235209692E+03  0.91527632128E+02 0.  0.
          5    1    3    3  502    0  0.27724042422E+02  0.19413405746E+02  0.54962402881E+01  0.34609269108E+02  0.47000000000E+01 0. -1.
         -5    1    4    4    0  503 -0.15871500839E+02  0.49093692624E+02  0.38515687402E+02  0.64557287508E+02  0.47000000000E+01 0.  1.
          5    1    4    4  503    0 -0.56429928740E+02  0.13344519339E+02 -0.34808520924E+02  0.67794809410E+02  0.47000000000E+01 0. -1.
         -5    1    3    3    0  502  0.44577387157E+02 -0.81851617709E+02 -0.37213133690E+02  0.10046759720E+03  0.47000000000E+01 0.  1.
<mgrwt>
<rscale>  0 0.13204952E+03</rscale>
<asrwt>0</asrwt>
<pdfrwt beam="1">  1        2 0.22726053E-01 0.13230017E+03</pdfrwt>
<pdfrwt beam="2">  1       -2 0.18416864E-01 0.13230017E+03</pdfrwt>
<totfact> 0.55212749E+03</totfact>
</mgrwt>
</event>
<event>
 8    1  0.3177960E-004  0.9742429E+02  0.7546771E-02  0.1286292E+00
         -3   -1    0    0    0  501 -0.00000000000E+00  0.00000000000E+00  0.30267771102E+02  0.30267771102E+02  0.00000000000E+00 0.  1.
          3   -1    0    0  501    0  0.00000000000E+00 -0.00000000000E+00 -0.33130329026E+03  0.33130329026E+03  0.00000000000E+00 0. -1.
         23    2    1    2    0    0 -0.25991156140E+01 -0.35444900267E+02 -0.10612132037E+03  0.14405980215E+03  0.90710504360E+02 0.  0.
         23    2    1    2    0    0  0.25991156140E+01  0.35444900267E+02 -0.19491419879E+03  0.21751125921E+03  0.89758044981E+02 0.  0.
          5    1    4    4  502    0  0.29646866838E+02  0.50922745280E+02 -0.15951758565E+03  0.17011764410E+03  0.47000000000E+01 0. -1.
         -5    1    3    3    0  503 -0.40328603479E+02 -0.31896479211E+02 -0.32177784108E+02  0.60838157720E+02  0.47000000000E+01 0.  1.
          5    1    3    3  503    0  0.37729487865E+02 -0.35484210561E+01 -0.73943536263E+02  0.83221644430E+02  0.47000000000E+01 0. -1.
         -5    1    4    4    0  502 -0.27047751224E+02 -0.15477845013E+02 -0.35396613133E+02  0.47393615116E+02  0.47000000000E+01 0.  1.
<mgrwt>
<rscale>  0 0.97201979E+02</rscale>
<asrwt>0</asrwt>
<pdfrwt beam="1">  1        3 0.50969734E-01 0.97424288E+02</pdfrwt>
<pdfrwt beam="2">  1       -3 0.46565804E-02 0.97424288E+02</pdfrwt>
<totfact> 0.21143950E+03</totfact>
</mgrwt>
</event>
<event>
 8    1  0.3177960E-004  0.9605394E+02  0.7546771E-02  0.1289621E+00
         -2   -1    0    0    0  501 -0.00000000000E+00  0.00000000000E+00  0.20633442916E+02  0.20633442916E+02  0.00000000000E+00 0.  1.
          2   -1    0    0  501    0  0.00000000000E+00 -0.00000000000E+00 -0.53639220661E+03  0.53639220661E+03  0.00000000000E+00 0. -1.
         23    2    1    2    0    0 -0.24082035310E+02 -0.10010593357E+02 -0.14172061786E+03  0.17120482902E+03  0.92445678920E+02 0.  0.
         23    2    1    2    0    0  0.24082035310E+02  0.10010593357E+02 -0.37403814583E+03  0.38582082050E+03  0.90956113529E+02 0.  0.
          5    1    4    4  502    0  0.46516979744E+02 -0.13333481602E+02 -0.11685901224E+03  0.12656907157E+03  0.47000000000E+01 0. -1.
         -5    1    3    3    0  503 -0.97044917538E+01  0.23106032768E+02 -0.64422369849E+00  0.25506292060E+02  0.47000000000E+01 0.  1.
          5    1    3    3  503    0 -0.14377543556E+02 -0.33116626125E+02 -0.14107639416E+03  0.14569853696E+03  0.47000000000E+01 0. -1.
         -5    1    4    4    0  502 -0.22434944434E+02  0.23344074960E+02 -0.25717913360E+03  0.25925174893E+03  0.47000000000E+01 0.  1.
<mgrwt>
<rscale>  0 0.95693735E+02</rscale>
<asrwt>0</asrwt>
<pdfrwt beam="1">  1        2 0.82521859E-01 0.96053943E+02</pdfrwt>
<pdfrwt beam="2">  1       -2 0.31743766E-02 0.96053943E+02</pdfrwt>
<totfact> 0.20387540E+04</totfact>
</mgrwt>
</event>
<event>
 8    1  0.3177960E-004  0.1101203E+03  0.7546771E-02  0.1260698E+00
         -1   -1    0    0    0  501 -0.00000000000E+00  0.00000000000E+00  0.30976767989E+03  0.30976767989E+03  0.00000000000E+00 0.  1.
          1   -1    0    0  501    0  0.00000000000E+00 -0.00000000000E+00 -0.39662639456E+02  0.39662639456E+02  0.00000000000E+00 0. -1.
         23    2    1    2    0    0  0.59532708987E+02  0.16380526146E+02  0.15915876161E+03  0.19311153554E+03  0.90266764008E+02 0.  0.
         23    2    1    2    0    0 -0.59532708987E+02 -0.16380526146E+02  0.11094627883E+03  0.15631878381E+03  0.91181249772E+02 0.  0.
          5    1    4    4  502    0 -0.67433317869E+02 -0.44192986052E+02  0.83791463839E+02  0.11637599317E+03  0.47000000000E+01 0. -1.
         -5    1    4    4    0  502  0.79006088815E+01  0.27812459906E+02  0.27154814988E+02  0.39942790635E+02  0.47000000000E+01 0.  1.
          5    1    3    3  503    0 -0.19328551830E+02  0.77602652787E+01  0.89019771191E+01  0.23133305636E+02  0.47000000000E+01 0. -1.
         -5    1    3    3    0  503  0.78861260817E+02  0.86202608676E+01  0.15025678449E+03  0.16997822990E+03  0.47000000000E+01 0.  1.
<mgrwt>
<rscale>  0 0.10993083E+03</rscale>
<asrwt>0</asrwt>
<pdfrwt beam="1">  1        1 0.61019447E-02 0.11012032E+03</pdfrwt>
<pdfrwt beam="2">  1       -1 0.47656565E-01 0.11012032E+03</pdfrwt>
<totfact> 0.53187822E+03</totfact>
</mgrwt>
</event>
<event>
 8    1  0.3177960E-004  0.1328339E+03  0.7546771E-02  0.1223599E+00
          2   -1    0    0  501    0  0.00000000000E+00  0.00000000000E+00  0.88796813848E+03  0.88796813848E+03  0.00000000000E+00 0. -1.
         -2   -1    0    0    0  501 -0.00000000000E+00 -0.00000000000E+00 -0.22922375166E+02  0.22922375166E+02  0.00000000000E+00 0.  1.
         23    2    1    2    0    0  0.74044737405E+02 -0.59643456370E+02  0.26426534849E+03  0.29577189985E+03  0.92762477894E+02 0.  0.
         23    2    1    2    0    0 -0.74044737405E+02  0.59643456370E+02  0.60078041482E+03  0.61511861379E+03  0.91617886748E+02 0.  0.
          5    1    3    3  502    0  0.49110366843E+02 -0.83605872506E+02  0.17875818289E+03  0.20341668565E+03  0.47000000000E+01 0. -1.
         -5    1    3    3    0  502  0.24934370561E+02  0.23962416135E+02  0.85507165601E+02  0.92355214208E+02  0.47000000000E+01 0.  1.
          5    1    4    4  503    0 -0.93330897144E+00  0.58398930979E+02  0.28250115601E+03  0.28851395001E+03  0.47000000000E+01 0. -1.
         -5    1    4    4    0  503 -0.73111428433E+02  0.12445253911E+01  0.31827925881E+03  0.32660466378E+03  0.47000000000E+01 0.  1.
<mgrwt>
<rscale>  0 0.13263425E+03</rscale>
<asrwt>0</asrwt>
<pdfrwt beam="1">  1        2 0.13661046E+00 0.13283389E+03</pdfrwt>
<pdfrwt beam="2">  1       -2 0.35265200E-02 0.13283389E+03</pdfrwt>
<totfact> 0.98806000E+03</totfact>
</mgrwt>
</event>
<event>
 8    1  0.3177960E-004  0.1399562E+03  0.7546771E-02  0.1213430E+00
         -1   -1    0    0    0  501 -0.00000000000E+00  0.00000000000E+00  0.37885681622E+02  0.37885681622E+02  0.00000000000E+00 0.  1.
          1   -1    0    0  501    0  0.00000000000E+00 -0.00000000000E+00 -0.59488800217E+03  0.59488800217E+03  0.00000000000E+00 0. -1.
         23    2    1    2    0    0  0.89407764433E+02 -0.57357021902E+02 -0.39341242479E+03  0.41756564526E+03  0.91127140980E+02 0.  0.
         23    2    1    2    0    0 -0.89407764433E+02  0.57357021902E+02 -0.16358989576E+03  0.21520803853E+03  0.90935524138E+02 0.  0.
          5    1    3    3  502    0  0.58917670516E+02 -0.79577470932E+02 -0.24341115414E+03  0.26282112879E+03  0.47000000000E+01 0. -1.
         -5    1    4    4    0  503 -0.69123578595E+02  0.69960811969E+02 -0.76232472783E+02  0.12452334816E+03  0.47000000000E+01 0.  1.
          5    1    4    4  503    0 -0.20284185838E+02 -0.12603790066E+02 -0.87357422974E+02  0.90684690371E+02  0.47000000000E+01 0. -1.
         -5    1    3    3    0  502  0.30490093916E+02  0.22220449029E+02 -0.15000127064E+03  0.15474451647E+03  0.47000000000E+01 0.  1.
<mgrwt>
<rscale>  0 0.13992500E+03</rscale>
<asrwt>0</asrwt>
<pdfrwt beam="1">  1        1 0.91521229E-01 0.13995618E+03</pdfrwt>
<pdfrwt beam="2">  1       -1 0.58285665E-02 0.13995618E+03</pdfrwt>
<totfact> 0.48151347E+03</totfact>
</mgrwt>
</event>
<event>
 8    1  0.3177960E-004  0.1070606E+03  0.7546771E-02  0.1267620E+00
          2   -1    0    0  501    0  0.00000000000E+00  0.00000000000E+00  0.76992090039E+03  0.76992090039E+03  0.00000000000E+00 0. -1.
         -2   -1    0    0    0  501 -0.00000000000E+00 -0.00000000000E+00 -0.27260221255E+02  0.27260221255E+02  0.00000000000E+00 0.  1.
         23    2    1    2    0    0 -0.93974472242E-01 -0.50159489248E+02  0.10110416618E+03  0.14725498969E+03  0.94583277460E+02 0.  0.
         23    2    1    2    0    0  0.93974472242E-01  0.50159489248E+02  0.64155651295E+03  0.64992613196E+03  0.91067197707E+02 0.  0.
          5    1    3    3  502    0  0.31259473404E+02 -0.62866562520E+02  0.82243976428E+02  0.10823826042E+03  0.47000000000E+01 0. -1.
         -5    1    3    3    0  502 -0.31353447876E+02  0.12707073272E+02  0.18860189755E+02  0.39016729264E+02  0.47000000000E+01 0.  1.
          5    1    4    4  503    0  0.41042128947E+02  0.27667307816E+02  0.20918654438E+03  0.21501403820E+03  0.47000000000E+01 0. -1.
         -5    1    4    4    0  503 -0.40948154475E+02  0.22492181432E+02  0.43236996857E+03  0.43491209376E+03  0.47000000000E+01 0.  1.
<mgrwt>
<rscale>  0 0.10627880E+03</rscale>
<asrwt>0</asrwt>
<pdfrwt beam="1">  1        2 0.11844935E+00 0.10706064E+03</pdfrwt>
<pdfrwt beam="2">  1       -2 0.41938808E-02 0.10706064E+03</pdfrwt>
<totfact> 0.90237279E+03</totfact>
</mgrwt>
</event>
<event>
 8    1  0.3177960E-004  0.9553625E+02  0.7546771E-02  0.1290488E+00
         -2   -1    0    0    0  501 -0.00000000000E+00  0.00000000000E+00  0.11092922525E+03  0.11092922525E+03  0.00000000000E+00 0.  1.
          2   -1    0    0  501    0  0.00000000000E+00 -0.00000000000E+00 -0.83995235528E+02  0.83995235528E+02  0.00000000000E+00 0. -1.
         23    2    1    2    0    0  0.14856250084E+02 -0.16162055104E+02  0.30357458231E+02  0.10024345280E+03  0.92979860014E+02 0.  0.
         23    2    1    2    0    0 -0.14856250084E+02  0.16162055104E+02 -0.34234685041E+01  0.94681007978E+02  0.92037236722E+02 0.  0.
          5    1    3    3  502    0  0.22393578267E+02 -0.41879004019E+02  0.48103714732E+02  0.67759727687E+02  0.47000000000E+01 0. -1.
         -5    1    4    4    0  503 -0.25489734026E+02  0.47457186618E+02  0.15570510546E+02  0.56271146257E+02  0.47000000000E+01 0.  1.
          5    1    4    4  503    0  0.10633483942E+02 -0.31295131514E+02 -0.18993979050E+02  0.38409861721E+02  0.47000000000E+01 0. -1.
         -5    1    3    3    0  502 -0.75373281829E+01  0.25716948915E+02 -0.17746256502E+02  0.32483725117E+02  0.47000000000E+01 0.  1.
<mgrwt>
<rscale>  0 0.95306129E+02</rscale>
<asrwt>0</asrwt>
<pdfrwt beam="1">  1        2 0.12922344E-01 0.95536247E+02</pdfrwt>
<pdfrwt beam="2">  1       -2 0.17066035E-01 0.95536247E+02</pdfrwt>
<totfact> 0.11647239E+04</totfact>
</mgrwt>
</event>
<event>
 8    1  0.3177960E-004  0.9980560E+02  0.7546771E-02  0.1281477E+00
          2   -1    0    0  501    0  0.00000000000E+00  0.00000000000E+00  0.35870061497E+03  0.35870061497E+03  0.00000000000E+00 0. -1.
         -2   -1    0    0    0  501 -0.00000000000E+00 -0.00000000000E+00 -0.35967012266E+02  0.35967012266E+02  0.00000000000E+00 0.  1.
         23    2    1    2    0    0  0.39498334362E+02 -0.18671934955E+01  0.25695648800E+03  0.27513609921E+03  0.90053492619E+02 0.  0.
         23    2    1    2    0    0 -0.39498334362E+02  0.18671934955E+01  0.65777114709E+02  0.11953152803E+03  0.91638160968E+02 0.  0.
          5    1    3    3  502    0  0.66878692883E+02  0.10422004103E+02  0.17092407268E+03  0.18389808687E+03  0.47000000000E+01 0. -1.
         -5    1    4    4    0  503 -0.53854599886E+02 -0.31837652468E+02  0.44353856876E+02  0.76832992024E+02  0.47000000000E+01 0.  1.
          5    1    4    4  503    0  0.14356265524E+02  0.33704845963E+02  0.21423257833E+02  0.42698536010E+02  0.47000000000E+01 0. -1.
         -5    1    3    3    0  502 -0.27380358521E+02 -0.12289197598E+02  0.86032415315E+02  0.91238012337E+02  0.47000000000E+01 0.  1.
<mgrwt>
<rscale>  0 0.99440351E+02</rscale>
<asrwt>0</asrwt>
<pdfrwt beam="1">  1        2 0.55184708E-01 0.99805598E+02</pdfrwt>
<pdfrwt beam="2">  1       -2 0.55333867E-02 0.99805598E+02</pdfrwt>
<totfact> 0.13839192E+04</totfact>
</mgrwt>
</event>
<event>
 8    1  0.3177960E-004  0.1140204E+03  0.7546771E-02  0.1255336E+00
          1   -1    0    0  501    0  0.00000000000E+00  0.00000000000E+00  0.53787477888E+03  0.53787477888E+03  0.00000000000E+00 0. -1.
         -1   -1    0    0    0  501 -0.00000000000E+00 -0.00000000000E+00 -0.27811528835E+02  0.27811528835E+02  0.00000000000E+00 0.  1.
         23    2    1    2    0    0  0.30543735276E+02  0.58000675564E+02  0.36559370731E+03  0.38164256345E+03  0.87722797962E+02 0.  0.
         23    2    1    2    0    0 -0.30543735276E+02 -0.58000675564E+02  0.14446954274E+03  0.18404374427E+03  0.93293370044E+02 0.  0.
          5    1    4    4  502    0 -0.12139494820E+02  0.18410773569E+02  0.38403176600E+01  0.22872733934E+02  0.47000000000E+01 0. -1.
         -5    1    3    3    0  503  0.50261105448E+01  0.35214412998E+02  0.38108635312E+02  0.52341902482E+02  0.47000000000E+01 0.  1.
          5    1    3    3  503    0  0.25517624731E+02  0.22786262566E+02  0.32748507199E+03  0.32930066097E+03  0.47000000000E+01 0. -1.
         -5    1    4    4    0  502 -0.18404240455E+02 -0.76411449133E+02  0.14062922508E+03  0.16117101033E+03  0.47000000000E+01 0.  1.
<mgrwt>
<rscale>  0 0.11287549E+03</rscale>
<asrwt>0</asrwt>
<pdfrwt beam="1">  1        1 0.82749958E-01 0.11402040E+03</pdfrwt>
<pdfrwt beam="2">  1       -1 0.42786971E-02 0.11402040E+03</pdfrwt>
<totfact> 0.85926798E+03</totfact>
</mgrwt>
</event>
<event>
 8    1  0.3177960E-004  0.9273177E+02  0.7546771E-02  0.1297617E+00
          2   -1    0    0  501    0  0.00000000000E+00  0.00000000000E+00  0.52350293515E+02  0.52350293515E+02  0.00000000000E+00 0. -1.
         -2   -1    0    0    0  501 -0.00000000000E+00 -0.00000000000E+00 -0.23868808094E+03  0.23868808094E+03  0.00000000000E+00 0.  1.
         23    2    1    2    0    0 -0.33080754069E+01  0.95009194861E+00 -0.17571300759E+03  0.19769991622E+03  0.90544739201E+02 0.  0.
         23    2    1    2    0    0  0.33080754069E+01 -0.95009194861E+00 -0.10624779834E+02  0.93338458241E+02  0.92667879023E+02 0.  0.
          5    1    4    4  502    0  0.40393042330E+02  0.44611023158E+01  0.19219796591E+02  0.45199445611E+02  0.47000000000E+01 0. -1.
         -5    1    4    4    0  502 -0.37084966923E+02 -0.54111942644E+01 -0.29844576425E+02  0.48139012630E+02  0.47000000000E+01 0.  1.
          5    1    3    3  503    0  0.24701557019E+02 -0.35078047187E+02 -0.10360575017E+03  0.11223581328E+03  0.47000000000E+01 0. -1.
         -5    1    3    3    0  503 -0.28009632426E+02  0.36028139135E+02 -0.72107257422E+02  0.85464102939E+02  0.47000000000E+01 0.  1.
<mgrwt>
<rscale>  0 0.92196750E+02</rscale>
<asrwt>0</asrwt>
<pdfrwt beam="1">  1        2 0.80538915E-02 0.92731774E+02</pdfrwt>
<pdfrwt beam="2">  1       -2 0.36721243E-01 0.92731774E+02</pdfrwt>
<totfact> 0.54398598E+03</totfact>
</mgrwt>
</event>
<event>
 8    1  0.3177960E-004  0.1018639E+03  0.7546771E-02  0.1278381E+00
          1   -1    0    0  501    0  0.00000000000E+00  0.00000000000E+00  0.53502697956E+02  0.53502697956E+02  0.00000000000E+00 0. -1.
         -1   -1    0    0    0  501 -0.00000000000E+00 -0.00000000000E+00 -0.20312064307E+03  0.20312064307E+03  0.00000000000E+00 0.  1.
         23    2    1    2    0    0 -0.27989020524E+02 -0.18576852142E+02 -0.10978956663E+03  0.14724987170E+03  0.92197023110E+02 0.  0.
         23    2    1    2    0    0  0.27989020524E+02  0.18576852142E+02 -0.39828378481E+02  0.10937346932E+03  0.96165333428E+02 0.  0.
          5    1    3    3  502    0 -0.45373942004E+02  0.24253251577E+02 -0.58075627350E+02  0.77729552405E+02  0.47000000000E+01 0. -1.
         -5    1    4    4    0  503  0.14399460175E+02 -0.26766044727E+02  0.17098661018E+02  0.35188347678E+02  0.47000000000E+01 0.  1.
          5    1    4    4  503    0  0.13589560348E+02  0.45342896869E+02 -0.56927039499E+02  0.74185121642E+02  0.47000000000E+01 0. -1.
         -5    1    3    3    0  502  0.17384921480E+02 -0.42830103719E+02 -0.51713939281E+02  0.69520319299E+02  0.47000000000E+01 0.  1.
<mgrwt>
<rscale>  0 0.10091637E+03</rscale>
<asrwt>0</asrwt>
<pdfrwt beam="1">  1        1 0.82311844E-02 0.10186391E+03</pdfrwt>
<pdfrwt beam="2">  1       -1 0.31249329E-01 0.10186391E+03</pdfrwt>
<totfact> 0.73576094E+03</totfact>
</mgrwt>
</event>
<event>
 8    1  0.3177960E-004  0.1142376E+03  0.7546771E-02  0.1260268E+00
          1   -1    0    0  501    0  0.00000000000E+00  0.00000000000E+00  0.39990249973E+03  0.39990249973E+03  0.00000000000E+00 0. -1.
         -1   -1    0    0    0  501 -0.00000000000E+00 -0.00000000000E+00 -0.16084285578E+03  0.16084285578E+03  0.00000000000E+00 0.  1.
         23    2    1    2    0    0  0.29170686682E+02  0.13250952140E+02 -0.13632848699E+03  0.16835972760E+03  0.93450654451E+02 0.  0.
         23    2    1    2    0    0 -0.29170686682E+02 -0.13250952140E+02  0.37538813094E+03  0.39238562791E+03  0.10965270378E+03 0.  0.
          5    1    4    4  502    0 -0.53986041064E+02 -0.41838006026E+02  0.16620558827E+03  0.17975343933E+03  0.47000000000E+01 0. -1.
         -5    1    3    3    0  503  0.54073515928E+02 -0.18265725704E+02 -0.91880159159E+02  0.10826650224E+03  0.47000000000E+01 0.  1.
          5    1    3    3  503    0 -0.24902829246E+02  0.31516677844E+02 -0.44448327834E+02  0.60093225359E+02  0.47000000000E+01 0. -1.
         -5    1    4    4    0  502  0.24815354383E+02  0.28587053887E+02  0.20918254267E+03  0.21263218858E+03  0.47000000000E+01 0.  1.
<mgrwt>
<rscale>  0 0.11016294E+03</rscale>
<asrwt>0</asrwt>
<pdfrwt beam="1">  1        1 0.61523461E-01 0.11423761E+03</pdfrwt>
<pdfrwt beam="2">  1       -1 0.24745055E-01 0.11423761E+03</pdfrwt>
<totfact> 0.85590708E+02</totfact>
</mgrwt>
</event>
<event>
 8    1  0.3177960E-004  0.9441241E+02  0.7546771E-02  0.1293571E+00
          2   -1    0    0  501    0  0.00000000000E+00  0.00000000000E+00  0.48533286936E+03  0.48533286936E+03  0.00000000000E+00 0. -1.
         -2   -1    0    0    0  501 -0.00000000000E+00 -0.00000000000E+00 -0.20943235482E+02  0.20943235482E+02  0.00000000000E+00 0.  1.
         23    2    1    2    0    0 -0.68991427895E+01  0.19744167544E+02  0.13542511048E+03  0.16403151183E+03  0.90160667696E+02 0.  0.
         23    2    1    2    0    0  0.68991427895E+01 -0.19744167544E+02  0.32896452339E+03  0.34224459301E+03  0.92066679494E+02 0.  0.
          5    1    3    3  502    0 -0.92009190675E+00  0.53785134287E+02  0.10353642138E+03  0.11677143397E+03  0.47000000000E+01 0. -1.
         -5    1    3    3    0  502 -0.59790508827E+01 -0.34040966743E+02  0.31888689105E+02  0.47260077857E+02  0.47000000000E+01 0.  1.
          5    1    4    4  503    0  0.41878815705E+02  0.13411274846E+02  0.12441453088E+03  0.13204076262E+03  0.47000000000E+01 0. -1.
         -5    1    4    4    0  503 -0.34979672916E+02 -0.33155442390E+02  0.20454999251E+03  0.21020383039E+03  0.47000000000E+01 0.  1.
<mgrwt>
<rscale>  0 0.93944524E+02</rscale>
<asrwt>0</asrwt>
<pdfrwt beam="1">  1        2 0.74666586E-01 0.94412413E+02</pdfrwt>
<pdfrwt beam="2">  1       -2 0.32220366E-02 0.94412413E+02</pdfrwt>
<totfact> 0.22201866E+04</totfact>
</mgrwt>
</event>
<event>
 8    1  0.3177960E-004  0.1111289E+03  0.7546771E-02  0.1259385E+00
          2   -1    0    0  501    0  0.00000000000E+00  0.00000000000E+00  0.34126114661E+03  0.34126114661E+03  0.00000000000E+00 0. -1.
         -2   -1    0    0    0  501 -0.00000000000E+00 -0.00000000000E+00 -0.15461346963E+03  0.15461346963E+03  0.00000000000E+00 0.  1.
         23    2    1    2    0    0 -0.45525005634E+01 -0.66145526076E+02 -0.12404977028E+03  0.16654725545E+03  0.89183445262E+02 0.  0.
         23    2    1    2    0    0  0.45525005634E+01  0.66145526076E+02  0.31069744726E+03  0.32932736079E+03  0.86762036310E+02 0.  0.
          5    1    4    4  502    0 -0.21392543322E+02  0.46986077658E+02  0.27930327277E+03  0.28407347744E+03  0.47000000000E+01 0. -1.
         -5    1    4    4    0  502  0.25945043886E+02  0.19159448418E+02  0.31394174493E+02  0.45253883347E+02  0.47000000000E+01 0.  1.
          5    1    3    3  503    0  0.22338055061E+02  0.91753485511E+01 -0.86795546047E+01  0.26088319093E+02  0.47000000000E+01 0. -1.
         -5    1    3    3    0  503 -0.26890555625E+02 -0.75320874627E+02 -0.11537021568E+03  0.14045893635E+03  0.47000000000E+01 0.  1.
<mgrwt>
<rscale>  0 0.11064234E+03</rscale>
<asrwt>0</asrwt>
<pdfrwt beam="1">  1        2 0.52501715E-01 0.11112895E+03</pdfrwt>
<pdfrwt beam="2">  1       -2 0.23786688E-01 0.11112895E+03</pdfrwt>
<totfact> 0.14434052E+03</totfact>
</mgrwt>
</event>
<event>
 8    1  0.3177960E-004  0.9497279E+02  0.7546771E-02  0.1291746E+00
         -1   -1    0    0    0  501 -0.00000000000E+00  0.00000000000E+00  0.34020320116E+02  0.34020320116E+02  0.00000000000E+00 0.  1.
          1   -1    0    0  501    0  0.00000000000E+00 -0.00000000000E+00 -0.30243876523E+03  0.30243876523E+03  0.00000000000E+00 0. -1.
         23    2    1    2    0    0 -0.20351417069E+02  0.69648605508E+01 -0.19579649530E+03  0.21761456175E+03  0.92504813148E+02 0.  0.
         23    2    1    2    0    0  0.20351417069E+02 -0.69648605508E+01 -0.72621949814E+02  0.11884452359E+03  0.91582660665E+02 0.  0.
          5    1    4    4  502    0  0.65551818644E+01 -0.44093184261E+02 -0.63835682953E+02  0.78001690530E+02  0.47000000000E+01 0. -1.
         -5    1    4    4    0  502  0.13796235205E+02  0.37128323710E+02 -0.87862668613E+01  0.40842833064E+02  0.47000000000E+01 0.  1.
          5    1    3    3  503    0 -0.41507048034E+02 -0.29930806058E+02 -0.12067740712E+03  0.13116331338E+03  0.47000000000E+01 0. -1.
         -5    1    3    3    0  503  0.21155630965E+02  0.36895666609E+02 -0.75119088180E+02  0.86451248372E+02  0.47000000000E+01 0.  1.
<mgrwt>
<rscale>  0 0.94747495E+02</rscale>
<asrwt>0</asrwt>
<pdfrwt beam="1">  1        1 0.46529040E-01 0.94972785E+02</pdfrwt>
<pdfrwt beam="2">  1       -1 0.52338955E-02 0.94972785E+02</pdfrwt>
<totfact> 0.12990302E+04</totfact>
</mgrwt>
</event>
<event>
 8    1  0.3177960E-004  0.1344433E+03  0.7546771E-02  0.1233070E+00
          2   -1    0    0  501    0  0.00000000000E+00  0.00000000000E+00  0.13714292192E+03  0.13714292192E+03  0.00000000000E+00 0. -1.
         -2   -1    0    0    0  501 -0.00000000000E+00 -0.00000000000E+00 -0.11847527636E+03  0.11847527636E+03  0.00000000000E+00 0.  1.
         23    2    1    2    0    0 -0.14965373615E+02 -0.48205504747E+02  0.52330258437E+02  0.11702465105E+03  0.91698309198E+02 0.  0.
         23    2    1    2    0    0  0.14965373615E+02  0.48205504747E+02 -0.33662612879E+02  0.13859354723E+03  0.12460845369E+03 0.  0.
          5    1    3    3  502    0  0.19882588268E+00  0.24108044436E+02  0.31825540977E+02  0.40201895437E+02  0.47000000000E+01 0. -1.
         -5    1    4    4    0  503 -0.27798724411E+02  0.74951821012E+02 -0.36180739662E+02  0.87873093006E+02  0.47000000000E+01 0. -1.
          5    1    4    4  503    0  0.42764098027E+02 -0.26746316266E+02  0.25181267827E+01  0.50720454220E+02  0.47000000000E+01 0. -1.
         -5    1    3    3    0  502 -0.15164199498E+02 -0.72313549182E+02  0.20504717459E+02  0.76822755612E+02  0.47000000000E+01 0.  1.
<mgrwt>
<rscale>  0 0.12628810E+03</rscale>
<asrwt>0</asrwt>
<pdfrwt beam="1">  1        2 0.21098911E-01 0.13444330E+03</pdfrwt>
<pdfrwt beam="2">  1       -2 0.18226966E-01 0.13444330E+03</pdfrwt>
<totfact> 0.61109505E+03</totfact>
</mgrwt>
</event>
<event>
 8    1  0.3177960E-004  0.9714985E+02  0.7546771E-02  0.1287117E+00
         -2   -1    0    0    0  501 -0.00000000000E+00  0.00000000000E+00  0.34644513253E+02  0.34644513253E+02  0.00000000000E+00 0.  1.
          2   -1    0    0  501    0  0.00000000000E+00 -0.00000000000E+00 -0.27034906859E+03  0.27034906859E+03  0.00000000000E+00 0. -1.
         23    2    1    2    0    0  0.35489491962E+01  0.33555727270E+02 -0.10715186566E+03  0.14463614719E+03  0.91101651395E+02 0.  0.
         23    2    1    2    0    0 -0.35489491962E+01 -0.33555727270E+02 -0.12855268967E+03  0.16035743465E+03  0.89722521990E+02 0.  0.
          5    1    4    4  502    0 -0.17654658345E+02 -0.53471220545E+02 -0.12231026506E+03  0.13473213918E+03  0.47000000000E+01 0.  1.
         -5    1    3    3    0  503 -0.36071215005E+02  0.19251496627E+02 -0.16082988293E+02  0.44187160881E+02  0.47000000000E+01 0.  1.
          5    1    3    3  503    0  0.39620164201E+02  0.14304230643E+02 -0.91068877371E+02  0.10044898631E+03  0.47000000000E+01 0. -1.
         -5    1    4    4    0  502  0.14105709149E+02  0.19915493275E+02 -0.62424246107E+01  0.25625295471E+02  0.47000000000E+01 0. -1.
<mgrwt>
<rscale>  0 0.96825205E+02</rscale>
<asrwt>0</asrwt>
<pdfrwt beam="1">  1        2 0.41592163E-01 0.97149847E+02</pdfrwt>
<pdfrwt beam="2">  1       -2 0.53299253E-02 0.97149847E+02</pdfrwt>
<totfact> 0.19637662E+04</totfact>
</mgrwt>
</event>
<event>
 8    1  0.3177960E-004  0.1005027E+03  0.7546771E-02  0.1282963E+00
          1   -1    0    0  501    0  0.00000000000E+00  0.00000000000E+00  0.55545408721E+03  0.55545408721E+03  0.00000000000E+00 0. -1.
         -1   -1    0    0    0  501 -0.00000000000E+00 -0.00000000000E+00 -0.17972720214E+02  0.17972720214E+02  0.00000000000E+00 0.  1.
         23    2    1    2    0    0 -0.16802135863E+02 -0.82269195691E+01  0.32763496124E+03  0.34075472022E+03  0.91755749437E+02 0.  0.
         23    2    1    2    0    0  0.16802135863E+02  0.82269195691E+01  0.20984640576E+03  0.23267208720E+03  0.98746099554E+02 0.  0.
          5    1    4    4  502    0  0.10345120953E+02  0.32382457434E+02  0.20360390216E+03  0.20647586796E+03  0.47000000000E+01 0. -1.
         -5    1    4    4    0  502  0.64570149098E+01 -0.24155537865E+02  0.62425035991E+01  0.26196219236E+02  0.47000000000E+01 0.  1.
          5    1    3    3  503    0 -0.40125060149E+02  0.11311624004E+02  0.28552675100E+03  0.28859242684E+03  0.47000000000E+01 0. -1.
         -5    1    3    3    0  503  0.23322924286E+02 -0.19538543573E+02  0.42108210234E+02  0.52162293386E+02  0.47000000000E+01 0.  1.
<mgrwt>
<rscale>  0 0.98742164E+02</rscale>
<asrwt>0</asrwt>
<pdfrwt beam="1">  1        1 0.85454462E-01 0.10050267E+03</pdfrwt>
<pdfrwt beam="2">  1       -1 0.27650343E-02 0.10050267E+03</pdfrwt>
<totfact> 0.15374615E+04</totfact>
</mgrwt>
</event>
<event>
 8    1  0.3177960E-004  0.1233355E+03  0.7546771E-02  0.1246990E+00
          2   -1    0    0  501    0  0.00000000000E+00  0.00000000000E+00  0.10529378700E+04  0.10529378700E+04  0.00000000000E+00 0. -1.
         -2   -1    0    0    0  501 -0.00000000000E+00 -0.00000000000E+00 -0.12993387955E+02  0.12993387955E+02  0.00000000000E+00 0.  1.
         23    2    1    2    0    0  0.46901661703E+02 -0.40347168998E+01  0.42425910595E+03  0.44182284539E+03  0.11399821454E+03 0.  0.
         23    2    1    2    0    0 -0.46901661703E+02  0.40347168998E+01  0.61568537609E+03  0.62410841256E+03  0.90701617867E+02 0.  0.
          5    1    3    3  502    0  0.50175959843E+02 -0.49347900840E+02  0.32491092787E+03  0.33247863587E+03  0.47000000000E+01 0. -1.
         -5    1    4    4    0  503 -0.91694750405E+01 -0.40836247209E+02  0.30633352791E+03  0.30921513333E+03  0.47000000000E+01 0.  1.
          5    1    4    4  503    0 -0.37732186662E+02  0.44870964109E+02  0.30935184818E+03  0.31489327922E+03  0.47000000000E+01 0. -1.
         -5    1    3    3    0  502 -0.32742981398E+01  0.45313183940E+02  0.99348178080E+02  0.10934420952E+03  0.47000000000E+01 0.  1.
<mgrwt>
<rscale>  0 0.11767068E+03</rscale>
<asrwt>0</asrwt>
<pdfrwt beam="1">  1        2 0.16199037E+00 0.12333547E+03</pdfrwt>
<pdfrwt beam="2">  1       -2 0.19989836E-02 0.12333547E+03</pdfrwt>
<totfact> 0.17915074E+04</totfact>
</mgrwt>
</event>
<event>
 8    1  0.3177960E-004  0.9716427E+02  0.7546771E-02  0.1287996E+00
         -1   -1    0    0    0  501 -0.00000000000E+00  0.00000000000E+00  0.28196254169E+02  0.28196254169E+02  0.00000000000E+00 0.  1.
          1   -1    0    0  501    0  0.00000000000E+00 -0.00000000000E+00 -0.70019003365E+03  0.70019003365E+03  0.00000000000E+00 0. -1.
         23    2    1    2    0    0 -0.27028929081E+02 -0.13034113565E+02 -0.60025377744E+03  0.60760747029E+03  0.89340861265E+02 0.  0.
         23    2    1    2    0    0  0.27028929081E+02  0.13034113565E+02 -0.71740002035E+02  0.12077881753E+03  0.92414521304E+02 0.  0.
          5    1    3    3  502    0  0.90140695519E+01 -0.44370499396E+02 -0.25448285960E+03  0.25852197295E+03  0.47000000000E+01 0. -1.
         -5    1    3    3    0  502 -0.36042998633E+02  0.31336385831E+02 -0.34577091784E+03  0.34908549734E+03  0.47000000000E+01 0.  1.
          5    1    4    4  503    0 -0.32675659188E+02  0.14388590521E+02 -0.17810096946E+02  0.40174865199E+02  0.47000000000E+01 0. -1.
         -5    1    4    4    0  503  0.59704588269E+02 -0.13544769564E+01 -0.53929905089E+02  0.80603952330E+02  0.47000000000E+01 0.  1.
<mgrwt>
<rscale>  0 0.96426244E+02</rscale>
<asrwt>0</asrwt>
<pdfrwt beam="1">  1        1 0.10772155E+00 0.97164267E+02</pdfrwt>
<pdfrwt beam="2">  1       -1 0.43378850E-02 0.97164267E+02</pdfrwt>
<totfact> 0.58250282E+03</totfact>
</mgrwt>
</event>
<event>
 8    1  0.3177960E-004  0.9325409E+02  0.7546771E-02  0.1295588E+00
          2   -1    0    0  501    0  0.00000000000E+00  0.00000000000E+00  0.92188412000E+02  0.92188412000E+02  0.00000000000E+00 0. -1.
         -2   -1    0    0    0  501 -0.00000000000E+00 -0.00000000000E+00 -0.15232218153E+03  0.15232218153E+03  0.00000000000E+00 0.  1.
         23    2    1    2    0    0 -0.90703053715E+01  0.19652304989E+02 -0.10606006581E+03  0.14122698885E+03  0.90707448915E+02 0.  0.
         23    2    1    2    0    0  0.90703053715E+01 -0.19652304989E+02  0.45926296280E+02  0.10328360468E+03  0.89943286437E+02 0.  0.
          5    1    3    3  502    0  0.19317581060E+02 -0.23581389916E+02 -0.10708843245E+02  0.32649964962E+02  0.47000000000E+01 0. -1.
         -5    1    3    3    0  502 -0.28387886432E+02  0.43233694906E+02 -0.95351222565E+02  0.10857702389E+03  0.47000000000E+01 0.  1.
          5    1    4    4  503    0  0.12835283936E+02 -0.54986484985E+02  0.28764059733E+02  0.63543049794E+02  0.47000000000E+01 0. -1.
         -5    1    4    4    0  503 -0.37649785641E+01  0.35334179996E+02  0.17162236547E+02  0.39740554889E+02  0.47000000000E+01 0.  1.
<mgrwt>
<rscale>  0 0.93067749E+02</rscale>
<asrwt>0</asrwt>
<pdfrwt beam="1">  1        2 0.14182833E-01 0.93254087E+02</pdfrwt>
<pdfrwt beam="2">  1       -2 0.23434182E-01 0.93254087E+02</pdfrwt>
<totfact> 0.61208535E+03</totfact>
</mgrwt>
</event>
<event>
 8    1  0.3177960E-004  0.9217190E+02  0.7546771E-02  0.1299544E+00
          2   -1    0    0  501    0  0.00000000000E+00  0.00000000000E+00  0.81576063841E+03  0.81576063841E+03  0.00000000000E+00 0. -1.
         -2   -1    0    0    0  501 -0.00000000000E+00 -0.00000000000E+00 -0.10073282361E+02  0.10073282361E+02  0.00000000000E+00 0.  1.
         23    2    1    2    0    0 -0.41481589685E+01  0.44066265013E+01  0.42231896479E+03  0.43226030008E+03  0.91973003800E+02 0.  0.
         23    2    1    2    0    0  0.41481589685E+01 -0.44066265013E+01  0.38336839126E+03  0.39357362069E+03  0.88838313261E+02 0.  0.
          5    1    4    4  502    0  0.22655398904E+01 -0.46183711832E+02  0.22155706920E+03  0.22637953269E+03  0.47000000000E+01 0. -1.
         -5    1    4    4    0  502  0.18826190781E+01  0.41777085331E+02  0.16181132207E+03  0.16719408800E+03  0.47000000000E+01 0.  1.
          5    1    3    3  503    0  0.34215751125E+02 -0.25804515332E+02  0.19596999734E+03  0.20065622466E+03  0.47000000000E+01 0. -1.
         -5    1    3    3    0  503 -0.38363910093E+02  0.30211141834E+02  0.22634896745E+03  0.23160407542E+03  0.47000000000E+01 0.  1.
<mgrwt>
<rscale>  0 0.91379826E+02</rscale>
<asrwt>0</asrwt>
<pdfrwt beam="1">  1        2 0.12550158E+00 0.92171899E+02</pdfrwt>
<pdfrwt beam="2">  1       -2 0.15497364E-02 0.92171899E+02</pdfrwt>
<totfact> 0.35205751E+04</totfact>
</mgrwt>
</event>
<event>
 8    1  0.3177960E-004  0.1604809E+03  0.7546771E-02  0.1188436E+00
         -1   -1    0    0    0  501 -0.00000000000E+00  0.00000000000E+00  0.54588309774E+02  0.54588309774E+02  0.00000000000E+00 0.  1.
          1   -1    0    0  501    0  0.00000000000E+00 -0.00000000000E+00 -0.95340870487E+03  0.95340870487E+03  0.00000000000E+00 0. -1.
         23    2    1    2    0    0  0.20233594749E+02 -0.12956390751E+03 -0.89424462479E+02  0.18284496962E+03  0.90770831973E+02 0.  0.
         23    2    1    2    0    0 -0.20233594749E+02  0.12956390751E+03 -0.80939593262E+03  0.82515204503E+03  0.92509011392E+02 0.  0.
          5    1    4    4  502    0 -0.31303624919E+02  0.14799225010E+01 -0.17435771581E+03  0.17721402362E+03  0.47000000000E+01 0. -1.
         -5    1    4    4    0  502  0.11070030170E+02  0.12808398501E+03 -0.63503821681E+03  0.64793802141E+03  0.47000000000E+01 0.  1.
          5    1    3    3  503    0 -0.28139916944E+02 -0.83684760246E+02 -0.71338208793E+02  0.11360556349E+03  0.47000000000E+01 0. -1.
         -5    1    3    3    0  503  0.48373511693E+02 -0.45879147269E+02 -0.18086253686E+02  0.69239406121E+02  0.47000000000E+01 0.  1.
<mgrwt>
<rscale>  0 0.16023141E+03</rscale>
<asrwt>0</asrwt>
<pdfrwt beam="1">  1        1 0.14667825E+00 0.16048091E+03</pdfrwt>
<pdfrwt beam="2">  1       -1 0.83982020E-02 0.16048091E+03</pdfrwt>
<totfact> 0.13853290E+03</totfact>
</mgrwt>
</event>
<event>
 8    1  0.3177960E-004  0.1112299E+03  0.7546771E-02  0.1259919E+00
         -2   -1    0    0    0  501 -0.00000000000E+00  0.00000000000E+00  0.81959389946E+02  0.81959389946E+02  0.00000000000E+00 0.  1.
          2   -1    0    0  501    0  0.00000000000E+00 -0.00000000000E+00 -0.17752478937E+03  0.17752478937E+03  0.00000000000E+00 0. -1.
         23    2    1    2    0    0 -0.13205215979E+02 -0.61026547375E+02  0.60157191092E+01  0.11139246244E+03  0.92051477981E+02 0.  0.
         23    2    1    2    0    0  0.13205215979E+02  0.61026547375E+02 -0.10158111853E+03  0.14809171688E+03  0.87828331144E+02 0.  0.
          5    1    3    3  502    0 -0.34378627010E+02  0.28683054962E+01 -0.18714531216E+02  0.39527722552E+02  0.47000000000E+01 0. -1.
         -5    1    3    3    0  502  0.21173411030E+02 -0.63894852871E+02  0.24730250325E+02  0.71864739888E+02  0.47000000000E+01 0.  1.
          5    1    4    4  503    0 -0.14023548769E+02 -0.18433512459E+02 -0.22162590981E+02  0.32399455870E+02  0.47000000000E+01 0. -1.
         -5    1    4    4    0  503  0.27228764749E+02  0.79460059833E+02 -0.79418527553E+02  0.11569226101E+03  0.47000000000E+01 0.  1.
<mgrwt>
<rscale>  0 0.11035235E+03</rscale>
<asrwt>0</asrwt>
<pdfrwt beam="1">  1        2 0.27311505E-01 0.11122991E+03</pdfrwt>
<pdfrwt beam="2">  1       -2 0.12609137E-01 0.11122991E+03</pdfrwt>
<totfact> 0.82690311E+03</totfact>
</mgrwt>
</event>
<event>
 8    1  0.3177960E-004  0.1055853E+03  0.7546771E-02  0.1275791E+00
         -1   -1    0    0    0  501 -0.00000000000E+00  0.00000000000E+00  0.60137775056E+02  0.60137775056E+02  0.00000000000E+00 0.  1.
          1   -1    0    0  501    0  0.00000000000E+00 -0.00000000000E+00 -0.16514444098E+03  0.16514444098E+03  0.00000000000E+00 0. -1.
         23    2    1    2    0    0 -0.89073921321E+01 -0.56100427906E+02 -0.43891963119E+02  0.11434492552E+03  0.89003696101E+02 0.  0.
         23    2    1    2    0    0  0.89073921321E+01  0.56100427906E+02 -0.61114702806E+02  0.11093729052E+03  0.73112761421E+02 0.  0.
          5    1    4    4  502    0  0.13244280047E+02  0.17516711346E+02 -0.67654273482E+02  0.71284197763E+02  0.47000000000E+01 0. -1.
         -5    1    4    4    0  502 -0.43368879154E+01  0.38583716560E+02  0.65395706766E+01  0.39653092754E+02  0.47000000000E+01 0.  1.
          5    1    3    3  503    0  0.26529177246E+02  0.10775122242E+02 -0.18333558694E+02  0.34323605275E+02  0.47000000000E+01 0. -1.
         -5    1    3    3    0  503 -0.35436569378E+02 -0.66875550147E+02 -0.25558404425E+02  0.80021320244E+02  0.47000000000E+01 0.  1.
<mgrwt>
<rscale>  0 0.10217352E+03</rscale>
<asrwt>0</asrwt>
<pdfrwt beam="1">  1        1 0.25406837E-01 0.10558531E+03</pdfrwt>
<pdfrwt beam="2">  1       -1 0.92519653E-02 0.10558531E+03</pdfrwt>
<totfact> 0.11824860E+04</totfact>
</mgrwt>
</event>
<event>
 8    1  0.3177960E-004  0.9442014E+02  0.7546771E-02  0.1293890E+00
         -1   -1    0    0    0  501 -0.00000000000E+00  0.00000000000E+00  0.17883150871E+03  0.17883150871E+03  0.00000000000E+00 0.  1.
          1   -1    0    0  501    0  0.00000000000E+00 -0.00000000000E+00 -0.56400716214E+02  0.56400716214E+02  0.00000000000E+00 0. -1.
         23    2    1    2    0    0 -0.51361270752E+01  0.26398111040E+01  0.18094889630E+02  0.96138383182E+02  0.94243383248E+02 0.  0.
         23    2    1    2    0    0  0.51361270752E+01 -0.26398111040E+01  0.10433590287E+03  0.13909384174E+03  0.91802874573E+02 0.  0.
          5    1    4    4  502    0  0.13060369108E+02  0.39580202865E+02  0.25210153030E+02  0.48936770591E+02  0.47000000000E+01 0. -1.
         -5    1    3    3    0  503 -0.11534917730E+02 -0.18336202584E+02  0.51405365683E+02  0.55980999216E+02  0.47000000000E+01 0.  1.
          5    1    3    3  503    0  0.63987906544E+01  0.20976013688E+02 -0.33310476053E+02  0.40157383966E+02  0.47000000000E+01 0. -1.
         -5    1    4    4    0  502 -0.79242420323E+01 -0.42220013969E+02  0.79125749839E+02  0.90157071154E+02  0.47000000000E+01 0.  1.
<mgrwt>
<rscale>  0 0.93805208E+02</rscale>
<asrwt>0</asrwt>
<pdfrwt beam="1">  1        1 0.86770333E-02 0.94420145E+02</pdfrwt>
<pdfrwt beam="2">  1       -1 0.27512540E-01 0.94420145E+02</pdfrwt>
<totfact> 0.84211120E+03</totfact>
</mgrwt>
</event>
<event>
 8    1  0.3177960E-004  0.1008957E+03  0.7546771E-02  0.1280623E+00
          1   -1    0    0  501    0  0.00000000000E+00  0.00000000000E+00  0.21751757100E+03  0.21751757100E+03  0.00000000000E+00 0. -1.
         -1   -1    0    0    0  501 -0.00000000000E+00 -0.00000000000E+00 -0.11139752871E+03  0.11139752871E+03  0.00000000000E+00 0.  1.
         23    2    1    2    0    0 -0.36465780424E+02  0.11363402170E+02 -0.74438667117E+02  0.12207848144E+03  0.88899721138E+02 0.  0.
         23    2    1    2    0    0  0.36465780424E+02 -0.11363402170E+02  0.18055870941E+03  0.20683661827E+03  0.93386610709E+02 0.  0.
          5    1    3    3  502    0  0.23169109033E+02  0.12173249790E+02 -0.15708714303E-01  0.26591086300E+02  0.47000000000E+01 0. -1.
         -5    1    3    3    0  502 -0.59634889457E+02 -0.80984761934E+00 -0.74422958403E+02  0.95487395143E+02  0.47000000000E+01 0.  1.
          5    1    4    4  503    0  0.66195623587E+02 -0.71668701066E+01  0.14768159468E+03  0.16206532022E+03  0.47000000000E+01 0. -1.
         -5    1    4    4    0  503 -0.29729843163E+02 -0.41965320638E+01  0.32877114729E+02  0.44771298047E+02  0.47000000000E+01 0.  1.
<mgrwt>
<rscale>  0 0.99844870E+02</rscale>
<asrwt>0</asrwt>
<pdfrwt beam="1">  1        1 0.33464242E-01 0.10089568E+03</pdfrwt>
<pdfrwt beam="2">  1       -1 0.17138081E-01 0.10089568E+03</pdfrwt>
<totfact> 0.32496767E+03</totfact>
</mgrwt>
</event>
<event>
 8    1  0.3177960E-004  0.9527241E+02  0.7546771E-02  0.1295796E+00
          1   -1    0    0  501    0  0.00000000000E+00  0.00000000000E+00  0.77878763758E+03  0.77878763758E+03  0.00000000000E+00 0. -1.
         -1   -1    0    0    0  501 -0.00000000000E+00 -0.00000000000E+00 -0.10634788231E+02  0.10634788231E+02  0.00000000000E+00 0.  1.
         23    2    1    2    0    0 -0.97860745689E+01 -0.14777974502E+02  0.34207089082E+03  0.35281886754E+03  0.84584296174E+02 0.  0.
         23    2    1    2    0    0  0.97860745689E+01  0.14777974502E+02  0.42608195853E+03  0.43660355828E+03  0.93609165821E+02 0.  0.
          5    1    4    4  502    0  0.32858712549E+01 -0.34783724331E+02  0.27834485187E+03  0.28056844262E+03  0.47000000000E+01 0. -1.
         -5    1    3    3    0  503 -0.34043857886E+02  0.20338899249E+02  0.11533220021E+03  0.12205024166E+03  0.47000000000E+01 0.  1.
          5    1    3    3  503    0  0.24257783317E+02 -0.35116873751E+02  0.22673869060E+03  0.23076862588E+03  0.47000000000E+01 0. -1.
         -5    1    4    4    0  502  0.65002033140E+01  0.49561698833E+02  0.14773710666E+03  0.15603511566E+03  0.47000000000E+01 0.  1.
<mgrwt>
<rscale>  0 0.92978104E+02</rscale>
<asrwt>0</asrwt>
<pdfrwt beam="1">  1        1 0.11981344E+00 0.95272408E+02</pdfrwt>
<pdfrwt beam="2">  1       -1 0.16361219E-02 0.95272408E+02</pdfrwt>
<totfact> 0.20307916E+04</totfact>
</mgrwt>
</event>
<event>
 8    1  0.3177960E-004  0.1081389E+03  0.7546771E-02  0.1265893E+00
         -1   -1    0    0    0  501 -0.00000000000E+00  0.00000000000E+00  0.26901716589E+03  0.26901716589E+03  0.00000000000E+00 0.  1.
          1   -1    0    0  501    0  0.00000000000E+00 -0.00000000000E+00 -0.49533895543E+02  0.49533895543E+02  0.00000000000E+00 0. -1.
         23    2    1    2    0    0 -0.46578414507E+02  0.25072325992E+02  0.45777379744E+02  0.11393491257E+03  0.89930114959E+02 0.  0.
         23    2    1    2    0    0  0.46578414507E+02 -0.25072325992E+02  0.17370589060E+03  0.20461614886E+03  0.94317875922E+02 0.  0.
          5    1    3    3  502    0 -0.70141518415E+02  0.33360782798E+02  0.27113038037E+02  0.82401342622E+02  0.47000000000E+01 0. -1.
         -5    1    3    3    0  502  0.23563103908E+02 -0.82884568055E+01  0.18664341708E+02  0.31533569944E+02  0.47000000000E+01 0.  1.
          5    1    4    4  503    0 -0.13659798138E+02 -0.33292919323E+02  0.11254131602E+03  0.11824824047E+03  0.47000000000E+01 0. -1.
         -5    1    4    4    0  503  0.60238212645E+02  0.82205933306E+01  0.61164574581E+02  0.86367908398E+02  0.47000000000E+01 0.  1.
<mgrwt>
<rscale>  0 0.10717491E+03</rscale>
<asrwt>0</asrwt>
<pdfrwt beam="1">  1        1 0.76205995E-02 0.10813895E+03</pdfrwt>
<pdfrwt beam="2">  1       -1 0.41387255E-01 0.10813895E+03</pdfrwt>
<totfact> 0.50632458E+03</totfact>
</mgrwt>
</event>
<event>
 8    1  0.3177960E-004  0.1056033E+03  0.7546771E-02  0.1268993E+00
          1   -1    0    0  501    0  0.00000000000E+00  0.00000000000E+00  0.29575302431E+02  0.29575302431E+02  0.00000000000E+00 0. -1.
         -1   -1    0    0    0  501 -0.00000000000E+00 -0.00000000000E+00 -0.44425451412E+03  0.44425451412E+03  0.00000000000E+00 0.  1.
         23    2    1    2    0    0 -0.48851310673E+02 -0.19163446853E+02 -0.29985524425E+03  0.31790758448E+03  0.91642656658E+02 0.  0.
         23    2    1    2    0    0  0.48851310673E+02  0.19163446853E+02 -0.11482396744E+03  0.15592223207E+03  0.91506888835E+02 0.  0.
          5    1    4    4  502    0  0.29787208964E+02 -0.26569823206E+02 -0.12423473483E+02  0.42067398499E+02  0.47000000000E+01 0. -1.
         -5    1    4    4    0  502  0.19064101709E+02  0.45733270059E+02 -0.10240049396E+03  0.11385483357E+03  0.47000000000E+01 0.  1.
          5    1    3    3  503    0  0.23378009888E+02 -0.22774089260E+02 -0.85890878351E+02  0.92002844912E+02  0.47000000000E+01 0. -1.
         -5    1    3    3    0  503 -0.72229320561E+02  0.36106424063E+01 -0.21396436590E+03  0.22590473957E+03  0.47000000000E+01 0.  1.
<mgrwt>
<rscale>  0 0.10557388E+03</rscale>
<asrwt>0</asrwt>
<pdfrwt beam="1">  1        1 0.45500465E-02 0.10560334E+03</pdfrwt>
<pdfrwt beam="2">  1       -1 0.68346849E-01 0.10560334E+03</pdfrwt>
<totfact> 0.40225758E+03</totfact>
</mgrwt>
</event>
<event>
 8    1  0.3177960E-004  0.1248593E+03  0.7546771E-02  0.1238432E+00
          1   -1    0    0  501    0  0.00000000000E+00  0.00000000000E+00  0.67859280911E+03  0.67859280911E+03  0.00000000000E+00 0. -1.
         -1   -1    0    0    0  501 -0.00000000000E+00 -0.00000000000E+00 -0.24902019126E+02  0.24902019126E+02  0.00000000000E+00 0.  1.
         23    2    1    2    0    0  0.62930917585E+02  0.52220086578E+02  0.18912730469E+03  0.22244485157E+03  0.83817282114E+02 0.  0.
         23    2    1    2    0    0 -0.62930917585E+02 -0.52220086578E+02  0.46456348530E+03  0.48104997667E+03  0.94353645134E+02 0.  0.
          5    1    4    4  502    0 -0.69849005585E+02  0.10768247524E+01  0.23344885164E+03  0.24372217681E+03  0.47000000000E+01 0. -1.
         -5    1    4    4    0  502  0.69180879997E+01 -0.53296911331E+02  0.23111463366E+03  0.23732779986E+03  0.47000000000E+01 0.  1.
          5    1    3    3  503    0 -0.40553140982E+01  0.49316292787E+02  0.86568816383E+02  0.99823806162E+02  0.47000000000E+01 0. -1.
         -5    1    3    3    0  503  0.66986231683E+02  0.29037937914E+01  0.10255848830E+03  0.12262104541E+03  0.47000000000E+01 0.  1.
<mgrwt>
<rscale>  0 0.12287275E+03</rscale>
<asrwt>0</asrwt>
<pdfrwt beam="1">  1        1 0.10439888E+00 0.12485931E+03</pdfrwt>
<pdfrwt beam="2">  1       -1 0.38310804E-02 0.12485931E+03</pdfrwt>
<totfact> 0.74089804E+03</totfact>
</mgrwt>
</event>
<event>
 8    1  0.3177960E-004  0.9579375E+02  0.7546771E-02  0.1292011E+00
          2   -1    0    0  501    0  0.00000000000E+00  0.00000000000E+00  0.11172449479E+04  0.11172449479E+04  0.00000000000E+00 0. -1.
         -2   -1    0    0    0  501 -0.00000000000E+00 -0.00000000000E+00 -0.11776379333E+02  0.11776379333E+02  0.00000000000E+00 0.  1.
         23    2    1    2    0    0  0.18234043744E+02  0.15668843418E+02  0.87063409877E+03  0.87540020972E+03  0.87998864986E+02 0.  0.
         23    2    1    2    0    0 -0.18234043744E+02 -0.15668843418E+02  0.23483446977E+03  0.25362111748E+03  0.92727827727E+02 0.  0.
          5    1    4    4  502    0 -0.19918761153E+02 -0.53683418381E+02  0.14124030603E+03  0.15247813123E+03  0.47000000000E+01 0. -1.
         -5    1    3    3    0  503 -0.11588399503E+02  0.46433573608E+02  0.47067777322E+03  0.47312791502E+03  0.47000000000E+01 0.  1.
          5    1    3    3  503    0  0.29822443247E+02 -0.30764730190E+02  0.39995632554E+03  0.40227229470E+03  0.47000000000E+01 0. -1.
         -5    1    4    4    0  502  0.16847174082E+01  0.38014574962E+02  0.93594163741E+02  0.10114298626E+03  0.47000000000E+01 0.  1.
<mgrwt>
<rscale>  0 0.94630254E+02</rscale>
<asrwt>0</asrwt>
<pdfrwt beam="1">  1        2 0.17188375E+00 0.95793753E+02</pdfrwt>
<pdfrwt beam="2">  1       -2 0.18117516E-02 0.95793753E+02</pdfrwt>
<totfact> 0.18618924E+04</totfact>
</mgrwt>
</event>
<event>
 8    1  0.3177960E-004  0.1088684E+03  0.7546771E-02  0.1265346E+00
          1   -1    0    0  501    0  0.00000000000E+00  0.00000000000E+00  0.43251005789E+03  0.43251005789E+03  0.00000000000E+00 0. -1.
         -1   -1    0    0    0  501 -0.00000000000E+00 -0.00000000000E+00 -0.26956389548E+02  0.26956389548E+02  0.00000000000E+00 0.  1.
         23    2    1    2    0    0 -0.23209393891E+02 -0.52553341026E+02  0.25042622344E+03  0.27306706150E+03  0.92475927003E+02 0.  0.
         23    2    1    2    0    0  0.23209393891E+02  0.52553341026E+02  0.15512744491E+03  0.18639938594E+03  0.85905048145E+02 0.  0.
          5    1    3    3  502    0 -0.34260243193E+00  0.20721779084E+02  0.16741307999E+02  0.27053112544E+02  0.47000000000E+01 0. -1.
         -5    1    3    3    0  502 -0.22866791459E+02 -0.73275120110E+02  0.23368491544E+03  0.24601394896E+03  0.47000000000E+01 0.  1.
          5    1    4    4  503    0  0.21817800483E+02  0.72830863582E+02  0.14363012471E+03  0.16257937702E+03  0.47000000000E+01 0. -1.
         -5    1    4    4    0  503  0.13915934082E+01 -0.20277522556E+02  0.11497320202E+02  0.23820008922E+02  0.47000000000E+01 0.  1.
<mgrwt>
<rscale>  0 0.10746049E+03</rscale>
<asrwt>0</asrwt>
<pdfrwt beam="1">  1        1 0.66540004E-01 0.10886839E+03</pdfrwt>
<pdfrwt beam="2">  1       -1 0.41471372E-02 0.10886839E+03</pdfrwt>
<totfact> 0.11866564E+04</totfact>
</mgrwt>
</event>
<event>
 8    1  0.3177960E-004  0.9632165E+02  0.7546771E-02  0.1289740E+00
          1   -1    0    0  501    0  0.00000000000E+00  0.00000000000E+00  0.28303725736E+03  0.28303725736E+03  0.00000000000E+00 0. -1.
         -1   -1    0    0    0  501 -0.00000000000E+00 -0.00000000000E+00 -0.21863362132E+03  0.21863362132E+03  0.00000000000E+00 0.  1.
         23    2    1    2    0    0 -0.26192574975E+02 -0.44028863758E+01 -0.19969594492E+03  0.22055444541E+03  0.89779488653E+02 0.  0.
         23    2    1    2    0    0  0.26192574975E+02  0.44028863758E+01  0.26409958096E+03  0.28111643327E+03  0.92587385728E+02 0.  0.
          5    1    3    3  502    0  0.30112399897E+02  0.30760967990E+01 -0.36263983440E+02  0.47469837729E+02  0.47000000000E+01 0. -1.
         -5    1    3    3    0  502 -0.56304974872E+02 -0.74789831748E+01 -0.16343196148E+03  0.17308460769E+03  0.47000000000E+01 0.  1.
          5    1    4    4  503    0  0.14064316706E+02  0.47364103673E+02  0.16547040045E+03  0.17275331182E+03  0.47000000000E+01 0. -1.
         -5    1    4    4    0  503  0.12128258269E+02 -0.42961217297E+02  0.98629180511E+02  0.10836312144E+03  0.47000000000E+01 0.  1.
<mgrwt>
<rscale>  0 0.95640500E+02</rscale>
<asrwt>0</asrwt>
<pdfrwt beam="1">  1        1 0.43544193E-01 0.96321651E+02</pdfrwt>
<pdfrwt beam="2">  1       -1 0.33635942E-01 0.96321651E+02</pdfrwt>
<totfact> 0.78583746E+02</totfact>
</mgrwt>
</event>
<event>
 8    1  0.3177960E-004  0.1030961E+03  0.7546771E-02  0.1278951E+00
         -1   -1    0    0    0  501 -0.00000000000E+00  0.00000000000E+00  0.19212808669E+03  0.19212808669E+03  0.00000000000E+00 0.  1.
          1   -1    0    0  501    0  0.00000000000E+00 -0.00000000000E+00 -0.10427890791E+03  0.10427890791E+03  0.00000000000E+00 0. -1.
         23    2    1    2    0    0  0.12357495410E+01 -0.32767071774E+02  0.15145840995E+03  0.18321694681E+03  0.97742475850E+02 0.  0.
         23    2    1    2    0    0 -0.12357495410E+01  0.32767071774E+02 -0.63609231165E+02  0.11319004779E+03  0.87696320104E+02 0.  0.
          5    1    4    4  502    0 -0.18914213792E+02  0.51510991865E+02 -0.13586655799E+02  0.56725805257E+02  0.47000000000E+01 0. -1.
         -5    1    4    4    0  502  0.17678464251E+02 -0.18743920091E+02 -0.50022575366E+02  0.56464242533E+02  0.47000000000E+01 0.  1.
          5    1    3    3  503    0 -0.24655814254E+02 -0.56366959317E+02  0.64069899885E+02  0.88950465712E+02  0.47000000000E+01 0. -1.
         -5    1    3    3    0  503  0.25891563795E+02  0.23599887543E+02  0.87388510065E+02  0.94266481101E+02  0.47000000000E+01 0.  1.
<mgrwt>
<rscale>  0 0.10064237E+03</rscale>
<asrwt>0</asrwt>
<pdfrwt beam="1">  1        1 0.16042909E-01 0.10309607E+03</pdfrwt>
<pdfrwt beam="2">  1       -1 0.29558167E-01 0.10309607E+03</pdfrwt>
<totfact> 0.33851221E+03</totfact>
</mgrwt>
</event>
<event>
 8    1  0.3177960E-004  0.1186376E+03  0.7546771E-02  0.1245368E+00
          1   -1    0    0  501    0  0.00000000000E+00  0.00000000000E+00  0.14304822838E+03  0.14304822838E+03  0.00000000000E+00 0. -1.
         -1   -1    0    0    0  501 -0.00000000000E+00 -0.00000000000E+00 -0.10646949353E+03  0.10646949353E+03  0.00000000000E+00 0.  1.
         23    2    1    2    0    0  0.68909156812E+02 -0.29656553476E+02  0.52678977489E+02  0.12979259461E+03  0.91886124576E+02 0.  0.
         23    2    1    2    0    0 -0.68909156812E+02  0.29656553476E+02 -0.16100242640E+02  0.11972512730E+03  0.91907046719E+02 0.  0.
          5    1    3    3  502    0  0.14703319006E+02  0.16391539786E+02  0.53994292130E+02  0.58500801268E+02  0.47000000000E+01 0. -1.
         -5    1    4    4    0  503 -0.31625200945E+01 -0.23256127382E+02 -0.25146834683E+02  0.34717463743E+02  0.47000000000E+01 0.  1.
          5    1    4    4  503    0 -0.65746636718E+02  0.52912680858E+02  0.90465920432E+01  0.85007663554E+02  0.47000000000E+01 0. -1.
         -5    1    3    3    0  502  0.54205837806E+02 -0.46048093262E+02 -0.13153146407E+01  0.71291793342E+02  0.47000000000E+01 0.  1.
<mgrwt>
<rscale>  0 0.11863358E+03</rscale>
<asrwt>0</asrwt>
<pdfrwt beam="1">  1        1 0.22007420E-01 0.11863763E+03</pdfrwt>
<pdfrwt beam="2">  1       -1 0.16379922E-01 0.11863763E+03</pdfrwt>
<totfact> 0.59319526E+03</totfact>
</mgrwt>
</event>
<event>
 8    1  0.3177960E-004  0.9401783E+02  0.7546771E-02  0.1295116E+00
          1   -1    0    0  501    0  0.00000000000E+00  0.00000000000E+00  0.40851213576E+02  0.40851213576E+02  0.00000000000E+00 0. -1.
         -1   -1    0    0    0  501 -0.00000000000E+00 -0.00000000000E+00 -0.25769807824E+03  0.25769807824E+03  0.00000000000E+00 0.  1.
         23    2    1    2    0    0 -0.10397690103E+02  0.15314322246E+01 -0.17428018761E+03  0.19802256364E+03  0.93428553851E+02 0.  0.
         23    2    1    2    0    0  0.10397690103E+02 -0.15314322246E+01 -0.42566677060E+02  0.10052672818E+03  0.90461283642E+02 0.  0.
          5    1    3    3  502    0 -0.46741417848E+02  0.17671139546E+01 -0.14059446117E+03  0.14824565878E+03  0.47000000000E+01 0. -1.
         -5    1    4    4    0  503  0.35560802652E+02  0.45041471048E+01 -0.59230616395E+02  0.69391742628E+02  0.47000000000E+01 0.  1.
          5    1    4    4  503    0 -0.25163112550E+02 -0.60355793293E+01  0.16663939335E+02  0.31134985550E+02  0.47000000000E+01 0. -1.
         -5    1    3    3    0  502  0.36343727745E+02 -0.23568173004E+00 -0.33685726434E+02  0.49776904862E+02  0.47000000000E+01 0.  1.
<mgrwt>
<rscale>  0 0.93271982E+02</rscale>
<asrwt>0</asrwt>
<pdfrwt beam="1">  1        1 0.62848021E-02 0.94017828E+02</pdfrwt>
<pdfrwt beam="2">  1       -1 0.39645858E-01 0.94017828E+02</pdfrwt>
<totfact> 0.69832545E+03</totfact>
</mgrwt>
</event>
<event>
 8    1  0.3177960E-004  0.1179847E+03  0.7546771E-02  0.1246609E+00
          3   -1    0    0  501    0  0.00000000000E+00  0.00000000000E+00  0.23532266134E+03  0.23532266134E+03  0.00000000000E+00 0. -1.
         -3   -1    0    0    0  501 -0.00000000000E+00 -0.00000000000E+00 -0.77452866721E+02  0.77452866721E+02  0.00000000000E+00 0.  1.
         23    2    1    2    0    0 -0.40993569117E+02  0.62071009481E+02  0.26435852274E+01  0.11801432572E+03  0.91581164035E+02 0.  0.
         23    2    1    2    0    0  0.40993569117E+02 -0.62071009481E+02  0.15522620939E+03  0.19476120234E+03  0.91123361041E+02 0.  0.
          5    1    4    4  502    0  0.46846445975E+02 -0.60800087484E+00  0.10485118396E+03  0.11493833104E+03  0.47000000000E+01 0. -1.
         -5    1    3    3    0  503  0.56851069379E+01  0.68146317859E+02 -0.94338768976E+01  0.69190527617E+02  0.47000000000E+01 0.  1.
          5    1    3    3  503    0 -0.46678676055E+02 -0.60753083781E+01  0.12077462125E+02  0.48823798106E+02  0.47000000000E+01 0. -1.
         -5    1    4    4    0  502 -0.58528768579E+01 -0.61463008606E+02  0.50375025431E+02  0.79822871294E+02  0.47000000000E+01 0.  1.
<mgrwt>
<rscale>  0 0.11789586E+03</rscale>
<asrwt>0</asrwt>
<pdfrwt beam="1">  1        3 0.36203486E-01 0.11798471E+03</pdfrwt>
<pdfrwt beam="2">  1       -3 0.11915826E-01 0.11798471E+03</pdfrwt>
<totfact> 0.93355071E+02</totfact>
</mgrwt>
</event>
<event>
 8    1  0.3177960E-004  0.1285511E+03  0.7546771E-02  0.1230736E+00
         -2   -1    0    0    0  501 -0.00000000000E+00  0.00000000000E+00  0.56312196050E+02  0.56312196050E+02  0.00000000000E+00 0.  1.
          2   -1    0    0  501    0  0.00000000000E+00 -0.00000000000E+00 -0.29143908160E+03  0.29143908160E+03  0.00000000000E+00 0. -1.
         23    2    1    2    0    0  0.19822427505E+02  0.89424626454E+02 -0.94356941492E+02  0.15711666998E+03  0.85980946308E+02 0.  0.
         23    2    1    2    0    0 -0.19822427505E+02 -0.89424626454E+02 -0.14076994405E+03  0.19063460767E+03  0.90198026831E+02 0.  0.
          5    1    3    3  502    0  0.26479366525E+02  0.25589549110E+02 -0.84129842662E+02  0.91955980238E+02  0.47000000000E+01 0. -1.
         -5    1    4    4    0  503 -0.33700296082E+02 -0.10046923845E+02 -0.98322695578E+01  0.36815949797E+02  0.47000000000E+01 0.  1.
          5    1    4    4  503    0  0.13877868577E+02 -0.79377702609E+02 -0.13093767450E+03  0.15381865788E+03  0.47000000000E+01 0. -1.
         -5    1    3    3    0  502 -0.66569390197E+01  0.63835077344E+02 -0.10227098830E+02  0.65160689738E+02  0.47000000000E+01 0.  1.
<mgrwt>
<rscale>  0 0.12781401E+03</rscale>
<asrwt>0</asrwt>
<pdfrwt beam="1">  1        2 0.44836782E-01 0.12855107E+03</pdfrwt>
<pdfrwt beam="2">  1       -2 0.86634147E-02 0.12855107E+03</pdfrwt>
<totfact> 0.88842445E+03</totfact>
</mgrwt>
</event>
<event>
 8    1  0.3177960E-004  0.1166269E+03  0.7546771E-02  0.1260353E+00
          4   -1    0    0  501    0  0.00000000000E+00  0.00000000000E+00  0.11098786251E+03  0.11098786251E+03  0.00000000000E+00 0.  1.
         -4   -1    0    0    0  501 -0.00000000000E+00 -0.00000000000E+00 -0.99577635529E+02  0.99577635529E+02  0.00000000000E+00 0. -1.
         23    2    1    2    0    0 -0.19004559428E+02  0.59819354153E+01 -0.35330043626E+01  0.11668040977E+03  0.11491248441E+03 0.  0.
         23    2    1    2    0    0  0.19004559428E+02 -0.59819354153E+01  0.14943231343E+02  0.93885088268E+02  0.90521559895E+02 0.  0.
          5    1    4    4  502    0 -0.21535398266E+02  0.27036743190E+02  0.21507043586E+02  0.40980504933E+02  0.47000000000E+01 0. -1.
         -5    1    4    4    0  502  0.40539957694E+02 -0.33018678605E+02 -0.65638122434E+01  0.52904583335E+02  0.47000000000E+01 0.  1.
          5    1    3    3  503    0 -0.54498625119E+02 -0.13361881713E+02 -0.34059202386E+02  0.65808504693E+02  0.47000000000E+01 0. -1.
         -5    1    3    3    0  503  0.35494065691E+02  0.19343817128E+02  0.30526198023E+02  0.50871905076E+02  0.47000000000E+01 0.  1.
<mgrwt>
<rscale>  0 0.11011722E+03</rscale>
<asrwt>0</asrwt>
<pdfrwt beam="1">  1        4 0.17075056E-01 0.11662691E+03</pdfrwt>
<pdfrwt beam="2">  1       -4 0.15319636E-01 0.11662691E+03</pdfrwt>
<totfact> 0.17286523E+03</totfact>
</mgrwt>
</event>
<event>
 8    1  0.3177960E-004  0.1889566E+03  0.7546771E-02  0.1159921E+00
          3   -1    0    0  501    0  0.00000000000E+00  0.00000000000E+00  0.13046284143E+03  0.13046284143E+03  0.00000000000E+00 0. -1.
         -3   -1    0    0    0  501 -0.00000000000E+00 -0.00000000000E+00 -0.30449782262E+03  0.30449782262E+03  0.00000000000E+00 0.  1.
         23    2    1    2    0    0  0.10582639289E+03 -0.12643682115E+03 -0.16023511274E+03  0.24774961893E+03  0.92298901134E+02 0.  0.
         23    2    1    2    0    0 -0.10582639289E+03  0.12643682115E+03 -0.13799868447E+02  0.18721104512E+03  0.87590204202E+02 0.  0.
          5    1    3    3  502    0  0.83192156027E+02 -0.51830075151E+02 -0.13246734821E+03  0.16485442019E+03  0.47000000000E+01 0. -1.
         -5    1    3    3    0  502  0.22634236860E+02 -0.74606746002E+02 -0.27767764533E+02  0.82895198741E+02  0.47000000000E+01 0.  1.
          5    1    4    4  503    0 -0.11344024797E+03  0.90766035970E+02  0.59241722748E+01  0.14547972011E+03  0.47000000000E+01 0. -1.
         -5    1    4    4    0  503  0.76138550884E+01  0.35670785182E+02 -0.19724040722E+02  0.41731325012E+02  0.47000000000E+01 0.  1.
<mgrwt>
<rscale>  0 0.18839032E+03</rscale>
<asrwt>0</asrwt>
<pdfrwt beam="1">  1        3 0.20071207E-01 0.18895656E+03</pdfrwt>
<pdfrwt beam="2">  1       -3 0.46845819E-01 0.18895656E+03</pdfrwt>
<totfact> 0.24635638E+02</totfact>
</mgrwt>
</event>
<event>
 8    1  0.3177960E-004  0.2204127E+03  0.7546771E-02  0.1133625E+00
         -1   -1    0    0    0  501 -0.00000000000E+00  0.00000000000E+00  0.20219828468E+03  0.20219828468E+03  0.00000000000E+00 0.  1.
          1   -1    0    0  501    0  0.00000000000E+00 -0.00000000000E+00 -0.30236928849E+03  0.30236928849E+03  0.00000000000E+00 0. -1.
         23    2    1    2    0    0  0.19400609424E+03  0.49101083769E+02  0.64535678510E+02  0.22941298242E+03  0.91739749682E+02 0.  0.
         23    2    1    2    0    0 -0.19400609424E+03 -0.49101083769E+02 -0.16470668232E+03  0.27515459075E+03  0.92371405640E+02 0.  0.
          5    1    3    3  502    0  0.40826625400E+02 -0.23232194530E+02  0.31516043469E+02  0.56761775873E+02  0.47000000000E+01 0. -1.
         -5    1    3    3    0  502  0.15317946884E+03  0.72333278299E+02  0.33019635041E+02  0.17265120655E+03  0.47000000000E+01 0.  1.
          5    1    4    4  503    0 -0.17723556070E+03 -0.33386661742E+02 -0.17330760480E+03  0.25016940069E+03  0.47000000000E+01 0. -1.
         -5    1    4    4    0  503 -0.16770533541E+02 -0.15714422027E+02  0.86009224810E+01  0.24985190061E+02  0.47000000000E+01 0.  1.
<mgrwt>
<rscale>  0 0.22034668E+03</rscale>
<asrwt>0</asrwt>
<pdfrwt beam="1">  1        1 0.46518352E-01 0.22041270E+03</pdfrwt>
<pdfrwt beam="2">  1       -1 0.31107429E-01 0.22041270E+03</pdfrwt>
<totfact> 0.83392205E+02</totfact>
</mgrwt>
</event>
<event>
 8    1  0.3177960E-004  0.9704763E+02  0.7546771E-02  0.1287082E+00
          1   -1    0    0  501    0  0.00000000000E+00  0.00000000000E+00  0.37576386804E+03  0.37576386804E+03  0.00000000000E+00 0. -1.
         -1   -1    0    0    0  501 -0.00000000000E+00 -0.00000000000E+00 -0.32104890669E+02  0.32104890669E+02  0.00000000000E+00 0.  1.
         23    2    1    2    0    0 -0.15632426235E+02  0.31009705445E+02  0.26819098214E+03  0.28493112873E+03  0.89740574062E+02 0.  0.
         23    2    1    2    0    0  0.15632426235E+02 -0.31009705445E+02  0.75467995229E+02  0.12293762998E+03  0.90621564654E+02 0.  0.
          5    1    4    4  502    0 -0.31825815746E+02 -0.20823957874E+01  0.54554558106E+02  0.63368041868E+02  0.47000000000E+01 0. -1.
         -5    1    3    3    0  503 -0.13814338013E+01 -0.26434947522E+02  0.34075292522E+02  0.43404266729E+02  0.47000000000E+01 0.  1.
          5    1    3    3  503    0 -0.14250992433E+02  0.57444652967E+02  0.23411568962E+03  0.24152686200E+03  0.47000000000E+01 0. -1.
         -5    1    4    4    0  502  0.47458241980E+02 -0.28927309658E+02  0.20913437123E+02  0.59569588115E+02  0.47000000000E+01 0.  1.
<mgrwt>
<rscale>  0 0.96841439E+02</rscale>
<asrwt>0</asrwt>
<pdfrwt beam="1">  1        1 0.57809823E-01 0.97047630E+02</pdfrwt>
<pdfrwt beam="2">  1       -1 0.49392142E-02 0.97047630E+02</pdfrwt>
<totfact> 0.10848528E+04</totfact>
</mgrwt>
</event>
<event>
 8    1  0.3177960E-004  0.9875851E+02  0.7546771E-02  0.1286563E+00
         -1   -1    0    0    0  501 -0.00000000000E+00  0.00000000000E+00  0.49450306355E+02  0.49450306355E+02  0.00000000000E+00 0.  1.
          1   -1    0    0  501    0  0.00000000000E+00 -0.00000000000E+00 -0.18473089437E+03  0.18473089437E+03  0.00000000000E+00 0. -1.
         23    2    1    2    0    0 -0.46891436564E+01  0.35551129920E+02 -0.60113908230E+02  0.11007128038E+03  0.84947830434E+02 0.  0.
         23    2    1    2    0    0  0.46891436564E+01 -0.35551129920E+02 -0.75166679785E+02  0.12410992034E+03  0.92018322474E+02 0.  0.
          5    1    4    4  502    0 -0.27992962117E+02  0.12770854230E+02 -0.53124802901E+02  0.61571384012E+02  0.47000000000E+01 0. -1.
         -5    1    4    4    0  502  0.32682105773E+02 -0.48321984150E+02 -0.22041876883E+02  0.62538536331E+02  0.47000000000E+01 0.  1.
          5    1    3    3  503    0  0.20017288295E+02  0.31202099787E+02  0.72231682476E+01  0.38059519457E+02  0.47000000000E+01 0. -1.
         -5    1    3    3    0  503 -0.24706431951E+02  0.43490301331E+01 -0.67337076478E+02  0.72011760925E+02  0.47000000000E+01 0.  1.
<mgrwt>
<rscale>  0 0.97078052E+02</rscale>
<asrwt>0</asrwt>
<pdfrwt beam="1">  1        1 0.28420138E-01 0.98758506E+02</pdfrwt>
<pdfrwt beam="2">  1       -1 0.76077394E-02 0.98758506E+02</pdfrwt>
<totfact> 0.13717043E+04</totfact>
</mgrwt>
</event>
<event>
 8    1  0.3177960E-004  0.9610180E+02  0.7546771E-02  0.1289611E+00
         -2   -1    0    0    0  501 -0.00000000000E+00  0.00000000000E+00  0.12258901244E+03  0.12258901244E+03  0.00000000000E+00 0.  1.
          2   -1    0    0  501    0  0.00000000000E+00 -0.00000000000E+00 -0.77491600248E+02  0.77491600248E+02  0.00000000000E+00 0. -1.
         23    2    1    2    0    0 -0.28840135082E+02  0.34982069568E+01  0.13939996021E+01  0.94508151818E+02  0.89921391680E+02 0.  0.
         23    2    1    2    0    0  0.28840135082E+02 -0.34982069568E+01  0.43703412594E+02  0.10557246087E+03  0.91605487713E+02 0.  0.
          5    1    3    3  502    0 -0.28440246670E+02  0.37366458520E+02 -0.23004174609E+02  0.52501256199E+02  0.47000000000E+01 0. -1.
         -5    1    4    4    0  503  0.52751745831E+02  0.28152209442E+01  0.56365236517E+02  0.77393811411E+02  0.47000000000E+01 0.  1.
          5    1    4    4  503    0 -0.23911610748E+02 -0.63134279010E+01 -0.12661823923E+02  0.28178649462E+02  0.47000000000E+01 0. -1.
         -5    1    3    3    0  502 -0.39988841242E+00 -0.33868251563E+02  0.24398174212E+02  0.42006895619E+02  0.47000000000E+01 0.  1.
<mgrwt>
<rscale>  0 0.95698284E+02</rscale>
<asrwt>0</asrwt>
<pdfrwt beam="1">  1        2 0.11921785E-01 0.96101801E+02</pdfrwt>
<pdfrwt beam="2">  1       -2 0.18859848E-01 0.96101801E+02</pdfrwt>
<totfact> 0.10867627E+04</totfact>
</mgrwt>
</event>
<event>
 8    1  0.3177960E-004  0.1076622E+03  0.7546771E-02  0.1266284E+00
          2   -1    0    0  501    0  0.00000000000E+00  0.00000000000E+00  0.20583052760E+03  0.20583052760E+03  0.00000000000E+00 0. -1.
         -2   -1    0    0    0  501 -0.00000000000E+00 -0.00000000000E+00 -0.10575379411E+03  0.10575379411E+03  0.00000000000E+00 0.  1.
         23    2    1    2    0    0  0.38856434802E+02 -0.35696988720E+02  0.15774240334E+03  0.18945131191E+03  0.90691985551E+02 0.  0.
         23    2    1    2    0    0 -0.38856434802E+02  0.35696988720E+02 -0.57665669850E+02  0.12213300980E+03  0.93845858054E+02 0.  0.
          5    1    3    3  502    0  0.33583083099E+02 -0.64770368582E+02  0.94418882834E+02  0.11941540752E+03  0.47000000000E+01 0. -1.
         -5    1    4    4    0  503  0.11066812729E+02  0.44462332835E+02 -0.54176154358E+02  0.71109205355E+02  0.47000000000E+01 0.  1.
          5    1    4    4  503    0 -0.49923247531E+02 -0.87653441154E+01 -0.34895154916E+01  0.51023804443E+02  0.47000000000E+01 0. -1.
         -5    1    3    3    0  502  0.52733517034E+01  0.29073379862E+02  0.63323520510E+02  0.70035904396E+02  0.47000000000E+01 0.  1.
<mgrwt>
<rscale>  0 0.10697111E+03</rscale>
<asrwt>0</asrwt>
<pdfrwt beam="1">  1        2 0.31666235E-01 0.10766217E+03</pdfrwt>
<pdfrwt beam="2">  1       -2 0.16269815E-01 0.10766217E+03</pdfrwt>
<totfact> 0.46571903E+03</totfact>
</mgrwt>
</event>
<event>
 8    1  0.3177960E-004  0.1438034E+03  0.7546771E-02  0.1208469E+00
         -1   -1    0    0    0  501 -0.00000000000E+00  0.00000000000E+00  0.21148578360E+03  0.21148578360E+03  0.00000000000E+00 0.  1.
          1   -1    0    0  501    0  0.00000000000E+00 -0.00000000000E+00 -0.16062767093E+03  0.16062767093E+03  0.00000000000E+00 0. -1.
         23    2    1    2    0    0 -0.11197864066E+03  0.76115740062E+01 -0.91245814462E+02  0.17030914205E+03  0.89901352530E+02 0.  0.
         23    2    1    2    0    0  0.11197864066E+03 -0.76115740062E+01  0.14210392713E+03  0.20180431248E+03  0.89074701281E+02 0.  0.
          5    1    4    4  502    0  0.27380486713E+02  0.17208046721E+02 -0.20708012158E+01  0.32744253576E+02  0.47000000000E+01 0. -1.
         -5    1    4    4    0  502  0.84598153942E+02 -0.24819620727E+02  0.14417472834E+03  0.16906005890E+03  0.47000000000E+01 0.  1.
          5    1    3    3  503    0 -0.61724364956E+02  0.19066661249E+02 -0.98661145829E+02  0.11802349976E+03  0.47000000000E+01 0. -1.
         -5    1    3    3    0  503 -0.50254275699E+02 -0.11455087243E+02  0.74153313668E+01  0.52285642284E+02  0.47000000000E+01 0.  1.
<mgrwt>
<rscale>  0 0.14367435E+03</rscale>
<asrwt>0</asrwt>
<pdfrwt beam="1">  1        1 0.24711949E-01 0.14380336E+03</pdfrwt>
<pdfrwt beam="2">  1       -1 0.32536275E-01 0.14380336E+03</pdfrwt>
<totfact> 0.16914580E+03</totfact>
</mgrwt>
</event>
<event>
 8    1  0.3177960E-004  0.1066725E+03  0.7546771E-02  0.1267216E+00
          1   -1    0    0  501    0  0.00000000000E+00  0.00000000000E+00  0.51957503361E+02  0.51957503361E+02  0.00000000000E+00 0. -1.
         -1   -1    0    0    0  501 -0.00000000000E+00 -0.00000000000E+00 -0.22928874916E+03  0.22928874916E+03  0.00000000000E+00 0.  1.
         23    2    1    2    0    0 -0.45983519350E+02 -0.27489396936E+02 -0.12026723977E+03  0.16026973274E+03  0.91389426494E+02 0.  0.
         23    2    1    2    0    0  0.45983519350E+02  0.27489396936E+02 -0.57064006027E+02  0.12097651978E+03  0.92243517703E+02 0.  0.
          5    1    3    3  502    0 -0.16018743921E+02  0.31963167870E+02 -0.24719180870E+02  0.43719242445E+02  0.47000000000E+01 0. -1.
         -5    1    4    4    0  503 -0.27210047719E+02  0.85246895319E+01 -0.26753181662E+02  0.39381210717E+02  0.47000000000E+01 0.  1.
          5    1    4    4  503    0  0.73193567069E+02  0.18964707404E+02 -0.30310824364E+02  0.81595309061E+02  0.47000000000E+01 0. -1.
         -5    1    3    3    0  502 -0.29964775429E+02 -0.59452564805E+02 -0.95548058900E+02  0.11655049029E+03  0.47000000000E+01 0.  1.
<mgrwt>
<rscale>  0 0.10648757E+03</rscale>
<asrwt>0</asrwt>
<pdfrwt beam="1">  1        1 0.79934619E-02 0.10667248E+03</pdfrwt>
<pdfrwt beam="2">  1       -1 0.35275193E-01 0.10667248E+03</pdfrwt>
<totfact> 0.62561562E+03</totfact>
</mgrwt>
</event>
<event>
 8    1  0.3177960E-004  0.9076467E+02  0.7546771E-02  0.1301500E+00
          1   -1    0    0  501    0  0.00000000000E+00  0.00000000000E+00  0.43195653578E+02  0.43195653578E+02  0.00000000000E+00 0. -1.
         -1   -1    0    0    0  501 -0.00000000000E+00 -0.00000000000E+00 -0.24761185927E+03  0.24761185927E+03  0.00000000000E+00 0.  1.
         23    2    1    2    0    0  0.60420507335E+00  0.36935024714E+01 -0.31825239489E+02  0.96182484399E+02  0.90687471088E+02 0.  0.
         23    2    1    2    0    0 -0.60420507335E+00 -0.36935024714E+01 -0.17259096620E+03  0.19462502844E+03  0.89873539260E+02 0.  0.
          5    1    3    3  502    0 -0.10186864197E+02 -0.20087126805E+02  0.24689968877E+02  0.33748324827E+02  0.47000000000E+01 0. -1.
         -5    1    3    3    0  502  0.10791069271E+02  0.23780629277E+02 -0.56515208367E+02  0.62434159572E+02  0.47000000000E+01 0.  1.
          5    1    4    4  503    0  0.25252125979E+02 -0.31106980319E+02 -0.40420359528E+02  0.57107000931E+02  0.47000000000E+01 0. -1.
         -5    1    4    4    0  503 -0.25856331052E+02  0.27413477848E+02 -0.13217060667E+03  0.13751802751E+03  0.47000000000E+01 0.  1.
<mgrwt>
<rscale>  0 0.90560670E+02</rscale>
<asrwt>0</asrwt>
<pdfrwt beam="1">  1        1 0.66454851E-02 0.90764665E+02</pdfrwt>
<pdfrwt beam="2">  1       -1 0.38094132E-01 0.90764665E+02</pdfrwt>
<totfact> 0.69221361E+03</totfact>
</mgrwt>
</event>
<event>
 8    1  0.3177960E-004  0.1217382E+03  0.7546771E-02  0.1241920E+00
          4   -1    0    0  501    0  0.00000000000E+00  0.00000000000E+00  0.24230520599E+03  0.24230520599E+03  0.00000000000E+00 0. -1.
         -4   -1    0    0    0  501 -0.00000000000E+00 -0.00000000000E+00 -0.59518535188E+02  0.59518535188E+02  0.00000000000E+00 0.  1.
         23    2    1    2    0    0  0.52677634859E+02 -0.51221866192E+02  0.78028759696E+02  0.14121735871E+03  0.91952391319E+02 0.  0.
         23    2    1    2    0    0 -0.52677634859E+02  0.51221866192E+02  0.10475791111E+03  0.16060638247E+03  0.97064810109E+02 0.  0.
          5    1    4    4  502    0 -0.44757985266E+02  0.10566102173E+02  0.10929998463E+03  0.11867390783E+03  0.47000000000E+01 0. -1.
         -5    1    4    4    0  502 -0.79196495937E+01  0.40655764020E+02 -0.45420735230E+01  0.41932474642E+02  0.47000000000E+01 0.  1.
          5    1    3    3  503    0 -0.26116640649E+02 -0.93607086042E+01  0.22415553332E+02  0.35975669772E+02  0.47000000000E+01 0. -1.
         -5    1    3    3    0  503  0.78794275508E+02 -0.41861157588E+02  0.55613206365E+02  0.10524168893E+03  0.47000000000E+01 0.  1.
<mgrwt>
<rscale>  0 0.12071646E+03</rscale>
<asrwt>0</asrwt>
<pdfrwt beam="1">  1        4 0.37277723E-01 0.12173820E+03</pdfrwt>
<pdfrwt beam="2">  1       -4 0.91566979E-02 0.12173820E+03</pdfrwt>
<totfact> 0.99276199E+02</totfact>
</mgrwt>
</event>
<event>
 8    1  0.3177960E-004  0.9414417E+02  0.7546771E-02  0.1293508E+00
          2   -1    0    0  501    0  0.00000000000E+00  0.00000000000E+00  0.11587616239E+04  0.11587616239E+04  0.00000000000E+00 0. -1.
         -2   -1    0    0    0  501 -0.00000000000E+00 -0.00000000000E+00 -0.76336494240E+01  0.76336494240E+01  0.00000000000E+00 0.  1.
         23    2    1    2    0    0 -0.15170032064E+02 -0.51453857391E+00  0.61596914388E+03  0.62301870209E+03  0.92216713890E+02 0.  0.
         23    2    1    2    0    0  0.15170032064E+02  0.51453857391E+00  0.53515883057E+03  0.54337657120E+03  0.92912483426E+02 0.  0.
          5    1    4    4  502    0  0.41071937246E+02  0.26423156755E+02  0.40868992941E+03  0.41162438660E+03  0.47000000000E+01 0. -1.
         -5    1    4    4    0  502 -0.25901905183E+02 -0.25908618181E+02  0.12646890116E+03  0.13175218460E+03  0.47000000000E+01 0.  1.
          5    1    3    3  503    0  0.17829756150E+02  0.38171127549E+02  0.27795649116E+03  0.28117047526E+03  0.47000000000E+01 0. -1.
         -5    1    3    3    0  503 -0.32999788214E+02 -0.38685666123E+02  0.33801265272E+03  0.34184822683E+03  0.47000000000E+01 0.  1.
<mgrwt>
<rscale>  0 0.93972046E+02</rscale>
<asrwt>0</asrwt>
<pdfrwt beam="1">  1        2 0.17827088E+00 0.94144167E+02</pdfrwt>
<pdfrwt beam="2">  1       -2 0.11744085E-02 0.94144167E+02</pdfrwt>
<totfact> 0.32737331E+04</totfact>
</mgrwt>
</event>
<event>
 8    1  0.3177960E-004  0.1270186E+03  0.7546771E-02  0.1235906E+00
          1   -1    0    0  501    0  0.00000000000E+00  0.00000000000E+00  0.41677273033E+03  0.41677273033E+03  0.00000000000E+00 0. -1.
         -1   -1    0    0    0  501 -0.00000000000E+00 -0.00000000000E+00 -0.39258716055E+02  0.39258716055E+02  0.00000000000E+00 0.  1.
         23    2    1    2    0    0 -0.61869984675E+02  0.55790475965E+02  0.24989006723E+03  0.27597148665E+03  0.82308830203E+02 0.  0.
         23    2    1    2    0    0  0.61869984675E+02 -0.55790475965E+02  0.12762394704E+03  0.18005995973E+03  0.95881411280E+02 0.  0.
          5    1    4    4  502    0  0.45675410467E+02  0.42519709354E+01  0.10328862679E+03  0.11311477712E+03  0.47000000000E+01 0. -1.
         -5    1    4    4    0  502  0.16194574208E+02 -0.60042446900E+02  0.24335320247E+02  0.66945182613E+02  0.47000000000E+01 0.  1.
          5    1    3    3  503    0  0.11667604539E+02  0.35420794236E+02  0.54948491327E+02  0.66574712610E+02  0.47000000000E+01 0. -1.
         -5    1    3    3    0  503 -0.73537589214E+02  0.20369681728E+02  0.19494157590E+03  0.20939677404E+03  0.47000000000E+01 0.  1.
<mgrwt>
<rscale>  0 0.12446600E+03</rscale>
<asrwt>0</asrwt>
<pdfrwt beam="1">  1        1 0.64118879E-01 0.12701857E+03</pdfrwt>
<pdfrwt beam="2">  1       -1 0.60398028E-02 0.12701857E+03</pdfrwt>
<totfact> 0.72265805E+03</totfact>
</mgrwt>
</event>
<event>
 8    1  0.3177960E-004  0.1009043E+03  0.7546771E-02  0.1278585E+00
          2   -1    0    0  501    0  0.00000000000E+00  0.00000000000E+00  0.85715753834E+03  0.85715753834E+03  0.00000000000E+00 0. -1.
         -2   -1    0    0    0  501 -0.00000000000E+00 -0.00000000000E+00 -0.12248490224E+02  0.12248490224E+02  0.00000000000E+00 0.  1.
         23    2    1    2    0    0 -0.18515781182E+02 -0.38185856011E+02  0.50274775985E+03  0.51277381100E+03  0.91546040121E+02 0.  0.
         23    2    1    2    0    0  0.18515781182E+02  0.38185856011E+02  0.34216128827E+03  0.35663221756E+03  0.91165770241E+02 0.  0.
          5    1    3    3  502    0  0.18504206970E+02  0.20664650203E+02  0.93691196830E+02  0.97824147362E+02  0.47000000000E+01 0. -1.
         -5    1    3    3    0  502 -0.37019988152E+02 -0.58850506214E+02  0.40905656302E+03  0.41494966364E+03  0.47000000000E+01 0.  1.
          5    1    4    4  503    0  0.79357009762E+00  0.55861769972E+02  0.31271222502E+03  0.31769827316E+03  0.47000000000E+01 0. -1.
         -5    1    4    4    0  503  0.17722211084E+02 -0.17675913960E+02  0.29449063253E+02  0.38933944400E+02  0.47000000000E+01 0.  1.
<mgrwt>
<rscale>  0 0.10081794E+03</rscale>
<asrwt>0</asrwt>
<pdfrwt beam="1">  1        2 0.13187034E+00 0.10090427E+03</pdfrwt>
<pdfrwt beam="2">  1       -2 0.18843838E-02 0.10090427E+03</pdfrwt>
<totfact> 0.25234025E+04</totfact>
</mgrwt>
</event>
<event>
 8    1  0.3177960E-004  0.1160383E+03  0.7546771E-02  0.1251239E+00
         -1   -1    0    0    0  501 -0.00000000000E+00  0.00000000000E+00  0.75750829424E+02  0.75750829424E+02  0.00000000000E+00 0.  1.
          1   -1    0    0  501    0  0.00000000000E+00 -0.00000000000E+00 -0.37415585436E+03  0.37415585436E+03  0.00000000000E+00 0. -1.
         23    2    1    2    0    0 -0.68585631953E+02  0.18877251340E+02 -0.31526799090E+03  0.33594461203E+03  0.91676260462E+02 0.  0.
         23    2    1    2    0    0  0.68585631953E+02 -0.18877251340E+02  0.16862965965E+02  0.11396207176E+03  0.87422277770E+02 0.  0.
          5    1    4    4  502    0  0.32297008323E+02 -0.22698960220E+02 -0.33227507988E+02  0.51812130131E+02  0.47000000000E+01 0. -1.
         -5    1    4    4    0  502  0.36288623631E+02  0.38217088800E+01  0.50090473953E+02  0.62149941630E+02  0.47000000000E+01 0.  1.
          5    1    3    3  503    0 -0.23148611867E+02 -0.36711540545E+02 -0.10525366140E+03  0.11394743822E+03  0.47000000000E+01 0. -1.
         -5    1    3    3    0  503 -0.45437020086E+02  0.55588791885E+02 -0.21001432951E+03  0.22199717380E+03  0.47000000000E+01 0.  1.
<mgrwt>
<rscale>  0 0.11519646E+03</rscale>
<asrwt>0</asrwt>
<pdfrwt beam="1">  1        1 0.57562437E-01 0.11603825E+03</pdfrwt>
<pdfrwt beam="2">  1       -1 0.11653974E-01 0.11603825E+03</pdfrwt>
<totfact> 0.30538897E+03</totfact>
</mgrwt>
</event>
<event>
 8    1  0.3177960E-004  0.9489155E+02  0.7546771E-02  0.1293531E+00
          2   -1    0    0  501    0  0.00000000000E+00  0.00000000000E+00  0.60733718197E+03  0.60733718197E+03  0.00000000000E+00 0. -1.
         -2   -1    0    0    0  501 -0.00000000000E+00 -0.00000000000E+00 -0.14442281578E+02  0.14442281578E+02  0.00000000000E+00 0.  1.
         23    2    1    2    0    0  0.12645376111E+02 -0.21025268203E+02  0.33720618200E+03  0.35030331978E+03  0.91664820037E+02 0.  0.
         23    2    1    2    0    0 -0.12645376111E+02  0.21025268203E+02  0.25568871840E+03  0.27147614377E+03  0.87866993122E+02 0.  0.
          5    1    3    3  502    0  0.45974706475E+02  0.79434339701E+01  0.22056038877E+03  0.22549001502E+03  0.47000000000E+01 0. -1.
         -5    1    4    4    0  503 -0.45947606093E+02  0.26472490029E+02  0.19203949078E+03  0.19928178857E+03  0.47000000000E+01 0.  1.
          5    1    4    4  503    0  0.33302229981E+02 -0.54472218252E+01  0.63649227616E+02  0.72194355205E+02  0.47000000000E+01 0. -1.
         -5    1    3    3    0  502 -0.33329330363E+02 -0.28968702173E+02  0.11664579323E+03  0.12481330476E+03  0.47000000000E+01 0.  1.
<mgrwt>
<rscale>  0 0.93962137E+02</rscale>
<asrwt>0</asrwt>
<pdfrwt beam="1">  1        2 0.93436470E-01 0.94891552E+02</pdfrwt>
<pdfrwt beam="2">  1       -2 0.22218899E-02 0.94891552E+02</pdfrwt>
<totfact> 0.29764864E+04</totfact>
</mgrwt>
</event>
<event>
 8    1  0.3177960E-004  0.1043978E+03  0.7546771E-02  0.1273208E+00
         -2   -1    0    0    0  501 -0.00000000000E+00  0.00000000000E+00  0.47394567631E+02  0.47394567631E+02  0.00000000000E+00 0.  1.
          2   -1    0    0  501    0  0.00000000000E+00 -0.00000000000E+00 -0.30318232081E+03  0.30318232081E+03  0.00000000000E+00 0. -1.
         23    2    1    2    0    0  0.22865341115E+02 -0.35658255989E+02 -0.21700116644E+03  0.23920679183E+03  0.91301960423E+02 0.  0.
         23    2    1    2    0    0 -0.22865341115E+02  0.35658255989E+02 -0.38786586737E+02  0.11137009661E+03  0.95417839335E+02 0.  0.
          5    1    3    3  502    0  0.37058350190E+02 -0.66450221600E+00 -0.28735269856E+02  0.47133519025E+02  0.47000000000E+01 0. -1.
         -5    1    3    3    0  502 -0.14193009074E+02 -0.34993753773E+02 -0.18826589658E+03  0.19207327281E+03  0.47000000000E+01 0.  1.
          5    1    4    4  503    0  0.10239247924E+02  0.43032079772E+02 -0.57225658634E+02  0.72480811900E+02  0.47000000000E+01 0. -1.
         -5    1    4    4    0  503 -0.33104589040E+02 -0.73738237833E+01  0.18439071897E+02  0.38889284708E+02  0.47000000000E+01 0.  1.
<mgrwt>
<rscale>  0 0.10344791E+03</rscale>
<asrwt>0</asrwt>
<pdfrwt beam="1">  1        2 0.46643432E-01 0.10439779E+03</pdfrwt>
<pdfrwt beam="2">  1       -2 0.72914723E-02 0.10439779E+03</pdfrwt>
<totfact> 0.10928066E+04</totfact>
</mgrwt>
</event>
<event>
 8    1  0.3177960E-004  0.9644880E+02  0.7546771E-02  0.1290421E+00
         -2   -1    0    0    0  501 -0.00000000000E+00  0.00000000000E+00  0.10902016626E+03  0.10902016626E+03  0.00000000000E+00 0.  1.
          2   -1    0    0  501    0  0.00000000000E+00 -0.00000000000E+00 -0.96152684603E+02  0.96152684603E+02  0.00000000000E+00 0. -1.
         23    2    1    2    0    0  0.12219386381E+02  0.13032189895E+01 -0.33476832594E+02  0.10209343358E+03  0.95662736091E+02 0.  0.
         23    2    1    2    0    0 -0.12219386381E+02 -0.13032189895E+01  0.46344314245E+02  0.10307941728E+03  0.91249980933E+02 0.  0.
          5    1    3    3  502    0 -0.41558036342E+02  0.57101772846E+01 -0.12657888751E+02  0.44068000373E+02  0.47000000000E+01 0. -1.
         -5    1    4    4    0  503  0.19702420784E+02 -0.37329870700E+02  0.30119666385E+02  0.52067157924E+02  0.47000000000E+01 0.  1.
          5    1    4    4  503    0 -0.31921807165E+02  0.36026651710E+02  0.16224647861E+02  0.51012259354E+02  0.47000000000E+01 0. -1.
         -5    1    3    3    0  502  0.53777422723E+02 -0.44069582951E+01 -0.20818943843E+02  0.58025433207E+02  0.47000000000E+01 0.  1.
<mgrwt>
<rscale>  0 0.95335917E+02</rscale>
<asrwt>0</asrwt>
<pdfrwt beam="1">  1        2 0.14792721E-01 0.96448799E+02</pdfrwt>
<pdfrwt beam="2">  1       -2 0.16772333E-01 0.96448799E+02</pdfrwt>
<totfact> 0.10240704E+04</totfact>
</mgrwt>
</event>
<event>
 7    1  0.3177960E-004  0.6535063E+03  0.7546771E-02  0.9800222E-01
          1   -1    0    0  501    0  0.00000000000E+00  0.00000000000E+00  0.17744810854E+03  0.17744810854E+03  0.00000000000E+00 0. -1.
         -1   -1    0    0    0  501 -0.00000000000E+00 -0.00000000000E+00 -0.60168365095E+03  0.60168365095E+03  0.00000000000E+00 0.  1.
         23    2    1    2    0    0 -0.18428763409E+03  0.10414699839E+02  0.12478376486E+02  0.20722528499E+03  0.93360649155E+02 0.  0.
          5    1    1    2  502    0 -0.91774648520E+02  0.98415185310E+01 -0.11012893347E+03  0.14377035016E+03  0.47000000000E+01 0. -1.
         -5    1    3    3    0  503 -0.12334650485E+03  0.39236309138E+01 -0.36337209934E+02  0.12873320459E+03  0.47000000000E+01 0.  1.
          5    1    3    3  503    0 -0.60941129236E+02  0.64910689256E+01  0.48815586420E+02  0.78492080403E+02  0.47000000000E+01 0. -1.
         -5    1    1    2    0  502  0.27606228261E+03 -0.20256218370E+02 -0.32658498543E+03  0.42813612434E+03  0.47000000000E+01 0.  1.
<mgrwt>
<rscale>  0 0.65350631E+03</rscale>
<asrwt>0</asrwt>
<pdfrwt beam="1">  1        1 0.27299709E-01 0.65350631E+03</pdfrwt>
<pdfrwt beam="2">  1       -1 0.92566715E-01 0.65350631E+03</pdfrwt>
<totfact> 0.20064198E+02</totfact>
</mgrwt>
</event>
<event>
 8    1  0.3177960E-004  0.1003093E+03  0.7546771E-02  0.1279842E+00
          1   -1    0    0  501    0  0.00000000000E+00  0.00000000000E+00  0.25244884081E+03  0.25244884081E+03  0.00000000000E+00 0. -1.
         -1   -1    0    0    0  501 -0.00000000000E+00 -0.00000000000E+00 -0.39736267654E+02  0.39736267654E+02  0.00000000000E+00 0.  1.
         23    2    1    2    0    0  0.40226024612E+02 -0.11327443047E+02  0.11032871780E+03  0.14911195522E+03  0.91189391903E+02 0.  0.
         23    2    1    2    0    0 -0.40226024612E+02  0.11327443047E+02  0.10238385535E+03  0.14307315325E+03  0.90780115225E+02 0.  0.
          5    1    3    3  502    0  0.39174327165E+02  0.33328009002E+02  0.38586627322E+02  0.64470162873E+02  0.47000000000E+01 0. -1.
         -5    1    3    3    0  502  0.10516974475E+01 -0.44655452049E+02  0.71742090479E+02  0.84641792346E+02  0.47000000000E+01 0.  1.
          5    1    4    4  503    0 -0.32523427216E+02  0.49686482816E+02  0.71115231313E+02  0.92768453782E+02  0.47000000000E+01 0. -1.
         -5    1    4    4    0  503 -0.77025973961E+01 -0.38359039769E+02  0.31268624042E+02  0.50304699463E+02  0.47000000000E+01 0.  1.
<mgrwt>
<rscale>  0 0.10021616E+03</rscale>
<asrwt>0</asrwt>
<pdfrwt beam="1">  1        1 0.38838282E-01 0.10030927E+03</pdfrwt>
<pdfrwt beam="2">  1       -1 0.61132721E-02 0.10030927E+03</pdfrwt>
<totfact> 0.12953607E+04</totfact>
</mgrwt>
</event>
<event>
 8    1  0.3177960E-004  0.9793017E+02  0.7546771E-02  0.1285466E+00
         -2   -1    0    0    0  501 -0.00000000000E+00  0.00000000000E+00  0.86683607704E+02  0.86683607704E+02  0.00000000000E+00 0. -1.
          2   -1    0    0  501    0  0.00000000000E+00 -0.00000000000E+00 -0.26379849836E+03  0.26379849836E+03  0.00000000000E+00 0.  1.
         23    2    1    2    0    0  0.24609385808E+02  0.24409536133E+02 -0.22250322969E+03  0.24254500107E+03  0.90105177418E+02 0.  0.
         23    2    1    2    0    0 -0.24609385808E+02 -0.24409536133E+02  0.45388339031E+02  0.10793710500E+03  0.91590774597E+02 0.  0.
          5    1    4    4  502    0 -0.42329109221E+02 -0.11599905870E+02  0.64744423467E+02  0.78359694191E+02  0.47000000000E+01 0. -1.
         -5    1    3    3    0  503  0.14850582196E+02  0.56158541888E+02 -0.17455662848E+03  0.18402833522E+03  0.47000000000E+01 0.  1.
          5    1    3    3  503    0  0.97588036125E+01 -0.31749005754E+02 -0.47946601213E+02  0.58516665850E+02  0.47000000000E+01 0.  1.
         -5    1    4    4    0  502  0.17719723413E+02 -0.12809630263E+02 -0.19356084436E+02  0.29577410807E+02  0.47000000000E+01 0.  1.
<mgrwt>
<rscale>  0 0.97581307E+02</rscale>
<asrwt>0</asrwt>
<pdfrwt beam="1">  1        2 0.40584385E-01 0.97930166E+02</pdfrwt>
<pdfrwt beam="2">  1       -2 0.13335940E-01 0.97930166E+02</pdfrwt>
<totfact> 0.49095154E+03</totfact>
</mgrwt>
</event>
<event>
 8    1  0.3816055E-004  0.1363735E+03  0.7546771E-02  0.1220665E+00
         -2   -1    0    0    0  501 -0.00000000000E+00  0.00000000000E+00  0.29699764485E+02  0.29699764485E+02  0.00000000000E+00 0.  1.
          2   -1    0    0  501    0  0.00000000000E+00 -0.00000000000E+00 -0.11829812930E+04  0.11829812930E+04  0.00000000000E+00 0. -1.
         23    2    1    2    0    0  0.51660765568E+02 -0.50943289619E+02 -0.99640105545E+03  0.10048127949E+04  0.10756224298E+03 0.  0.
         23    2    1    2    0    0 -0.51660765568E+02  0.50943289619E+02 -0.15688047304E+03  0.20786826252E+03  0.11547154752E+03 0.  0.
          5    1    4    4  502    0 -0.39453843314E+02 -0.21074298138E+02 -0.11512830269E+03  0.12360156907E+03  0.47000000000E+01 0. -1.
         -5    1    4    4    0  502 -0.12206922253E+02  0.72017587758E+02 -0.41752170347E+02  0.84266693456E+02  0.47000000000E+01 0.  1.
          5    1    3    3  503    0 -0.26835848794E+01 -0.70838524002E+02 -0.49831272075E+03  0.50335172173E+03  0.47000000000E+01 0. -1.
         -5    1    3    3    0  503  0.54344350447E+02  0.19895234383E+02 -0.49808833470E+03  0.50146107321E+03  0.47000000000E+01 0.  1.
<mgrwt>
<rscale>  0 0.13468521E+03</rscale>
<asrwt>0</asrwt>
<pdfrwt beam="1">  1        2 0.18199712E+00 0.13637350E+03</pdfrwt>
<pdfrwt beam="2">  1       -2 0.45691945E-02 0.13637350E+03</pdfrwt>
<totfact> 0.45083337E+03</totfact>
</mgrwt>
</event>
<event>
 8    1  0.3177960E-004  0.1105012E+03  0.7546771E-02  0.1261979E+00
          1   -1    0    0  501    0  0.00000000000E+00  0.00000000000E+00  0.25262174786E+02  0.25262174786E+02  0.00000000000E+00 0. -1.
         -1   -1    0    0    0  501 -0.00000000000E+00 -0.00000000000E+00 -0.48538191985E+03  0.48538191985E+03  0.00000000000E+00 0.  1.
         23    2    1    2    0    0  0.55763376310E+02  0.25027009759E+02 -0.29116004820E+03  0.31142363694E+03  0.92057604906E+02 0.  0.
         23    2    1    2    0    0 -0.55763376310E+02 -0.25027009759E+02 -0.16895969686E+03  0.19922045770E+03  0.86055251125E+02 0.  0.
          5    1    4    4  502    0 -0.70953508816E+02 -0.22191205652E+01 -0.85370051905E+02  0.11112812727E+03  0.47000000000E+01 0. -1.
         -5    1    4    4    0  502  0.15190132506E+02 -0.22807889194E+02 -0.83589644960E+02  0.88092330424E+02  0.47000000000E+01 0.  1.
          5    1    3    3  503    0 -0.24787208991E+02  0.11386026081E+02 -0.56751230946E+02  0.63141424860E+02  0.47000000000E+01 0. -1.
         -5    1    3    3    0  503  0.80550585300E+02  0.13640983678E+02 -0.23440881725E+03  0.24828221208E+03  0.47000000000E+01 0.  1.
<mgrwt>
<rscale>  0 0.10924276E+03</rscale>
<asrwt>0</asrwt>
<pdfrwt beam="1">  1        1 0.38864890E-02 0.11050117E+03</pdfrwt>
<pdfrwt beam="2">  1       -1 0.74674131E-01 0.11050117E+03</pdfrwt>
<totfact> 0.42027532E+03</totfact>
</mgrwt>
</event>
<event>
 8    1  0.3177960E-004  0.9049486E+02  0.7546771E-02  0.1303901E+00
          3   -1    0    0  501    0  0.00000000000E+00  0.00000000000E+00  0.56204551029E+02  0.56204551029E+02  0.00000000000E+00 0. -1.
         -3   -1    0    0    0  501 -0.00000000000E+00 -0.00000000000E+00 -0.14406690404E+03  0.14406690404E+03  0.00000000000E+00 0.  1.
         23    2    1    2    0    0  0.88604723344E+01 -0.34377486537E+01 -0.60103602602E+02  0.10561487959E+03  0.86323424741E+02 0.  0.
         23    2    1    2    0    0 -0.88604723344E+01  0.34377486537E+01 -0.27758750412E+02  0.94656575483E+02  0.89994405226E+02 0.  0.
          5    1    3    3  502    0 -0.38249481888E+02  0.13433869876E+01 -0.20300010920E+02  0.43577608891E+02  0.47000000000E+01 0. -1.
         -5    1    4    4    0  503 -0.31009164087E+02 -0.33935611820E+02 -0.88741838619E+01  0.47053534895E+02  0.47000000000E+01 0.  1.
          5    1    4    4  503    0  0.22148691752E+02  0.37373360474E+02 -0.18884566550E+02  0.47603040588E+02  0.47000000000E+01 0. -1.
         -5    1    3    3    0  502  0.47109954222E+02 -0.47811356414E+01 -0.39803591681E+02  0.62037270697E+02  0.47000000000E+01 0.  1.
<mgrwt>
<rscale>  0 0.89568266E+02</rscale>
<asrwt>0</asrwt>
<pdfrwt beam="1">  1        3 0.86468541E-02 0.90494857E+02</pdfrwt>
<pdfrwt beam="2">  1       -3 0.22164139E-01 0.90494857E+02</pdfrwt>
<totfact> 0.36821641E+03</totfact>
</mgrwt>
</event>
<event>
 8    1  0.3177960E-004  0.1037538E+03  0.7546771E-02  0.1273011E+00
          1   -1    0    0  501    0  0.00000000000E+00  0.00000000000E+00  0.49120106478E+03  0.49120106478E+03  0.00000000000E+00 0. -1.
         -1   -1    0    0    0  501 -0.00000000000E+00 -0.00000000000E+00 -0.34995488751E+02  0.34995488751E+02  0.00000000000E+00 0.  1.
         23    2    1    2    0    0  0.97270376078E+00  0.46757663955E+02  0.39058866726E+03  0.40413408080E+03  0.92615457554E+02 0.  0.
         23    2    1    2    0    0 -0.97270376078E+00 -0.46757663955E+02  0.65616908765E+02  0.12206247273E+03  0.91686657930E+02 0.  0.
          5    1    4    4  502    0 -0.35740112104E+02 -0.55797725086E+01  0.56426717495E+02  0.67190430283E+02  0.47000000000E+01 0. -1.
         -5    1    4    4    0  502  0.34767408343E+02 -0.41177891446E+02  0.91901912704E+01  0.54872042448E+02  0.47000000000E+01 0.  1.
          5    1    3    3  503    0 -0.27188490980E+02  0.19036757727E+02  0.32966783624E+03  0.33136774804E+03  0.47000000000E+01 0. -1.
         -5    1    3    3    0  503  0.28161194740E+02  0.27720906228E+02  0.60920831017E+02  0.72766332758E+02  0.47000000000E+01 0.  1.
<mgrwt>
<rscale>  0 0.10354610E+03</rscale>
<asrwt>0</asrwt>
<pdfrwt beam="1">  1        1 0.75569390E-01 0.10375379E+03</pdfrwt>
<pdfrwt beam="2">  1       -1 0.53839217E-02 0.10375379E+03</pdfrwt>
<totfact> 0.68556671E+03</totfact>
</mgrwt>
</event>
<event>
 8    1  0.3177960E-004  0.1171636E+03  0.7546771E-02  0.1248400E+00
          2   -1    0    0  501    0  0.00000000000E+00  0.00000000000E+00  0.44345642888E+03  0.44345642888E+03  0.00000000000E+00 0. -1.
         -2   -1    0    0    0  501 -0.00000000000E+00 -0.00000000000E+00 -0.30811288516E+02  0.30811288516E+02  0.00000000000E+00 0.  1.
         23    2    1    2    0    0 -0.51422814849E+02  0.51484880757E+02  0.22624522690E+03  0.25478268231E+03  0.91827630235E+02 0.  0.
         23    2    1    2    0    0  0.51422814849E+02 -0.51484880757E+02  0.18639991346E+03  0.21948503509E+03  0.90187327574E+02 0.  0.
          5    1    3    3  502    0  0.21228360509E+02  0.26479280490E+02  0.11120744876E+03  0.11636572624E+03  0.47000000000E+01 0. -1.
         -5    1    3    3    0  502 -0.72651175357E+02  0.25005600267E+02  0.11503777814E+03  0.13841695606E+03  0.47000000000E+01 0.  1.
          5    1    4    4  503    0  0.70776160328E+02 -0.13272232886E+02  0.12750177204E+03  0.14650668555E+03  0.47000000000E+01 0. -1.
         -5    1    4    4    0  503 -0.19353345479E+02 -0.38212647872E+02  0.58898141417E+02  0.72978349536E+02  0.47000000000E+01 0.  1.
<mgrwt>
<rscale>  0 0.11684201E+03</rscale>
<asrwt>0</asrwt>
<pdfrwt beam="1">  1        2 0.68224061E-01 0.11716361E+03</pdfrwt>
<pdfrwt beam="2">  1       -2 0.47401986E-02 0.11716361E+03</pdfrwt>
<totfact> 0.14120976E+04</totfact>
</mgrwt>
</event>
<event>
 8    1  0.3177960E-004  0.1167543E+03  0.7546771E-02  0.1248698E+00
         -2   -1    0    0    0  501 -0.00000000000E+00  0.00000000000E+00  0.95013234709E+02  0.95013234709E+02  0.00000000000E+00 0. -1.
          2   -1    0    0  501    0  0.00000000000E+00 -0.00000000000E+00 -0.18562231937E+03  0.18562231937E+03  0.00000000000E+00 0.  1.
         23    2    1    2    0    0  0.51193002275E+02 -0.53095239812E+02  0.21845750995E+02  0.11878047162E+03  0.90508207528E+02 0.  0.
         23    2    1    2    0    0 -0.51193002275E+02  0.53095239812E+02 -0.11245483566E+03  0.16185508246E+03  0.90061921376E+02 0.  0.
          5    1    3    3  502    0  0.26184044474E+02  0.15113615077E+02 -0.18292841790E+02  0.35647490886E+02  0.47000000000E+01 0. -1.
         -5    1    4    4    0  503 -0.68761264850E+01  0.33195522699E+02 -0.10747794472E+03  0.11279548947E+03  0.47000000000E+01 0.  1.
          5    1    4    4  503    0 -0.44316875790E+02  0.19899717113E+02 -0.49768909367E+01  0.49059592990E+02  0.47000000000E+01 0. -1.
         -5    1    3    3    0  502  0.25008957801E+02 -0.68208854889E+02  0.40138592785E+02  0.83132980738E+02  0.47000000000E+01 0.  1.
<mgrwt>
<rscale>  0 0.11666779E+03</rscale>
<asrwt>0</asrwt>
<pdfrwt beam="1">  1        2 0.28557280E-01 0.11675429E+03</pdfrwt>
<pdfrwt beam="2">  1       -2 0.14617421E-01 0.11675429E+03</pdfrwt>
<totfact> 0.62327125E+03</totfact>
</mgrwt>
</event>
<event>
 8    1  0.3177960E-004  0.1121804E+03  0.7546771E-02  0.1256799E+00
          1   -1    0    0  501    0  0.00000000000E+00  0.00000000000E+00  0.61448137421E+02  0.61448137421E+02  0.00000000000E+00 0. -1.
         -1   -1    0    0    0  501 -0.00000000000E+00 -0.00000000000E+00 -0.25035218690E+03  0.25035218690E+03  0.00000000000E+00 0.  1.
         23    2    1    2    0    0 -0.47390843653E+02 -0.42380506336E+02 -0.27158993469E+02  0.11496050248E+03  0.91849370304E+02 0.  0.
         23    2    1    2    0    0  0.47390843653E+02  0.42380506336E+02 -0.16174505601E+03  0.19683982184E+03  0.92425391200E+02 0.  0.
          5    1    3    3  502    0 -0.21326873125E+02 -0.14004617270E+02  0.33851461070E+02  0.42649457661E+02  0.47000000000E+01 0. -1.
         -5    1    4    4    0  503  0.67911503703E+02  0.43410765740E+01 -0.10760739189E+03  0.12740587926E+03  0.47000000000E+01 0.  1.
          5    1    4    4  503    0 -0.20520660049E+02  0.38039429762E+02 -0.54137664112E+02  0.69433942572E+02  0.47000000000E+01 0. -1.
         -5    1    3    3    0  502 -0.26063970528E+02 -0.28375889066E+02 -0.61010454540E+02  0.72311044821E+02  0.47000000000E+01 0.  1.
<mgrwt>
<rscale>  0 0.11206173E+03</rscale>
<asrwt>0</asrwt>
<pdfrwt beam="1">  1        1 0.94535596E-02 0.11218045E+03</pdfrwt>
<pdfrwt beam="2">  1       -1 0.38515721E-01 0.11218045E+03</pdfrwt>
<totfact> 0.43210385E+03</totfact>
</mgrwt>
</event>
<event>
 8    1  0.3400399E-004  0.9294412E+02  0.7546771E-02  0.1296326E+00
         -1   -1    0    0    0  501 -0.00000000000E+00  0.00000000000E+00  0.34724170183E+02  0.34724170183E+02  0.00000000000E+00 0.  1.
          1   -1    0    0  501    0  0.00000000000E+00 -0.00000000000E+00 -0.49381051102E+03  0.49381051102E+03  0.00000000000E+00 0. -1.
         23    2    1    2    0    0 -0.10572390296E+02 -0.10645548065E+02 -0.41600235157E+03  0.42609036037E+03  0.90939186038E+02 0.  0.
         23    2    1    2    0    0  0.10572390296E+02  0.10645548065E+02 -0.43083989259E+02  0.10244432083E+03  0.91725163444E+02 0.  0.
          5    1    4    4  502    0  0.40247114814E+02  0.13043591405E+02 -0.55416417342E+02  0.69878715205E+02  0.47000000000E+01 0. -1.
         -5    1    3    3    0  503 -0.50036309096E+02 -0.52437492527E+01 -0.26954921383E+03  0.27424441255E+03  0.47000000000E+01 0.  1.
          5    1    3    3  503    0  0.39463918800E+02 -0.54017988125E+01 -0.14645313774E+03  0.15184594783E+03  0.47000000000E+01 0. -1.
         -5    1    4    4    0  502 -0.29674724518E+02 -0.23980433397E+01  0.12332428083E+02  0.32565605622E+02  0.47000000000E+01 0.  1.
<mgrwt>
<rscale>  0 0.92749611E+02</rscale>
<asrwt>0</asrwt>
<pdfrwt beam="1">  1        1 0.75970842E-01 0.92944116E+02</pdfrwt>
<pdfrwt beam="2">  1       -1 0.53421804E-02 0.92944116E+02</pdfrwt>
<totfact> 0.68358911E+03</totfact>
</mgrwt>
</event>
<event>
 8    1  0.3177960E-004  0.9758876E+02  0.7546771E-02  0.1286916E+00
          1   -1    0    0  501    0  0.00000000000E+00  0.00000000000E+00  0.44794720790E+03  0.44794720790E+03  0.00000000000E+00 0. -1.
         -1   -1    0    0    0  501 -0.00000000000E+00 -0.00000000000E+00 -0.22996416049E+02  0.22996416049E+02  0.00000000000E+00 0.  1.
         23    2    1    2    0    0  0.12139824784E+02 -0.23870275463E+02  0.14047072669E+03  0.17104265995E+03  0.93842426811E+02 0.  0.
         23    2    1    2    0    0 -0.12139824784E+02  0.23870275463E+02  0.28448006515E+03  0.29990096399E+03  0.91074229815E+02 0.  0.
          5    1    4    4  502    0 -0.45000177883E+02  0.20633385335E+02  0.23517415958E+03  0.24037414157E+03  0.47000000000E+01 0. -1.
         -5    1    3    3    0  503  0.24414763130E+02 -0.54187244876E+02  0.11421055720E+03  0.12883508661E+03  0.47000000000E+01 0.  1.
          5    1    3    3  503    0 -0.12274938346E+02  0.30316969413E+02  0.26260169497E+02  0.42207573346E+02  0.47000000000E+01 0. -1.
         -5    1    4    4    0  502  0.32860353099E+02  0.32368901285E+01  0.49305905574E+02  0.59526822424E+02  0.47000000000E+01 0.  1.
<mgrwt>
<rscale>  0 0.96917138E+02</rscale>
<asrwt>0</asrwt>
<pdfrwt beam="1">  1        1 0.68914948E-01 0.97588762E+02</pdfrwt>
<pdfrwt beam="2">  1       -1 0.35379105E-02 0.97588762E+02</pdfrwt>
<totfact> 0.14170249E+04</totfact>
</mgrwt>
</event>
<event>
 8    1  0.3177960E-004  0.9457650E+02  0.7546771E-02  0.1293941E+00
         -1   -1    0    0    0  501 -0.00000000000E+00  0.00000000000E+00  0.73937302167E+02  0.73937302167E+02  0.00000000000E+00 0.  1.
          1   -1    0    0  501    0  0.00000000000E+00 -0.00000000000E+00 -0.12116606684E+03  0.12116606684E+03  0.00000000000E+00 0. -1.
         23    2    1    2    0    0 -0.93373064291E+01 -0.16323468904E+02 -0.51444071792E+01  0.91586188698E+02  0.89487005239E+02 0.  0.
         23    2    1    2    0    0  0.93373064291E+01  0.16323468904E+02 -0.42084357489E+02  0.10351718031E+03  0.92688038844E+02 0.  0.
          5    1    3    3  502    0 -0.89303564524E+01  0.36240976617E+02 -0.89620395784E+01  0.38672571752E+02  0.47000000000E+01 0. -1.
         -5    1    4    4    0  503 -0.18260913394E+02 -0.19371432169E+02  0.14752256824E+02  0.30796630070E+02  0.47000000000E+01 0.  1.
          5    1    4    4  503    0  0.27598219823E+02  0.35694901073E+02 -0.56836614313E+02  0.72720550235E+02  0.47000000000E+01 0. -1.
         -5    1    3    3    0  502 -0.40694997674E+00 -0.52564445520E+02  0.38176323992E+01  0.52913616946E+02  0.47000000000E+01 0.  1.
<mgrwt>
<rscale>  0 0.93782835E+02</rscale>
<asrwt>0</asrwt>
<pdfrwt beam="1">  1        1 0.18640933E-01 0.94576495E+02</pdfrwt>
<pdfrwt beam="2">  1       -1 0.11374970E-01 0.94576495E+02</pdfrwt>
<totfact> 0.12611859E+04</totfact>
</mgrwt>
</event>
<event>
 8    1  0.3177960E-004  0.9640540E+02  0.7546771E-02  0.1293229E+00
         -1   -1    0    0    0  501 -0.00000000000E+00  0.00000000000E+00  0.91966491813E+02  0.91966491813E+02  0.00000000000E+00 0.  1.
          1   -1    0    0  501    0  0.00000000000E+00 -0.00000000000E+00 -0.96563921798E+02  0.96563921798E+02  0.00000000000E+00 0. -1.
         23    2    1    2    0    0 -0.35692396287E+02 -0.46767763958E+01 -0.23038916274E+02  0.99120094571E+02  0.89432556122E+02 0.  0.
         23    2    1    2    0    0  0.35692396287E+02  0.46767763958E+01  0.18441486289E+02  0.89410319040E+02  0.79738932424E+02 0.  0.
          5    1    4    4  502    0  0.44660350683E+02 -0.22735894071E+02 -0.68048597479E+01  0.50792360828E+02  0.47000000000E+01 0. -1.
         -5    1    3    3    0  503 -0.27616696214E+02  0.40233816733E+02 -0.31655974224E+01  0.49127924093E+02  0.47000000000E+01 0.  1.
          5    1    3    3  503    0 -0.80757000727E+01 -0.44910593129E+02 -0.19873318852E+02  0.49992170478E+02  0.47000000000E+01 0. -1.
         -5    1    4    4    0  502 -0.89679543960E+01  0.27412670467E+02  0.25246346037E+02  0.38617958212E+02  0.47000000000E+01 0.  1.
<mgrwt>
<rscale>  0 0.94094212E+02</rscale>
<asrwt>0</asrwt>
<pdfrwt beam="1">  1        1 0.14855988E-01 0.96405402E+02</pdfrwt>
<pdfrwt beam="2">  1       -1 0.14148691E-01 0.96405402E+02</pdfrwt>
<totfact> 0.12067092E+04</totfact>
</mgrwt>
</event>
<event>
 8    1  0.3177960E-004  0.9610358E+02  0.7546771E-02  0.1296088E+00
          1   -1    0    0  501    0  0.00000000000E+00  0.00000000000E+00  0.29551823582E+03  0.29551823582E+03  0.00000000000E+00 0. -1.
         -1   -1    0    0    0  501 -0.00000000000E+00 -0.00000000000E+00 -0.29210271704E+02  0.29210271704E+02  0.00000000000E+00 0.  1.
         23    2    1    2    0    0 -0.32679787997E+02  0.50418012771E+01  0.83839520158E+02  0.11849894877E+03  0.76938595104E+02 0.  0.
         23    2    1    2    0    0  0.32679787997E+02 -0.50418012771E+01  0.18246844395E+03  0.20622955875E+03  0.90235855170E+02 0.  0.
          5    1    4    4  502    0 -0.29116665598E+02  0.16116297774E+01  0.89930039103E+02  0.94656640016E+02  0.47000000000E+01 0. -1.
         -5    1    3    3    0  503 -0.55066016239E+02 -0.41922493321E+01  0.72738283669E+02  0.91448285988E+02  0.47000000000E+01 0. -1.
          5    1    3    3  503    0  0.22386228243E+02  0.92340506092E+01  0.11101236489E+02  0.27050662786E+02  0.47000000000E+01 0.  1.
         -5    1    4    4    0  502  0.61796453595E+02 -0.66534310546E+01  0.92538404851E+02  0.11157291873E+03  0.47000000000E+01 0.  1.
<mgrwt>
<rscale>  0 0.92852190E+02</rscale>
<asrwt>0</asrwt>
<pdfrwt beam="1">  1        1 0.45464342E-01 0.96103579E+02</pdfrwt>
<pdfrwt beam="2">  1       -1 0.44938882E-02 0.96103579E+02</pdfrwt>
<totfact> 0.16723060E+04</totfact>
</mgrwt>
</event>
<event>
 8    1  0.3177960E-004  0.1536071E+03  0.7546771E-02  0.1196134E+00
          1   -1    0    0  501    0  0.00000000000E+00  0.00000000000E+00  0.76233221003E+03  0.76233221003E+03  0.00000000000E+00 0. -1.
         -1   -1    0    0    0  501 -0.00000000000E+00 -0.00000000000E+00 -0.36508304212E+02  0.36508304212E+02  0.00000000000E+00 0.  1.
         23    2    1    2    0    0  0.20360092585E+01 -0.12188126338E+03  0.20693144865E+03  0.25771253602E+03  0.93466245697E+02 0.  0.
         23    2    1    2    0    0 -0.20360092585E+01  0.12188126338E+03  0.51889245716E+03  0.54112797822E+03  0.93332304214E+02 0.  0.
          5    1    4    4  502    0 -0.19513499292E+02  0.53995257329E+02  0.39089086075E+03  0.39511266683E+03  0.47000000000E+01 0. -1.
         -5    1    4    4    0  502  0.17477490034E+02  0.67886006055E+02  0.12800159641E+03  0.14601531139E+03  0.47000000000E+01 0.  1.
          5    1    3    3  503    0  0.43994040724E+02 -0.43857681202E+02  0.10920458598E+03  0.12572471284E+03  0.47000000000E+01 0. -1.
         -5    1    3    3    0  503 -0.41958031466E+02 -0.78023582181E+02  0.97726862671E+02  0.13198782318E+03  0.47000000000E+01 0.  1.
<mgrwt>
<rscale>  0 0.15358668E+03</rscale>
<asrwt>0</asrwt>
<pdfrwt beam="1">  1        1 0.11728187E+00 0.15360705E+03</pdfrwt>
<pdfrwt beam="2">  1       -1 0.56166628E-02 0.15360705E+03</pdfrwt>
<totfact> 0.35946036E+03</totfact>
</mgrwt>
</event>
<event>
 8    1  0.3177960E-004  0.1388683E+03  0.7546771E-02  0.1220150E+00
          1   -1    0    0  501    0  0.00000000000E+00  0.00000000000E+00  0.18972184327E+03  0.18972184327E+03  0.00000000000E+00 0. -1.
         -1   -1    0    0    0  501 -0.00000000000E+00 -0.00000000000E+00 -0.97413746198E+02  0.97413746198E+02  0.00000000000E+00 0.  1.
         23    2    1    2    0    0 -0.72579233429E+02  0.47119924756E+02  0.84768809203E+02  0.16269654991E+03  0.10861115921E+03 0.  0.
         23    2    1    2    0    0  0.72579233429E+02 -0.47119924756E+02  0.75392878648E+01  0.12443903956E+03  0.89107807008E+02 0.  0.
          5    1    3    3  502    0 -0.42861267762E+02 -0.31929701533E+02  0.40551800094E+02  0.67254238565E+02  0.47000000000E+01 0. -1.
         -5    1    4    4    0  503  0.76015256019E+02 -0.13162136879E+02 -0.20563173120E+02  0.79978091273E+02  0.47000000000E+01 0.  1.
          5    1    4    4  503    0 -0.34360225901E+01 -0.33957787877E+02  0.28102460985E+02  0.44460948282E+02  0.47000000000E+01 0. -1.
         -5    1    3    3    0  502 -0.29717965667E+02  0.79049626289E+02  0.44217009109E+02  0.95442311343E+02  0.47000000000E+01 0.  1.
<mgrwt>
<rscale>  0 0.13504918E+03</rscale>
<asrwt>0</asrwt>
<pdfrwt beam="1">  1        1 0.29187976E-01 0.13886834E+03</pdfrwt>
<pdfrwt beam="2">  1       -1 0.14986730E-01 0.13886834E+03</pdfrwt>
<totfact> 0.48380445E+03</totfact>
</mgrwt>
</event>
<event>
 8    1  0.3177960E-004  0.1008775E+03  0.7546771E-02  0.1281210E+00
         -2   -1    0    0    0  501 -0.00000000000E+00  0.00000000000E+00  0.10310014772E+03  0.10310014772E+03  0.00000000000E+00 0.  1.
          2   -1    0    0  501    0  0.00000000000E+00 -0.00000000000E+00 -0.11886713285E+03  0.11886713285E+03  0.00000000000E+00 0. -1.
         23    2    1    2    0    0 -0.41737636426E+02 -0.34272758618E+01 -0.59063157039E+02  0.11689624871E+03  0.91774178990E+02 0.  0.
         23    2    1    2    0    0  0.41737636426E+02  0.34272758618E+01  0.43296171903E+02  0.10507103186E+03  0.86090572770E+02 0.  0.
          5    1    4    4  502    0  0.91072279462E+01  0.24793489169E+02  0.57376208202E+02  0.63338597819E+02  0.47000000000E+01 0. -1.
         -5    1    4    4    0  502  0.32630408480E+02 -0.21366213307E+02 -0.14080036298E+02  0.41732434039E+02  0.47000000000E+01 0.  1.
          5    1    3    3  503    0  0.29247044870E+02 -0.72057866661E+00 -0.19128376169E+02  0.35268876394E+02  0.47000000000E+01 0. -1.
         -5    1    3    3    0  503 -0.70984681296E+02 -0.27066971952E+01 -0.39934780871E+02  0.81627372318E+02  0.47000000000E+01 0.  1.
<mgrwt>
<rscale>  0 0.99566799E+02</rscale>
<asrwt>0</asrwt>
<pdfrwt beam="1">  1        2 0.18287251E-01 0.10087753E+03</pdfrwt>
<pdfrwt beam="2">  1       -2 0.15861561E-01 0.10087753E+03</pdfrwt>
<totfact> 0.88338435E+03</totfact>
</mgrwt>
</event>
<event>
 8    1  0.3177960E-004  0.1079878E+03  0.7546771E-02  0.1264562E+00
          1   -1    0    0  501    0  0.00000000000E+00  0.00000000000E+00  0.12823928869E+03  0.12823928869E+03  0.00000000000E+00 0. -1.
         -1   -1    0    0    0  501 -0.00000000000E+00 -0.00000000000E+00 -0.91412142856E+02  0.91412142856E+02  0.00000000000E+00 0.  1.
         23    2    1    2    0    0 -0.50524737534E+02  0.26137454604E+02  0.76763259309E+01  0.10779820492E+03  0.91244788169E+02 0.  0.
         23    2    1    2    0    0  0.50524737534E+02 -0.26137454604E+02  0.29150819908E+02  0.11185322663E+03  0.91790295622E+02 0.  0.
          5    1    3    3  502    0  0.82160710808E+01  0.30971329063E+02  0.30435689856E+02  0.44442640166E+02  0.47000000000E+01 0. -1.
         -5    1    3    3    0  502 -0.58740808615E+02 -0.48338744590E+01 -0.22759363925E+02  0.63355564754E+02  0.47000000000E+01 0.  1.
          5    1    4    4  503    0  0.21011112158E+02  0.25226872294E+02  0.39452755256E+02  0.51540972217E+02  0.47000000000E+01 0.  1.
         -5    1    4    4    0  503  0.29513625377E+02 -0.51364326897E+02 -0.10301935348E+02  0.60312254413E+02  0.47000000000E+01 0. -1.
<mgrwt>
<rscale>  0 0.10787183E+03</rscale>
<asrwt>0</asrwt>
<pdfrwt beam="1">  1        1 0.19729121E-01 0.10798784E+03</pdfrwt>
<pdfrwt beam="2">  1       -1 0.14063407E-01 0.10798784E+03</pdfrwt>
<totfact> 0.85768901E+03</totfact>
</mgrwt>
</event>
<event>
 8    1  0.3177960E-004  0.2327903E+03  0.7546771E-02  0.1124984E+00
         -2   -1    0    0    0  501 -0.00000000000E+00  0.00000000000E+00  0.40205982936E+02  0.40205982936E+02  0.00000000000E+00 0.  1.
          2   -1    0    0  501    0  0.00000000000E+00 -0.00000000000E+00 -0.19802410814E+04  0.19802410814E+04  0.00000000000E+00 0. -1.
         23    2    1    2    0    0 -0.85620640648E+01 -0.21193215569E+03 -0.15476598346E+04  0.15650694136E+04  0.95931008231E+02 0.  0.
         23    2    1    2    0    0  0.85620640648E+01  0.21193215569E+03 -0.39237526395E+03  0.45537765078E+03  0.91770962227E+02 0.  0.
          5    1    4    4  502    0  0.33019538968E+02  0.63808414996E+02 -0.19126072257E+03  0.20436378783E+03  0.47000000000E+01 0. -1.
         -5    1    4    4    0  502 -0.24457474904E+02  0.14812374070E+03 -0.20111454138E+03  0.25101386295E+03  0.47000000000E+01 0.  1.
          5    1    3    3  503    0 -0.40773862524E+02 -0.85201451242E+02 -0.85007652060E+03  0.85532097837E+03  0.47000000000E+01 0. -1.
         -5    1    3    3    0  503  0.32211798459E+02 -0.12673070445E+03 -0.69758331395E+03  0.70974843523E+03  0.47000000000E+01 0.  1.
<mgrwt>
<rscale>  0 0.23236831E+03</rscale>
<asrwt>0</asrwt>
<pdfrwt beam="1">  1        2 0.30465238E+00 0.23279026E+03</pdfrwt>
<pdfrwt beam="2">  1       -2 0.61855377E-02 0.23279026E+03</pdfrwt>
<totfact> 0.10795975E+03</totfact>
</mgrwt>
</event>
<event>
 8    1  0.3177960E-004  0.1011637E+03  0.7546771E-02  0.1278333E+00
          2   -1    0    0  501    0  0.00000000000E+00  0.00000000000E+00  0.62399818604E+03  0.62399818604E+03  0.00000000000E+00 0. -1.
         -2   -1    0    0    0  501 -0.00000000000E+00 -0.00000000000E+00 -0.17318144086E+02  0.17318144086E+02  0.00000000000E+00 0.  1.
         23    2    1    2    0    0  0.37346475766E+02  0.21848418357E+02  0.22267303788E+03  0.24420744436E+03  0.90453753075E+02 0.  0.
         23    2    1    2    0    0 -0.37346475766E+02 -0.21848418357E+02  0.38400700406E+03  0.39710888576E+03  0.91443837081E+02 0.  0.
          5    1    3    3  502    0 -0.28688703412E+02  0.30956609007E+01  0.91888237952E+02  0.96426983224E+02  0.47000000000E+01 0. -1.
         -5    1    3    3    0  502  0.66035179178E+02  0.18752757456E+02  0.13078479993E+03  0.14778046114E+03  0.47000000000E+01 0.  1.
          5    1    4    4  503    0 -0.65173523880E+02 -0.65403612721E+01  0.30164589439E+03  0.30871135409E+03  0.47000000000E+01 0. -1.
         -5    1    4    4    0  503  0.27827048114E+02 -0.15308057085E+02  0.82361109671E+02  0.88397531666E+02  0.47000000000E+01 0.  1.
<mgrwt>
<rscale>  0 0.10093941E+03</rscale>
<asrwt>0</asrwt>
<pdfrwt beam="1">  1        2 0.95999704E-01 0.10116367E+03</pdfrwt>
<pdfrwt beam="2">  1       -2 0.26643303E-02 0.10116367E+03</pdfrwt>
<totfact> 0.22339084E+04</totfact>
</mgrwt>
</event>
<event>
 8    1  0.3177960E-004  0.9974435E+02  0.7546771E-02  0.1280963E+00
         -2   -1    0    0    0  501 -0.00000000000E+00  0.00000000000E+00  0.23476086507E+02  0.23476086507E+02  0.00000000000E+00 0.  1.
          2   -1    0    0  501    0  0.00000000000E+00 -0.00000000000E+00 -0.43578308985E+03  0.43578308985E+03  0.00000000000E+00 0. -1.
         23    2    1    2    0    0 -0.22692677365E+02 -0.32685142362E+02 -0.24560928619E+03  0.26499887391E+03  0.91198714781E+02 0.  0.
         23    2    1    2    0    0  0.22692677365E+02  0.32685142362E+02 -0.16669771715E+03  0.19426030244E+03  0.91463982323E+02 0.  0.
          5    1    4    4  502    0 -0.15938915123E+02 -0.16504409537E+02 -0.99988684351E+02  0.10269504150E+03  0.47000000000E+01 0. -1.
         -5    1    3    3    0  503 -0.18741959597E+02  0.30264934109E+02 -0.78572018149E+02  0.86387958201E+02  0.47000000000E+01 0.  1.
          5    1    3    3  503    0 -0.39507177687E+01 -0.62950076471E+02 -0.16703726804E+03  0.17861091571E+03  0.47000000000E+01 0. -1.
         -5    1    4    4    0  502  0.38631592489E+02  0.49189551899E+02 -0.66709032801E+02  0.91565260943E+02  0.47000000000E+01 0.  1.
<mgrwt>
<rscale>  0 0.99683501E+02</rscale>
<asrwt>0</asrwt>
<pdfrwt beam="1">  1        2 0.67043547E-01 0.99744354E+02</pdfrwt>
<pdfrwt beam="2">  1       -2 0.36117059E-02 0.99744354E+02</pdfrwt>
<totfact> 0.21198002E+04</totfact>
</mgrwt>
</event>
<event>
 8    1  0.3177960E-004  0.9297212E+02  0.7546771E-02  0.1295843E+00
         -1   -1    0    0    0  501 -0.00000000000E+00  0.00000000000E+00  0.26853684965E+02  0.26853684965E+02  0.00000000000E+00 0.  1.
          1   -1    0    0  501    0  0.00000000000E+00 -0.00000000000E+00 -0.64046382952E+03  0.64046382952E+03  0.00000000000E+00 0. -1.
         23    2    1    2    0    0  0.12696249294E+02  0.92911505930E+01 -0.71362030242E+02  0.11715678124E+03  0.91573204621E+02 0.  0.
         23    2    1    2    0    0 -0.12696249294E+02 -0.92911505930E+01 -0.54224811431E+03  0.55016073324E+03  0.91631297617E+02 0.  0.
          5    1    4    4  502    0 -0.85495469886E+01 -0.47771802341E+02 -0.20758628048E+03  0.21323553572E+03  0.47000000000E+01 0. -1.
         -5    1    4    4    0  502 -0.41467023050E+01  0.38480651748E+02 -0.33466183383E+03  0.33692519752E+03  0.47000000000E+01 0.  1.
          5    1    3    3  503    0 -0.33965209538E+02  0.24052931652E+02 -0.21299194913E+02  0.46988559075E+02  0.47000000000E+01 0. -1.
         -5    1    3    3    0  503  0.46661458832E+02 -0.14761781059E+02 -0.50062835329E+02  0.70168222163E+02  0.47000000000E+01 0.  1.
<mgrwt>
<rscale>  0 0.92957802E+02</rscale>
<asrwt>0</asrwt>
<pdfrwt beam="1">  1        1 0.98532903E-01 0.92972119E+02</pdfrwt>
<pdfrwt beam="2">  1       -1 0.41313359E-02 0.92972119E+02</pdfrwt>
<totfact> 0.70588121E+03</totfact>
</mgrwt>
</event>
<event>
 8    1  0.3177960E-004  0.1101440E+03  0.7546771E-02  0.1262326E+00
          1   -1    0    0  501    0  0.00000000000E+00  0.00000000000E+00  0.32569712568E+03  0.32569712568E+03  0.00000000000E+00 0. -1.
         -1   -1    0    0    0  501 -0.00000000000E+00 -0.00000000000E+00 -0.39948332465E+02  0.39948332465E+02  0.00000000000E+00 0.  1.
         23    2    1    2    0    0  0.56493715040E+02 -0.18252134916E+02  0.19913834428E+03  0.22552737000E+03  0.87646073437E+02 0.  0.
         23    2    1    2    0    0 -0.56493715040E+02  0.18252134916E+02  0.86610448929E+02  0.14011808814E+03  0.92774072304E+02 0.  0.
          5    1    3    3  502    0  0.16711592345E+02  0.28974427273E+02  0.12209154444E+03  0.12667766171E+03  0.47000000000E+01 0. -1.
         -5    1    4    4    0  503 -0.65179645895E+02 -0.20475423021E+02  0.66171655831E+02  0.95228185020E+02  0.47000000000E+01 0.  1.
          5    1    4    4  503    0  0.86859308550E+01  0.38727557937E+02  0.20438793098E+02  0.44889903118E+02  0.47000000000E+01 0. -1.
         -5    1    3    3    0  502  0.39782122695E+02 -0.47226562190E+02  0.77046799849E+02  0.98849708291E+02  0.47000000000E+01 0.  1.
<mgrwt>
<rscale>  0 0.10905725E+03</rscale>
<asrwt>0</asrwt>
<pdfrwt beam="1">  1        1 0.50107248E-01 0.11014404E+03</pdfrwt>
<pdfrwt beam="2">  1       -1 0.61458975E-02 0.11014404E+03</pdfrwt>
<totfact> 0.94788584E+03</totfact>
</mgrwt>
</event>
<event>
 8    1  0.3177960E-004  0.1096103E+03  0.7546771E-02  0.1261828E+00
          1   -1    0    0  501    0  0.00000000000E+00  0.00000000000E+00  0.17107873049E+02  0.17107873049E+02  0.00000000000E+00 0. -1.
         -1   -1    0    0    0  501 -0.00000000000E+00 -0.00000000000E+00 -0.69598507924E+03  0.69598507924E+03  0.00000000000E+00 0.  1.
         23    2    1    2    0    0  0.38020219499E+02 -0.49087169869E+02 -0.32762293014E+03  0.34547242842E+03  0.90328993759E+02 0.  0.
         23    2    1    2    0    0 -0.38020219499E+02  0.49087169869E+02 -0.35125427605E+03  0.36762052386E+03  0.88939281447E+02 0.  0.
          5    1    3    3  502    0 -0.29056276382E+01 -0.62725095970E+02 -0.15112639340E+03  0.16371975177E+03  0.47000000000E+01 0. -1.
         -5    1    4    4    0  503  0.48725682880E+01  0.46069901580E+02 -0.28306408017E+03  0.28686850861E+03  0.47000000000E+01 0.  1.
          5    1    4    4  503    0 -0.42892787787E+02  0.30172682887E+01 -0.68190195882E+02  0.80752015247E+02  0.47000000000E+01 0. -1.
         -5    1    3    3    0  502  0.40925847137E+02  0.13637926101E+02 -0.17649653674E+03  0.18175267666E+03  0.47000000000E+01 0.  1.
<mgrwt>
<rscale>  0 0.10932356E+03</rscale>
<asrwt>0</asrwt>
<pdfrwt beam="1">  1        1 0.26319806E-02 0.10961028E+03</pdfrwt>
<pdfrwt beam="2">  1       -1 0.10707462E+00 0.10961028E+03</pdfrwt>
<totfact> 0.33546725E+03</totfact>
</mgrwt>
</event>
<event>
 8    1  0.3177960E-004  0.1012909E+03  0.7546771E-02  0.1278476E+00
         -1   -1    0    0    0  501 -0.00000000000E+00  0.00000000000E+00  0.32602404154E+02  0.32602404154E+02  0.00000000000E+00 0.  1.
          1   -1    0    0  501    0  0.00000000000E+00 -0.00000000000E+00 -0.47678297254E+03  0.47678297254E+03  0.00000000000E+00 0. -1.
         23    2    1    2    0    0  0.40973371309E+02  0.11558077492E+02 -0.70043155163E+02  0.12177905587E+03  0.90064912986E+02 0.  0.
         23    2    1    2    0    0 -0.40973371309E+02 -0.11558077492E+02 -0.37413741323E+03  0.38760632083E+03  0.91910008483E+02 0.  0.
          5    1    3    3  502    0 -0.39789386447E+00 -0.22132312186E+02 -0.63995112662E+02  0.67878288184E+02  0.47000000000E+01 0. -1.
         -5    1    4    4    0  503  0.28593223272E+02 -0.82193144029E+01 -0.85582169359E+02  0.90727764541E+02  0.47000000000E+01 0.  1.
          5    1    4    4  503    0 -0.69566594581E+02 -0.33387630892E+01 -0.28855524387E+03  0.29687855629E+03  0.47000000000E+01 0. -1.
         -5    1    3    3    0  502  0.41371265174E+02  0.33690389679E+02 -0.60480425010E+01  0.53900767683E+02  0.47000000000E+01 0.  1.
<mgrwt>
<rscale>  0 0.10087054E+03</rscale>
<asrwt>0</asrwt>
<pdfrwt beam="1">  1        1 0.73351224E-01 0.10129095E+03</pdfrwt>
<pdfrwt beam="2">  1       -1 0.50157546E-02 0.10129095E+03</pdfrwt>
<totfact> 0.78912203E+03</totfact>
</mgrwt>
</event>
<event>
 8    1  0.3177960E-004  0.9356793E+02  0.7546771E-02  0.1299673E+00
          1   -1    0    0  501    0  0.00000000000E+00  0.00000000000E+00  0.41624060619E+03  0.41624060619E+03  0.00000000000E+00 0. -1.
         -1   -1    0    0    0  501 -0.00000000000E+00 -0.00000000000E+00 -0.20180572367E+02  0.20180572367E+02  0.00000000000E+00 0.  1.
         23    2    1    2    0    0 -0.21808823030E+01 -0.74707408076E+01  0.13928058947E+03  0.16312529307E+03  0.84558916862E+02 0.  0.
         23    2    1    2    0    0  0.21808823030E+01  0.74707408076E+01  0.25677944435E+03  0.27329588548E+03  0.93243711663E+02 0.  0.
          5    1    3    3  502    0 -0.12325161344E+02  0.28626533374E+02  0.11243971637E+03  0.11677400323E+03  0.47000000000E+01 0. -1.
         -5    1    4    4    0  503 -0.41415491834E+02 -0.87849656257E+01  0.82459933019E+02  0.92812440645E+02  0.47000000000E+01 0.  1.
          5    1    4    4  503    0  0.43596374137E+02  0.16255706433E+02  0.17431951133E+03  0.18048344484E+03  0.47000000000E+01 0. -1.
         -5    1    3    3    0  502  0.10144279041E+02 -0.36097274182E+02  0.26840873107E+02  0.46351289839E+02  0.47000000000E+01 0.  1.
<mgrwt>
<rscale>  0 0.91325707E+02</rscale>
<asrwt>0</asrwt>
<pdfrwt beam="1">  1        1 0.64037010E-01 0.93567932E+02</pdfrwt>
<pdfrwt beam="2">  1       -1 0.31047038E-02 0.93567932E+02</pdfrwt>
<totfact> 0.18696513E+04</totfact>
</mgrwt>
</event>
<event>
 8    1  0.3177960E-004  0.9905544E+02  0.7546771E-02  0.1282533E+00
         -2   -1    0    0    0  501 -0.00000000000E+00  0.00000000000E+00  0.70089689198E+02  0.70089689198E+02  0.00000000000E+00 0.  1.
          2   -1    0    0  501    0  0.00000000000E+00 -0.00000000000E+00 -0.21451058378E+03  0.21451058378E+03  0.00000000000E+00 0. -1.
         23    2    1    2    0    0  0.34707981331E+02  0.18060381927E+02 -0.15632990443E+03  0.18483151342E+03  0.90514241814E+02 0.  0.
         23    2    1    2    0    0 -0.34707981331E+02 -0.18060381927E+02  0.11909009841E+02  0.99768759564E+02  0.91000876403E+02 0.  0.
          5    1    4    4  502    0 -0.54451810481E+02 -0.35472814875E+02 -0.90635859274E+01  0.65784183887E+02  0.47000000000E+01 0. -1.
         -5    1    4    4    0  502  0.19743829150E+02  0.17412432949E+02  0.20972595768E+02  0.33984575677E+02  0.47000000000E+01 0.  1.
          5    1    3    3  503    0 -0.18352185245E+02 -0.20372788015E+02 -0.76798309788E+02  0.81681843644E+02  0.47000000000E+01 0. -1.
         -5    1    3    3    0  503  0.53060166576E+02  0.38433169942E+02 -0.79531594638E+02  0.10314966977E+03  0.47000000000E+01 0.  1.
<mgrwt>
<rscale>  0 0.98943535E+02</rscale>
<asrwt>0</asrwt>
<pdfrwt beam="1">  1        2 0.33001628E-01 0.99055443E+02</pdfrwt>
<pdfrwt beam="2">  1       -2 0.10783029E-01 0.99055443E+02</pdfrwt>
<totfact> 0.85617113E+03</totfact>
</mgrwt>
</event>
<event>
 8    1  0.3177960E-004  0.1278480E+03  0.7546771E-02  0.1232956E+00
          1   -1    0    0  501    0  0.00000000000E+00  0.00000000000E+00  0.73914590485E+02  0.73914590485E+02  0.00000000000E+00 0. -1.
         -1   -1    0    0    0  501 -0.00000000000E+00 -0.00000000000E+00 -0.24070386814E+03  0.24070386814E+03  0.00000000000E+00 0.  1.
         23    2    1    2    0    0  0.58429428385E+01 -0.81591210605E+02 -0.29994540146E+02  0.13131938829E+03  0.98253975361E+02 0.  0.
         23    2    1    2    0    0 -0.58429428385E+01  0.81591210605E+02 -0.13679473751E+03  0.18329907033E+03  0.90523385626E+02 0.  0.
          5    1    3    3  502    0  0.19295662843E+02 -0.40951325581E+02 -0.62533858621E+02  0.77342789873E+02  0.47000000000E+01 0. -1.
         -5    1    4    4    0  503 -0.12770496443E+02  0.37080208480E+02 -0.13196682856E+03  0.13775108449E+03  0.47000000000E+01 0.  1.
          5    1    4    4  503    0  0.69275536042E+01  0.44511002125E+02 -0.48279089559E+01  0.45547985839E+02  0.47000000000E+01 0. -1.
         -5    1    3    3    0  502 -0.13452720005E+02 -0.40639885025E+02  0.32539318474E+02  0.53976598421E+02  0.47000000000E+01 0.  1.
<mgrwt>
<rscale>  0 0.12636208E+03</rscale>
<asrwt>0</asrwt>
<pdfrwt beam="1">  1        1 0.11371475E-01 0.12784799E+03</pdfrwt>
<pdfrwt beam="2">  1       -1 0.37031365E-01 0.12784799E+03</pdfrwt>
<totfact> 0.36553880E+03</totfact>
</mgrwt>
</event>
<event>
 8    1  0.3811027E-004  0.9189380E+02  0.7546771E-02  0.1302003E+00
         -1   -1    0    0    0  501 -0.00000000000E+00  0.00000000000E+00  0.33547578435E+03  0.33547578435E+03  0.00000000000E+00 0.  1.
          1   -1    0    0  501    0  0.00000000000E+00 -0.00000000000E+00 -0.88622661776E+02  0.88622661776E+02  0.00000000000E+00 0. -1.
         23    2    1    2    0    0 -0.56085352513E+01  0.70302945969E+00 -0.59358077814E+02  0.10439582047E+03  0.85692216745E+02 0.  0.
         23    2    1    2    0    0  0.56085352513E+01 -0.70302945969E+00  0.30621120039E+03  0.31970262566E+03  0.91719788992E+02 0.  0.
          5    1    3    3  502    0 -0.27452100342E+02  0.21450644959E+02  0.26935816041E+01  0.35257529184E+02  0.47000000000E+01 0. -1.
         -5    1    3    3    0  502  0.21843565090E+02 -0.20747615499E+02 -0.62051659418E+02  0.69138291281E+02  0.47000000000E+01 0.  1.
          5    1    4    4  503    0 -0.37843625762E+02 -0.73500840128E+01  0.21334310547E+03  0.21684910513E+03  0.47000000000E+01 0. -1.
         -5    1    4    4    0  503  0.43452161013E+02  0.66470545531E+01  0.92868094920E+02  0.10285352053E+03  0.47000000000E+01 0.  1.
<mgrwt>
<rscale>  0 0.90351564E+02</rscale>
<asrwt>0</asrwt>
<pdfrwt beam="1">  1        1 0.13634256E-01 0.91893795E+02</pdfrwt>
<pdfrwt beam="2">  1       -1 0.51611658E-01 0.91893795E+02</pdfrwt>
<totfact> 0.15769052E+03</totfact>
</mgrwt>
</event>
<event>
 8    1  0.3177960E-004  0.9417633E+02  0.7546771E-02  0.1293647E+00
          1   -1    0    0  501    0  0.00000000000E+00  0.00000000000E+00  0.49590055550E+03  0.49590055550E+03  0.00000000000E+00 0. -1.
         -1   -1    0    0    0  501 -0.00000000000E+00 -0.00000000000E+00 -0.38941611906E+02  0.38941611906E+02  0.00000000000E+00 0.  1.
         23    2    1    2    0    0 -0.95639309513E+01  0.18728503042E+02  0.30319471518E+02  0.97932085363E+02  0.90714923739E+02 0.  0.
         23    2    1    2    0    0  0.95639309513E+01 -0.18728503042E+02  0.42663947207E+03  0.43691008204E+03  0.91798448009E+02 0.  0.
          5    1    3    3  502    0  0.36472791619E+02 -0.52034369033E+01 -0.98241083070E+00  0.37153672969E+02  0.47000000000E+01 0. -1.
         -5    1    4    4    0  503 -0.33609365203E+02  0.16137669123E+02  0.20234195629E+03  0.20580177616E+03  0.47000000000E+01 0.  1.
          5    1    4    4  503    0  0.43173296154E+02 -0.34866172164E+02  0.22429751579E+03  0.23110830589E+03  0.47000000000E+01 0. -1.
         -5    1    3    3    0  502 -0.46036722570E+02  0.23931939945E+02  0.31301882348E+02  0.60778412393E+02  0.47000000000E+01 0.  1.
<mgrwt>
<rscale>  0 0.93911247E+02</rscale>
<asrwt>0</asrwt>
<pdfrwt beam="1">  1        1 0.76292388E-01 0.94176327E+02</pdfrwt>
<pdfrwt beam="2">  1       -1 0.59910176E-02 0.94176327E+02</pdfrwt>
<totfact> 0.57488339E+03</totfact>
</mgrwt>
</event>
<event>
 8    1  0.3177960E-004  0.1403944E+03  0.7546771E-02  0.1213116E+00
         -2   -1    0    0    0  501 -0.00000000000E+00  0.00000000000E+00  0.29473898331E+02  0.29473898331E+02  0.00000000000E+00 0.  1.
          2   -1    0    0  501    0  0.00000000000E+00 -0.00000000000E+00 -0.67227667001E+03  0.67227667001E+03  0.00000000000E+00 0. -1.
         23    2    1    2    0    0 -0.51458494004E+02  0.94230525247E+02 -0.28417943960E+03  0.31696772120E+03  0.90461118150E+02 0.  0.
         23    2    1    2    0    0  0.51458494004E+02 -0.94230525247E+02 -0.35862333208E+03  0.38478284715E+03  0.88993126984E+02 0.  0.
          5    1    4    4  502    0 -0.20731250301E+02 -0.41945447406E+02 -0.87369888461E+02  0.99220928774E+02  0.47000000000E+01 0. -1.
         -5    1    3    3    0  503  0.23942464603E+02  0.40614898818E+02 -0.85452558778E+02  0.97708962838E+02  0.47000000000E+01 0.  1.
          5    1    3    3  503    0 -0.75400958607E+02  0.53615626428E+02 -0.19872688082E+03  0.21925875836E+03  0.47000000000E+01 0. -1.
         -5    1    4    4    0  502  0.72189744305E+02 -0.52285077841E+02 -0.27125344362E+03  0.28556191837E+03  0.47000000000E+01 0.  1.
<mgrwt>
<rscale>  0 0.14015845E+03</rscale>
<asrwt>0</asrwt>
<pdfrwt beam="1">  1        2 0.10342718E+00 0.14039438E+03</pdfrwt>
<pdfrwt beam="2">  1       -2 0.45344459E-02 0.14039438E+03</pdfrwt>
<totfact> 0.96083650E+03</totfact>
</mgrwt>
</event>
<event>
 8    1  0.3177960E-004  0.9874713E+02  0.7546771E-02  0.1283832E+00
         -3   -1    0    0    0  501 -0.00000000000E+00  0.00000000000E+00  0.11521725420E+03  0.11521725420E+03  0.00000000000E+00 0.  1.
          3   -1    0    0  501    0  0.00000000000E+00 -0.00000000000E+00 -0.10702095052E+03  0.10702095052E+03  0.00000000000E+00 0. -1.
         23    2    1    2    0    0 -0.21902300270E+02  0.19381529266E+02 -0.48306305635E+02  0.10846852530E+03  0.92609758571E+02 0.  0.
         23    2    1    2    0    0  0.21902300270E+02 -0.19381529266E+02  0.56502609316E+02  0.11376967942E+03  0.94316704044E+02 0.  0.
          5    1    3    3  502    0  0.25060886053E+02  0.16197995048E+02 -0.52924479835E+02  0.60938605326E+02  0.47000000000E+01 0. -1.
         -5    1    3    3    0  502 -0.46963186322E+02  0.31835342176E+01  0.46181742001E+01  0.47529919973E+02  0.47000000000E+01 0.  1.
          5    1    4    4  503    0  0.38134774776E+02 -0.49016107447E+02  0.24289847066E+02  0.66850029970E+02  0.47000000000E+01 0.  1.
         -5    1    4    4    0  503 -0.16232474507E+02  0.29634578181E+02  0.32212762249E+02  0.46919649448E+02  0.47000000000E+01 0. -1.
<mgrwt>
<rscale>  0 0.98337322E+02</rscale>
<asrwt>0</asrwt>
<pdfrwt beam="1">  1        3 0.16464762E-01 0.98747127E+02</pdfrwt>
<pdfrwt beam="2">  1       -3 0.17725731E-01 0.98747127E+02</pdfrwt>
<totfact> 0.18963357E+03</totfact>
</mgrwt>
</event>
<event>
 8    1  0.3177960E-004  0.1096286E+03  0.7546771E-02  0.1261908E+00
          4   -1    0    0  501    0  0.00000000000E+00  0.00000000000E+00  0.25273400224E+02  0.25273400224E+02  0.00000000000E+00 0. -1.
         -4   -1    0    0    0  501 -0.00000000000E+00 -0.00000000000E+00 -0.47453875755E+03  0.47453875755E+03  0.00000000000E+00 0.  1.
         23    2    1    2    0    0 -0.56262987121E+02  0.25269411504E+02 -0.19758838893E+03  0.22529489124E+03  0.88952513725E+02 0.  0.
         23    2    1    2    0    0  0.56262987121E+02 -0.25269411504E+02 -0.25167696839E+03  0.27451726654E+03  0.90633141461E+02 0.  0.
          5    1    4    4  502    0  0.37960579301E+02  0.22943250062E+02 -0.53339512033E+02  0.69531229301E+02  0.47000000000E+01 0. -1.
         -5    1    4    4    0  502  0.18302407821E+02 -0.48212661565E+02 -0.19833745636E+03  0.20498603724E+03  0.47000000000E+01 0.  1.
          5    1    3    3  503    0 -0.17601697938E+02  0.42048092258E+02 -0.36115016868E+02  0.58345919105E+02  0.47000000000E+01 0. -1.
         -5    1    3    3    0  503 -0.38661289184E+02 -0.16778680755E+02 -0.16147337207E+03  0.16694897213E+03  0.47000000000E+01 0.  1.
<mgrwt>
<rscale>  0 0.10928064E+03</rscale>
<asrwt>0</asrwt>
<pdfrwt beam="1">  1        4 0.38882153E-02 0.10962861E+03</pdfrwt>
<pdfrwt beam="2">  1       -4 0.73005965E-01 0.10962861E+03</pdfrwt>
<totfact> 0.98196894E+02</totfact>
</mgrwt>
</event>
<event>
 8    1  0.3177960E-004  0.1045005E+03  0.7546771E-02  0.1275259E+00
          1   -1    0    0  501    0  0.00000000000E+00  0.00000000000E+00  0.17786049814E+02  0.17786049814E+02  0.00000000000E+00 0. -1.
         -1   -1    0    0    0  501 -0.00000000000E+00 -0.00000000000E+00 -0.70584978345E+03  0.70584978345E+03  0.00000000000E+00 0.  1.
         23    2    1    2    0    0 -0.45341433767E+00  0.43251387204E+02 -0.49292314508E+03  0.50227594905E+03  0.86238123556E+02 0.  0.
         23    2    1    2    0    0  0.45341433767E+00 -0.43251387204E+02 -0.19514058855E+03  0.22135988421E+03  0.95128654775E+02 0.  0.
          5    1    3    3  502    0 -0.27539608904E+02 -0.13783970395E+02 -0.11794023559E+03  0.12198531498E+03  0.47000000000E+01 0. -1.
         -5    1    3    3    0  502  0.27086194566E+02  0.57035357599E+02 -0.37498290949E+03  0.38029063407E+03  0.47000000000E+01 0.  1.
          5    1    4    4  503    0 -0.36095692803E+02 -0.98590159260E+00 -0.30722202334E+02  0.47642572949E+02  0.47000000000E+01 0. -1.
         -5    1    4    4    0  503  0.36549107141E+02 -0.42265485611E+02 -0.16441838622E+03  0.17371731127E+03  0.47000000000E+01 0.  1.
<mgrwt>
<rscale>  0 0.10243424E+03</rscale>
<asrwt>0</asrwt>
<pdfrwt beam="1">  1        1 0.27363154E-02 0.10450047E+03</pdfrwt>
<pdfrwt beam="2">  1       -1 0.10859227E+00 0.10450047E+03</pdfrwt>
<totfact> 0.30705763E+03</totfact>
</mgrwt>
</event>
<event>
 8    1  0.3177960E-004  0.2154741E+03  0.7546771E-02  0.1137324E+00
          1   -1    0    0  501    0  0.00000000000E+00  0.00000000000E+00  0.16149016309E+03  0.16149016309E+03  0.00000000000E+00 0. -1.
         -1   -1    0    0    0  501 -0.00000000000E+00 -0.00000000000E+00 -0.30025141127E+03  0.30025141127E+03  0.00000000000E+00 0.  1.
         23    2    1    2    0    0 -0.18606172785E+03 -0.57774046175E+02 -0.11720986290E+03  0.24519234952E+03  0.91784145265E+02 0.  0.
         23    2    1    2    0    0  0.18606172785E+03  0.57774046175E+02 -0.21551385280E+02  0.21654922483E+03  0.92045084528E+02 0.  0.
          5    1    3    3  502    0 -0.16670155573E+03 -0.51635378895E+02 -0.60487629783E+02  0.18476055963E+03  0.47000000000E+01 0. -1.
         -5    1    3    3    0  502 -0.19360172121E+02 -0.61386672796E+01 -0.56722233118E+02  0.60431789899E+02  0.47000000000E+01 0.  1.
          5    1    4    4  503    0  0.84665515755E+02  0.70321055779E+02  0.69345833417E+01  0.11037879728E+03  0.47000000000E+01 0. -1.
         -5    1    4    4    0  503  0.10139621210E+03 -0.12547009604E+02 -0.28485968622E+02  0.10617042755E+03  0.47000000000E+01 0.  1.
<mgrwt>
<rscale>  0 0.21544630E+03</rscale>
<asrwt>0</asrwt>
<pdfrwt beam="1">  1        1 0.24844641E-01 0.21547414E+03</pdfrwt>
<pdfrwt beam="2">  1       -1 0.46192524E-01 0.21547414E+03</pdfrwt>
<totfact> 0.91595299E+02</totfact>
</mgrwt>
</event>
<event>
 8    1  0.3177960E-004  0.1161974E+03  0.7546771E-02  0.1259964E+00
         -2   -1    0    0    0  501 -0.00000000000E+00  0.00000000000E+00  0.27397093297E+02  0.27397093297E+02  0.00000000000E+00 0.  1.
          2   -1    0    0  501    0  0.00000000000E+00 -0.00000000000E+00 -0.46108137119E+03  0.46108137119E+03  0.00000000000E+00 0. -1.
         23    2    1    2    0    0 -0.30349307867E+02 -0.29534544760E+01 -0.15162159931E+03  0.19102603786E+03  0.11212508365E+03 0.  0.
         23    2    1    2    0    0  0.30349307867E+02  0.29534544760E+01 -0.28206267858E+03  0.29745242662E+03  0.89380020547E+02 0.  0.
          5    1    3    3  502    0 -0.21984847104E+02  0.52180119852E+02 -0.99347621768E+02  0.11444709853E+03  0.47000000000E+01 0. -1.
         -5    1    3    3    0  502 -0.83644607627E+01 -0.55133574328E+02 -0.52273977541E+02  0.76578939337E+02  0.47000000000E+01 0.  1.
          5    1    4    4  503    0  0.50292819758E+01  0.34189033343E+02 -0.44868122597E+02  0.56828004571E+02  0.47000000000E+01 0. -1.
         -5    1    4    4    0  503  0.25320025891E+02 -0.31235578867E+02 -0.23719455598E+03  0.24062442205E+03  0.47000000000E+01 0.  1.
<mgrwt>
<rscale>  0 0.11032765E+03</rscale>
<asrwt>0</asrwt>
<pdfrwt beam="1">  1        2 0.70935587E-01 0.11619741E+03</pdfrwt>
<pdfrwt beam="2">  1       -2 0.42149379E-02 0.11619741E+03</pdfrwt>
<totfact> 0.16114758E+04</totfact>
</mgrwt>
</event>
<event>
 8    1  0.3177960E-004  0.1006429E+03  0.7546771E-02  0.1281169E+00
         -1   -1    0    0    0  501 -0.00000000000E+00  0.00000000000E+00  0.16472581689E+02  0.16472581689E+02  0.00000000000E+00 0.  1.
          1   -1    0    0  501    0  0.00000000000E+00 -0.00000000000E+00 -0.61844919130E+03  0.61844919130E+03  0.00000000000E+00 0. -1.
         23    2    1    2    0    0 -0.25143061121E+02 -0.22472201202E+02 -0.23866193506E+03  0.25901450559E+03  0.94825215572E+02 0.  0.
         23    2    1    2    0    0  0.25143061121E+02  0.22472201202E+02 -0.36331467455E+03  0.37590726740E+03  0.90396612730E+02 0.  0.
          5    1    3    3  502    0  0.79471449312E+01 -0.30435545970E+02 -0.21489839302E+03  0.21723924345E+03  0.47000000000E+01 0. -1.
         -5    1    3    3    0  502 -0.33090206052E+02  0.79633447687E+01 -0.23763542040E+02  0.41775262139E+02  0.47000000000E+01 0.  1.
          5    1    4    4  503    0  0.36739211328E+02 -0.26573018622E+02 -0.18651792400E+03  0.19200760647E+03  0.47000000000E+01 0. -1.
         -5    1    4    4    0  503 -0.11596150207E+02  0.49045219824E+02 -0.17679675055E+03  0.18389966093E+03  0.47000000000E+01 0.  1.
<mgrwt>
<rscale>  0 0.99586079E+02</rscale>
<asrwt>0</asrwt>
<pdfrwt beam="1">  1        1 0.95146025E-01 0.10064291E+03</pdfrwt>
<pdfrwt beam="2">  1       -1 0.25342435E-02 0.10064291E+03</pdfrwt>
<totfact> 0.15099470E+04</totfact>
</mgrwt>
</event>
<event>
 8    1  0.3177960E-004  0.9078525E+02  0.7546771E-02  0.1301169E+00
         -1   -1    0    0    0  501 -0.00000000000E+00  0.00000000000E+00  0.19486479074E+02  0.19486479074E+02  0.00000000000E+00 0.  1.
          1   -1    0    0  501    0  0.00000000000E+00 -0.00000000000E+00 -0.42704974194E+03  0.42704974194E+03  0.00000000000E+00 0. -1.
         23    2    1    2    0    0  0.38226124075E+01 -0.49027943927E+01 -0.22998078814E+03  0.24725113621E+03  0.90572135249E+02 0.  0.
         23    2    1    2    0    0 -0.38226124075E+01  0.49027943927E+01 -0.17758247473E+03  0.19928508481E+03  0.90223943267E+02 0.  0.
          5    1    4    4  502    0 -0.39577577539E+02 -0.10218447451E+02 -0.44633833750E+02  0.60704780927E+02  0.47000000000E+01 0. -1.
         -5    1    3    3    0  503  0.19493022712E+01 -0.36697047624E+02 -0.39839509860E+02  0.54403581035E+02  0.47000000000E+01 0.  1.
          5    1    3    3  503    0  0.18733101363E+01  0.31794253231E+02 -0.19014127828E+03  0.19284755517E+03  0.47000000000E+01 0. -1.
         -5    1    4    4    0  502  0.35754965131E+02  0.15121241843E+02 -0.13294864098E+03  0.13858030388E+03  0.47000000000E+01 0.  1.
<mgrwt>
<rscale>  0 0.90698281E+02</rscale>
<asrwt>0</asrwt>
<pdfrwt beam="1">  1        1 0.65699960E-01 0.90785249E+02</pdfrwt>
<pdfrwt beam="2">  1       -1 0.29979199E-02 0.90785249E+02</pdfrwt>
<totfact> 0.18986065E+04</totfact>
</mgrwt>
</event>
<event>
 8    1  0.3177960E-004  0.9592876E+02  0.7546771E-02  0.1290344E+00
          1   -1    0    0  501    0  0.00000000000E+00  0.00000000000E+00  0.41332473938E+02  0.41332473938E+02  0.00000000000E+00 0. -1.
         -1   -1    0    0    0  501 -0.00000000000E+00 -0.00000000000E+00 -0.22163686596E+03  0.22163686596E+03  0.00000000000E+00 0.  1.
         23    2    1    2    0    0  0.11555003587E+02 -0.17188588432E+02 -0.73294306390E+02  0.12072440882E+03  0.93666225793E+02 0.  0.
         23    2    1    2    0    0 -0.11555003587E+02  0.17188588432E+02 -0.10701008563E+03  0.14224493108E+03  0.91397463378E+02 0.  0.
          5    1    4    4  502    0  0.27513784525E+02 -0.23911737840E+02 -0.44491994446E+02  0.57709679562E+02  0.47000000000E+01 0. -1.
         -5    1    3    3    0  503  0.14890147301E+02 -0.46414718245E+02 -0.76428135919E+02  0.90771099566E+02  0.47000000000E+01 0.  1.
          5    1    3    3  503    0 -0.33351437137E+01  0.29226129813E+02  0.31338295288E+01  0.29953309249E+02  0.47000000000E+01 0. -1.
         -5    1    4    4    0  502 -0.39068788113E+02  0.41100326272E+02 -0.62518091188E+02  0.84535251523E+02  0.47000000000E+01 0.  1.
<mgrwt>
<rscale>  0 0.95370414E+02</rscale>
<asrwt>0</asrwt>
<pdfrwt beam="1">  1        1 0.63588421E-02 0.95928763E+02</pdfrwt>
<pdfrwt beam="2">  1       -1 0.34097980E-01 0.95928763E+02</pdfrwt>
<totfact> 0.89156855E+03</totfact>
</mgrwt>
</event>
<event>
 8    1  0.3177960E-004  0.9836584E+02  0.7546771E-02  0.1283959E+00
         -2   -1    0    0    0  501 -0.00000000000E+00  0.00000000000E+00  0.77326620144E+03  0.77326620144E+03  0.00000000000E+00 0.  1.
          2   -1    0    0  501    0  0.00000000000E+00 -0.00000000000E+00 -0.12548949155E+02  0.12548949155E+02  0.00000000000E+00 0. -1.
         23    2    1    2    0    0  0.27891755453E+01  0.37709908163E+02  0.41249916469E+03  0.42406532407E+03  0.90807607278E+02 0.  0.
         23    2    1    2    0    0 -0.27891755453E+01 -0.37709908163E+02  0.34821808760E+03  0.36174982652E+03  0.90428335079E+02 0.  0.
          5    1    3    3  502    0  0.42845377571E+02 -0.59655742768E-01  0.17804139246E+03  0.18318448997E+03  0.47000000000E+01 0. -1.
         -5    1    4    4    0  503 -0.36342522380E+02  0.92002581141E+01  0.17796956455E+03  0.18193592166E+03  0.47000000000E+01 0.  1.
          5    1    4    4  503    0  0.33553346834E+02 -0.46910166277E+02  0.17024852305E+03  0.17981390487E+03  0.47000000000E+01 0. -1.
         -5    1    3    3    0  502 -0.40056202026E+02  0.37769563906E+02  0.23445777223E+03  0.24088083410E+03  0.47000000000E+01 0.  1.
<mgrwt>
<rscale>  0 0.98278216E+02</rscale>
<asrwt>0</asrwt>
<pdfrwt beam="1">  1        2 0.19306082E-02 0.98365839E+02</pdfrwt>
<pdfrwt beam="2">  1       -2 0.11896399E+00 0.98365839E+02</pdfrwt>
<totfact> 0.30161273E+03</totfact>
</mgrwt>
</event>
<event>
 8    1  0.3177960E-004  0.1318994E+03  0.7546771E-02  0.1231242E+00
          1   -1    0    0  501    0  0.00000000000E+00  0.00000000000E+00  0.76889350952E+03  0.76889350952E+03  0.00000000000E+00 0. -1.
         -1   -1    0    0    0  501 -0.00000000000E+00 -0.00000000000E+00 -0.22942118834E+02  0.22942118834E+02  0.00000000000E+00 0.  1.
         23    2    1    2    0    0  0.35450358368E+02  0.59322947015E+02  0.24951800917E+03  0.28223514656E+03  0.11234545430E+03 0.  0.
         23    2    1    2    0    0 -0.35450358368E+02 -0.59322947015E+02  0.49643338151E+03  0.50960048179E+03  0.92035910438E+02 0.  0.
          5    1    4    4  502    0 -0.54829005078E+02 -0.72081546889E+02  0.41518126677E+03  0.42497005009E+03  0.47000000000E+01 0. -1.
         -5    1    3    3    0  503 -0.26840264837E+02  0.63178301532E+02  0.11824741045E+03  0.13680803221E+03  0.47000000000E+01 0.  1.
          5    1    3    3  503    0  0.62290623205E+02 -0.38553545177E+01  0.13127059873E+03  0.14542711435E+03  0.47000000000E+01 0. -1.
         -5    1    4    4    0  502  0.19378646710E+02  0.12758599874E+02  0.81252114742E+02  0.84630431697E+02  0.47000000000E+01 0.  1.
<mgrwt>
<rscale>  0 0.12748082E+03</rscale>
<asrwt>0</asrwt>
<pdfrwt beam="1">  1        1 0.11829129E+00 0.13189936E+03</pdfrwt>
<pdfrwt beam="2">  1       -1 0.35295573E-02 0.13189936E+03</pdfrwt>
<totfact> 0.69968210E+03</totfact>
</mgrwt>
</event>
<event>
 8    1  0.3177960E-004  0.9995277E+02  0.7546771E-02  0.1284088E+00
          2   -1    0    0  501    0  0.00000000000E+00  0.00000000000E+00  0.27833921701E+03  0.27833921701E+03  0.00000000000E+00 0. -1.
         -2   -1    0    0    0  501 -0.00000000000E+00 -0.00000000000E+00 -0.58767004543E+02  0.58767004543E+02  0.00000000000E+00 0.  1.
         23    2    1    2    0    0  0.18787658791E+02 -0.79145192684E+01  0.21806262873E+03  0.23714204897E+03  0.90936382176E+02 0.  0.
         23    2    1    2    0    0 -0.18787658791E+02  0.79145192684E+01  0.15095837442E+01  0.99964172589E+02  0.97851628603E+02 0.  0.
          5    1    4    4  502    0  0.12089969886E+02 -0.19393555107E+02 -0.36748147991E+02  0.43529228482E+02  0.47000000000E+01 0. -1.
         -5    1    4    4    0  502 -0.30877628677E+02  0.27308074376E+02  0.38257731735E+02  0.56434944107E+02  0.47000000000E+01 0.  1.
          5    1    3    3  503    0 -0.54138567360E+01 -0.46693075428E+02  0.10989572133E+03  0.11961903153E+03  0.47000000000E+01 0. -1.
         -5    1    3    3    0  503  0.24201515527E+02  0.38778556160E+02  0.10816690740E+03  0.11752301744E+03  0.47000000000E+01 0.  1.
<mgrwt>
<rscale>  0 0.98218348E+02</rscale>
<asrwt>0</asrwt>
<pdfrwt beam="1">  1        2 0.42821417E-01 0.99952774E+02</pdfrwt>
<pdfrwt beam="2">  1       -2 0.90410778E-02 0.99952774E+02</pdfrwt>
<totfact> 0.85621917E+03</totfact>
</mgrwt>
</event>
<event>
 7    1  0.3177960E-004  0.1463597E+03  0.7546771E-02  0.1226256E+00
          1   -1    0    0  501    0  0.00000000000E+00  0.00000000000E+00  0.41680805555E+03  0.41680805555E+03  0.00000000000E+00 0. -1.
         -1   -1    0    0    0  501 -0.00000000000E+00 -0.00000000000E+00 -0.40880903988E+02  0.40880903988E+02  0.00000000000E+00 0.  1.
         23    2    1    2    0    0  0.10374976284E+02  0.26208434611E+02  0.64258268201E+02  0.11336549095E+03  0.89039807552E+02 0.  0.
          5    1    1    2  502    0 -0.69260064622E+02 -0.45953197364E+02  0.19608461284E+03  0.21302562826E+03  0.47000000000E+01 0. -1.
         -5    1    3    3    0  503  0.49352148616E+02  0.19588044761E+02  0.41066659959E+02  0.67289572972E+02  0.47000000000E+01 0.  1.
          5    1    3    3  503    0 -0.38977172332E+02  0.66203898497E+01  0.23191608242E+02  0.46075917979E+02  0.47000000000E+01 0. -1.
         -5    1    1    2    0  502  0.58885088338E+02  0.19744762754E+02  0.11558427052E+03  0.13129784033E+03  0.47000000000E+01 0.  1.
<mgrwt>
<rscale>  0 0.13081180E+03</rscale>
<asrwt>0</asrwt>
<pdfrwt beam="1">  1        1 0.64124313E-01 0.14635969E+03</pdfrwt>
<pdfrwt beam="2">  1       -1 0.62893701E-02 0.14635969E+03</pdfrwt>
<totfact> 0.68632672E+03</totfact>
</mgrwt>
</event>
<event>
 8    1  0.3177960E-004  0.9306671E+02  0.7546771E-02  0.1295596E+00
          1   -1    0    0  501    0  0.00000000000E+00  0.00000000000E+00  0.50539070986E+02  0.50539070986E+02  0.00000000000E+00 0. -1.
         -1   -1    0    0    0  501 -0.00000000000E+00 -0.00000000000E+00 -0.18444489127E+03  0.18444489127E+03  0.00000000000E+00 0.  1.
         23    2    1    2    0    0  0.13773916503E+02 -0.78975460502E+01 -0.98245947297E+02  0.13532804345E+03  0.91702350977E+02 0.  0.
         23    2    1    2    0    0 -0.13773916503E+02  0.78975460502E+01 -0.35659872988E+02  0.99655918805E+02  0.91692876506E+02 0.  0.
          5    1    3    3  502    0 -0.21881369774E+01  0.39412262379E+02 -0.61205041602E+02  0.72981240649E+02  0.47000000000E+01 0. -1.
         -5    1    3    3    0  502  0.15962053480E+02 -0.47309808429E+02 -0.37040905696E+02  0.62346802802E+02  0.47000000000E+01 0.  1.
          5    1    4    4  503    0  0.21394420510E+02  0.39590260237E+02 -0.20937131289E+02  0.49855424993E+02  0.47000000000E+01 0. -1.
         -5    1    4    4    0  503 -0.35168337013E+02 -0.31692714187E+02 -0.14722741698E+02  0.49800493812E+02  0.47000000000E+01 0.  1.
<mgrwt>
<rscale>  0 0.93064380E+02</rscale>
<asrwt>0</asrwt>
<pdfrwt beam="1">  1        1 0.77752418E-02 0.93066714E+02</pdfrwt>
<pdfrwt beam="2">  1       -1 0.28376137E-01 0.93066714E+02</pdfrwt>
<totfact> 0.92425292E+03</totfact>
</mgrwt>
</event>
<event>
 8    1  0.3177960E-004  0.9426986E+02  0.7546771E-02  0.1294793E+00
          1   -1    0    0  501    0  0.00000000000E+00  0.00000000000E+00  0.14673200408E+03  0.14673200408E+03  0.00000000000E+00 0. -1.
         -1   -1    0    0    0  501 -0.00000000000E+00 -0.00000000000E+00 -0.14220475617E+03  0.14220475617E+03  0.00000000000E+00 0.  1.
         23    2    1    2    0    0  0.52739105375E+01 -0.26516823679E+02  0.11317134313E+03  0.14729073218E+03  0.90309749251E+02 0.  0.
         23    2    1    2    0    0 -0.52739105375E+01  0.26516823679E+02 -0.10864409522E+03  0.14164602807E+03  0.86770396865E+02 0.  0.
          5    1    4    4  502    0  0.24745534681E+02  0.23108347699E+02 -0.62046033933E+01  0.34740816388E+02  0.47000000000E+01 0. -1.
         -5    1    4    4    0  502 -0.30019445218E+02  0.34084759805E+01 -0.10243949183E+03  0.10690521168E+03  0.47000000000E+01 0.  1.
          5    1    3    3  503    0 -0.30035045769E+02  0.16291473305E+02  0.23506878280E+02  0.41739422651E+02  0.47000000000E+01 0.  1.
         -5    1    3    3    0  503  0.35308956307E+02 -0.42808296985E+02  0.89664464854E+02  0.10555130953E+03  0.47000000000E+01 0. -1.
<mgrwt>
<rscale>  0 0.93411972E+02</rscale>
<asrwt>0</asrwt>
<pdfrwt beam="1">  1        1 0.22574154E-01 0.94269862E+02</pdfrwt>
<pdfrwt beam="2">  1       -1 0.21877655E-01 0.94269862E+02</pdfrwt>
<totfact> 0.35748659E+03</totfact>
</mgrwt>
</event>
<event>
 8    1  0.3177960E-004  0.1908542E+03  0.7546771E-02  0.1158077E+00
         -2   -1    0    0    0  501 -0.00000000000E+00  0.00000000000E+00  0.12955910927E+04  0.12955910927E+04  0.00000000000E+00 0.  1.
          2   -1    0    0  501    0  0.00000000000E+00 -0.00000000000E+00 -0.44049934654E+02  0.44049934654E+02  0.00000000000E+00 0. -1.
         23    2    1    2    0    0 -0.14388173847E+03  0.85189772155E+02  0.22152650502E+03  0.29240266877E+03  0.92011283735E+02 0.  0.
         23    2    1    2    0    0  0.14388173847E+03 -0.85189772155E+02  0.10300146530E+04  0.10472383585E+04  0.88423652285E+02 0.  0.
          5    1    3    3  502    0 -0.14937505555E+03  0.61648692543E+02  0.21051116301E+03  0.26542514626E+03  0.47000000000E+01 0. -1.
         -5    1    3    3    0  502  0.54933170728E+01  0.23541079611E+02  0.11015342005E+02  0.26977522518E+02  0.47000000000E+01 0.  1.
          5    1    4    4  503    0  0.67951628146E+01 -0.33713351822E+02  0.34440422961E+03  0.34614899639E+03  0.47000000000E+01 0. -1.
         -5    1    4    4    0  503  0.13708657566E+03 -0.51476420333E+02  0.68561042339E+03  0.70108936216E+03  0.47000000000E+01 0.  1.
<mgrwt>
<rscale>  0 0.19042690E+03</rscale>
<asrwt>0</asrwt>
<pdfrwt beam="1">  1        2 0.67769140E-02 0.19085421E+03</pdfrwt>
<pdfrwt beam="2">  1       -2 0.19932168E+00 0.19085421E+03</pdfrwt>
<totfact> 0.15353555E+02</totfact>
</mgrwt>
</event>
<event>
 8    1  0.3177960E-004  0.1121406E+03  0.7546771E-02  0.1264989E+00
          2   -1    0    0  501    0  0.00000000000E+00  0.00000000000E+00  0.30475989059E+03  0.30475989059E+03  0.00000000000E+00 0. -1.
         -2   -1    0    0    0  501 -0.00000000000E+00 -0.00000000000E+00 -0.77968306944E+02  0.77968306944E+02  0.00000000000E+00 0.  1.
         23    2    1    2    0    0  0.28276800923E+02 -0.83413314885E+01 -0.32186853527E+02  0.10051310892E+03  0.90541351011E+02 0.  0.
         23    2    1    2    0    0 -0.28276800923E+02  0.83413314885E+01  0.25897843717E+03  0.28221508861E+03  0.10819597978E+03 0.  0.
          5    1    3    3  502    0  0.33059536565E+02 -0.45923294242E+02 -0.15556554614E+02  0.58872559851E+02  0.47000000000E+01 0. -1.
         -5    1    4    4    0  503  0.39708339335E+02  0.15205683518E+02  0.11709649283E+03  0.12466612874E+03  0.47000000000E+01 0.  1.
          5    1    4    4  503    0 -0.67985140258E+02 -0.68643520297E+01  0.14188194435E+03  0.15754895987E+03  0.47000000000E+01 0. -1.
         -5    1    3    3    0  502 -0.47827356419E+01  0.37581962754E+02 -0.16630298913E+02  0.41640549067E+02  0.47000000000E+01 0.  1.
<mgrwt>
<rscale>  0 0.10764766E+03</rscale>
<asrwt>0</asrwt>
<pdfrwt beam="1">  1        2 0.46886136E-01 0.11214065E+03</pdfrwt>
<pdfrwt beam="2">  1       -2 0.11995124E-01 0.11214065E+03</pdfrwt>
<totfact> 0.50391229E+03</totfact>
</mgrwt>
</event>
<event>
 7    1  0.3177960E-004  0.2686644E+03  0.7546771E-02  0.1102046E+00
          1   -1    0    0  501    0  0.00000000000E+00  0.00000000000E+00  0.11871566691E+03  0.11871566691E+03  0.00000000000E+00 0. -1.
         -1   -1    0    0    0  501 -0.00000000000E+00 -0.00000000000E+00 -0.15200302217E+03  0.15200302217E+03  0.00000000000E+00 0.  1.
         23    2    1    2    0    0 -0.35663834840E+02 -0.48384693779E+01 -0.56716046542E+02  0.11956757694E+03  0.98916002849E+02 0.  0.
          5    1    1    2  502    0  0.38753279926E+02  0.30217328265E+02  0.77080557099E+02  0.91533632700E+02  0.47000000000E+01 0. -1.
         -5    1    1    2    0  502 -0.30894450859E+01 -0.25378858887E+02 -0.53651865819E+02  0.59617479443E+02  0.47000000000E+01 0.  1.
          5    1    3    3  503    0 -0.54371024923E+01  0.45579180129E+02 -0.21783104164E+02  0.51025654055E+02  0.47000000000E+01 0. -1.
         -5    1    3    3    0  503 -0.30226732348E+02 -0.50417649506E+02 -0.34932942378E+02  0.68541922889E+02  0.47000000000E+01 0.  1.
<mgrwt>
<rscale>  0 0.26866440E+03</rscale>
<asrwt>0</asrwt>
<pdfrwt beam="1">  1        1 0.18263949E-01 0.26866440E+03</pdfrwt>
<pdfrwt beam="2">  1       -1 0.23385080E-01 0.26866440E+03</pdfrwt>
<totfact> 0.44430952E+03</totfact>
</mgrwt>
</event>
<event>
 8    1  0.3177960E-004  0.1127636E+03  0.7546771E-02  0.1256395E+00
         -1   -1    0    0    0  501 -0.00000000000E+00  0.00000000000E+00  0.16645266846E+02  0.16645266846E+02  0.00000000000E+00 0.  1.
          1   -1    0    0  501    0  0.00000000000E+00 -0.00000000000E+00 -0.94243743575E+03  0.94243743575E+03  0.00000000000E+00 0. -1.
         23    2    1    2    0    0  0.63093587729E+02 -0.17915256452E+02 -0.67582761922E+03  0.68486033349E+03  0.89380916610E+02 0.  0.
         23    2    1    2    0    0 -0.63093587729E+02  0.17915256452E+02 -0.24996454968E+03  0.27422236910E+03  0.91727173701E+02 0.  0.
          5    1    3    3  502    0  0.14714028808E+02 -0.48661191591E+02 -0.38781617851E+03  0.39116223300E+03  0.47000000000E+01 0. -1.
         -5    1    3    3    0  502  0.48379558921E+02  0.30745935139E+02 -0.28801144071E+03  0.29369810049E+03  0.47000000000E+01 0.  1.
          5    1    4    4  503    0 -0.73546923207E+01  0.40791515447E+02 -0.48918159189E+02  0.64289311165E+02  0.47000000000E+01 0.  1.
         -5    1    4    4    0  503 -0.55738895409E+02 -0.22876258996E+02 -0.20104639049E+03  0.20993305794E+03  0.47000000000E+01 0. -1.
<mgrwt>
<rscale>  0 0.11228554E+03</rscale>
<asrwt>0</asrwt>
<pdfrwt beam="1">  1        1 0.14499040E+00 0.11276361E+03</pdfrwt>
<pdfrwt beam="2">  1       -1 0.25608098E-02 0.11276361E+03</pdfrwt>
<totfact> 0.80693229E+03</totfact>
</mgrwt>
</event>
<event>
 8    1  0.3177960E-004  0.1438271E+03  0.7546771E-02  0.1210718E+00
         -1   -1    0    0    0  501 -0.00000000000E+00  0.00000000000E+00  0.16331071699E+03  0.16331071699E+03  0.00000000000E+00 0.  1.
          1   -1    0    0  501    0  0.00000000000E+00 -0.00000000000E+00 -0.12487117419E+03  0.12487117419E+03  0.00000000000E+00 0. -1.
         23    2    1    2    0    0 -0.62442879287E+02  0.79812737573E+02  0.47278939127E+02  0.15139858468E+03  0.10206393636E+03 0.  0.
         23    2    1    2    0    0  0.62442879287E+02 -0.79812737573E+02 -0.88393963301E+01  0.13678330650E+03  0.91445895242E+02 0.  0.
          5    1    4    4  502    0  0.56341074566E+02 -0.38892030498E+02 -0.44644659912E+02  0.81866613330E+02  0.47000000000E+01 0. -1.
         -5    1    3    3    0  503 -0.59978674984E+02  0.10030220605E+03  0.54498697076E+02  0.12903554539E+03  0.47000000000E+01 0.  1.
          5    1    3    3  503    0 -0.24642043025E+01 -0.20489468476E+02 -0.72197579487E+01  0.22363039286E+02  0.47000000000E+01 0. -1.
         -5    1    4    4    0  502  0.61018047208E+01 -0.40920707075E+02  0.35805263582E+02  0.54916693168E+02  0.47000000000E+01 0.  1.
<mgrwt>
<rscale>  0 0.14195857E+03</rscale>
<asrwt>0</asrwt>
<pdfrwt beam="1">  1        1 0.19210950E-01 0.14382710E+03</pdfrwt>
<pdfrwt beam="2">  1       -1 0.25124726E-01 0.14382710E+03</pdfrwt>
<totfact> 0.35855509E+03</totfact>
</mgrwt>
</event>
<event>
 8    1  0.3177960E-004  0.9435047E+02  0.7546771E-02  0.1292836E+00
         -3   -1    0    0    0  501 -0.00000000000E+00  0.00000000000E+00  0.28349492282E+03  0.28349492282E+03  0.00000000000E+00 0.  1.
          3   -1    0    0  501    0  0.00000000000E+00 -0.00000000000E+00 -0.38740108707E+02  0.38740108707E+02  0.00000000000E+00 0. -1.
         23    2    1    2    0    0 -0.11777786521E+02 -0.20049888174E+02  0.51547063123E+02  0.10722050790E+03  0.91095682262E+02 0.  0.
         23    2    1    2    0    0  0.11777786521E+02  0.20049888174E+02  0.19320775099E+03  0.21501452363E+03  0.91440122795E+02 0.  0.
          5    1    3    3  502    0  0.26605908606E+02  0.12953921702E+02 -0.58679384342E+01  0.30531969502E+02  0.47000000000E+01 0. -1.
         -5    1    4    4    0  503  0.13733617255E+02 -0.31046493218E+02  0.12515285760E+03  0.12976064407E+03  0.47000000000E+01 0.  1.
          5    1    4    4  503    0 -0.19558307333E+01  0.51096381393E+02  0.68054893396E+02  0.85253879562E+02  0.47000000000E+01 0. -1.
         -5    1    3    3    0  502 -0.38383695127E+02 -0.33003809876E+02  0.57415001557E+02  0.76688538399E+02  0.47000000000E+01 0.  1.
<mgrwt>
<rscale>  0 0.94266910E+02</rscale>
<asrwt>0</asrwt>
<pdfrwt beam="1">  1        3 0.59600169E-02 0.94350465E+02</pdfrwt>
<pdfrwt beam="2">  1       -3 0.43614602E-01 0.94350465E+02</pdfrwt>
<totfact> 0.19333005E+03</totfact>
</mgrwt>
</event>
<event>
 8    1  0.3177960E-004  0.1049867E+03  0.7546771E-02  0.1273000E+00
         -1   -1    0    0    0  501 -0.00000000000E+00  0.00000000000E+00  0.35528123593E+03  0.35528123593E+03  0.00000000000E+00 0.  1.
          1   -1    0    0  501    0  0.00000000000E+00 -0.00000000000E+00 -0.32967257633E+02  0.32967257633E+02  0.00000000000E+00 0. -1.
         23    2    1    2    0    0  0.18542613053E+02  0.34027448532E+02  0.93227081740E+02  0.13625043382E+03  0.91494241317E+02 0.  0.
         23    2    1    2    0    0 -0.18542613053E+02 -0.34027448532E+02  0.22908689656E+03  0.25199805974E+03  0.97573153006E+02 0.  0.
          5    1    3    3  502    0 -0.24220632890E+02  0.14658428152E+02 -0.32234648786E+01  0.28878872888E+02  0.47000000000E+01 0. -1.
         -5    1    3    3    0  502  0.42763245943E+02  0.19369020380E+02  0.96450546618E+02  0.10737156093E+03  0.47000000000E+01 0.  1.
          5    1    4    4  503    0 -0.33818735214E+02 -0.87283501179E+00  0.19758034286E+02  0.39458061423E+02  0.47000000000E+01 0. -1.
         -5    1    4    4    0  503  0.15276122161E+02 -0.33154613520E+02  0.20932886227E+03  0.21253999832E+03  0.47000000000E+01 0.  1.
<mgrwt>
<rscale>  0 0.10355150E+03</rscale>
<asrwt>0</asrwt>
<pdfrwt beam="1">  1        1 0.50718860E-02 0.10498674E+03</pdfrwt>
<pdfrwt beam="2">  1       -1 0.54658649E-01 0.10498674E+03</pdfrwt>
<totfact> 0.53003186E+03</totfact>
</mgrwt>
</event>
<event>
 8    1  0.3177960E-004  0.9097835E+02  0.7546771E-02  0.1302347E+00
          3   -1    0    0  501    0  0.00000000000E+00  0.00000000000E+00  0.24472645629E+03  0.24472645629E+03  0.00000000000E+00 0. -1.
         -3   -1    0    0    0  501 -0.00000000000E+00 -0.00000000000E+00 -0.33023554050E+02  0.33023554050E+02  0.00000000000E+00 0.  1.
         23    2    1    2    0    0 -0.15030302375E+02 -0.33970290618E+01  0.90348594685E+02  0.12607954968E+03  0.86577909949E+02 0.  0.
         23    2    1    2    0    0  0.15030302375E+02  0.33970290618E+01  0.12135430756E+03  0.15167046066E+03  0.89663877218E+02 0.  0.
          5    1    3    3  502    0 -0.18590445711E+02 -0.43392759781E+02  0.46271419627E+02  0.66269680454E+02  0.47000000000E+01 0. -1.
         -5    1    3    3    0  502  0.35601433353E+01  0.39995730719E+02  0.44077175057E+02  0.59809869230E+02  0.47000000000E+01 0.  1.
          5    1    4    4  503    0  0.17676350410E+02 -0.34931840150E+02  0.99935014880E+02  0.10743269530E+03  0.47000000000E+01 0. -1.
         -5    1    4    4    0  503 -0.26460480350E+01  0.38328869212E+02  0.21419292678E+02  0.44237765360E+02  0.47000000000E+01 0.  1.
<mgrwt>
<rscale>  0 0.90208684E+02</rscale>
<asrwt>0</asrwt>
<pdfrwt beam="1">  1        3 0.37650223E-01 0.90978353E+02</pdfrwt>
<pdfrwt beam="2">  1       -3 0.50805469E-02 0.90978353E+02</pdfrwt>
<totfact> 0.32710056E+03</totfact>
</mgrwt>
</event>
<event>
 8    1  0.3177960E-004  0.9619736E+02  0.7546771E-02  0.1290276E+00
         -1   -1    0    0    0  501 -0.00000000000E+00  0.00000000000E+00  0.26632162348E+03  0.26632162348E+03  0.00000000000E+00 0.  1.
          1   -1    0    0  501    0  0.00000000000E+00 -0.00000000000E+00 -0.34030454142E+02  0.34030454142E+02  0.00000000000E+00 0. -1.
         23    2    1    2    0    0  0.10067731737E+02  0.14542345108E+02  0.10156089258E+03  0.13988762252E+03  0.94557353008E+02 0.  0.
         23    2    1    2    0    0 -0.10067731737E+02 -0.14542345108E+02  0.13073027676E+03  0.16046445511E+03  0.91354239463E+02 0.  0.
          5    1    3    3  502    0  0.24644153136E+02 -0.25128333114E+02  0.88570642098E+02  0.95423351704E+02  0.47000000000E+01 0. -1.
         -5    1    4    4    0  503  0.59616924339E+01  0.29091816536E+02  0.10029245878E+03  0.10470216261E+03  0.47000000000E+01 0.  1.
          5    1    4    4  503    0 -0.16029424171E+02 -0.43634161644E+02  0.30437817975E+02  0.55762292499E+02  0.47000000000E+01 0. -1.
         -5    1    3    3    0  502 -0.14576421398E+02  0.39670678222E+02  0.12990250487E+02  0.44464270815E+02  0.47000000000E+01 0.  1.
<mgrwt>
<rscale>  0 0.95400861E+02</rscale>
<asrwt>0</asrwt>
<pdfrwt beam="1">  1        1 0.52354547E-02 0.96197360E+02</pdfrwt>
<pdfrwt beam="2">  1       -1 0.40972556E-01 0.96197360E+02</pdfrwt>
<totfact> 0.84498673E+03</totfact>
</mgrwt>
</event>
<event>
 8    1  0.3177960E-004  0.1181242E+03  0.7546771E-02  0.1247814E+00
          1   -1    0    0  501    0  0.00000000000E+00  0.00000000000E+00  0.47520982756E+03  0.47520982756E+03  0.00000000000E+00 0. -1.
         -1   -1    0    0    0  501 -0.00000000000E+00 -0.00000000000E+00 -0.30524234411E+02  0.30524234411E+02  0.00000000000E+00 0.  1.
         23    2    1    2    0    0 -0.25503394878E+02  0.70832074848E+02  0.15969349064E+03  0.19863369670E+03  0.91025977243E+02 0.  0.
         23    2    1    2    0    0  0.25503394878E+02 -0.70832074848E+02  0.28499210251E+03  0.30710036528E+03  0.86154105426E+02 0.  0.
          5    1    4    4  502    0  0.24677905720E+02  0.12085708164E+01  0.16617530132E+03  0.16806778526E+03  0.47000000000E+01 0. -1.
         -5    1    4    4    0  502  0.82548915772E+00 -0.72040645665E+02  0.11881680119E+03  0.13903258001E+03  0.47000000000E+01 0.  1.
          5    1    3    3  503    0 -0.16238488801E+02  0.92516607330E+02  0.12531694512E+03  0.15668260236E+03  0.47000000000E+01 0. -1.
         -5    1    3    3    0  503 -0.92649060766E+01 -0.21684532482E+02  0.34376545521E+02  0.41951094330E+02  0.47000000000E+01 0.  1.
<mgrwt>
<rscale>  0 0.11718507E+03</rscale>
<asrwt>0</asrwt>
<pdfrwt beam="1">  1        1 0.73109199E-01 0.11812423E+03</pdfrwt>
<pdfrwt beam="2">  1       -1 0.46960364E-02 0.11812423E+03</pdfrwt>
<totfact> 0.88266997E+03</totfact>
</mgrwt>
</event>
<event>
 8    1  0.3177960E-004  0.1435213E+03  0.7546771E-02  0.1209307E+00
         -1   -1    0    0    0  501 -0.00000000000E+00  0.00000000000E+00  0.30303612090E+03  0.30303612090E+03  0.00000000000E+00 0.  1.
          1   -1    0    0  501    0  0.00000000000E+00 -0.00000000000E+00 -0.78114045181E+02  0.78114045181E+02  0.00000000000E+00 0. -1.
         23    2    1    2    0    0 -0.60431335208E+02  0.88152480410E+02  0.40087746588E+02  0.14713711933E+03  0.92841253661E+02 0.  0.
         23    2    1    2    0    0  0.60431335208E+02 -0.88152480410E+02  0.18483432913E+03  0.23401304675E+03  0.95789199527E+02 0.  0.
          5    1    4    4  502    0  0.36013960931E+02 -0.58606215680E+02  0.31341389109E+02  0.75736824396E+02  0.47000000000E+01 0. -1.
         -5    1    4    4    0  502  0.24417374277E+02 -0.29546264730E+02  0.15349294002E+03  0.15827622235E+03  0.47000000000E+01 0.  1.
          5    1    3    3  503    0  0.13412688109E+02  0.56800319084E+02  0.31033036450E+02  0.66267003868E+02  0.47000000000E+01 0. -1.
         -5    1    3    3    0  503 -0.73844023317E+02  0.31352161326E+02  0.90547101377E+01  0.80870115464E+02  0.47000000000E+01 0.  1.
<mgrwt>
<rscale>  0 0.14303122E+03</rscale>
<asrwt>0</asrwt>
<pdfrwt beam="1">  1        1 0.12017546E-01 0.14352135E+03</pdfrwt>
<pdfrwt beam="2">  1       -1 0.46620941E-01 0.14352135E+03</pdfrwt>
<totfact> 0.22775735E+03</totfact>
</mgrwt>
</event>
<event>
 7    1  0.3177960E-004  0.1710866E+03  0.7546771E-02  0.1198336E+00
          1   -1    0    0  501    0  0.00000000000E+00  0.00000000000E+00  0.37128479350E+03  0.37128479350E+03  0.00000000000E+00 0. -1.
         -1   -1    0    0    0  501 -0.00000000000E+00 -0.00000000000E+00 -0.57107667255E+02  0.57107667255E+02  0.00000000000E+00 0.  1.
         23    2    1    2    0    0  0.85142989694E+01  0.53639090087E+02  0.59162557718E+02  0.12130441201E+03  0.90911533177E+02 0.  0.
          5    1    1    2  502    0 -0.65808079014E+02 -0.62633076094E+02  0.74992829375E+02  0.11789664941E+03  0.47000000000E+01 0. -1.
         -5    1    3    3    0  503  0.28461546728E+02  0.55749487754E+02  0.45501967978E+01  0.62935358249E+02  0.47000000000E+01 0.  1.
          5    1    3    3  503    0 -0.19947247759E+02 -0.21103976674E+01  0.54612360920E+02  0.58369053759E+02  0.47000000000E+01 0. -1.
         -5    1    1    2    0  502  0.57293780044E+02  0.89939860079E+01  0.18002173915E+03  0.18919139934E+03  0.47000000000E+01 0.  1.
<mgrwt>
<rscale>  0 0.15175214E+03</rscale>
<asrwt>0</asrwt>
<pdfrwt beam="1">  1        1 0.57120736E-01 0.17108664E+03</pdfrwt>
<pdfrwt beam="2">  1       -1 0.87857952E-02 0.17108664E+03</pdfrwt>
<totfact> 0.48382926E+03</totfact>
</mgrwt>
</event>
<event>
 8    1  0.3177960E-004  0.1026515E+03  0.7546771E-02  0.1277055E+00
          2   -1    0    0  501    0  0.00000000000E+00  0.00000000000E+00  0.28335660203E+03  0.28335660203E+03  0.00000000000E+00 0. -1.
         -2   -1    0    0    0  501 -0.00000000000E+00 -0.00000000000E+00 -0.61750833616E+02  0.61750833616E+02  0.00000000000E+00 0.  1.
         23    2    1    2    0    0 -0.38173692420E+02  0.21764201836E+02  0.22435589965E+03  0.24672433393E+03  0.92770771107E+02 0.  0.
         23    2    1    2    0    0  0.38173692420E+02 -0.21764201836E+02 -0.27501312383E+01  0.98383101711E+02  0.87981590154E+02 0.  0.
          5    1    4    4  502    0 -0.20510110295E+02  0.17005229746E+02  0.48438953970E+01  0.27484464441E+02  0.47000000000E+01 0. -1.
         -5    1    4    4    0  502  0.58683802715E+02 -0.38769431581E+02 -0.75940266354E+01  0.70898637270E+02  0.47000000000E+01 0.  1.
          5    1    3    3  503    0  0.68665866711E+01  0.46682688239E+02  0.75561552833E+02  0.89207968592E+02  0.47000000000E+01 0. -1.
         -5    1    3    3    0  503 -0.45040279091E+02 -0.24918486403E+02  0.14879434682E+03  0.15751636534E+03  0.47000000000E+01 0.  1.
<mgrwt>
<rscale>  0 0.10155741E+03</rscale>
<asrwt>0</asrwt>
<pdfrwt beam="1">  1        2 0.43593323E-01 0.10265148E+03</pdfrwt>
<pdfrwt beam="2">  1       -2 0.95001284E-02 0.10265148E+03</pdfrwt>
<totfact> 0.77984229E+03</totfact>
</mgrwt>
</event>
<event>
 8    1  0.3177960E-004  0.9552899E+02  0.7546771E-02  0.1293063E+00
         -1   -1    0    0    0  501 -0.00000000000E+00  0.00000000000E+00  0.43118568202E+02  0.43118568202E+02  0.00000000000E+00 0.  1.
          1   -1    0    0  501    0  0.00000000000E+00 -0.00000000000E+00 -0.20376447055E+03  0.20376447055E+03  0.00000000000E+00 0. -1.
         23    2    1    2    0    0  0.78567090092E+01  0.50178340854E+01 -0.61277188607E+02  0.10904280536E+03  0.89713616706E+02 0.  0.
         23    2    1    2    0    0 -0.78567090092E+01 -0.50178340854E+01 -0.99368713745E+02  0.13784023339E+03  0.95073035794E+02 0.  0.
          5    1    3    3  502    0  0.36820403100E+02 -0.25914557779E+02 -0.19306405612E+02  0.49215177405E+02  0.47000000000E+01 0. -1.
         -5    1    3    3    0  502 -0.28963694091E+02  0.30932391865E+02 -0.41970782996E+02  0.59827627959E+02  0.47000000000E+01 0.  1.
          5    1    4    4  503    0  0.70722329078E+01 -0.42836822480E+02 -0.82943983321E+02  0.93737955000E+02  0.47000000000E+01 0. -1.
         -5    1    4    4    0  503 -0.14928941917E+02  0.37818988394E+02 -0.16424730424E+02  0.44102278393E+02  0.47000000000E+01 0.  1.
<mgrwt>
<rscale>  0 0.94167064E+02</rscale>
<asrwt>0</asrwt>
<pdfrwt beam="1">  1        1 0.31348380E-01 0.95528994E+02</pdfrwt>
<pdfrwt beam="2">  1       -1 0.66336258E-02 0.95528994E+02</pdfrwt>
<totfact> 0.14856199E+04</totfact>
</mgrwt>
</event>
<event>
 8    1  0.3177960E-004  0.1156927E+03  0.7546771E-02  0.1250896E+00
          1   -1    0    0  501    0  0.00000000000E+00  0.00000000000E+00  0.63605342714E+03  0.63605342714E+03  0.00000000000E+00 0. -1.
         -1   -1    0    0    0  501 -0.00000000000E+00 -0.00000000000E+00 -0.22053498953E+02  0.22053498953E+02  0.00000000000E+00 0.  1.
         23    2    1    2    0    0 -0.66662308653E+02  0.27030030279E+02  0.23090660612E+03  0.25826858213E+03  0.90610782116E+02 0.  0.
         23    2    1    2    0    0  0.66662308653E+02 -0.27030030279E+02  0.38309332207E+03  0.39983834396E+03  0.89082669221E+02 0.  0.
          5    1    3    3  502    0  0.12220643059E+02 -0.16607463473E+02  0.76906661971E+02  0.79761372953E+02  0.47000000000E+01 0. -1.
         -5    1    4    4    0  503  0.41881137464E+02  0.16461399120E+02  0.74397606776E+02  0.87075261873E+02  0.47000000000E+01 0.  1.
          5    1    4    4  503    0  0.24781171189E+02 -0.43491429399E+02  0.30869571529E+03  0.31276308208E+03  0.47000000000E+01 0. -1.
         -5    1    3    3    0  502 -0.78882951712E+02  0.43637493752E+02  0.15399994415E+03  0.17850720918E+03  0.47000000000E+01 0.  1.
<mgrwt>
<rscale>  0 0.11539332E+03</rscale>
<asrwt>0</asrwt>
<pdfrwt beam="1">  1        1 0.97854359E-01 0.11569270E+03</pdfrwt>
<pdfrwt beam="2">  1       -1 0.33928465E-02 0.11569270E+03</pdfrwt>
<totfact> 0.96326022E+03</totfact>
</mgrwt>
</event>
<event>
 8    1  0.3177960E-004  0.1216405E+03  0.7546771E-02  0.1243682E+00
         -1   -1    0    0    0  501 -0.00000000000E+00  0.00000000000E+00  0.16195865265E+03  0.16195865265E+03  0.00000000000E+00 0.  1.
          1   -1    0    0  501    0  0.00000000000E+00 -0.00000000000E+00 -0.10796332399E+03  0.10796332399E+03  0.00000000000E+00 0. -1.
         23    2    1    2    0    0  0.19372591970E+02  0.77930944501E+02 -0.33683256030E+02  0.12621797008E+03  0.91366759835E+02 0.  0.
         23    2    1    2    0    0 -0.19372591970E+02 -0.77930944501E+02  0.87678584688E+02  0.14370400657E+03  0.80714173850E+02 0.  0.
          5    1    4    4  502    0  0.28710354211E+02 -0.11688304187E+02  0.30545495076E+02  0.43772344729E+02  0.47000000000E+01 0. -1.
         -5    1    4    4    0  502 -0.48082946180E+02 -0.66242640314E+02  0.57133089611E+02  0.99931661838E+02  0.47000000000E+01 0.  1.
          5    1    3    3  503    0  0.46918938536E+02  0.11364359943E+02 -0.58964840497E+01  0.48860965959E+02  0.47000000000E+01 0.  1.
         -5    1    3    3    0  503 -0.27546346566E+02  0.66566584557E+02 -0.27786771980E+02  0.77357004117E+02  0.47000000000E+01 0. -1.
<mgrwt>
<rscale>  0 0.11964599E+03</rscale>
<asrwt>0</asrwt>
<pdfrwt beam="1">  1        1 0.16609742E-01 0.12164051E+03</pdfrwt>
<pdfrwt beam="2">  1       -1 0.24916716E-01 0.12164051E+03</pdfrwt>
<totfact> 0.43363385E+03</totfact>
</mgrwt>
</event>
<event>
 8    1  0.3177960E-004  0.1133926E+03  0.7546771E-02  0.1254983E+00
         -2   -1    0    0    0  501 -0.00000000000E+00  0.00000000000E+00  0.73952557883E+02  0.73952557883E+02  0.00000000000E+00 0.  1.
          2   -1    0    0  501    0  0.00000000000E+00 -0.00000000000E+00 -0.19871344561E+03  0.19871344561E+03  0.00000000000E+00 0. -1.
         23    2    1    2    0    0  0.36472321990E+02 -0.54353087600E+02 -0.11274725381E+03  0.15990569227E+03  0.92592649694E+02 0.  0.
         23    2    1    2    0    0 -0.36472321990E+02  0.54353087600E+02 -0.12013633922E+02  0.11276031122E+03  0.91027863777E+02 0.  0.
          5    1    4    4  502    0 -0.24549054802E+01  0.32059914869E+02 -0.48191812322E+02  0.58124052485E+02  0.47000000000E+01 0. -1.
         -5    1    4    4    0  502 -0.34017416509E+02  0.22293172731E+02  0.36178178401E+02  0.54636258737E+02  0.47000000000E+01 0.  1.
          5    1    3    3  503    0  0.27074484730E+02 -0.80513946511E+02 -0.87884365683E+02  0.12231629097E+03  0.47000000000E+01 0. -1.
         -5    1    3    3    0  503  0.93978372593E+01  0.26160858911E+02 -0.24862888123E+02  0.37589401298E+02  0.47000000000E+01 0.  1.
<mgrwt>
<rscale>  0 0.11307274E+03</rscale>
<asrwt>0</asrwt>
<pdfrwt beam="1">  1        2 0.30571299E-01 0.11339262E+03</pdfrwt>
<pdfrwt beam="2">  1       -2 0.11377317E-01 0.11339262E+03</pdfrwt>
<totfact> 0.86327141E+03</totfact>
</mgrwt>
</event>
<event>
 8    1  0.3177960E-004  0.1078410E+03  0.7546771E-02  0.1265611E+00
          1   -1    0    0  501    0  0.00000000000E+00  0.00000000000E+00  0.43181009173E+03  0.43181009173E+03  0.00000000000E+00 0. -1.
         -1   -1    0    0    0  501 -0.00000000000E+00 -0.00000000000E+00 -0.34970691980E+02  0.34970691980E+02  0.00000000000E+00 0.  1.
         23    2    1    2    0    0  0.36543926254E+02 -0.38074202054E+02  0.84463207137E+02  0.13698074199E+03  0.94045663957E+02 0.  0.
         23    2    1    2    0    0 -0.36543926254E+02  0.38074202054E+02  0.31237619261E+03  0.32980004172E+03  0.91673760675E+02 0.  0.
          5    1    3    3  502    0  0.57990612681E+02 -0.22042003856E+02  0.89828454453E+02  0.10927031766E+03  0.47000000000E+01 0. -1.
         -5    1    3    3    0  502 -0.21446686427E+02 -0.16032198198E+02 -0.53652473156E+01  0.27710424329E+02  0.47000000000E+01 0.  1.
          5    1    4    4  503    0 -0.15921298070E+01  0.61384900983E+02  0.21493116227E+03  0.22358026626E+03  0.47000000000E+01 0. -1.
         -5    1    4    4    0  503 -0.34951796447E+02 -0.23310698929E+02  0.97445030341E+02  0.10621977545E+03  0.47000000000E+01 0.  1.
<mgrwt>
<rscale>  0 0.10732178E+03</rscale>
<asrwt>0</asrwt>
<pdfrwt beam="1">  1        1 0.66432318E-01 0.10784104E+03</pdfrwt>
<pdfrwt beam="2">  1       -1 0.53801068E-02 0.10784104E+03</pdfrwt>
<totfact> 0.81092968E+03</totfact>
</mgrwt>
</event>
<event>
 8    1  0.3177960E-004  0.1088153E+03  0.7546771E-02  0.1265440E+00
          1   -1    0    0  501    0  0.00000000000E+00  0.00000000000E+00  0.65907545288E+02  0.65907545288E+02  0.00000000000E+00 0. -1.
         -1   -1    0    0    0  501 -0.00000000000E+00 -0.00000000000E+00 -0.17322774558E+03  0.17322774558E+03  0.00000000000E+00 0.  1.
         23    2    1    2    0    0  0.44565670161E+02 -0.37453517172E+02 -0.69529850500E+02  0.12913233318E+03  0.91934185456E+02 0.  0.
         23    2    1    2    0    0 -0.44565670161E+02  0.37453517172E+02 -0.37790349795E+02  0.11000295769E+03  0.85344450660E+02 0.  0.
          5    1    3    3  502    0  0.57368421761E+02  0.10248159142E+02 -0.45048346218E+02  0.73807886287E+02  0.47000000000E+01 0. -1.
         -5    1    3    3    0  502 -0.12802751600E+02 -0.47701676314E+02 -0.24481504282E+02  0.55324446889E+02  0.47000000000E+01 0.  1.
          5    1    4    4  503    0  0.19519488581E+02 -0.89506798295E+01 -0.17733400789E+02  0.28243381657E+02  0.47000000000E+01 0. -1.
         -5    1    4    4    0  503 -0.64085158742E+02  0.46404197002E+02 -0.20056949006E+02  0.81759576037E+02  0.47000000000E+01 0.  1.
<mgrwt>
<rscale>  0 0.10741151E+03</rscale>
<asrwt>0</asrwt>
<pdfrwt beam="1">  1        1 0.10139622E-01 0.10881525E+03</pdfrwt>
<pdfrwt beam="2">  1       -1 0.26650422E-01 0.10881525E+03</pdfrwt>
<totfact> 0.73154695E+03</totfact>
</mgrwt>
</event>
<event>
 8    1  0.3177960E-004  0.9689910E+02  0.7546771E-02  0.1287088E+00
          1   -1    0    0  501    0  0.00000000000E+00  0.00000000000E+00  0.67911265032E+03  0.67911265032E+03  0.00000000000E+00 0. -1.
         -1   -1    0    0    0  501 -0.00000000000E+00 -0.00000000000E+00 -0.15891471216E+02  0.15891471216E+02  0.00000000000E+00 0.  1.
         23    2    1    2    0    0  0.92059730453E+01  0.31887728315E+02  0.20493326586E+03  0.22658417419E+03  0.90780875620E+02 0.  0.
         23    2    1    2    0    0 -0.92059730453E+01 -0.31887728315E+02  0.45828791324E+03  0.46841994735E+03  0.91037676231E+02 0.  0.
          5    1    3    3  502    0 -0.35928352955E+02  0.36019850008E+02  0.10828609493E+03  0.11973405737E+03  0.47000000000E+01 0. -1.
         -5    1    3    3    0  502  0.45134326000E+02 -0.41321216932E+01  0.96647170937E+02  0.10685011681E+03  0.47000000000E+01 0.  1.
          5    1    4    4  503    0 -0.33610464807E+02  0.19960455685E+02  0.19200923163E+03  0.19600438303E+03  0.47000000000E+01 0. -1.
         -5    1    4    4    0  503  0.24404491761E+02 -0.51848184000E+02  0.26627868162E+03  0.27241556432E+03  0.47000000000E+01 0.  1.
<mgrwt>
<rscale>  0 0.96838737E+02</rscale>
<asrwt>0</asrwt>
<pdfrwt beam="1">  1        1 0.10447885E+00 0.96899100E+02</pdfrwt>
<pdfrwt beam="2">  1       -1 0.24448423E-02 0.96899100E+02</pdfrwt>
<totfact> 0.13933642E+04</totfact>
</mgrwt>
</event>
<event>
 8    1  0.3177960E-004  0.1090167E+03  0.7546771E-02  0.1263642E+00
          1   -1    0    0  501    0  0.00000000000E+00  0.00000000000E+00  0.57740378037E+03  0.57740378037E+03  0.00000000000E+00 0. -1.
         -1   -1    0    0    0  501 -0.00000000000E+00 -0.00000000000E+00 -0.28674322836E+02  0.28674322836E+02  0.00000000000E+00 0.  1.
         23    2    1    2    0    0  0.18942380772E+02  0.49381637500E+02  0.10625831627E+03  0.15037496156E+03  0.92327890575E+02 0.  0.
         23    2    1    2    0    0 -0.18942380772E+02 -0.49381637500E+02  0.44247114126E+03  0.45570314164E+03  0.95327239220E+02 0.  0.
          5    1    3    3  502    0  0.52113674926E+02  0.13408862364E+02  0.73848357503E+02  0.91494822859E+02  0.47000000000E+01 0. -1.
         -5    1    4    4    0  503 -0.41321991173E+02  0.12144185040E+02  0.16900202899E+03  0.17446708569E+03  0.47000000000E+01 0.  1.
          5    1    4    4  503    0  0.22379610401E+02 -0.61525822539E+02  0.27346911227E+03  0.28123605595E+03  0.47000000000E+01 0. -1.
         -5    1    3    3    0  502 -0.33171294154E+02  0.35972775136E+02  0.32409958765E+02  0.58880138706E+02  0.47000000000E+01 0.  1.
<mgrwt>
<rscale>  0 0.10835756E+03</rscale>
<asrwt>0</asrwt>
<pdfrwt beam="1">  1        1 0.88831342E-01 0.10901671E+03</pdfrwt>
<pdfrwt beam="2">  1       -1 0.44114347E-02 0.10901671E+03</pdfrwt>
<totfact> 0.74569365E+03</totfact>
</mgrwt>
</event>
<event>
 8    1  0.3177960E-004  0.2052448E+03  0.7546771E-02  0.1146031E+00
         -4   -1    0    0    0  501 -0.00000000000E+00  0.00000000000E+00  0.64128553559E+03  0.64128553559E+03  0.00000000000E+00 0.  1.
          4   -1    0    0  501    0  0.00000000000E+00 -0.00000000000E+00 -0.15691145515E+03  0.15691145515E+03  0.00000000000E+00 0. -1.
         23    2    1    2    0    0  0.14776875713E+03 -0.10984169277E+03  0.54737626660E+03  0.58350019218E+03  0.83372021585E+02 0.  0.
         23    2    1    2    0    0 -0.14776875713E+03  0.10984169277E+03 -0.63002186158E+02  0.21469679856E+03  0.90689783305E+02 0.  0.
          5    1    3    3  502    0  0.39557652013E+02  0.64811831340E+01  0.76052759839E+02  0.86098349849E+02  0.47000000000E+01 0. -1.
         -5    1    4    4    0  503 -0.53682604090E+01  0.40309582764E+02 -0.34671865205E+02  0.53646145428E+02  0.47000000000E+01 0.  1.
          5    1    4    4  503    0 -0.14240049672E+03  0.69532110002E+02 -0.28330320953E+02  0.16105065313E+03  0.47000000000E+01 0. -1.
         -5    1    3    3    0  502  0.10821110512E+03 -0.11632287590E+03  0.47132350676E+03  0.49740184233E+03  0.47000000000E+01 0.  1.
<mgrwt>
<rscale>  0 0.20445862E+03</rscale>
<asrwt>0</asrwt>
<pdfrwt beam="1">  1        4 0.24140224E-01 0.20524483E+03</pdfrwt>
<pdfrwt beam="2">  1       -4 0.98659312E-01 0.20524483E+03</pdfrwt>
<totfact> 0.25105503E+01</totfact>
</mgrwt>
</event>
<event>
 8    1  0.3177960E-004  0.1017855E+03  0.7546771E-02  0.1276958E+00
          2   -1    0    0  501    0  0.00000000000E+00  0.00000000000E+00  0.15332530749E+02  0.15332530749E+02  0.00000000000E+00 0. -1.
         -2   -1    0    0    0  501 -0.00000000000E+00 -0.00000000000E+00 -0.87198597194E+03  0.87198597194E+03  0.00000000000E+00 0.  1.
         23    2    1    2    0    0  0.40097656141E+02  0.80937056360E+01 -0.64019331752E+03  0.64812134261E+03  0.92414613815E+02 0.  0.
         23    2    1    2    0    0 -0.40097656141E+02 -0.80937056360E+01 -0.21646012367E+03  0.23919716008E+03  0.93203895587E+02 0.  0.
          5    1    4    4  502    0 -0.53419187293E+02 -0.29713177198E+02 -0.19847054047E+03  0.20772368162E+03  0.47000000000E+01 0. -1.
         -5    1    4    4    0  502  0.13321531153E+02  0.21619471562E+02 -0.17989583200E+02  0.31473478463E+02  0.47000000000E+01 0.  1.
          5    1    3    3  503    0  0.30497142528E+02  0.42522236180E+02 -0.51975156090E+03  0.52240022142E+03  0.47000000000E+01 0. -1.
         -5    1    3    3    0  503  0.96005136132E+01 -0.34428530544E+02 -0.12044175662E+03  0.12572112119E+03  0.47000000000E+01 0.  1.
<mgrwt>
<rscale>  0 0.10160450E+03</rscale>
<asrwt>0</asrwt>
<pdfrwt beam="1">  1        2 0.23588505E-02 0.10178554E+03</pdfrwt>
<pdfrwt beam="2">  1       -2 0.13415171E+00 0.10178554E+03</pdfrwt>
<totfact> 0.17258115E+03</totfact>
</mgrwt>
</event>
<event>
 8    1  0.3177960E-004  0.1714215E+03  0.7546771E-02  0.1178621E+00
          1   -1    0    0  501    0  0.00000000000E+00  0.00000000000E+00  0.66773345928E+02  0.66773345928E+02  0.00000000000E+00 0. -1.
         -1   -1    0    0    0  501 -0.00000000000E+00 -0.00000000000E+00 -0.47610940518E+03  0.47610940518E+03  0.00000000000E+00 0.  1.
         23    2    1    2    0    0  0.87507448039E+02  0.10221643467E+03 -0.29444164830E+03  0.33651887257E+03  0.91887509291E+02 0.  0.
         23    2    1    2    0    0 -0.87507448039E+02 -0.10221643467E+03 -0.11489441096E+03  0.20636387854E+03  0.10620532811E+03 0.  0.
          5    1    3    3  502    0  0.88838403148E+02  0.67565688523E+02 -0.14504085743E+03  0.18307464178E+03  0.47000000000E+01 0. -1.
         -5    1    4    4    0  503  0.22950305211E+02 -0.31865969458E+02 -0.35501196053E+02  0.53146791436E+02  0.47000000000E+01 0.  1.
          5    1    4    4  503    0 -0.11045775325E+03 -0.70350465212E+02 -0.79393214903E+02  0.15321708711E+03  0.47000000000E+01 0. -1.
         -5    1    3    3    0  502 -0.13309551092E+01  0.34650746147E+02 -0.14940079087E+03  0.15344423079E+03  0.47000000000E+01 0.  1.
<mgrwt>
<rscale>  0 0.16926030E+03</rscale>
<asrwt>0</asrwt>
<pdfrwt beam="1">  1        1 0.10272822E-01 0.17142148E+03</pdfrwt>
<pdfrwt beam="2">  1       -1 0.73247604E-01 0.17142148E+03</pdfrwt>
<totfact> 0.11964420E+03</totfact>
</mgrwt>
</event>
<event>
 8    1  0.3177960E-004  0.1067787E+03  0.7546771E-02  0.1270249E+00
         -1   -1    0    0    0  501 -0.00000000000E+00  0.00000000000E+00  0.34787341439E+02  0.34787341439E+02  0.00000000000E+00 0.  1.
          1   -1    0    0  501    0  0.00000000000E+00 -0.00000000000E+00 -0.39764510412E+03  0.39764510412E+03  0.00000000000E+00 0. -1.
         23    2    1    2    0    0 -0.37333509222E+02 -0.38298784035E+02 -0.29001156495E+03  0.30904431859E+03  0.92418046289E+02 0.  0.
         23    2    1    2    0    0  0.37333509222E+02  0.38298784035E+02 -0.72846197733E+02  0.12338812697E+03  0.84008770872E+02 0.  0.
          5    1    4    4  502    0 -0.24414984695E+01  0.30176303678E+02 -0.76451889077E+02  0.82362318823E+02  0.47000000000E+01 0. -1.
         -5    1    4    4    0  502  0.39775007691E+02  0.81224803572E+01  0.36056913439E+01  0.41025808146E+02  0.47000000000E+01 0.  1.
          5    1    3    3  503    0 -0.58320211020E+02 -0.27816337757E+02 -0.11164394312E+03  0.12907926129E+03  0.47000000000E+01 0. -1.
         -5    1    3    3    0  503  0.20986701798E+02 -0.10482446277E+02 -0.17836762184E+03  0.17996505731E+03  0.47000000000E+01 0.  1.
<mgrwt>
<rscale>  0 0.10493412E+03</rscale>
<asrwt>0</asrwt>
<pdfrwt beam="1">  1        1 0.61176167E-01 0.10677866E+03</pdfrwt>
<pdfrwt beam="2">  1       -1 0.53518989E-02 0.10677866E+03</pdfrwt>
<totfact> 0.90565911E+03</totfact>
</mgrwt>
</event>
<event>
 8    1  0.3177960E-004  0.9575898E+02  0.7546771E-02  0.1290164E+00
          3   -1    0    0  501    0  0.00000000000E+00  0.00000000000E+00  0.31920498776E+03  0.31920498776E+03  0.00000000000E+00 0. -1.
         -3   -1    0    0    0  501 -0.00000000000E+00 -0.00000000000E+00 -0.30848514071E+02  0.30848514071E+02  0.00000000000E+00 0.  1.
         23    2    1    2    0    0 -0.23317145960E+02  0.46399833780E+01  0.19474479855E+03  0.21701455729E+03  0.92760782505E+02 0.  0.
         23    2    1    2    0    0  0.23317145960E+02 -0.46399833780E+01  0.93611675134E+02  0.13303894454E+03  0.91493148929E+02 0.  0.
          5    1    4    4  502    0  0.40656491135E+02  0.26448690493E+02  0.81846380752E+02  0.95254414819E+02  0.47000000000E+01 0. -1.
         -5    1    4    4    0  502 -0.17339345175E+02 -0.31088673871E+02  0.11765294382E+02  0.37784529719E+02  0.47000000000E+01 0.  1.
          5    1    3    3  503    0 -0.29719253206E+02 -0.28155788816E+02  0.35984770055E+02  0.54708099317E+02  0.47000000000E+01 0. -1.
         -5    1    3    3    0  503  0.64021072464E+01  0.32795772194E+02  0.15876002850E+03  0.16230645797E+03  0.47000000000E+01 0.  1.
<mgrwt>
<rscale>  0 0.95450635E+02</rscale>
<asrwt>0</asrwt>
<pdfrwt beam="1">  1        3 0.49108457E-01 0.95758976E+02</pdfrwt>
<pdfrwt beam="2">  1       -3 0.47459255E-02 0.95758976E+02</pdfrwt>
<totfact> 0.22017529E+03</totfact>
</mgrwt>
</event>
<event>
 8    1  0.3177960E-004  0.1311856E+03  0.7546771E-02  0.1225963E+00
         -1   -1    0    0    0  501 -0.00000000000E+00  0.00000000000E+00  0.31689599342E+03  0.31689599342E+03  0.00000000000E+00 0.  1.
          1   -1    0    0  501    0  0.00000000000E+00 -0.00000000000E+00 -0.16161965548E+03  0.16161965548E+03  0.00000000000E+00 0. -1.
         23    2    1    2    0    0  0.86553107682E+02 -0.36630451540E+02 -0.11751355088E+03  0.17612241480E+03  0.91522892907E+02 0.  0.
         23    2    1    2    0    0 -0.86553107682E+02  0.36630451540E+02  0.27278988883E+03  0.30239323410E+03  0.90521346399E+02 0.  0.
          5    1    3    3  502    0  0.51570738909E+02 -0.62735858498E+02 -0.99870903453E+02  0.12880844852E+03  0.47000000000E+01 0. -1.
         -5    1    3    3    0  502  0.34982368773E+02  0.26105406957E+02 -0.17642647428E+02  0.47313966285E+02  0.47000000000E+01 0.  1.
          5    1    4    4  503    0 -0.51671903588E+02 -0.25532640790E+02  0.14286937165E+03  0.15412867586E+03  0.47000000000E+01 0. -1.
         -5    1    4    4    0  503 -0.34881204094E+02  0.62163092330E+02  0.12992051718E+03  0.14826455824E+03  0.47000000000E+01 0.  1.
<mgrwt>
<rscale>  0 0.13101109E+03</rscale>
<asrwt>0</asrwt>
<pdfrwt beam="1">  1        1 0.24864562E-01 0.13118563E+03</pdfrwt>
<pdfrwt beam="2">  1       -1 0.48753230E-01 0.13118563E+03</pdfrwt>
<totfact> 0.82396133E+02</totfact>
</mgrwt>
</event>
<event>
 8    1  0.3177960E-004  0.1381111E+03  0.7546771E-02  0.1216026E+00
         -1   -1    0    0    0  501 -0.00000000000E+00  0.00000000000E+00  0.12564763730E+03  0.12564763730E+03  0.00000000000E+00 0.  1.
          1   -1    0    0  501    0  0.00000000000E+00 -0.00000000000E+00 -0.23015206484E+03  0.23015206484E+03  0.00000000000E+00 0. -1.
         23    2    1    2    0    0 -0.56106339871E+02  0.86808201781E+02 -0.15627693906E+03  0.20830367209E+03  0.91018420407E+02 0.  0.
         23    2    1    2    0    0  0.56106339871E+02 -0.86808201781E+02  0.51772511524E+02  0.14749603005E+03  0.91602951162E+02 0.  0.
          5    1    4    4  502    0  0.45974211167E+02 -0.66545068865E+01 -0.73589153652E+01  0.47266840276E+02  0.47000000000E+01 0. -1.
         -5    1    4    4    0  502  0.10132128704E+02 -0.80153694895E+02  0.59131426890E+02  0.10022918978E+03  0.47000000000E+01 0.  1.
          5    1    3    3  503    0  0.38674167066E+01  0.62577289478E+02 -0.38142454744E+02  0.73537819687E+02  0.47000000000E+01 0. -1.
         -5    1    3    3    0  503 -0.59973756578E+02  0.24230912303E+02 -0.11813448431E+03  0.13476585240E+03  0.47000000000E+01 0.  1.
<mgrwt>
<rscale>  0 0.13801428E+03</rscale>
<asrwt>0</asrwt>
<pdfrwt beam="1">  1        1 0.35408010E-01 0.13811114E+03</pdfrwt>
<pdfrwt beam="2">  1       -1 0.19330406E-01 0.13811114E+03</pdfrwt>
<totfact> 0.25427137E+03</totfact>
</mgrwt>
</event>
<event>
 8    1  0.3177960E-004  0.1270206E+03  0.7546771E-02  0.1237805E+00
          2   -1    0    0  501    0  0.00000000000E+00  0.00000000000E+00  0.98271051510E+02  0.98271051510E+02  0.00000000000E+00 0. -1.
         -2   -1    0    0    0  501 -0.00000000000E+00 -0.00000000000E+00 -0.22525852035E+03  0.22525852035E+03  0.00000000000E+00 0.  1.
         23    2    1    2    0    0 -0.59671897679E+02 -0.22031475323E+02  0.34736794556E+02  0.11788673841E+03  0.92975894287E+02 0.  0.
         23    2    1    2    0    0  0.59671897679E+02  0.22031475323E+02 -0.16172426340E+03  0.20564283345E+03  0.10994596993E+03 0.  0.
          5    1    4    4  502    0  0.71627183600E+02  0.39306693806E+02 -0.59514701265E+02  0.10119070745E+03  0.47000000000E+01 0. -1.
         -5    1    3    3    0  503 -0.22623504091E+02 -0.45506480654E+02  0.49767993477E+02  0.71285383450E+02  0.47000000000E+01 0.  1.
          5    1    3    3  503    0 -0.37048393587E+02  0.23475005331E+02 -0.15031198921E+02  0.46601354956E+02  0.47000000000E+01 0. -1.
         -5    1    4    4    0  502 -0.11955285921E+02 -0.17275218484E+02 -0.10220956213E+03  0.10445212600E+03  0.47000000000E+01 0.  1.
<mgrwt>
<rscale>  0 0.12326537E+03</rscale>
<asrwt>0</asrwt>
<pdfrwt beam="1">  1        2 0.15118623E-01 0.12702062E+03</pdfrwt>
<pdfrwt beam="2">  1       -2 0.34655157E-01 0.12702062E+03</pdfrwt>
<totfact> 0.28976043E+03</totfact>
</mgrwt>
</event>
<event>
 8    1  0.3177960E-004  0.9665482E+02  0.7546771E-02  0.1290095E+00
         -1   -1    0    0    0  501 -0.00000000000E+00  0.00000000000E+00  0.10210330422E+03  0.10210330422E+03  0.00000000000E+00 0.  1.
          1   -1    0    0  501    0  0.00000000000E+00 -0.00000000000E+00 -0.95800225382E+02  0.95800225382E+02  0.00000000000E+00 0. -1.
         23    2    1    2    0    0 -0.12875383750E+02 -0.20330655821E+02 -0.26442114308E+02  0.10020648917E+03  0.93611131766E+02 0.  0.
         23    2    1    2    0    0  0.12875383750E+02  0.20330655821E+02  0.32745193143E+02  0.97697040427E+02  0.88844543791E+02 0.  0.
          5    1    4    4  502    0  0.22078362113E+02 -0.31404092594E+02  0.83170806846E+01  0.39559258541E+02  0.47000000000E+01 0. -1.
         -5    1    4    4    0  502 -0.92029783626E+01  0.51734748415E+02  0.24428112458E+02  0.58137781885E+02  0.47000000000E+01 0.  1.
          5    1    3    3  503    0 -0.20836151167E+02 -0.39421533204E+02 -0.50900318627E+02  0.67831665997E+02  0.47000000000E+01 0. -1.
         -5    1    3    3    0  503  0.79607674169E+01  0.19090877383E+02  0.24458204320E+02  0.32374823176E+02  0.47000000000E+01 0.  1.
<mgrwt>
<rscale>  0 0.95481420E+02</rscale>
<asrwt>0</asrwt>
<pdfrwt beam="1">  1        1 0.14738496E-01 0.96654824E+02</pdfrwt>
<pdfrwt beam="2">  1       -1 0.15708201E-01 0.96654824E+02</pdfrwt>
<totfact> 0.10366768E+04</totfact>
</mgrwt>
</event>
<event>
 8    1  0.3177960E-004  0.1107058E+03  0.7546771E-02  0.1264927E+00
          2   -1    0    0  501    0  0.00000000000E+00  0.00000000000E+00  0.45444306391E+03  0.45444306391E+03  0.00000000000E+00 0. -1.
         -2   -1    0    0    0  501 -0.00000000000E+00 -0.00000000000E+00 -0.24766388202E+02  0.24766388202E+02  0.00000000000E+00 0.  1.
         23    2    1    2    0    0 -0.24592759873E+02 -0.27505521893E+02  0.26221270200E+03  0.28462480510E+03  0.10437634319E+03 0.  0.
         23    2    1    2    0    0  0.24592759873E+02  0.27505521893E+02  0.16746397371E+03  0.19458464701E+03  0.91965454321E+02 0.  0.
          5    1    4    4  502    0  0.17658732200E+02 -0.17177088000E+02  0.13833957227E+03  0.14059448933E+03  0.47000000000E+01 0. -1.
         -5    1    4    4    0  502  0.69340276727E+01  0.44682609894E+02  0.29124401440E+02  0.53990157676E+02  0.47000000000E+01 0.  1.
          5    1    3    3  503    0  0.38361550874E+02 -0.10000096773E+02  0.60021264038E+02  0.72085037682E+02  0.47000000000E+01 0. -1.
         -5    1    3    3    0  503 -0.62954310747E+02 -0.17505425120E+02  0.20219143796E+03  0.21253976742E+03  0.47000000000E+01 0.  1.
<mgrwt>
<rscale>  0 0.10768030E+03</rscale>
<asrwt>0</asrwt>
<pdfrwt beam="1">  1        2 0.69914311E-01 0.11070582E+03</pdfrwt>
<pdfrwt beam="2">  1       -2 0.38102139E-02 0.11070582E+03</pdfrwt>
<totfact> 0.18923299E+04</totfact>
</mgrwt>
</event>
<event>
 8    1  0.3177960E-004  0.1005071E+03  0.7546771E-02  0.1281957E+00
         -2   -1    0    0    0  501 -0.00000000000E+00  0.00000000000E+00  0.82892980592E+02  0.82892980592E+02  0.00000000000E+00 0.  1.
          2   -1    0    0  501    0  0.00000000000E+00 -0.00000000000E+00 -0.15732306352E+03  0.15732306352E+03  0.00000000000E+00 0. -1.
         23    2    1    2    0    0  0.20244709071E+02 -0.19663771778E+02 -0.99620518462E+02  0.14151300509E+03  0.96463312945E+02 0.  0.
         23    2    1    2    0    0 -0.20244709071E+02  0.19663771778E+02  0.25190435533E+02  0.98703039025E+02  0.91165891124E+02 0.  0.
          5    1    4    4  502    0 -0.40475651151E+02  0.22699663371E+02 -0.18541939080E+02  0.50194088876E+02  0.47000000000E+01 0. -1.
         -5    1    3    3    0  503  0.54788466098E+02 -0.20603862414E+02 -0.85862019026E+02  0.10402245659E+03  0.47000000000E+01 0.  1.
          5    1    3    3  503    0 -0.34543757027E+02  0.94009063578E+00 -0.13758499436E+02  0.37490548497E+02  0.47000000000E+01 0. -1.
         -5    1    4    4    0  502  0.20230942080E+02 -0.30358915926E+01  0.43732374613E+02  0.48508950149E+02  0.47000000000E+01 0.  1.
<mgrwt>
<rscale>  0 0.99214222E+02</rscale>
<asrwt>0</asrwt>
<pdfrwt beam="1">  1        2 0.24203548E-01 0.10050713E+03</pdfrwt>
<pdfrwt beam="2">  1       -2 0.12752766E-01 0.10050713E+03</pdfrwt>
<totfact> 0.91877591E+03</totfact>
</mgrwt>
</event>
<event>
 8    1  0.3177960E-004  0.9658310E+02  0.7546771E-02  0.1288358E+00
          2   -1    0    0  501    0  0.00000000000E+00  0.00000000000E+00  0.79810979966E+01  0.79810979966E+01  0.00000000000E+00 0. -1.
         -2   -1    0    0    0  501 -0.00000000000E+00 -0.00000000000E+00 -0.11902888151E+04  0.11902888151E+04  0.00000000000E+00 0.  1.
         23    2    1    2    0    0 -0.25720798469E+02  0.92014690240E+01 -0.70044395160E+03  0.70707144227E+03  0.92639455070E+02 0.  0.
         23    2    1    2    0    0  0.25720798469E+02 -0.92014690240E+01 -0.48186376546E+03  0.49119847079E+03  0.91307298339E+02 0.  0.
          5    1    4    4  502    0 -0.13065173904E+02 -0.41716369266E+02 -0.24898136780E+03  0.25283347434E+03  0.47000000000E+01 0. -1.
         -5    1    3    3    0  503  0.22615063954E+02 -0.25490694347E+02 -0.18376426757E+03  0.18695617843E+03  0.47000000000E+01 0.  1.
          5    1    3    3  503    0 -0.48335862422E+02  0.34692163371E+02 -0.51667968403E+03  0.52011526385E+03  0.47000000000E+01 0. -1.
         -5    1    4    4    0  502  0.38785972372E+02  0.32514900242E+02 -0.23288239766E+03  0.23836499645E+03  0.47000000000E+01 0.  1.
<mgrwt>
<rscale>  0 0.96262250E+02</rscale>
<asrwt>0</asrwt>
<pdfrwt beam="1">  1        2 0.12278622E-02 0.96583100E+02</pdfrwt>
<pdfrwt beam="2">  1       -2 0.18312121E+00 0.96583100E+02</pdfrwt>
<totfact> 0.18688902E+03</totfact>
</mgrwt>
</event>
<event>
 8    1  0.3177960E-004  0.1124362E+03  0.7546771E-02  0.1256539E+00
         -1   -1    0    0    0  501 -0.00000000000E+00  0.00000000000E+00  0.76344231160E+02  0.76344231160E+02  0.00000000000E+00 0.  1.
          1   -1    0    0  501    0  0.00000000000E+00 -0.00000000000E+00 -0.45827878422E+03  0.45827878422E+03  0.00000000000E+00 0. -1.
         23    2    1    2    0    0 -0.16614726500E+02 -0.66093332625E+02  0.22870126292E+02  0.11473857999E+03  0.89428861716E+02 0.  0.
         23    2    1    2    0    0  0.16614726500E+02  0.66093332625E+02 -0.40480467935E+03  0.41988443539E+03  0.88270793025E+02 0.  0.
          5    1    4    4  502    0 -0.26096373481E+02  0.33382722052E+02 -0.28875336633E+03  0.29188357852E+03  0.47000000000E+01 0. -1.
         -5    1    4    4    0  502  0.42711099981E+02  0.32710610573E+02 -0.11605131302E+03  0.12800085687E+03  0.47000000000E+01 0.  1.
          5    1    3    3  503    0 -0.22763785872E+01 -0.35694671596E+02 -0.33311435974E+02  0.49102273333E+02  0.47000000000E+01 0. -1.
         -5    1    3    3    0  503 -0.14338347913E+02 -0.30398661028E+02  0.56181562266E+02  0.65636306659E+02  0.47000000000E+01 0.  1.
<mgrwt>
<rscale>  0 0.11220577E+03</rscale>
<asrwt>0</asrwt>
<pdfrwt beam="1">  1        1 0.70504429E-01 0.11243620E+03</pdfrwt>
<pdfrwt beam="2">  1       -1 0.11745266E-01 0.11243620E+03</pdfrwt>
<totfact> 0.23346435E+03</totfact>
</mgrwt>
</event>
<event>
 8    1  0.3177960E-004  0.1926182E+03  0.7546771E-02  0.1158330E+00
         -2   -1    0    0    0  501 -0.00000000000E+00  0.00000000000E+00  0.18551327195E+03  0.18551327195E+03  0.00000000000E+00 0.  1.
          2   -1    0    0  501    0  0.00000000000E+00 -0.00000000000E+00 -0.29941024610E+03  0.29941024610E+03  0.00000000000E+00 0. -1.
         23    2    1    2    0    0  0.15433873195E+03 -0.38383230995E+02 -0.20251929898E+03  0.27289598298E+03  0.90357260162E+02 0.  0.
         23    2    1    2    0    0 -0.15433873195E+03  0.38383230995E+02  0.88622324828E+02  0.21202753508E+03  0.10866481754E+03 0.  0.
          5    1    4    4  502    0  0.23182567611E+01  0.25906153307E+02 -0.78424565977E+01  0.27569860701E+02  0.47000000000E+01 0. -1.
         -5    1    4    4    0  502 -0.15665698871E+03  0.12477077687E+02  0.96464781426E+02  0.18445767438E+03  0.47000000000E+01 0.  1.
          5    1    3    3  503    0  0.12475609020E+03 -0.74630267450E+01 -0.94933144601E+02  0.15701646651E+03  0.47000000000E+01 0. -1.
         -5    1    3    3    0  503  0.29582641753E+02 -0.30920204250E+02 -0.10758615438E+03  0.11587951647E+03  0.47000000000E+01 0.  1.
<mgrwt>
<rscale>  0 0.19014534E+03</rscale>
<asrwt>0</asrwt>
<pdfrwt beam="1">  1        2 0.46063115E-01 0.19261817E+03</pdfrwt>
<pdfrwt beam="2">  1       -2 0.28540503E-01 0.19261817E+03</pdfrwt>
<totfact> 0.12202239E+03</totfact>
</mgrwt>
</event>
<event>
 8    1  0.3177960E-004  0.1317305E+03  0.7546771E-02  0.1238685E+00
         -1   -1    0    0    0  501 -0.00000000000E+00  0.00000000000E+00  0.58067132771E+02  0.58067132771E+02  0.00000000000E+00 0.  1.
          1   -1    0    0  501    0  0.00000000000E+00 -0.00000000000E+00 -0.26241019032E+03  0.26241019032E+03  0.00000000000E+00 0. -1.
         23    2    1    2    0    0 -0.26771038336E+02  0.32144703300E+02 -0.17092598467E+03  0.21579763411E+03  0.12491179370E+03 0.  0.
         23    2    1    2    0    0  0.26771038336E+02 -0.32144703300E+02 -0.33417072879E+02  0.10467968899E+03  0.89950909294E+02 0.  0.
          5    1    4    4  502    0  0.86704532913E+01 -0.62333643358E+02 -0.15893572982E+02  0.65079609070E+02  0.47000000000E+01 0. -1.
         -5    1    3    3    0  503  0.11471579685E+02  0.68809899236E+02 -0.57516183567E+02  0.90535080193E+02  0.47000000000E+01 0.  1.
          5    1    3    3  503    0 -0.38242618021E+02 -0.36665195937E+02 -0.11340980111E+03  0.12526255391E+03  0.47000000000E+01 0.  1.
         -5    1    4    4    0  502  0.18100585045E+02  0.30188940058E+02 -0.17523499896E+02  0.39600079917E+02  0.47000000000E+01 0.  1.
<mgrwt>
<rscale>  0 0.12271437E+03</rscale>
<asrwt>0</asrwt>
<pdfrwt beam="1">  1        1 0.40370799E-01 0.13173051E+03</pdfrwt>
<pdfrwt beam="2">  1       -1 0.89334049E-02 0.13173051E+03</pdfrwt>
<totfact> 0.71565891E+03</totfact>
</mgrwt>
</event>
<event>
 8    1  0.3177960E-004  0.1013365E+03  0.7546771E-02  0.1279944E+00
          2   -1    0    0  501    0  0.00000000000E+00  0.00000000000E+00  0.58003038174E+02  0.58003038174E+02  0.00000000000E+00 0. -1.
         -2   -1    0    0    0  501 -0.00000000000E+00 -0.00000000000E+00 -0.17970269349E+03  0.17970269349E+03  0.00000000000E+00 0.  1.
         23    2    1    2    0    0 -0.28111326569E+02 -0.90895572996E+01 -0.91033209876E+02  0.13622087261E+03  0.96934070903E+02 0.  0.
         23    2    1    2    0    0  0.28111326569E+02  0.90895572996E+01 -0.30666445445E+02  0.10148485906E+03  0.92118830908E+02 0.  0.
          5    1    4    4  502    0 -0.32530753542E+02  0.82779206259E+00 -0.23969948525E-01  0.32878955887E+02  0.47000000000E+01 0. -1.
         -5    1    4    4    0  502  0.60642080110E+02  0.82617652371E+01 -0.30642475497E+02  0.68605903168E+02  0.47000000000E+01 0.  1.
          5    1    3    3  503    0  0.31710296635E+01 -0.49373212512E+02 -0.51023793922E+02  0.71227010951E+02  0.47000000000E+01 0. -1.
         -5    1    3    3    0  503 -0.31282356232E+02  0.40283655213E+02 -0.40009415954E+02  0.64993861662E+02  0.47000000000E+01 0.  1.
<mgrwt>
<rscale>  0 0.10016743E+03</rscale>
<asrwt>0</asrwt>
<pdfrwt beam="1">  1        2 0.89235443E-02 0.10133647E+03</pdfrwt>
<pdfrwt beam="2">  1       -2 0.27646568E-01 0.10133647E+03</pdfrwt>
<totfact> 0.80591971E+03</totfact>
</mgrwt>
</event>
<event>
 8    1  0.3177960E-004  0.1114244E+03  0.7546771E-02  0.1258066E+00
         -4   -1    0    0    0  501 -0.00000000000E+00  0.00000000000E+00  0.13504837028E+04  0.13504837028E+04  0.00000000000E+00 0.  1.
          4   -1    0    0  501    0  0.00000000000E+00 -0.00000000000E+00 -0.13356660222E+02  0.13356660222E+02  0.00000000000E+00 0. -1.
         23    2    1    2    0    0 -0.61832953095E+02  0.10741925187E+02  0.28742525422E+03  0.30826721001E+03  0.92068957619E+02 0.  0.
         23    2    1    2    0    0  0.61832953095E+02 -0.10741925187E+02  0.10497017884E+04  0.10555731530E+04  0.91772184450E+02 0.  0.
          5    1    4    4  502    0  0.15801982291E+01  0.34884063350E+02  0.30317970201E+03  0.30522027556E+03  0.47000000000E+01 0. -1.
         -5    1    4    4    0  502  0.60252754866E+02 -0.45625988538E+02  0.74652208638E+03  0.75035287749E+03  0.47000000000E+01 0.  1.
          5    1    3    3  503    0 -0.85387760276E+02  0.72887579466E+01  0.20236399723E+03  0.21981235856E+03  0.47000000000E+01 0. -1.
         -5    1    3    3    0  503  0.23554807180E+02  0.34531672409E+01  0.85061256989E+02  0.88454851455E+02  0.47000000000E+01 0.  1.
<mgrwt>
<rscale>  0 0.11136307E+03</rscale>
<asrwt>0</asrwt>
<pdfrwt beam="1">  1        4 0.20548719E-02 0.11142440E+03</pdfrwt>
<pdfrwt beam="2">  1       -4 0.20776661E+00 0.11142440E+03</pdfrwt>
<totfact> 0.20681345E+02</totfact>
</mgrwt>
</event>
<event>
 8    1  0.3177960E-004  0.1013354E+03  0.7546771E-02  0.1278592E+00
          1   -1    0    0  501    0  0.00000000000E+00  0.00000000000E+00  0.57703124428E+03  0.57703124428E+03  0.00000000000E+00 0. -1.
         -1   -1    0    0    0  501 -0.00000000000E+00 -0.00000000000E+00 -0.19429374420E+02  0.19429374420E+02  0.00000000000E+00 0.  1.
         23    2    1    2    0    0 -0.21310600235E+01 -0.42727332948E+02  0.18067703326E+03  0.20615151196E+03  0.89577280254E+02 0.  0.
         23    2    1    2    0    0  0.21310600235E+01  0.42727332948E+02  0.37692483660E+03  0.39030910674E+03  0.91862396881E+02 0.  0.
          5    1    3    3  502    0  0.42658295225E+02 -0.24247994966E+02  0.10749446454E+03  0.11825753810E+03  0.47000000000E+01 0. -1.
         -5    1    3    3    0  502 -0.44789355248E+02 -0.18479337982E+02  0.73182568719E+02  0.87893973856E+02  0.47000000000E+01 0.  1.
          5    1    4    4  503    0 -0.13446769131E+02  0.62105374551E+02  0.33750411930E+03  0.34346617547E+03  0.47000000000E+01 0. -1.
         -5    1    4    4    0  503  0.15577829155E+02 -0.19378041603E+02  0.39420717308E+02  0.46842931277E+02  0.47000000000E+01 0.  1.
<mgrwt>
<rscale>  0 0.10081471E+03</rscale>
<asrwt>0</asrwt>
<pdfrwt beam="1">  1        1 0.88774025E-01 0.10133542E+03</pdfrwt>
<pdfrwt beam="2">  1       -1 0.29891350E-02 0.10133542E+03</pdfrwt>
<totfact> 0.13071911E+04</totfact>
</mgrwt>
</event>
<event>
 8    1  0.3177960E-004  0.9893113E+02  0.7546771E-02  0.1282596E+00
          4   -1    0    0  501    0  0.00000000000E+00  0.00000000000E+00  0.82613286570E+02  0.82613286570E+02  0.00000000000E+00 0. -1.
         -4   -1    0    0    0  501 -0.00000000000E+00 -0.00000000000E+00 -0.12873203872E+03  0.12873203872E+03  0.00000000000E+00 0.  1.
         23    2    1    2    0    0 -0.30615659414E+02 -0.23452390240E+02  0.68974401396E+01  0.99104129449E+02  0.91031426354E+02 0.  0.
         23    2    1    2    0    0  0.30615659414E+02  0.23452390240E+02 -0.53016192292E+02  0.11224119584E+03  0.91104534408E+02 0.  0.
          5    1    4    4  502    0 -0.16878134600E+02 -0.22046290252E+02 -0.32892535211E+02  0.43300337343E+02  0.47000000000E+01 0. -1.
         -5    1    3    3    0  503  0.27934468939E+02  0.10670716174E+02 -0.31523406873E+01  0.30433961135E+02  0.47000000000E+01 0.  1.
          5    1    3    3  503    0 -0.58550128354E+02 -0.34123106414E+02  0.10049780827E+02  0.68670168314E+02  0.47000000000E+01 0. -1.
         -5    1    4    4    0  502  0.47493794014E+02  0.45498680492E+02 -0.20123657082E+02  0.68940858500E+02  0.47000000000E+01 0.  1.
<mgrwt>
<rscale>  0 0.98914300E+02</rscale>
<asrwt>0</asrwt>
<pdfrwt beam="1">  1        4 0.12709736E-01 0.98931135E+02</pdfrwt>
<pdfrwt beam="2">  1       -4 0.19804929E-01 0.98931135E+02</pdfrwt>
<totfact> 0.17622983E+03</totfact>
</mgrwt>
</event>
<event>
 8    1  0.3177960E-004  0.2538098E+03  0.7546771E-02  0.1111161E+00
         -1   -1    0    0    0  501 -0.00000000000E+00  0.00000000000E+00  0.33200246662E+03  0.33200246662E+03  0.00000000000E+00 0.  1.
          1   -1    0    0  501    0  0.00000000000E+00 -0.00000000000E+00 -0.20052117591E+03  0.20052117591E+03  0.00000000000E+00 0. -1.
         23    2    1    2    0    0  0.12735761555E+03 -0.19611163973E+03  0.13475828018E+02  0.25262241254E+03  0.94640096685E+02 0.  0.
         23    2    1    2    0    0 -0.12735761555E+03  0.19611163973E+03  0.11800546269E+03  0.27990122998E+03  0.98689775788E+02 0.  0.
          5    1    4    4  502    0 -0.30232643305E+00  0.84228720216E+02  0.35754819644E+02  0.91624591886E+02  0.47000000000E+01 0. -1.
         -5    1    4    4    0  502 -0.12705528912E+03  0.11188291951E+03  0.82250643048E+02  0.18827663810E+03  0.47000000000E+01 0.  1.
          5    1    3    3  503    0  0.50359685253E+02 -0.23189543873E+02 -0.22264615086E+02  0.59930425735E+02  0.47000000000E+01 0. -1.
         -5    1    3    3    0  503  0.76997930296E+02 -0.17292209586E+03  0.35740443103E+02  0.19269198680E+03  0.47000000000E+01 0.  1.
<mgrwt>
<rscale>  0 0.25342214E+03</rscale>
<asrwt>0</asrwt>
<pdfrwt beam="1">  1        1 0.30849412E-01 0.25380979E+03</pdfrwt>
<pdfrwt beam="2">  1       -1 0.51077303E-01 0.25380979E+03</pdfrwt>
<totfact> 0.57906649E+02</totfact>
</mgrwt>
</event>
<event>
 8    1  0.3177960E-004  0.9214438E+02  0.7546771E-02  0.1297780E+00
          3   -1    0    0  501    0  0.00000000000E+00  0.00000000000E+00  0.24090375342E+02  0.24090375342E+02  0.00000000000E+00 0. -1.
         -3   -1    0    0    0  501 -0.00000000000E+00 -0.00000000000E+00 -0.35233152995E+03  0.35233152995E+03  0.00000000000E+00 0.  1.
         23    2    1    2    0    0  0.38360452001E+01 -0.13404569019E+02 -0.16038197229E+03  0.18496746555E+03  0.91083415411E+02 0.  0.
         23    2    1    2    0    0 -0.38360452001E+01  0.13404569019E+02 -0.16785918233E+03  0.19145443975E+03  0.91014832281E+02 0.  0.
          5    1    3    3  502    0 -0.27237674116E+02  0.28281018343E+02 -0.77688998640E+02  0.87174407939E+02  0.47000000000E+01 0. -1.
         -5    1    3    3    0  502  0.31073719316E+02 -0.41685587362E+02 -0.82692973647E+02  0.97793057608E+02  0.47000000000E+01 0.  1.
          5    1    4    4  503    0 -0.34404923109E+01  0.39184765493E+02 -0.26442159194E+02  0.47629409160E+02  0.47000000000E+01 0. -1.
         -5    1    4    4    0  503 -0.39555288917E+00 -0.25780196475E+02 -0.14141702313E+03  0.14382503059E+03  0.47000000000E+01 0.  1.
<mgrwt>
<rscale>  0 0.92127424E+02</rscale>
<asrwt>0</asrwt>
<pdfrwt beam="1">  1        3 0.37062116E-02 0.92144377E+02</pdfrwt>
<pdfrwt beam="2">  1       -3 0.54204851E-01 0.92144377E+02</pdfrwt>
<totfact> 0.26355795E+03</totfact>
</mgrwt>
</event>
<event>
 8    1  0.3177960E-004  0.9661322E+02  0.7546771E-02  0.1289094E+00
         -2   -1    0    0    0  501 -0.00000000000E+00  0.00000000000E+00  0.19692258888E+03  0.19692258888E+03  0.00000000000E+00 0.  1.
          2   -1    0    0  501    0  0.00000000000E+00 -0.00000000000E+00 -0.46112279803E+02  0.46112279803E+02  0.00000000000E+00 0. -1.
         23    2    1    2    0    0  0.27737693814E+02 -0.24112352326E+01  0.71315254952E+02  0.11792061023E+03  0.89689525672E+02 0.  0.
         23    2    1    2    0    0 -0.27737693814E+02  0.24112352326E+01  0.79495054120E+02  0.12511425845E+03  0.92514433054E+02 0.  0.
          5    1    3    3  502    0  0.23740353694E+02  0.42316090391E+02  0.36042011613E+02  0.60624850520E+02  0.47000000000E+01 0. -1.
         -5    1    3    3    0  502  0.39973401206E+01 -0.44727325623E+02  0.35273243339E+02  0.57295759713E+02  0.47000000000E+01 0.  1.
          5    1    4    4  503    0  0.22416090254E+02 -0.17984583927E+01  0.70009742814E+02  0.73682899262E+02  0.47000000000E+01 0. -1.
         -5    1    4    4    0  503 -0.50153784069E+02  0.42096936253E+01  0.94853113059E+01  0.51431359183E+02  0.47000000000E+01 0.  1.
<mgrwt>
<rscale>  0 0.95930636E+02</rscale>
<asrwt>0</asrwt>
<pdfrwt beam="1">  1        2 0.70941970E-02 0.96613219E+02</pdfrwt>
<pdfrwt beam="2">  1       -2 0.30295782E-01 0.96613219E+02</pdfrwt>
<totfact> 0.90727544E+03</totfact>
</mgrwt>
</event>
<event>
 8    1  0.3177960E-004  0.9581176E+02  0.7546771E-02  0.1293403E+00
          1   -1    0    0  501    0  0.00000000000E+00  0.00000000000E+00  0.55258119456E+03  0.55258119456E+03  0.00000000000E+00 0. -1.
         -1   -1    0    0    0  501 -0.00000000000E+00 -0.00000000000E+00 -0.18863717648E+02  0.18863717648E+02  0.00000000000E+00 0.  1.
         23    2    1    2    0    0 -0.28039452620E+02 -0.15801306827E+02  0.38053130888E+03  0.39076316175E+03  0.82800237573E+02 0.  0.
         23    2    1    2    0    0  0.28039452620E+02  0.15801306827E+02  0.15318616804E+03  0.18068175046E+03  0.90244117105E+02 0.  0.
          5    1    4    4  502    0  0.41382723385E+02  0.40206516843E+02  0.13559983553E+03  0.14743981548E+03  0.47000000000E+01 0. -1.
         -5    1    4    4    0  502 -0.13343270765E+02 -0.24405210017E+02  0.17586332502E+02  0.33241934985E+02  0.47000000000E+01 0.  1.
          5    1    3    3  503    0 -0.24534799690E+02  0.29053424061E+02  0.24249726963E+03  0.24550575069E+03  0.47000000000E+01 0. -1.
         -5    1    3    3    0  503 -0.35046529302E+01 -0.44854730888E+02  0.13803403925E+03  0.14525741106E+03  0.47000000000E+01 0.  1.
<mgrwt>
<rscale>  0 0.94017980E+02</rscale>
<asrwt>0</asrwt>
<pdfrwt beam="1">  1        1 0.85012479E-01 0.95811757E+02</pdfrwt>
<pdfrwt beam="2">  1       -1 0.29021108E-02 0.95811757E+02</pdfrwt>
<totfact> 0.14376406E+04</totfact>
</mgrwt>
</event>
<event>
 8    1  0.3177960E-004  0.1127748E+03  0.7546771E-02  0.1255841E+00
          1   -1    0    0  501    0  0.00000000000E+00  0.00000000000E+00  0.29086856792E+03  0.29086856792E+03  0.00000000000E+00 0. -1.
         -1   -1    0    0    0  501 -0.00000000000E+00 -0.00000000000E+00 -0.54280803353E+02  0.54280803353E+02  0.00000000000E+00 0.  1.
         23    2    1    2    0    0  0.47477223614E+02 -0.47189303384E+02  0.19509509958E+03  0.22498369845E+03  0.89859053934E+02 0.  0.
         23    2    1    2    0    0 -0.47477223614E+02  0.47189303384E+02  0.41492664995E+02  0.12016567283E+03  0.90759189956E+02 0.  0.
          5    1    3    3  502    0  0.34656112453E+02  0.18042421373E+02  0.11044488525E+03  0.11724648301E+03  0.47000000000E+01 0. -1.
         -5    1    3    3    0  502  0.12821111161E+02 -0.65231724757E+02  0.84650214322E+02  0.10773721544E+03  0.47000000000E+01 0.  1.
          5    1    4    4  503    0 -0.97728732797E+01  0.54976265924E+02  0.55556938456E+02  0.78908569102E+02  0.47000000000E+01 0. -1.
         -5    1    4    4    0  503 -0.37704350334E+02 -0.77869625400E+01 -0.14064273461E+02  0.41257103724E+02  0.47000000000E+01 0.  1.
<mgrwt>
<rscale>  0 0.11259354E+03</rscale>
<asrwt>0</asrwt>
<pdfrwt beam="1">  1        1 0.44749009E-01 0.11277477E+03</pdfrwt>
<pdfrwt beam="2">  1       -1 0.83508930E-02 0.11277477E+03</pdfrwt>
<totfact> 0.69047823E+03</totfact>
</mgrwt>
</event>
<event>
 8    1  0.3177960E-004  0.9359008E+02  0.7546771E-02  0.1298299E+00
          1   -1    0    0  501    0  0.00000000000E+00  0.00000000000E+00  0.75675545129E+03  0.75675545129E+03  0.00000000000E+00 0. -1.
         -1   -1    0    0    0  501 -0.00000000000E+00 -0.00000000000E+00 -0.10778881208E+02  0.10778881208E+02  0.00000000000E+00 0.  1.
         23    2    1    2    0    0 -0.76983507761E+01 -0.59611549398E+01  0.38972772091E+03  0.40080768414E+03  0.93082239193E+02 0.  0.
         23    2    1    2    0    0  0.76983507761E+01  0.59611549398E+01  0.35624884918E+03  0.36672664836E+03  0.86489260036E+02 0.  0.
          5    1    4    4  502    0 -0.29435439785E+02  0.29599384403E+02  0.14939108470E+03  0.15518490539E+03  0.47000000000E+01 0. -1.
         -5    1    4    4    0  502  0.37133790561E+02 -0.23638229463E+02  0.20685776448E+03  0.21154174297E+03  0.47000000000E+01 0.  1.
          5    1    3    3  503    0 -0.19041707779E+02 -0.44166511560E+02  0.27620693873E+03  0.28040262192E+03  0.47000000000E+01 0. -1.
         -5    1    3    3    0  503  0.11343357003E+02  0.38205356620E+02  0.11352078218E+03  0.12040506222E+03  0.47000000000E+01 0.  1.
<mgrwt>
<rscale>  0 0.91906573E+02</rscale>
<asrwt>0</asrwt>
<pdfrwt beam="1">  1        1 0.11642387E+00 0.93590081E+02</pdfrwt>
<pdfrwt beam="2">  1       -1 0.16582900E-02 0.93590081E+02</pdfrwt>
<totfact> 0.20740253E+04</totfact>
</mgrwt>
</event>
<event>
 8    1  0.3177960E-004  0.9855004E+02  0.7546771E-02  0.1285779E+00
          2   -1    0    0  501    0  0.00000000000E+00  0.00000000000E+00  0.19982076470E+02  0.19982076470E+02  0.00000000000E+00 0. -1.
         -2   -1    0    0    0  501 -0.00000000000E+00 -0.00000000000E+00 -0.73018241290E+03  0.73018241290E+03  0.00000000000E+00 0.  1.
         23    2    1    2    0    0  0.22349094006E+02  0.64547677195E+00 -0.57609934276E+03  0.58374578226E+03  0.91481074169E+02 0.  0.
         23    2    1    2    0    0 -0.22349094006E+02 -0.64547677195E+00 -0.13410099367E+03  0.16641870711E+03  0.95980263236E+02 0.  0.
          5    1    3    3  502    0 -0.27024312017E+02 -0.20474292097E+02 -0.13115488265E+03  0.13554778980E+03  0.47000000000E+01 0. -1.
         -5    1    4    4    0  503 -0.92208891336E+01  0.18806534455E+02 -0.14010784198E+03  0.14174275261E+03  0.47000000000E+01 0.  1.
          5    1    4    4  503    0 -0.13128204872E+02 -0.19452011227E+02  0.60068483075E+01  0.24675954501E+02  0.47000000000E+01 0. -1.
         -5    1    3    3    0  502  0.49373406023E+02  0.21119768869E+02 -0.44494446011E+03  0.44819799245E+03  0.47000000000E+01 0.  1.
<mgrwt>
<rscale>  0 0.97437245E+02</rscale>
<asrwt>0</asrwt>
<pdfrwt beam="1">  1        2 0.30741657E-02 0.98550036E+02</pdfrwt>
<pdfrwt beam="2">  1       -2 0.11233575E+00 0.98550036E+02</pdfrwt>
<totfact> 0.18497054E+03</totfact>
</mgrwt>
</event>
<event>
 8    1  0.3177960E-004  0.9418645E+02  0.7546771E-02  0.1293463E+00
         -1   -1    0    0    0  501 -0.00000000000E+00  0.00000000000E+00  0.16895297417E+03  0.16895297417E+03  0.00000000000E+00 0.  1.
          1   -1    0    0  501    0  0.00000000000E+00 -0.00000000000E+00 -0.99861202851E+02  0.99861202851E+02  0.00000000000E+00 0. -1.
         23    2    1    2    0    0 -0.47835611491E+01  0.19313210909E+02 -0.58356455405E+02  0.11079965558E+03  0.92060877777E+02 0.  0.
         23    2    1    2    0    0  0.47835611491E+01 -0.19313210909E+02  0.12744822672E+03  0.15801452144E+03  0.91266948658E+02 0.  0.
          5    1    4    4  502    0  0.20223623343E+02 -0.52526702588E+02  0.77572179342E+02  0.95956148493E+02  0.47000000000E+01 0. -1.
         -5    1    3    3    0  503 -0.32438025754E+02 -0.24988184063E+02 -0.19865311258E+02  0.45753201516E+02  0.47000000000E+01 0.  1.
          5    1    3    3  503    0  0.27654464605E+02  0.44301394971E+02 -0.38491144146E+02  0.65046454067E+02  0.47000000000E+01 0. -1.
         -5    1    4    4    0  502 -0.15440062194E+02  0.33213491679E+02  0.49876047382E+02  0.62058372944E+02  0.47000000000E+01 0.  1.
<mgrwt>
<rscale>  0 0.93991885E+02</rscale>
<asrwt>0</asrwt>
<pdfrwt beam="1">  1        1 0.15363262E-01 0.94186452E+02</pdfrwt>
<pdfrwt beam="2">  1       -1 0.25992765E-01 0.94186452E+02</pdfrwt>
<totfact> 0.43966735E+03</totfact>
</mgrwt>
</event>
<event>
 8    1  0.3177960E-004  0.1306739E+03  0.7546771E-02  0.1226677E+00
         -1   -1    0    0    0  501 -0.00000000000E+00  0.00000000000E+00  0.23948391569E+02  0.23948391569E+02  0.00000000000E+00 0.  1.
          1   -1    0    0  501    0  0.00000000000E+00 -0.00000000000E+00 -0.71055544189E+03  0.71055544189E+03  0.00000000000E+00 0. -1.
         23    2    1    2    0    0  0.51818405520E+02 -0.75065170948E+02 -0.35606350482E+03  0.37928471848E+03  0.93572170906E+02 0.  0.
         23    2    1    2    0    0 -0.51818405520E+02  0.75065170948E+02 -0.33054354550E+03  0.35521911498E+03  0.92745119191E+02 0.  0.
          5    1    3    3  502    0  0.73060181714E+02 -0.79771986620E+02 -0.30170643591E+03  0.32054675708E+03  0.47000000000E+01 0. -1.
         -5    1    4    4    0  503 -0.75784283877E+02  0.71697352030E+02 -0.24850479465E+03  0.26955609979E+03  0.47000000000E+01 0.  1.
          5    1    4    4  503    0  0.23965878357E+02  0.33678189178E+01 -0.82038750856E+02  0.85663015192E+02  0.47000000000E+01 0. -1.
         -5    1    3    3    0  502 -0.21241776194E+02  0.47068156722E+01 -0.54357068906E+02  0.58737961402E+02  0.47000000000E+01 0.  1.
<mgrwt>
<rscale>  0 0.13052595E+03</rscale>
<asrwt>0</asrwt>
<pdfrwt beam="1">  1        1 0.10931621E+00 0.13067394E+03</pdfrwt>
<pdfrwt beam="2">  1       -1 0.36843683E-02 0.13067394E+03</pdfrwt>
<totfact> 0.73674169E+03</totfact>
</mgrwt>
</event>
<event>
 8    1  0.3177960E-004  0.2051773E+03  0.7546771E-02  0.1145635E+00
         -2   -1    0    0    0  501 -0.00000000000E+00  0.00000000000E+00  0.38114588339E+02  0.38114588339E+02  0.00000000000E+00 0.  1.
          2   -1    0    0  501    0  0.00000000000E+00 -0.00000000000E+00 -0.15926824302E+04  0.15926824302E+04  0.00000000000E+00 0. -1.
         23    2    1    2    0    0  0.67459611351E+02  0.17043225781E+03 -0.32228301360E+03  0.38154778985E+03  0.90080083378E+02 0.  0.
         23    2    1    2    0    0 -0.67459611351E+02 -0.17043225781E+03 -0.12322848282E+04  0.12492492286E+04  0.92194271749E+02 0.  0.
          5    1    3    3  502    0  0.52511413923E+02  0.35668019425E+02 -0.14459628608E+03  0.15798681005E+03  0.47000000000E+01 0. -1.
         -5    1    4    4    0  503 -0.51088842040E+02 -0.22392496637E+02 -0.36048221387E+03  0.36480270038E+03  0.47000000000E+01 0.  1.
          5    1    4    4  503    0 -0.16370769311E+02 -0.14803976117E+03 -0.87180261435E+03  0.88444652827E+03  0.47000000000E+01 0. -1.
         -5    1    3    3    0  502  0.14948197428E+02  0.13476423838E+03 -0.17768672752E+03  0.22356097980E+03  0.47000000000E+01 0.  1.
<mgrwt>
<rscale>  0 0.20494161E+03</rscale>
<asrwt>0</asrwt>
<pdfrwt beam="1">  1        2 0.24502803E+00 0.20517733E+03</pdfrwt>
<pdfrwt beam="2">  1       -2 0.58637837E-02 0.20517733E+03</pdfrwt>
<totfact> 0.18718424E+03</totfact>
</mgrwt>
</event>
<event>
 8    1  0.3177960E-004  0.9341427E+02  0.7546771E-02  0.1295457E+00
          1   -1    0    0  501    0  0.00000000000E+00  0.00000000000E+00  0.77406948671E+03  0.77406948671E+03  0.00000000000E+00 0. -1.
         -1   -1    0    0    0  501 -0.00000000000E+00 -0.00000000000E+00 -0.15258417411E+02  0.15258417411E+02  0.00000000000E+00 0.  1.
         23    2    1    2    0    0 -0.13424200937E+02  0.53973763633E+01  0.58286126997E+03  0.59011807245E+03  0.91119364318E+02 0.  0.
         23    2    1    2    0    0  0.13424200937E+02 -0.53973763633E+01  0.17594979933E+03  0.19920983168E+03  0.92286967171E+02 0.  0.
          5    1    4    4  502    0  0.16825090278E+02 -0.40069491598E+02  0.14793615528E+03  0.15425901549E+03  0.47000000000E+01 0. -1.
         -5    1    4    4    0  502 -0.34008893407E+01  0.34672115234E+02  0.28013644050E+02  0.44950816189E+02  0.47000000000E+01 0.  1.
          5    1    3    3  503    0 -0.12330346582E+02 -0.38326015408E+02  0.39963408668E+03  0.40168447087E+03  0.47000000000E+01 0. -1.
         -5    1    3    3    0  503 -0.10938543551E+01  0.43723391771E+02  0.18322718329E+03  0.18843360157E+03  0.47000000000E+01 0.  1.
<mgrwt>
<rscale>  0 0.93124588E+02</rscale>
<asrwt>0</asrwt>
<pdfrwt beam="1">  1        1 0.11908758E+00 0.93414266E+02</pdfrwt>
<pdfrwt beam="2">  1       -1 0.23474494E-02 0.93414266E+02</pdfrwt>
<totfact> 0.12216475E+04</totfact>
</mgrwt>
</event>
<event>
 8    1  0.3177960E-004  0.1057430E+03  0.7546771E-02  0.1270561E+00
         -2   -1    0    0    0  501 -0.00000000000E+00  0.00000000000E+00  0.32871298439E+02  0.32871298439E+02  0.00000000000E+00 0. -1.
          2   -1    0    0  501    0  0.00000000000E+00 -0.00000000000E+00 -0.67666259286E+03  0.67666259286E+03  0.00000000000E+00 0.  1.
         23    2    1    2    0    0 -0.64614963168E+01 -0.47677059932E+02 -0.57366755557E+03  0.58265238326E+03  0.89858123901E+02 0.  0.
         23    2    1    2    0    0  0.64614963168E+01  0.47677059932E+02 -0.70123738855E+02  0.12688150804E+03  0.94163290900E+02 0.  0.
          5    1    4    4  502    0 -0.69948401042E+01  0.74638416705E+02 -0.46951163963E+02  0.88579471853E+02  0.47000000000E+01 0. -1.
         -5    1    4    4    0  502  0.13456336421E+02 -0.26961356773E+02 -0.23172574892E+02  0.38302036186E+02  0.47000000000E+01 0.  1.
          5    1    3    3  503    0 -0.32560209751E+02  0.67370052859E+00 -0.89546274400E+02  0.95400452779E+02  0.47000000000E+01 0. -1.
         -5    1    3    3    0  503  0.26098713434E+02 -0.48350760460E+02 -0.48412128117E+03  0.48725193048E+03  0.47000000000E+01 0.  1.
<mgrwt>
<rscale>  0 0.10477608E+03</rscale>
<asrwt>0</asrwt>
<pdfrwt beam="1">  1        2 0.10410193E+00 0.10574298E+03</pdfrwt>
<pdfrwt beam="2">  1       -2 0.50571234E-02 0.10574298E+03</pdfrwt>
<totfact> 0.79575915E+03</totfact>
</mgrwt>
</event>
<event>
 8    1  0.3177960E-004  0.1179694E+03  0.7546771E-02  0.1246659E+00
          1   -1    0    0  501    0  0.00000000000E+00  0.00000000000E+00  0.17444895879E+03  0.17444895879E+03  0.00000000000E+00 0. -1.
         -1   -1    0    0    0  501 -0.00000000000E+00 -0.00000000000E+00 -0.87222520063E+02  0.87222520063E+02  0.00000000000E+00 0.  1.
         23    2    1    2    0    0 -0.12631927247E+02 -0.74749206779E+02  0.82481746263E+02  0.14360670709E+03  0.89847862276E+02 0.  0.
         23    2    1    2    0    0  0.12631927247E+02  0.74749206779E+02  0.47446924625E+01  0.11806477176E+03  0.90386772947E+02 0.  0.
          5    1    3    3  502    0  0.38040404148E+02 -0.34219417070E+02  0.26678715970E+02  0.57895463882E+02  0.47000000000E+01 0. -1.
         -5    1    3    3    0  502 -0.50672331395E+02 -0.40529789709E+02  0.55803030294E+02  0.85711243211E+02  0.47000000000E+01 0.  1.
          5    1    4    4  503    0 -0.20189420046E+02  0.48094829070E+02 -0.32404302529E+02  0.61586151750E+02  0.47000000000E+01 0.  1.
         -5    1    4    4    0  503  0.32821347293E+02  0.26654377709E+02  0.37148994991E+02  0.56478620009E+02  0.47000000000E+01 0. -1.
<mgrwt>
<rscale>  0 0.11786616E+03</rscale>
<asrwt>0</asrwt>
<pdfrwt beam="1">  1        1 0.26838301E-01 0.11796940E+03</pdfrwt>
<pdfrwt beam="2">  1       -1 0.13418849E-01 0.11796940E+03</pdfrwt>
<totfact> 0.63130730E+03</totfact>
</mgrwt>
</event>
<event>
 8    1  0.3177960E-004  0.1003637E+03  0.7546771E-02  0.1280522E+00
          2   -1    0    0  501    0  0.00000000000E+00  0.00000000000E+00  0.52666047736E+02  0.52666047736E+02  0.00000000000E+00 0. -1.
         -2   -1    0    0    0  501 -0.00000000000E+00 -0.00000000000E+00 -0.19206851907E+03  0.19206851907E+03  0.00000000000E+00 0.  1.
         23    2    1    2    0    0 -0.36105483466E+02 -0.82092845008E+01 -0.88777693114E+02  0.13399381511E+03  0.93283789615E+02 0.  0.
         23    2    1    2    0    0  0.36105483466E+02  0.82092845008E+01 -0.50624778220E+02  0.11074075169E+03  0.91266903244E+02 0.  0.
          5    1    3    3  502    0  0.15476187260E+02 -0.32807078642E+02 -0.58909695376E+02  0.69341610815E+02  0.47000000000E+01 0. -1.
         -5    1    4    4    0  503  0.38450749793E+02  0.39344391864E+02 -0.56078999910E+02  0.78698065807E+02  0.47000000000E+01 0.  1.
          5    1    4    4  503    0 -0.23452663278E+01 -0.31135107363E+02  0.54542216898E+01  0.32042685888E+02  0.47000000000E+01 0. -1.
         -5    1    3    3    0  502 -0.51581670725E+02  0.24597794141E+02 -0.29867997738E+02  0.64652204296E+02  0.47000000000E+01 0.  1.
<mgrwt>
<rscale>  0 0.99892398E+02</rscale>
<asrwt>0</asrwt>
<pdfrwt beam="1">  1        2 0.81024688E-02 0.10036366E+03</pdfrwt>
<pdfrwt beam="2">  1       -2 0.29549003E-01 0.10036366E+03</pdfrwt>
<totfact> 0.80635704E+03</totfact>
</mgrwt>
</event>
<event>
 8    1  0.3177960E-004  0.9963681E+02  0.7546771E-02  0.1283115E+00
         -3   -1    0    0    0  501 -0.00000000000E+00  0.00000000000E+00  0.19994198698E+03  0.19994198698E+03  0.00000000000E+00 0.  1.
          3   -1    0    0  501    0  0.00000000000E+00 -0.00000000000E+00 -0.52107035216E+02  0.52107035216E+02  0.00000000000E+00 0. -1.
         23    2    1    2    0    0 -0.40991028364E+02  0.40078690072E+01  0.38900295692E+02  0.10696132952E+03  0.90725771355E+02 0.  0.
         23    2    1    2    0    0  0.40991028364E+02 -0.40078690072E+01  0.10893465608E+03  0.14508769268E+03  0.86529485447E+02 0.  0.
          5    1    4    4  502    0  0.60426341349E+02  0.20452408866E+02  0.77953165424E+02  0.10083863226E+03  0.47000000000E+01 0. -1.
         -5    1    4    4    0  502 -0.19435312985E+02 -0.24460277873E+02  0.30981490653E+02  0.44249060414E+02  0.47000000000E+01 0.  1.
          5    1    3    3  503    0  0.27405248785E+02 -0.92263608857E+01  0.66072442881E+01  0.30031967522E+02  0.47000000000E+01 0. -1.
         -5    1    3    3    0  503 -0.68396277150E+02  0.13234229893E+02  0.32293051404E+02  0.76929362000E+02  0.47000000000E+01 0.  1.
<mgrwt>
<rscale>  0 0.98671546E+02</rscale>
<asrwt>0</asrwt>
<pdfrwt beam="1">  1        3 0.80164671E-02 0.99636805E+02</pdfrwt>
<pdfrwt beam="2">  1       -3 0.30760305E-01 0.99636805E+02</pdfrwt>
<totfact> 0.23516536E+03</totfact>
</mgrwt>
</event>
<event>
 8    1  0.3177960E-004  0.9988156E+02  0.7546771E-02  0.1281087E+00
          1   -1    0    0  501    0  0.00000000000E+00  0.00000000000E+00  0.29063457546E+03  0.29063457546E+03  0.00000000000E+00 0. -1.
         -1   -1    0    0    0  501 -0.00000000000E+00 -0.00000000000E+00 -0.46541080907E+02  0.46541080907E+02  0.00000000000E+00 0.  1.
         23    2    1    2    0    0  0.31540905593E+02  0.19802116736E+02  0.20918736366E+03  0.23137034494E+03  0.91574728217E+02 0.  0.
         23    2    1    2    0    0 -0.31540905593E+02 -0.19802116736E+02  0.34906130887E+02  0.10580531142E+03  0.92678872454E+02 0.  0.
          5    1    4    4  502    0  0.21004250229E+02  0.19214078061E+02  0.27352402848E+02  0.39756801493E+02  0.47000000000E+01 0. -1.
         -5    1    3    3    0  503  0.16242216272E+02 -0.31965724961E+02  0.40995765328E+02  0.54665893723E+02  0.47000000000E+01 0.  1.
          5    1    3    3  503    0  0.15298689321E+02  0.51767841697E+02  0.16819159834E+03  0.17670445122E+03  0.47000000000E+01 0. -1.
         -5    1    4    4    0  502 -0.52545155822E+02 -0.39016194797E+02  0.75537280384E+01  0.66048509931E+02  0.47000000000E+01 0.  1.
<mgrwt>
<rscale>  0 0.99624654E+02</rscale>
<asrwt>0</asrwt>
<pdfrwt beam="1">  1        1 0.44713011E-01 0.99881560E+02</pdfrwt>
<pdfrwt beam="2">  1       -1 0.71601664E-02 0.99881560E+02</pdfrwt>
<totfact> 0.86207650E+03</totfact>
</mgrwt>
</event>
<event>
 8    1  0.3177960E-004  0.9360377E+02  0.7546771E-02  0.1295371E+00
         -1   -1    0    0    0  501 -0.00000000000E+00  0.00000000000E+00  0.98166655565E+02  0.98166655565E+02  0.00000000000E+00 0.  1.
          1   -1    0    0  501    0  0.00000000000E+00 -0.00000000000E+00 -0.11033411138E+03  0.11033411138E+03  0.00000000000E+00 0. -1.
         23    2    1    2    0    0  0.15549497139E+02  0.13987718961E+02 -0.53372394223E+02  0.10622900404E+03  0.89434588892E+02 0.  0.
         23    2    1    2    0    0 -0.15549497139E+02 -0.13987718961E+02  0.41204938409E+02  0.10227176291E+03  0.91237182092E+02 0.  0.
          5    1    4    4  502    0 -0.29003854826E+02  0.31841377848E+02  0.30811995225E+02  0.53165458596E+02  0.47000000000E+01 0. -1.
         -5    1    4    4    0  502  0.13454357687E+02 -0.45829096810E+02  0.10392943184E+02  0.49106304312E+02  0.47000000000E+01 0.  1.
          5    1    3    3  503    0  0.22519225091E+02 -0.14337329925E+02 -0.68041228586E+02  0.73241882250E+02  0.47000000000E+01 0. -1.
         -5    1    3    3    0  503 -0.69697279516E+01  0.28325048886E+02  0.14668834363E+02  0.32987121785E+02  0.47000000000E+01 0.  1.
<mgrwt>
<rscale>  0 0.93161617E+02</rscale>
<asrwt>0</asrwt>
<pdfrwt beam="1">  1        1 0.16974479E-01 0.93603774E+02</pdfrwt>
<pdfrwt beam="2">  1       -1 0.15102562E-01 0.93603774E+02</pdfrwt>
<totfact> 0.91760770E+03</totfact>
</mgrwt>
</event>
<event>
 8    1  0.3177960E-004  0.9399222E+02  0.7546771E-02  0.1294081E+00
         -1   -1    0    0    0  501 -0.00000000000E+00  0.00000000000E+00  0.14264277794E+03  0.14264277794E+03  0.00000000000E+00 0.  1.
          1   -1    0    0  501    0  0.00000000000E+00 -0.00000000000E+00 -0.62402690003E+02  0.62402690003E+02  0.00000000000E+00 0. -1.
         23    2    1    2    0    0 -0.20072356185E+02 -0.23242226746E+01  0.25821172517E+02  0.96436277974E+02  0.90691351658E+02 0.  0.
         23    2    1    2    0    0  0.20072356185E+02  0.23242226746E+01  0.54418915423E+02  0.10860918997E+03  0.91794533042E+02 0.  0.
          5    1    4    4  502    0 -0.10491942900E+02  0.40819071738E+02  0.36907630732E+02  0.56218686303E+02  0.47000000000E+01 0. -1.
         -5    1    4    4    0  502  0.30564299085E+02 -0.38494849064E+02  0.17511284691E+02  0.52390503667E+02  0.47000000000E+01 0.  1.
          5    1    3    3  503    0  0.87234017743E+01  0.21103830429E+02 -0.24439288298E+02  0.33776296567E+02  0.47000000000E+01 0. -1.
         -5    1    3    3    0  503 -0.28795757960E+02 -0.23428053104E+02  0.50260460814E+02  0.62659981407E+02  0.47000000000E+01 0.  1.
<mgrwt>
<rscale>  0 0.93721786E+02</rscale>
<asrwt>0</asrwt>
<pdfrwt beam="1">  1        1 0.96004139E-02 0.93992222E+02</pdfrwt>
<pdfrwt beam="2">  1       -1 0.21945043E-01 0.93992222E+02</pdfrwt>
<totfact> 0.10636460E+04</totfact>
</mgrwt>
</event>
<event>
 8    1  0.3177960E-004  0.1065921E+03  0.7546771E-02  0.1269257E+00
          4   -1    0    0  501    0  0.00000000000E+00  0.00000000000E+00  0.12000196205E+03  0.12000196205E+03  0.00000000000E+00 0. -1.
         -4   -1    0    0    0  501 -0.00000000000E+00 -0.00000000000E+00 -0.97487938878E+02  0.97487938878E+02  0.00000000000E+00 0.  1.
         23    2    1    2    0    0 -0.12637640480E+02  0.40714880558E+02  0.39731540518E+02  0.10951618678E+03  0.92724260035E+02 0.  0.
         23    2    1    2    0    0  0.12637640480E+02 -0.40714880558E+02 -0.17217517350E+02  0.10797371415E+03  0.97695796158E+02 0.  0.
          5    1    4    4  502    0  0.48973668264E+02 -0.24155312935E+02  0.14577559824E+02  0.56714147941E+02  0.47000000000E+01 0. -1.
         -5    1    3    3    0  503 -0.76159303293E+00  0.67895313618E+02  0.41000845864E+02  0.79457617613E+02  0.47000000000E+01 0.  1.
          5    1    3    3  503    0 -0.11876047448E+02 -0.27180433060E+02 -0.12693053461E+01  0.30058569167E+02  0.47000000000E+01 0. -1.
         -5    1    4    4    0  502 -0.36336027784E+02 -0.16559567624E+02 -0.31795077174E+02  0.51259566205E+02  0.47000000000E+01 0.  1.
<mgrwt>
<rscale>  0 0.10543924E+03</rscale>
<asrwt>0</asrwt>
<pdfrwt beam="1">  1        4 0.18461840E-01 0.10659212E+03</pdfrwt>
<pdfrwt beam="2">  1       -4 0.14998144E-01 0.10659212E+03</pdfrwt>
<totfact> 0.15294602E+03</totfact>
</mgrwt>
</event>
<event>
 8    1  0.3177960E-004  0.1030051E+03  0.7546771E-02  0.1278364E+00
         -1   -1    0    0    0  501 -0.00000000000E+00  0.00000000000E+00  0.11768838735E+02  0.11768838735E+02  0.00000000000E+00 0.  1.
          1   -1    0    0  501    0  0.00000000000E+00 -0.00000000000E+00 -0.84349029726E+03  0.84349029726E+03  0.00000000000E+00 0. -1.
         23    2    1    2    0    0  0.42157445076E+02 -0.64304152184E+01 -0.44843105487E+03  0.45836924848E+03  0.84813657870E+02 0.  0.
         23    2    1    2    0    0 -0.42157445076E+02  0.64304152184E+01 -0.38329040365E+03  0.39688988752E+03  0.93762726424E+02 0.  0.
          5    1    4    4  502    0  0.54010372104E+01 -0.25411336179E+02 -0.25463334170E+03  0.25599831232E+03  0.47000000000E+01 0. -1.
         -5    1    4    4    0  502 -0.47558482286E+02  0.31841751397E+02 -0.12865706196E+03  0.14089157520E+03  0.47000000000E+01 0.  1.
          5    1    3    3  503    0  0.48641369169E+02 -0.36924999079E+02 -0.24672709542E+03  0.25421602617E+03  0.47000000000E+01 0. -1.
         -5    1    3    3    0  503 -0.64839240930E+01  0.30494583861E+02 -0.20170395945E+03  0.20415322230E+03  0.47000000000E+01 0.  1.
<mgrwt>
<rscale>  0 0.10092446E+03</rscale>
<asrwt>0</asrwt>
<pdfrwt beam="1">  1        1 0.12976774E+00 0.10300509E+03</pdfrwt>
<pdfrwt beam="2">  1       -1 0.18105905E-02 0.10300509E+03</pdfrwt>
<totfact> 0.15702498E+04</totfact>
</mgrwt>
</event>
<event>
 8    1  0.3177960E-004  0.9896173E+02  0.7546771E-02  0.1298857E+00
         -1   -1    0    0    0  501 -0.00000000000E+00  0.00000000000E+00  0.40203283473E+02  0.40203283473E+02  0.00000000000E+00 0.  1.
          1   -1    0    0  501    0  0.00000000000E+00 -0.00000000000E+00 -0.18614091559E+03  0.18614091559E+03  0.00000000000E+00 0. -1.
         23    2    1    2    0    0  0.12442104491E+02  0.36840608444E+01 -0.70804938073E+02  0.12168304168E+03  0.98107314242E+02 0.  0.
         23    2    1    2    0    0 -0.12442104491E+02 -0.36840608444E+01 -0.75132694040E+02  0.10466115738E+03  0.71698381310E+02 0.  0.
          5    1    3    3  502    0  0.16005307073E+02 -0.43502666138E+02 -0.16325692762E+02  0.49368715395E+02  0.47000000000E+01 0. -1.
         -5    1    4    4    0  503 -0.36659167081E+02  0.93147138338E+01 -0.20390531109E+02  0.43226406093E+02  0.47000000000E+01 0.  1.
          5    1    4    4  503    0  0.24217062589E+02 -0.12998774678E+02 -0.54742162931E+02  0.61434751289E+02  0.47000000000E+01 0. -1.
         -5    1    3    3    0  502 -0.35632025823E+01  0.47186726982E+02 -0.54479245311E+02  0.72314326282E+02  0.47000000000E+01 0.  1.
<mgrwt>
<rscale>  0 0.91670037E+02</rscale>
<asrwt>0</asrwt>
<pdfrwt beam="1">  1        1 0.28637064E-01 0.98961727E+02</pdfrwt>
<pdfrwt beam="2">  1       -1 0.61851205E-02 0.98961727E+02</pdfrwt>
<totfact> 0.18485209E+04</totfact>
</mgrwt>
</event>
<event>
 8    1  0.3177960E-004  0.1049987E+03  0.7546771E-02  0.1271043E+00
         -1   -1    0    0    0  501 -0.00000000000E+00  0.00000000000E+00  0.19116243628E+03  0.19116243628E+03  0.00000000000E+00 0.  1.
          1   -1    0    0  501    0  0.00000000000E+00 -0.00000000000E+00 -0.56675096652E+02  0.56675096652E+02  0.00000000000E+00 0. -1.
         23    2    1    2    0    0 -0.42208290147E+02  0.28341791267E+02  0.69873496521E+02  0.12612306154E+03  0.91869060333E+02 0.  0.
         23    2    1    2    0    0  0.42208290147E+02 -0.28341791267E+02  0.64613843108E+02  0.12171447139E+03  0.89747796275E+02 0.  0.
          5    1    4    4  502    0 -0.26101969563E+02 -0.10754687450E+02  0.34626974255E+02  0.44923195159E+02  0.47000000000E+01 0. -1.
         -5    1    4    4    0  502  0.68310259710E+02 -0.17587103816E+02  0.29986868853E+02  0.76791276235E+02  0.47000000000E+01 0.  1.
          5    1    3    3  503    0 -0.64107266256E+02  0.30645325145E+02  0.24215929436E+02  0.75215548782E+02  0.47000000000E+01 0. -1.
         -5    1    3    3    0  503  0.21898976109E+02 -0.23035338782E+01  0.45657567086E+02  0.50907512757E+02  0.47000000000E+01 0.  1.
<mgrwt>
<rscale>  0 0.10453286E+03</rscale>
<asrwt>0</asrwt>
<pdfrwt beam="1">  1        1 0.87192458E-02 0.10499867E+03</pdfrwt>
<pdfrwt beam="2">  1       -1 0.29409605E-01 0.10499867E+03</pdfrwt>
<totfact> 0.75629343E+03</totfact>
</mgrwt>
</event>
<event>
 8    1  0.3177960E-004  0.1113591E+03  0.7546771E-02  0.1260426E+00
          1   -1    0    0  501    0  0.00000000000E+00  0.00000000000E+00  0.56652007573E+02  0.56652007573E+02  0.00000000000E+00 0. -1.
         -1   -1    0    0    0  501 -0.00000000000E+00 -0.00000000000E+00 -0.20910318421E+03  0.20910318421E+03  0.00000000000E+00 0.  1.
         23    2    1    2    0    0  0.33202949399E+02  0.42768575154E+02 -0.74662423276E+02  0.12991725982E+03  0.91500984040E+02 0.  0.
         23    2    1    2    0    0 -0.33202949399E+02 -0.42768575154E+02 -0.77788753360E+02  0.13583793196E+03  0.97310157439E+02 0.  0.
          5    1    3    3  502    0 -0.30097065700E+02  0.17387895038E+02 -0.11687609176E+02  0.36971103119E+02  0.47000000000E+01 0. -1.
         -5    1    3    3    0  502  0.63300015098E+02  0.25380680116E+02 -0.62974814100E+02  0.92946156701E+02  0.47000000000E+01 0.  1.
          5    1    4    4  503    0 -0.64006858543E+02 -0.80761662183E+01 -0.43359475720E+02  0.77873208076E+02  0.47000000000E+01 0. -1.
         -5    1    4    4    0  503  0.30803909144E+02 -0.34692408936E+02 -0.34429277640E+02  0.57964723886E+02  0.47000000000E+01 0.  1.
<mgrwt>
<rscale>  0 0.11007747E+03</rscale>
<asrwt>0</asrwt>
<pdfrwt beam="1">  1        1 0.87156935E-02 0.11135912E+03</pdfrwt>
<pdfrwt beam="2">  1       -1 0.32169721E-01 0.11135912E+03</pdfrwt>
<totfact> 0.65427388E+03</totfact>
</mgrwt>
</event>
<event>
 8    1  0.3177960E-004  0.1452060E+03  0.7546771E-02  0.1206625E+00
          1   -1    0    0  501    0  0.00000000000E+00  0.00000000000E+00  0.70616025641E+03  0.70616025641E+03  0.00000000000E+00 0. -1.
         -1   -1    0    0    0  501 -0.00000000000E+00 -0.00000000000E+00 -0.48077798884E+02  0.48077798884E+02  0.00000000000E+00 0.  1.
         23    2    1    2    0    0 -0.51162789133E+02  0.99389632222E+02  0.96636285956E+02  0.17442295716E+03  0.92676136284E+02 0.  0.
         23    2    1    2    0    0  0.51162789133E+02 -0.99389632222E+02  0.56144617157E+03  0.57981509814E+03  0.92020728469E+02 0.  0.
          5    1    3    3  502    0  0.21588046455E+02  0.56090015237E+02  0.43804818419E+02  0.74519028951E+02  0.47000000000E+01 0. -1.
         -5    1    4    4    0  503 -0.18790884894E+02 -0.58924403524E+02  0.19916863248E+03  0.20860349194E+03  0.47000000000E+01 0.  1.
          5    1    4    4  503    0  0.69953674027E+02 -0.40465228698E+02  0.36227753909E+03  0.37121160619E+03  0.47000000000E+01 0. -1.
         -5    1    3    3    0  502 -0.72750835588E+02  0.43299616985E+02  0.52831467537E+02  0.99903928211E+02  0.47000000000E+01 0.  1.
<mgrwt>
<rscale>  0 0.14510158E+03</rscale>
<asrwt>0</asrwt>
<pdfrwt beam="1">  1        1 0.10864003E+00 0.14520605E+03</pdfrwt>
<pdfrwt beam="2">  1       -1 0.73965849E-02 0.14520605E+03</pdfrwt>
<totfact> 0.26565747E+03</totfact>
</mgrwt>
</event>
<event>
 8    1  0.3177960E-004  0.1271157E+03  0.7546771E-02  0.1232423E+00
          1   -1    0    0  501    0  0.00000000000E+00  0.00000000000E+00  0.86667749313E+03  0.86667749313E+03  0.00000000000E+00 0. -1.
         -1   -1    0    0    0  501 -0.00000000000E+00 -0.00000000000E+00 -0.18667549626E+02  0.18667549626E+02  0.00000000000E+00 0.  1.
         23    2    1    2    0    0  0.83899946269E+02  0.21754782808E+02  0.36905793207E+03  0.38981156043E+03  0.90756949360E+02 0.  0.
         23    2    1    2    0    0 -0.83899946269E+02 -0.21754782808E+02  0.47895201144E+03  0.49553348233E+03  0.92983500137E+02 0.  0.
          5    1    4    4  502    0 -0.74852815132E+02  0.24567025216E+02  0.32472269905E+03  0.33417570818E+03  0.47000000000E+01 0. -1.
         -5    1    3    3    0  503  0.40698452718E+02 -0.15243798692E+02  0.53279195182E+02  0.68916616947E+02  0.47000000000E+01 0.  1.
          5    1    3    3  503    0  0.43201493551E+02  0.36998581501E+02  0.31577873689E+03  0.32089494348E+03  0.47000000000E+01 0. -1.
         -5    1    4    4    0  502 -0.90471311365E+01 -0.46321808024E+02  0.15422931239E+03  0.16135777415E+03  0.47000000000E+01 0.  1.
<mgrwt>
<rscale>  0 0.12670888E+03</rscale>
<asrwt>0</asrwt>
<pdfrwt beam="1">  1        1 0.13333497E+00 0.12711571E+03</pdfrwt>
<pdfrwt beam="2">  1       -1 0.28719314E-02 0.12711571E+03</pdfrwt>
<totfact> 0.78617757E+03</totfact>
</mgrwt>
</event>
<event>
 8    1  0.3177960E-004  0.9572557E+02  0.7546771E-02  0.1291117E+00
         -2   -1    0    0    0  501 -0.00000000000E+00  0.00000000000E+00  0.22103710998E+02  0.22103710998E+02  0.00000000000E+00 0.  1.
          2   -1    0    0  501    0  0.00000000000E+00 -0.00000000000E+00 -0.46417961900E+03  0.46417961900E+03  0.00000000000E+00 0. -1.
         23    2    1    2    0    0  0.17283397612E+02  0.15741056277E+02 -0.12972557752E+03  0.15959370162E+03  0.89971814746E+02 0.  0.
         23    2    1    2    0    0 -0.17283397612E+02 -0.15741056277E+02 -0.31235033048E+03  0.32668962837E+03  0.92827192406E+02 0.  0.
          5    1    4    4  502    0  0.32929780044E+01 -0.47425905173E+02 -0.24227846508E+03  0.24694332310E+03  0.47000000000E+01 0. -1.
         -5    1    3    3    0  503 -0.31512257458E+02  0.19413824788E+02 -0.28116729014E+02  0.46717870387E+02  0.47000000000E+01 0.  1.
          5    1    3    3  503    0  0.48795655070E+02 -0.36727685109E+01 -0.10160884851E+03  0.11287583124E+03  0.47000000000E+01 0. -1.
         -5    1    4    4    0  502 -0.20576375616E+02  0.31684848896E+02 -0.70071865404E+02  0.79746305270E+02  0.47000000000E+01 0.  1.
<mgrwt>
<rscale>  0 0.95026368E+02</rscale>
<asrwt>0</asrwt>
<pdfrwt beam="1">  1        2 0.71412247E-01 0.95725568E+02</pdfrwt>
<pdfrwt beam="2">  1       -2 0.34005710E-02 0.95725568E+02</pdfrwt>
<totfact> 0.21555797E+04</totfact>
</mgrwt>
</event>
<event>
 8    1  0.3177960E-004  0.1260244E+03  0.7546771E-02  0.1234975E+00
          2   -1    0    0  501    0  0.00000000000E+00  0.00000000000E+00  0.57582127597E+03  0.57582127597E+03  0.00000000000E+00 0. -1.
         -2   -1    0    0    0  501 -0.00000000000E+00 -0.00000000000E+00 -0.28691331895E+02  0.28691331895E+02  0.00000000000E+00 0.  1.
         23    2    1    2    0    0 -0.83039782864E+02  0.78818419742E+01  0.19110367900E+03  0.22683966327E+03  0.89319022246E+02 0.  0.
         23    2    1    2    0    0  0.83039782864E+02 -0.78818419742E+01  0.35602626508E+03  0.37767294460E+03  0.94469162607E+02 0.  0.
          5    1    3    3  502    0 -0.36561851730E+02 -0.35658117362E+02  0.48487526348E+02  0.70579037589E+02  0.47000000000E+01 0. -1.
         -5    1    4    4    0  503 -0.15905507204E+02 -0.19830105505E+02  0.86067633883E+02  0.89866266452E+02  0.47000000000E+01 0.  1.
          5    1    4    4  503    0  0.98945290067E+02  0.11948263531E+02  0.26995863120E+03  0.28780667814E+03  0.47000000000E+01 0. -1.
         -5    1    3    3    0  502 -0.46477931134E+02  0.43539959336E+02  0.14261615265E+03  0.15626062568E+03  0.47000000000E+01 0.  1.
<mgrwt>
<rscale>  0 0.12506014E+03</rscale>
<asrwt>0</asrwt>
<pdfrwt beam="1">  1        2 0.88587880E-01 0.12602441E+03</pdfrwt>
<pdfrwt beam="2">  1       -2 0.44140515E-02 0.12602441E+03</pdfrwt>
<totfact> 0.11861310E+04</totfact>
</mgrwt>
</event>
<event>
 8    1  0.3177960E-004  0.9642061E+02  0.7546771E-02  0.1288019E+00
          2   -1    0    0  501    0  0.00000000000E+00  0.00000000000E+00  0.11367461303E+03  0.11367461303E+03  0.00000000000E+00 0. -1.
         -2   -1    0    0    0  501 -0.00000000000E+00 -0.00000000000E+00 -0.15051826220E+03  0.15051826220E+03  0.00000000000E+00 0.  1.
         23    2    1    2    0    0  0.27460873141E+02  0.11164918811E+02 -0.10769613328E+03  0.14453917413E+03  0.91729824861E+02 0.  0.
         23    2    1    2    0    0 -0.27460873141E+02 -0.11164918811E+02  0.70852484112E+02  0.11965370110E+03  0.91750633332E+02 0.  0.
          5    1    4    4  502    0 -0.21501714555E+02  0.25874618827E+02  0.74290741244E+02  0.81688578534E+02  0.47000000000E+01 0. -1.
         -5    1    4    4    0  502 -0.59591585862E+01 -0.37039537638E+02 -0.34382571324E+01  0.37965122568E+02  0.47000000000E+01 0.  1.
          5    1    3    3  503    0 -0.12027706368E+02  0.39413587864E+02 -0.24708824725E+02  0.48277454863E+02  0.47000000000E+01 0. -1.
         -5    1    3    3    0  503  0.39488579509E+02 -0.28248669053E+02 -0.82987308559E+02  0.96261719270E+02  0.47000000000E+01 0.  1.
<mgrwt>
<rscale>  0 0.96415658E+02</rscale>
<asrwt>0</asrwt>
<pdfrwt beam="1">  1        2 0.17488402E-01 0.96420608E+02</pdfrwt>
<pdfrwt beam="2">  1       -2 0.23156656E-01 0.96420608E+02</pdfrwt>
<totfact> 0.49209079E+03</totfact>
</mgrwt>
</event>
<event>
 8    1  0.3177960E-004  0.1249871E+03  0.7546771E-02  0.1236364E+00
         -1   -1    0    0    0  501 -0.00000000000E+00  0.00000000000E+00  0.10220567157E+02  0.10220567157E+02  0.00000000000E+00 0.  1.
          1   -1    0    0  501    0  0.00000000000E+00 -0.00000000000E+00 -0.15622610326E+04  0.15622610326E+04  0.00000000000E+00 0. -1.
         23    2    1    2    0    0  0.22106115341E+02 -0.80930995516E+02 -0.59657987839E+03  0.60888069056E+03  0.88258924011E+02 0.  0.
         23    2    1    2    0    0 -0.22106115341E+02  0.80930995516E+02 -0.95546058707E+03  0.96360090921E+03  0.92645951987E+02 0.  0.
          5    1    3    3  502    0  0.48650623722E+02 -0.80612132691E+02 -0.43860273403E+03  0.44861971360E+03  0.47000000000E+01 0. -1.
         -5    1    4    4    0  503 -0.42947189478E+02  0.89946226854E+02 -0.83385509964E+03  0.83980426410E+03  0.47000000000E+01 0.  1.
          5    1    4    4  503    0  0.20841074136E+02 -0.90152313387E+01 -0.12160548743E+03  0.12379664510E+03  0.47000000000E+01 0. -1.
         -5    1    3    3    0  502 -0.26544508380E+02 -0.31886282427E+00 -0.15797714435E+03  0.16026097696E+03  0.47000000000E+01 0.  1.
<mgrwt>
<rscale>  0 0.12417518E+03</rscale>
<asrwt>0</asrwt>
<pdfrwt beam="1">  1        1 0.24034778E+00 0.12498711E+03</pdfrwt>
<pdfrwt beam="2">  1       -1 0.15723954E-02 0.12498711E+03</pdfrwt>
<totfact> 0.62029174E+03</totfact>
</mgrwt>
</event>
<event>
 8    1  0.3177960E-004  0.1133348E+03  0.7546771E-02  0.1256139E+00
          1   -1    0    0  501    0  0.00000000000E+00  0.00000000000E+00  0.54151466920E+02  0.54151466920E+02  0.00000000000E+00 0. -1.
         -1   -1    0    0    0  501 -0.00000000000E+00 -0.00000000000E+00 -0.57097370326E+03  0.57097370326E+03  0.00000000000E+00 0.  1.
         23    2    1    2    0    0 -0.35000969087E+02 -0.49542485893E+02 -0.50169470752E+03  0.51433681369E+03  0.95735325865E+02 0.  0.
         23    2    1    2    0    0  0.35000969087E+02  0.49542485893E+02 -0.15127528818E+02  0.11078835649E+03  0.91464157240E+02 0.  0.
          5    1    4    4  502    0 -0.29225640802E+02  0.51282798335E+01  0.38572975782E+01  0.30288712072E+02  0.47000000000E+01 0. -1.
         -5    1    4    4    0  502  0.64226609889E+02  0.44414206059E+02 -0.18984826396E+02  0.80499644416E+02  0.47000000000E+01 0.  1.
          5    1    3    3  503    0  0.20019085666E+02  0.17128770392E+02 -0.11716121715E+03  0.12017903049E+03  0.47000000000E+01 0. -1.
         -5    1    3    3    0  503 -0.55020054753E+02 -0.66671256285E+02 -0.38453349037E+03  0.39415778320E+03  0.47000000000E+01 0.  1.
<mgrwt>
<rscale>  0 0.11242796E+03</rscale>
<asrwt>0</asrwt>
<pdfrwt beam="1">  1        1 0.83309956E-02 0.11333481E+03</pdfrwt>
<pdfrwt beam="2">  1       -1 0.87842101E-01 0.11333481E+03</pdfrwt>
<totfact> 0.10768768E+03</totfact>
</mgrwt>
</event>
<event>
 8    1  0.3177960E-004  0.9297085E+02  0.7546771E-02  0.1296971E+00
         -1   -1    0    0    0  501 -0.00000000000E+00  0.00000000000E+00  0.38734247473E+02  0.38734247473E+02  0.00000000000E+00 0.  1.
          1   -1    0    0  501    0  0.00000000000E+00 -0.00000000000E+00 -0.27636959217E+03  0.27636959217E+03  0.00000000000E+00 0. -1.
         23    2    1    2    0    0 -0.31203408287E+01 -0.56228837095E+00 -0.45676369003E+02  0.10181570810E+03  0.90939842952E+02 0.  0.
         23    2    1    2    0    0  0.31203408287E+01  0.56228837095E+00 -0.19195897570E+03  0.21328813154E+03  0.92916769269E+02 0.  0.
          5    1    3    3  502    0  0.13620431301E+02 -0.42837908621E+02 -0.20481922057E+02  0.49620577335E+02  0.47000000000E+01 0. -1.
         -5    1    3    3    0  502 -0.16740772130E+02  0.42275620250E+02 -0.25194446946E+02  0.52195130769E+02  0.47000000000E+01 0.  1.
          5    1    4    4  503    0 -0.27597144479E+02  0.92943478214E+01 -0.17373330661E+03  0.17621957641E+03  0.47000000000E+01 0. -1.
         -5    1    4    4    0  503  0.30717485308E+02 -0.87320594504E+01 -0.18225669087E+02  0.37068555132E+02  0.47000000000E+01 0. -1.
<mgrwt>
<rscale>  0 0.92472925E+02</rscale>
<asrwt>0</asrwt>
<pdfrwt beam="1">  1        1 0.42518399E-01 0.92970849E+02</pdfrwt>
<pdfrwt beam="2">  1       -1 0.59591149E-02 0.92970849E+02</pdfrwt>
<totfact> 0.11959466E+04</totfact>
</mgrwt>
</event>
<event>
 8    1  0.3177960E-004  0.1014303E+03  0.7546771E-02  0.1290200E+00
         -2   -1    0    0    0  501 -0.00000000000E+00  0.00000000000E+00  0.84134458659E+01  0.84134458659E+01  0.00000000000E+00 0.  1.
          2   -1    0    0  501    0  0.00000000000E+00 -0.00000000000E+00 -0.10194434766E+04  0.10194434766E+04  0.00000000000E+00 0. -1.
         23    2    1    2    0    0 -0.40452516230E+02 -0.17983882433E+02 -0.45465349393E+03  0.46583033375E+03  0.91259378712E+02 0.  0.
         23    2    1    2    0    0  0.40452516230E+02  0.17983882433E+02 -0.55637653682E+03  0.56202658873E+03  0.66024310826E+02 0.  0.
          5    1    4    4  502    0  0.91653136455E+01  0.38429086010E+02 -0.22221149411E+03  0.22574506803E+03  0.47000000000E+01 0. -1.
         -5    1    4    4    0  502  0.31287202585E+02 -0.20445203576E+02 -0.33416504270E+03  0.33628152069E+03  0.47000000000E+01 0.  1.
          5    1    3    3  503    0  0.23702690786E+02 -0.27111860736E+02 -0.15140958116E+03  0.15570427679E+03  0.47000000000E+01 0. -1.
         -5    1    3    3    0  503 -0.64155207016E+02  0.91279783028E+01 -0.30324391277E+03  0.31012605696E+03  0.47000000000E+01 0.  1.
<mgrwt>
<rscale>  0 0.95434861E+02</rscale>
<asrwt>0</asrwt>
<pdfrwt beam="1">  1        2 0.15683737E+00 0.10143027E+03</pdfrwt>
<pdfrwt beam="2">  1       -2 0.12943770E-02 0.10143027E+03</pdfrwt>
<totfact> 0.34425252E+04</totfact>
</mgrwt>
</event>
<event>
 8    1  0.3177960E-004  0.9412001E+02  0.7546771E-02  0.1294347E+00
          2   -1    0    0  501    0  0.00000000000E+00  0.00000000000E+00  0.20977717209E+03  0.20977717209E+03  0.00000000000E+00 0. -1.
         -2   -1    0    0    0  501 -0.00000000000E+00 -0.00000000000E+00 -0.45420818530E+02  0.45420818530E+02  0.00000000000E+00 0.  1.
         23    2    1    2    0    0  0.20326403313E+02  0.60835768318E+01  0.12134411345E+03  0.15356747781E+03  0.91697348888E+02 0.  0.
         23    2    1    2    0    0 -0.20326403313E+02 -0.60835768318E+01  0.43012240106E+02  0.10163051281E+03  0.89602096827E+02 0.  0.
          5    1    4    4  502    0 -0.24749940945E+02  0.32010775664E+02  0.47681032041E+02  0.62712200981E+02  0.47000000000E+01 0. -1.
         -5    1    4    4    0  502  0.44235376325E+01 -0.38094352496E+02 -0.46687919347E+01  0.38918311826E+02  0.47000000000E+01 0.  1.
          5    1    3    3  503    0 -0.25439963628E+02  0.21701273710E+02  0.15601748091E+02  0.37197332881E+02  0.47000000000E+01 0. -1.
         -5    1    3    3    0  503  0.45766366940E+02 -0.15617696878E+02  0.10574236536E+03  0.11637014493E+03  0.47000000000E+01 0.  1.
<mgrwt>
<rscale>  0 0.93605784E+02</rscale>
<asrwt>0</asrwt>
<pdfrwt beam="1">  1        2 0.32273411E-01 0.94120010E+02</pdfrwt>
<pdfrwt beam="2">  1       -2 0.69878183E-02 0.94120010E+02</pdfrwt>
<totfact> 0.17026955E+04</totfact>
</mgrwt>
</event>
<event>
 8    1  0.3177960E-004  0.1093809E+03  0.7546771E-02  0.1262914E+00
          2   -1    0    0  501    0  0.00000000000E+00  0.00000000000E+00  0.29007688998E+03  0.29007688998E+03  0.00000000000E+00 0. -1.
         -2   -1    0    0    0  501 -0.00000000000E+00 -0.00000000000E+00 -0.40606653416E+02  0.40606653416E+02  0.00000000000E+00 0.  1.
         23    2    1    2    0    0 -0.59430221276E+02 -0.95392710742E+01  0.13770850104E+03  0.17430303938E+03  0.88289123818E+02 0.  0.
         23    2    1    2    0    0  0.59430221276E+02  0.95392710742E+01  0.11176173553E+03  0.15638050402E+03  0.91330321449E+02 0.  0.
          5    1    3    3  502    0 -0.46594648995E+02  0.32288404343E+02  0.10519604735E+03  0.11959055459E+03  0.47000000000E+01 0. -1.
         -5    1    4    4    0  503  0.14871154916E+02 -0.39744065542E+02  0.46583411081E+02  0.63188971999E+02  0.47000000000E+01 0.  1.
          5    1    4    4  503    0  0.44559066360E+02  0.49283336616E+02  0.65178324445E+02  0.93191532021E+02  0.47000000000E+01 0. -1.
         -5    1    3    3    0  502 -0.12835572282E+02 -0.41827675417E+02  0.32512453693E+02  0.54712484789E+02  0.47000000000E+01 0.  1.
<mgrwt>
<rscale>  0 0.10874378E+03</rscale>
<asrwt>0</asrwt>
<pdfrwt beam="1">  1        2 0.44627213E-01 0.10938088E+03</pdfrwt>
<pdfrwt beam="2">  1       -2 0.62471776E-02 0.10938088E+03</pdfrwt>
<totfact> 0.14534370E+04</totfact>
</mgrwt>
</event>
<event>
 8    1  0.3177960E-004  0.9576871E+02  0.7546771E-02  0.1290573E+00
          1   -1    0    0  501    0  0.00000000000E+00  0.00000000000E+00  0.13758631543E+02  0.13758631543E+02  0.00000000000E+00 0. -1.
         -1   -1    0    0    0  501 -0.00000000000E+00 -0.00000000000E+00 -0.83327116133E+03  0.83327116133E+03  0.00000000000E+00 0.  1.
         23    2    1    2    0    0 -0.20713551249E+02  0.20152017743E+02 -0.60345101006E+03  0.61069480680E+03  0.89218106273E+02 0.  0.
         23    2    1    2    0    0  0.20713551249E+02 -0.20152017743E+02 -0.21606151972E+03  0.23633498607E+03  0.91304382757E+02 0.  0.
          5    1    4    4  502    0  0.49123220428E+02 -0.33728619215E+02 -0.17112649013E+03  0.18126520947E+03  0.47000000000E+01 0. -1.
         -5    1    4    4    0  502 -0.28409669178E+02  0.13576601471E+02 -0.44935029595E+02  0.55069776602E+02  0.47000000000E+01 0.  1.
          5    1    3    3  503    0 -0.68746268555E+01 -0.33788651394E+02 -0.16030262139E+03  0.16403644071E+03  0.47000000000E+01 0. -1.
         -5    1    3    3    0  503 -0.13838924394E+02  0.53940669137E+02 -0.44314838867E+03  0.44665836609E+03  0.47000000000E+01 0.  1.
<mgrwt>
<rscale>  0 0.95268068E+02</rscale>
<asrwt>0</asrwt>
<pdfrwt beam="1">  1        1 0.21167119E-02 0.95768707E+02</pdfrwt>
<pdfrwt beam="2">  1       -1 0.12819561E+00 0.95768707E+02</pdfrwt>
<totfact> 0.29594485E+03</totfact>
</mgrwt>
</event>
<event>
 8    1  0.3177960E-004  0.9855487E+02  0.7546771E-02  0.1283883E+00
          4   -1    0    0  501    0  0.00000000000E+00  0.00000000000E+00  0.72992405321E+02  0.72992405321E+02  0.00000000000E+00 0. -1.
         -4   -1    0    0    0  501 -0.00000000000E+00 -0.00000000000E+00 -0.14257142757E+03  0.14257142757E+03  0.00000000000E+00 0.  1.
         23    2    1    2    0    0  0.13258063776E+02  0.33725208720E+02 -0.52845832997E+01  0.98696454043E+02  0.91650953414E+02 0.  0.
         23    2    1    2    0    0 -0.13258063776E+02 -0.33725208720E+02 -0.64294438946E+02  0.11686737884E+03  0.90614807842E+02 0.  0.
          5    1    3    3  502    0  0.37429549124E+02  0.14113970540E+02  0.30878256045E+02  0.50751670006E+02  0.47000000000E+01 0. -1.
         -5    1    3    3    0  502 -0.24171485348E+02  0.19611238180E+02 -0.36162839345E+02  0.47944784037E+02  0.47000000000E+01 0.  1.
          5    1    4    4  503    0  0.22306455688E+02  0.26935442315E+01 -0.61530367069E+02  0.65672743338E+02  0.47000000000E+01 0. -1.
         -5    1    4    4    0  503 -0.35564519464E+02 -0.36418752952E+02 -0.27640718770E+01  0.51194635506E+02  0.47000000000E+01 0.  1.
<mgrwt>
<rscale>  0 0.98313283E+02</rscale>
<asrwt>0</asrwt>
<pdfrwt beam="1">  1        4 0.11229601E-01 0.98554874E+02</pdfrwt>
<pdfrwt beam="2">  1       -4 0.21934066E-01 0.98554874E+02</pdfrwt>
<totfact> 0.18087264E+03</totfact>
</mgrwt>
</event>
<event>
 8    1  0.3177960E-004  0.1044333E+03  0.7546771E-02  0.1273125E+00
          2   -1    0    0  501    0  0.00000000000E+00  0.00000000000E+00  0.12937415236E+03  0.12937415236E+03  0.00000000000E+00 0. -1.
         -2   -1    0    0    0  501 -0.00000000000E+00 -0.00000000000E+00 -0.81806099904E+02  0.81806099904E+02  0.00000000000E+00 0.  1.
         23    2    1    2    0    0 -0.45604148515E+02  0.37967527823E+01  0.32344992689E+02  0.10932758934E+03  0.93873156681E+02 0.  0.
         23    2    1    2    0    0  0.45604148515E+02 -0.37967527823E+01  0.15223059765E+02  0.10185266292E+03  0.89711034449E+02 0.  0.
          5    1    4    4  502    0  0.21822291435E+02  0.42700678742E+02  0.51670034551E+01  0.48459759525E+02  0.47000000000E+01 0. -1.
         -5    1    3    3    0  503  0.22804140484E+02 -0.16397165838E+02 -0.46263339240E+01  0.28851149653E+02  0.47000000000E+01 0.  1.
          5    1    3    3  503    0 -0.68408289000E+02  0.20193918620E+02  0.36971326613E+02  0.80476439687E+02  0.47000000000E+01 0. -1.
         -5    1    4    4    0  502  0.23781857080E+02 -0.46497431524E+02  0.10056056309E+02  0.53392903396E+02  0.47000000000E+01 0.  1.
<mgrwt>
<rscale>  0 0.10348944E+03</rscale>
<asrwt>0</asrwt>
<pdfrwt beam="1">  1        2 0.19903716E-01 0.10443334E+03</pdfrwt>
<pdfrwt beam="2">  1       -2 0.12585554E-01 0.10443334E+03</pdfrwt>
<totfact> 0.11696399E+04</totfact>
</mgrwt>
</event>
<event>
 8    1  0.3177960E-004  0.9823809E+02  0.7546771E-02  0.1286947E+00
          2   -1    0    0  501    0  0.00000000000E+00  0.00000000000E+00  0.78718192951E+03  0.78718192951E+03  0.00000000000E+00 0. -1.
         -2   -1    0    0    0  501 -0.00000000000E+00 -0.00000000000E+00 -0.23467883246E+02  0.23467883246E+02  0.00000000000E+00 0.  1.
         23    2    1    2    0    0 -0.19789237946E+02 -0.30843939241E+01  0.99030554508E+02  0.13949111871E+03  0.96174809848E+02 0.  0.
         23    2    1    2    0    0  0.19789237946E+02  0.30843939241E+01  0.66468349176E+03  0.67115869405E+03  0.90822469422E+02 0.  0.
          5    1    3    3  502    0 -0.62451946831E+01  0.43513663488E+02  0.69870101390E+02  0.82682298196E+02  0.47000000000E+01 0. -1.
         -5    1    4    4    0  503 -0.64847811556E+01 -0.40824030324E+02  0.29084898609E+03  0.29380925198E+03  0.47000000000E+01 0.  1.
          5    1    4    4  503    0  0.26274019102E+02  0.43908424248E+02  0.37383450567E+03  0.37734944207E+03  0.47000000000E+01 0. -1.
         -5    1    3    3    0  502 -0.13544043263E+02 -0.46598057412E+02  0.29160453118E+02  0.56808820517E+02  0.47000000000E+01 0.  1.
<mgrwt>
<rscale>  0 0.96902723E+02</rscale>
<asrwt>0</asrwt>
<pdfrwt beam="1">  1        2 0.12110489E+00 0.98238086E+02</pdfrwt>
<pdfrwt beam="2">  1       -2 0.36104442E-02 0.98238086E+02</pdfrwt>
<totfact> 0.10888616E+04</totfact>
</mgrwt>
</event>
<event>
 8    1  0.3177960E-004  0.1096233E+03  0.7546771E-02  0.1264178E+00
          1   -1    0    0  501    0  0.00000000000E+00  0.00000000000E+00  0.19803025248E+03  0.19803025248E+03  0.00000000000E+00 0. -1.
         -1   -1    0    0    0  501 -0.00000000000E+00 -0.00000000000E+00 -0.57446130559E+02  0.57446130559E+02  0.00000000000E+00 0.  1.
         23    2    1    2    0    0 -0.80625150201E+01 -0.61031150248E+02  0.67734973275E+02  0.12886156646E+03  0.90705409197E+02 0.  0.
         23    2    1    2    0    0  0.80625150201E+01  0.61031150248E+02  0.72849148649E+02  0.12661481658E+03  0.83273692543E+02 0.  0.
          5    1    3    3  502    0 -0.44380518533E+02 -0.24979083896E+02  0.56592526282E+02  0.76278365796E+02  0.47000000000E+01 0. -1.
         -5    1    4    4    0  503  0.42196131417E+02  0.31899105543E+02  0.19095088301E+02  0.56433844794E+02  0.47000000000E+01 0.  1.
          5    1    4    4  503    0 -0.34133616397E+02  0.29132044704E+02  0.53754060348E+02  0.70180971786E+02  0.47000000000E+01 0. -1.
         -5    1    3    3    0  502  0.36318003513E+02 -0.36052066351E+02  0.11142446994E+02  0.52583200666E+02  0.47000000000E+01 0.  1.
<mgrwt>
<rscale>  0 0.10807456E+03</rscale>
<asrwt>0</asrwt>
<pdfrwt beam="1">  1        1 0.30466192E-01 0.10962334E+03</pdfrwt>
<pdfrwt beam="2">  1       -1 0.88378663E-02 0.10962334E+03</pdfrwt>
<totfact> 0.10151296E+04</totfact>
</mgrwt>
</event>
<event>
 8    1  0.3177960E-004  0.9620854E+02  0.7546771E-02  0.1289166E+00
         -1   -1    0    0    0  501 -0.00000000000E+00  0.00000000000E+00  0.14227446981E+03  0.14227446981E+03  0.00000000000E+00 0.  1.
          1   -1    0    0  501    0  0.00000000000E+00 -0.00000000000E+00 -0.11541461205E+03  0.11541461205E+03  0.00000000000E+00 0. -1.
         23    2    1    2    0    0  0.15145239366E+01 -0.19383314426E+02  0.99285302457E+02  0.13825213982E+03  0.94223543871E+02 0.  0.
         23    2    1    2    0    0 -0.15145239366E+01  0.19383314426E+02 -0.72425444697E+02  0.11943694205E+03  0.92960913429E+02 0.  0.
          5    1    3    3  502    0 -0.32801636958E+02 -0.26363123288E+02  0.11885979997E+02  0.43980997910E+02  0.47000000000E+01 0. -1.
         -5    1    4    4    0  503  0.44927646905E+02  0.45262842250E+01 -0.28230883305E+02  0.53460765777E+02  0.47000000000E+01 0.  1.
          5    1    4    4  503    0 -0.46442170841E+02  0.14857030201E+02 -0.44194561391E+02  0.65976176271E+02  0.47000000000E+01 0. -1.
         -5    1    3    3    0  502  0.34316160895E+02  0.69798088627E+01  0.87399322460E+02  0.94271141909E+02  0.47000000000E+01 0.  1.
<mgrwt>
<rscale>  0 0.95897979E+02</rscale>
<asrwt>0</asrwt>
<pdfrwt beam="1">  1        1 0.17756094E-01 0.96208539E+02</pdfrwt>
<pdfrwt beam="2">  1       -1 0.21888380E-01 0.96208539E+02</pdfrwt>
<totfact> 0.48372644E+03</totfact>
</mgrwt>
</event>
<event>
 7    1  0.3177960E-004  0.1501520E+03  0.7546771E-02  0.1214853E+00
          2   -1    0    0  501    0  0.00000000000E+00  0.00000000000E+00  0.81245106925E+02  0.81245106925E+02  0.00000000000E+00 0. -1.
         -2   -1    0    0    0  501 -0.00000000000E+00 -0.00000000000E+00 -0.23426401325E+03  0.23426401325E+03  0.00000000000E+00 0.  1.
         23    2    1    2    0    0 -0.35209762326E+02  0.45563520739E+02 -0.13777243264E+02  0.11073155360E+03  0.93572980851E+02 0.  0.
          5    1    3    3  502    0 -0.35630872632E+02  0.69857634351E+02 -0.26493657113E+02  0.82907490789E+02  0.47000000000E+01 0. -1.
         -5    1    3    3    0  502  0.42111030613E+00 -0.24294113612E+02  0.12716413849E+02  0.27824062810E+02  0.47000000000E+01 0.  1.
          5    1    1    2  503    0  0.57467665404E+02  0.15005381938E+02 -0.10231045604E+02  0.60452116160E+02  0.47000000000E+01 0. -1.
         -5    1    1    2    0  503 -0.22257903078E+02 -0.60568902677E+02 -0.12901061746E+03  0.14432545042E+03  0.47000000000E+01 0.  1.
<mgrwt>
<rscale>  0 0.13887343E+03</rscale>
<asrwt>0</asrwt>
<pdfrwt beam="1">  1        2 0.12499247E-01 0.15015196E+03</pdfrwt>
<pdfrwt beam="2">  1       -2 0.36040617E-01 0.15015196E+03</pdfrwt>
<totfact> 0.34077227E+03</totfact>
</mgrwt>
</event>
<event>
 8    1  0.3177960E-004  0.1927096E+03  0.7546771E-02  0.1156098E+00
         -1   -1    0    0    0  501 -0.00000000000E+00  0.00000000000E+00  0.10612754459E+04  0.10612754459E+04  0.00000000000E+00 0.  1.
          1   -1    0    0  501    0  0.00000000000E+00 -0.00000000000E+00 -0.43496560358E+02  0.43496560358E+02  0.00000000000E+00 0. -1.
         23    2    1    2    0    0 -0.10039616298E+03 -0.13722369118E+03  0.26424028154E+03  0.32704727240E+03  0.90704250368E+02 0.  0.
         23    2    1    2    0    0  0.10039616298E+03  0.13722369118E+03  0.75353860401E+03  0.77772473387E+03  0.90142126515E+02 0.  0.
          5    1    4    4  502    0  0.10835489461E+03  0.81328057903E+02  0.51378394368E+03  0.53136716776E+03  0.47000000000E+01 0. -1.
         -5    1    3    3    0  503 -0.11372394424E+03 -0.99269805250E+02  0.22224181973E+03  0.26870270963E+03  0.47000000000E+01 0.  1.
          5    1    3    3  503    0  0.13327781257E+02 -0.37953885927E+02  0.41998461816E+02  0.58344562773E+02  0.47000000000E+01 0. -1.
         -5    1    4    4    0  502 -0.79587316336E+01  0.55895633274E+02  0.23975466033E+03  0.24635756611E+03  0.47000000000E+01 0.  1.
<mgrwt>
<rscale>  0 0.19264359E+03</rscale>
<asrwt>0</asrwt>
<pdfrwt beam="1">  1        1 0.66917793E-02 0.19270961E+03</pdfrwt>
<pdfrwt beam="2">  1       -1 0.16327313E+00 0.19270961E+03</pdfrwt>
<totfact> 0.33523887E+02</totfact>
</mgrwt>
</event>
<event>
 8    1  0.3177960E-004  0.1574612E+03  0.7546771E-02  0.1191671E+00
         -1   -1    0    0    0  501 -0.00000000000E+00  0.00000000000E+00  0.16778647138E+03  0.16778647138E+03  0.00000000000E+00 0.  1.
          1   -1    0    0  501    0  0.00000000000E+00 -0.00000000000E+00 -0.16674613090E+03  0.16674613090E+03  0.00000000000E+00 0. -1.
         23    2    1    2    0    0 -0.68661484396E+02 -0.10853431328E+03 -0.56278901196E+02  0.16696313508E+03  0.90638166114E+02 0.  0.
         23    2    1    2    0    0  0.68661484396E+02  0.10853431328E+03  0.57319241675E+02  0.16756946720E+03  0.91103975070E+02 0.  0.
          5    1    4    4  502    0  0.19239525792E+02  0.47464699239E+02 -0.21901503311E+02  0.55900115150E+02  0.47000000000E+01 0. -1.
         -5    1    4    4    0  502  0.49421958604E+02  0.61069614040E+02  0.79220744986E+02  0.11166935205E+03  0.47000000000E+01 0.  1.
          5    1    3    3  503    0  0.33521831595E+01 -0.75979936597E+02 -0.14937252402E+02  0.77649207379E+02  0.47000000000E+01 0. -1.
         -5    1    3    3    0  503 -0.72013667555E+02 -0.32554376681E+02 -0.41341648793E+02  0.89313927698E+02  0.47000000000E+01 0.  1.
<mgrwt>
<rscale>  0 0.15739390E+03</rscale>
<asrwt>0</asrwt>
<pdfrwt beam="1">  1        1 0.25653251E-01 0.15746120E+03</pdfrwt>
<pdfrwt beam="2">  1       -1 0.25813303E-01 0.15746120E+03</pdfrwt>
<totfact> 0.23870176E+03</totfact>
</mgrwt>
</event>
<event>
 7    1  0.3177960E-004  0.3462675E+03  0.7546771E-02  0.1070710E+00
          2   -1    0    0  501    0  0.00000000000E+00  0.00000000000E+00  0.81062047408E+03  0.81062047408E+03  0.00000000000E+00 0. -1.
         -2   -1    0    0    0  501 -0.00000000000E+00 -0.00000000000E+00 -0.14383365387E+03  0.14383365387E+03  0.00000000000E+00 0.  1.
         23    2    1    2    0    0 -0.17122815233E+03  0.21406037150E+03  0.13287317151E+03  0.31808555828E+03  0.91554464048E+02 0.  0.
          5    1    1    2  502    0  0.16697133937E+03 -0.24708211112E+03  0.52104386803E+03  0.60036472266E+03  0.47000000000E+01 0. -1.
         -5    1    3    3    0  503 -0.13029216262E+03  0.20947151814E+03  0.10510306724E+03  0.26818484166E+03  0.47000000000E+01 0.  1.
          5    1    3    3  503    0 -0.40935989711E+02  0.45888533554E+01  0.27770104268E+02  0.49900716626E+02  0.47000000000E+01 0. -1.
         -5    1    1    2    0  502  0.42568129636E+01  0.33021739622E+02  0.12869780670E+02  0.36003846999E+02  0.47000000000E+01 0.  1.
<mgrwt>
<rscale>  0 0.33096696E+03</rscale>
<asrwt>0</asrwt>
<pdfrwt beam="1">  1        2 0.12471084E+00 0.34626749E+03</pdfrwt>
<pdfrwt beam="2">  1       -2 0.22128255E-01 0.34626749E+03</pdfrwt>
<totfact> 0.61534052E+02</totfact>
</mgrwt>
</event>
<event>
 8    1  0.3177960E-004  0.9691781E+02  0.7546771E-02  0.1287611E+00
         -1   -1    0    0    0  501 -0.00000000000E+00  0.00000000000E+00  0.21317395463E+03  0.21317395463E+03  0.00000000000E+00 0.  1.
          1   -1    0    0  501    0  0.00000000000E+00 -0.00000000000E+00 -0.15252953604E+03  0.15252953604E+03  0.00000000000E+00 0. -1.
         23    2    1    2    0    0 -0.50945550307E+01 -0.21520904149E+02  0.18486549247E+03  0.20814735231E+03  0.93064311956E+02 0.  0.
         23    2    1    2    0    0  0.50945550307E+01  0.21520904149E+02 -0.12422107388E+03  0.15755613837E+03  0.94360784949E+02 0.  0.
          5    1    3    3  502    0 -0.38423201060E+02  0.59185314651E+01  0.36410873356E+02  0.53471610159E+02  0.47000000000E+01 0. -1.
         -5    1    3    3    0  502  0.33328646029E+02 -0.27439435614E+02  0.14845461911E+03  0.15467574215E+03  0.47000000000E+01 0.  1.
          5    1    4    4  503    0 -0.23100110081E+02  0.41093048876E+02 -0.27407698084E+02  0.54731395615E+02  0.47000000000E+01 0. -1.
         -5    1    4    4    0  503  0.28194665111E+02 -0.19572144728E+02 -0.96813375792E+02  0.10282474275E+03  0.47000000000E+01 0.  1.
<mgrwt>
<rscale>  0 0.96600804E+02</rscale>
<asrwt>0</asrwt>
<pdfrwt beam="1">  1        1 0.23466082E-01 0.96917808E+02</pdfrwt>
<pdfrwt beam="2">  1       -1 0.32795993E-01 0.96917808E+02</pdfrwt>
<totfact> 0.17546455E+03</totfact>
</mgrwt>
</event>
<event>
 8    1  0.3177960E-004  0.1110809E+03  0.7546771E-02  0.1259006E+00
         -1   -1    0    0    0  501 -0.00000000000E+00  0.00000000000E+00  0.16887358666E+02  0.16887358666E+02  0.00000000000E+00 0.  1.
          1   -1    0    0  501    0  0.00000000000E+00 -0.00000000000E+00 -0.74311873780E+03  0.74311873780E+03  0.00000000000E+00 0. -1.
         23    2    1    2    0    0 -0.10986030514E+02  0.61704700315E+02 -0.42460123248E+03  0.43889085598E+03  0.91710489799E+02 0.  0.
         23    2    1    2    0    0  0.10986030514E+02 -0.61704700315E+02 -0.30163014666E+03  0.32111524048E+03  0.90587468167E+02 0.  0.
          5    1    3    3  502    0  0.20812374848E+02  0.53782783877E+02 -0.12827020258E+03  0.14071630203E+03  0.47000000000E+01 0. -1.
         -5    1    4    4    0  503 -0.39128374270E+02 -0.28952876184E+02 -0.11218437783E+03  0.12237942368E+03  0.47000000000E+01 0.  1.
          5    1    4    4  503    0  0.50114404784E+02 -0.32751824130E+02 -0.18944576883E+03  0.19873581680E+03  0.47000000000E+01 0. -1.
         -5    1    3    3    0  502 -0.31798405362E+02  0.79219164375E+01 -0.29633102990E+03  0.29817455395E+03  0.47000000000E+01 0.  1.
<mgrwt>
<rscale>  0 0.11084888E+03</rscale>
<asrwt>0</asrwt>
<pdfrwt beam="1">  1        1 0.11432599E+00 0.11108095E+03</pdfrwt>
<pdfrwt beam="2">  1       -1 0.25980545E-02 0.11108095E+03</pdfrwt>
<totfact> 0.11352712E+04</totfact>
</mgrwt>
</event>
<event>
 8    1  0.3177960E-004  0.9505203E+02  0.7546771E-02  0.1293339E+00
          4   -1    0    0  501    0  0.00000000000E+00  0.00000000000E+00  0.37148785804E+02  0.37148785804E+02  0.00000000000E+00 0. -1.
         -4   -1    0    0    0  501 -0.00000000000E+00 -0.00000000000E+00 -0.24232278343E+03  0.24232278343E+03  0.00000000000E+00 0.  1.
         23    2    1    2    0    0 -0.61070285924E+01  0.94750844199E+01 -0.13182492871E+03  0.16251984375E+03  0.94381220387E+02 0.  0.
         23    2    1    2    0    0  0.61070285924E+01 -0.94750844199E+01 -0.73349068918E+02  0.11695172548E+03  0.90391078977E+02 0.  0.
          5    1    3    3  502    0 -0.34674242348E+02 -0.28357947461E+02 -0.82191894233E+02  0.93723389526E+02  0.47000000000E+01 0. -1.
         -5    1    3    3    0  502  0.28567213755E+02  0.37833031881E+02 -0.49633034476E+02  0.68796454228E+02  0.47000000000E+01 0.  1.
          5    1    4    4  503    0  0.33137564227E+02 -0.10016194161E+02  0.37291909059E+01  0.35134301945E+02  0.47000000000E+01 0. -1.
         -5    1    4    4    0  503 -0.27030535635E+02  0.54110974120E+00 -0.77078259824E+02  0.81817423535E+02  0.47000000000E+01 0.  1.
<mgrwt>
<rscale>  0 0.94045979E+02</rscale>
<asrwt>0</asrwt>
<pdfrwt beam="1">  1        4 0.57151980E-02 0.95052027E+02</pdfrwt>
<pdfrwt beam="2">  1       -4 0.37280427E-01 0.95052027E+02</pdfrwt>
<totfact> 0.20249706E+03</totfact>
</mgrwt>
</event>
<event>
 8    1  0.3177960E-004  0.1023825E+03  0.7546771E-02  0.1276107E+00
          1   -1    0    0  501    0  0.00000000000E+00  0.00000000000E+00  0.11419861246E+03  0.11419861246E+03  0.00000000000E+00 0. -1.
         -1   -1    0    0    0  501 -0.00000000000E+00 -0.00000000000E+00 -0.92976701424E+02  0.92976701424E+02  0.00000000000E+00 0.  1.
         23    2    1    2    0    0  0.13499323249E+02  0.44609945105E+02  0.27601553032E+02  0.10603781846E+03  0.91158621559E+02 0.  0.
         23    2    1    2    0    0 -0.13499323249E+02 -0.44609945105E+02 -0.63796419915E+01  0.10113749542E+03  0.89531079622E+02 0.  0.
          5    1    3    3  502    0 -0.57556810080E+01 -0.26446463432E+02  0.14675743716E+02  0.31144995514E+02  0.47000000000E+01 0. -1.
         -5    1    4    4    0  503 -0.32546417856E+02 -0.15489667734E+02 -0.38927563312E+02  0.53260156845E+02  0.47000000000E+01 0.  1.
          5    1    4    4  503    0  0.19047094606E+02 -0.29120277370E+02  0.32547921321E+02  0.47877338579E+02  0.47000000000E+01 0. -1.
         -5    1    3    3    0  502  0.19255004257E+02  0.71056408537E+02  0.12925809316E+02  0.74892822951E+02  0.47000000000E+01 0.  1.
<mgrwt>
<rscale>  0 0.10201895E+03</rscale>
<asrwt>0</asrwt>
<pdfrwt beam="1">  1        1 0.17569017E-01 0.10238248E+03</pdfrwt>
<pdfrwt beam="2">  1       -1 0.14304108E-01 0.10238248E+03</pdfrwt>
<totfact> 0.96317317E+03</totfact>
</mgrwt>
</event>
<event>
 8    1  0.3177960E-004  0.1062892E+03  0.7546771E-02  0.1268845E+00
          3   -1    0    0  501    0  0.00000000000E+00  0.00000000000E+00  0.25643649989E+03  0.25643649989E+03  0.00000000000E+00 0. -1.
         -3   -1    0    0    0  501 -0.00000000000E+00 -0.00000000000E+00 -0.53910376850E+02  0.53910376850E+02  0.00000000000E+00 0.  1.
         23    2    1    2    0    0  0.40316724398E+02 -0.36689599042E+02  0.30518408413E+02  0.10814883904E+03  0.88279290826E+02 0.  0.
         23    2    1    2    0    0 -0.40316724398E+02  0.36689599042E+02  0.17200771462E+03  0.20219803770E+03  0.91245973151E+02 0.  0.
          5    1    3    3  502    0  0.24153571296E+02  0.17836366158E+02  0.40068480283E+02  0.50290198610E+02  0.47000000000E+01 0. -1.
         -5    1    3    3    0  502  0.16163153102E+02 -0.54525965200E+02 -0.95500718691E+01  0.57858640426E+02  0.47000000000E+01 0.  1.
          5    1    4    4  503    0  0.21189233505E+02  0.74947610167E+01  0.10152720051E+03  0.10409139014E+03  0.47000000000E+01 0. -1.
         -5    1    4    4    0  503 -0.61505957903E+02  0.29194838025E+02  0.70480514117E+02  0.98106647558E+02  0.47000000000E+01 0.  1.
<mgrwt>
<rscale>  0 0.10564953E+03</rscale>
<asrwt>0</asrwt>
<pdfrwt beam="1">  1        3 0.39451769E-01 0.10628919E+03</pdfrwt>
<pdfrwt beam="2">  1       -3 0.82939042E-02 0.10628919E+03</pdfrwt>
<totfact> 0.14132229E+03</totfact>
</mgrwt>
</event>
<event>
 8    1  0.3177960E-004  0.2084392E+03  0.7546771E-02  0.1143131E+00
         -1   -1    0    0    0  501 -0.00000000000E+00  0.00000000000E+00  0.14039002355E+03  0.14039002355E+03  0.00000000000E+00 0.  1.
          1   -1    0    0  501    0  0.00000000000E+00 -0.00000000000E+00 -0.35754142931E+03  0.35754142931E+03  0.00000000000E+00 0. -1.
         23    2    1    2    0    0  0.18196120810E+03 -0.45476658362E+02 -0.20173460768E+03  0.28892284526E+03  0.87186873243E+02 0.  0.
         23    2    1    2    0    0 -0.18196120810E+03  0.45476658362E+02 -0.15416798074E+02  0.20900860761E+03  0.90933561916E+02 0.  0.
          5    1    4    4  502    0 -0.11143468792E+03  0.56949107165E+02 -0.42799915074E+02  0.13234354238E+03  0.47000000000E+01 0. -1.
         -5    1    4    4    0  502 -0.70526520177E+02 -0.11472448803E+02  0.27383117000E+02  0.76665065229E+02  0.47000000000E+01 0.  1.
          5    1    3    3  503    0  0.52466509897E+02  0.26082379397E+02 -0.59419455710E+02  0.83581019931E+02  0.47000000000E+01 0. -1.
         -5    1    3    3    0  503  0.12949469820E+03 -0.71559037759E+02 -0.14231515197E+03  0.20534182532E+03  0.47000000000E+01 0.  1.
<mgrwt>
<rscale>  0 0.20803632E+03</rscale>
<asrwt>0</asrwt>
<pdfrwt beam="1">  1        1 0.55006373E-01 0.20843925E+03</pdfrwt>
<pdfrwt beam="2">  1       -1 0.21598465E-01 0.20843925E+03</pdfrwt>
<totfact> 0.12404027E+03</totfact>
</mgrwt>
</event>
<event>
 8    1  0.3177960E-004  0.9292418E+02  0.7546771E-02  0.1296259E+00
         -1   -1    0    0    0  501 -0.00000000000E+00  0.00000000000E+00  0.65868194544E+02  0.65868194544E+02  0.00000000000E+00 0.  1.
          1   -1    0    0  501    0  0.00000000000E+00 -0.00000000000E+00 -0.13480048885E+03  0.13480048885E+03  0.00000000000E+00 0. -1.
         23    2    1    2    0    0  0.12330286436E+02 -0.56441523380E+00 -0.52953090703E+02  0.10695295125E+03  0.92100756991E+02 0.  0.
         23    2    1    2    0    0 -0.12330286436E+02  0.56441523380E+00 -0.15979203599E+02  0.93715732139E+02  0.91514747307E+02 0.  0.
          5    1    3    3  502    0 -0.11508576660E+02 -0.38169798674E+02 -0.46963052159E+02  0.61781867369E+02  0.47000000000E+01 0. -1.
         -5    1    4    4    0  503 -0.10825453079E+02 -0.44065358389E+02 -0.17315425546E+02  0.48794059128E+02  0.47000000000E+01 0.  1.
          5    1    4    4  503    0 -0.15048333569E+01  0.44629773623E+02  0.13362219471E+01  0.44921673011E+02  0.47000000000E+01 0. -1.
         -5    1    3    3    0  502  0.23838863096E+02  0.37605383440E+02 -0.59900385446E+01  0.45171083883E+02  0.47000000000E+01 0.  1.
<mgrwt>
<rscale>  0 0.92778646E+02</rscale>
<asrwt>0</asrwt>
<pdfrwt beam="1">  1        1 0.20738536E-01 0.92924184E+02</pdfrwt>
<pdfrwt beam="2">  1       -1 0.10133569E-01 0.92924184E+02</pdfrwt>
<totfact> 0.13119926E+04</totfact>
</mgrwt>
</event>
<event>
 8    1  0.3177960E-004  0.1004433E+03  0.7546771E-02  0.1281579E+00
          1   -1    0    0  501    0  0.00000000000E+00  0.00000000000E+00  0.26403359302E+03  0.26403359302E+03  0.00000000000E+00 0. -1.
         -1   -1    0    0    0  501 -0.00000000000E+00 -0.00000000000E+00 -0.65919668239E+02  0.65919668239E+02  0.00000000000E+00 0.  1.
         23    2    1    2    0    0  0.31094469378E+02 -0.26688056537E+02  0.21013000201E+03  0.23290229843E+03  0.91704659005E+02 0.  0.
         23    2    1    2    0    0 -0.31094469378E+02  0.26688056537E+02 -0.12016077227E+02  0.97050962827E+02  0.87151505358E+02 0.  0.
          5    1    3    3  502    0  0.40396658585E+02  0.20605902738E+02  0.14324535071E+03  0.15032569226E+03  0.47000000000E+01 0. -1.
         -5    1    3    3    0  502 -0.93021892075E+01 -0.47293959275E+02  0.66884651295E+02  0.82576606171E+02  0.47000000000E+01 0.  1.
          5    1    4    4  503    0  0.26040472187E+02 -0.22639857441E+01  0.11112956462E+02  0.28789227578E+02  0.47000000000E+01 0. -1.
         -5    1    4    4    0  503 -0.57134941565E+02  0.28952042281E+02 -0.23129033690E+02  0.68261735249E+02  0.47000000000E+01 0.  1.
<mgrwt>
<rscale>  0 0.99392168E+02</rscale>
<asrwt>0</asrwt>
<pdfrwt beam="1">  1        1 0.40620552E-01 0.10044333E+03</pdfrwt>
<pdfrwt beam="2">  1       -1 0.10141488E-01 0.10044333E+03</pdfrwt>
<totfact> 0.57512589E+03</totfact>
</mgrwt>
</event>
<event>
 8    1  0.3177960E-004  0.2902189E+03  0.7546771E-02  0.1091358E+00
          3   -1    0    0  501    0  0.00000000000E+00  0.00000000000E+00  0.90090629277E+02  0.90090629277E+02  0.00000000000E+00 0. -1.
         -3   -1    0    0    0  501 -0.00000000000E+00 -0.00000000000E+00 -0.10103195863E+04  0.10103195863E+04  0.00000000000E+00 0.  1.
         23    2    1    2    0    0  0.16715668476E+03 -0.21068947194E+03 -0.62923587672E+03  0.68943088781E+03  0.83938963926E+02 0.  0.
         23    2    1    2    0    0 -0.16715668476E+03  0.21068947194E+03 -0.29099308034E+03  0.41097932781E+03  0.10906706301E+03 0.  0.
          5    1    3    3  502    0  0.94844313876E+02 -0.91229018903E+02 -0.21349398812E+03  0.25083849531E+03  0.47000000000E+01 0. -1.
         -5    1    3    3    0  502  0.72312370886E+02 -0.11946045304E+03 -0.41574188860E+03  0.43859239250E+03  0.47000000000E+01 0.  1.
          5    1    4    4  503    0 -0.73672915173E+02  0.16520573143E+03 -0.22069686257E+03  0.28539416124E+03  0.47000000000E+01 0. -1.
         -5    1    4    4    0  503 -0.93483769589E+02  0.45483740514E+02 -0.70296217779E+02  0.12558516657E+03  0.47000000000E+01 0.  1.
<mgrwt>
<rscale>  0 0.28807546E+03</rscale>
<asrwt>0</asrwt>
<pdfrwt beam="1">  1        3 0.13860096E-01 0.29021894E+03</pdfrwt>
<pdfrwt beam="2">  1       -3 0.15543379E+00 0.29021894E+03</pdfrwt>
<totfact> 0.33187597E+01</totfact>
</mgrwt>
</event>
<event>
 8    1  0.3177960E-004  0.9724672E+02  0.7546771E-02  0.1288025E+00
          2   -1    0    0  501    0  0.00000000000E+00  0.00000000000E+00  0.23220624927E+03  0.23220624927E+03  0.00000000000E+00 0. -1.
         -2   -1    0    0    0  501 -0.00000000000E+00 -0.00000000000E+00 -0.40566352134E+02  0.40566352134E+02  0.00000000000E+00 0.  1.
         23    2    1    2    0    0 -0.18441575800E+02  0.20417603870E+02  0.11774348494E+03  0.15063495832E+03  0.89835361399E+02 0.  0.
         23    2    1    2    0    0  0.18441575800E+02 -0.20417603870E+02  0.73896412198E+02  0.12213764308E+03  0.93273543174E+02 0.  0.
          5    1    3    3  502    0 -0.27121301009E+02 -0.30787729195E+02  0.44341663937E+02  0.60594739030E+02  0.47000000000E+01 0. -1.
         -5    1    4    4    0  503 -0.37354007028E+02 -0.11486952397E+00  0.26971014445E+02  0.46312640351E+02  0.47000000000E+01 0.  1.
          5    1    4    4  503    0  0.55795582828E+02 -0.20302734346E+02  0.46925397754E+02  0.75825002732E+02  0.47000000000E+01 0. -1.
         -5    1    3    3    0  502  0.86797252095E+01  0.51205333064E+02  0.73401821001E+02  0.90040219293E+02  0.47000000000E+01 0.  1.
<mgrwt>
<rscale>  0 0.96412886E+02</rscale>
<asrwt>0</asrwt>
<pdfrwt beam="1">  1        2 0.35724038E-01 0.97246718E+02</pdfrwt>
<pdfrwt beam="2">  1       -2 0.62409774E-02 0.97246718E+02</pdfrwt>
<totfact> 0.18194721E+04</totfact>
</mgrwt>
</event>
<event>
 8    1  0.3177960E-004  0.1075705E+03  0.7546771E-02  0.1278874E+00
         -3   -1    0    0    0  501 -0.00000000000E+00  0.00000000000E+00  0.23230915654E+03  0.23230915654E+03  0.00000000000E+00 0.  1.
          3   -1    0    0  501    0  0.00000000000E+00 -0.00000000000E+00 -0.55155814947E+02  0.55155814947E+02  0.00000000000E+00 0. -1.
         23    2    1    2    0    0 -0.13977436124E+02 -0.51798621270E+02  0.17436235017E+03  0.20487470319E+03  0.93235985350E+02 0.  0.
         23    2    1    2    0    0  0.13977436124E+02  0.51798621270E+02  0.27909914207E+01  0.82590268295E+02  0.62728756546E+02 0.  0.
          5    1    4    4  502    0 -0.21921066735E+02  0.68438277895E+01  0.76694656986E+01  0.24663370608E+02  0.47000000000E+01 0. -1.
         -5    1    4    4    0  502  0.35898502860E+02  0.44954793480E+02 -0.48784742779E+01  0.57926897687E+02  0.47000000000E+01 0.  1.
          5    1    3    3  503    0 -0.40849203912E+02  0.30129300417E+00  0.36460587195E+02  0.54956461461E+02  0.47000000000E+01 0. -1.
         -5    1    3    3    0  503  0.26871767788E+02 -0.52099914274E+02  0.13790176297E+03  0.14991824173E+03  0.47000000000E+01 0.  1.
<mgrwt>
<rscale>  0 0.10067928E+03</rscale>
<asrwt>0</asrwt>
<pdfrwt beam="1">  1        3 0.84855101E-02 0.10757051E+03</pdfrwt>
<pdfrwt beam="2">  1       -3 0.35739870E-01 0.10757051E+03</pdfrwt>
<totfact> 0.16459180E+03</totfact>
</mgrwt>
</event>
<event>
 8    1  0.3177960E-004  0.1007086E+03  0.7546771E-02  0.1279309E+00
         -2   -1    0    0    0  501 -0.00000000000E+00  0.00000000000E+00  0.15905460312E+03  0.15905460312E+03  0.00000000000E+00 0. -1.
          2   -1    0    0  501    0  0.00000000000E+00 -0.00000000000E+00 -0.54794037429E+03  0.54794037429E+03  0.00000000000E+00 0.  1.
         23    2    1    2    0    0 -0.40089725695E+02  0.17985261486E+02  0.13794867712E+03  0.17079828004E+03  0.90617653951E+02 0.  0.
         23    2    1    2    0    0  0.40089725695E+02 -0.17985261486E+02 -0.52683444829E+03  0.53619669736E+03  0.89563980586E+02 0.  0.
          5    1    4    4  502    0  0.44069960473E+02  0.27455850735E+02 -0.22952619506E+03  0.23537278810E+03  0.47000000000E+01 0. -1.
         -5    1    4    4    0  502 -0.39802347784E+01 -0.45441112220E+02 -0.29730825323E+03  0.30082390927E+03  0.47000000000E+01 0.  1.
          5    1    3    3  503    0 -0.40995683530E+02 -0.28243456170E+02  0.95760395643E+02  0.10803000629E+03  0.47000000000E+01 0. -1.
         -5    1    3    3    0  503  0.90595783534E+00  0.46228717656E+02  0.42188281480E+02  0.62768273753E+02  0.47000000000E+01 0.  1.
<mgrwt>
<rscale>  0 0.10047097E+03</rscale>
<asrwt>0</asrwt>
<pdfrwt beam="1">  1        2 0.84298519E-01 0.10070856E+03</pdfrwt>
<pdfrwt beam="2">  1       -2 0.24469939E-01 0.10070856E+03</pdfrwt>
<totfact> 0.82609426E+02</totfact>
</mgrwt>
</event>
<event>
 8    1  0.3177960E-004  0.1099508E+03  0.7546771E-02  0.1260973E+00
         -3   -1    0    0    0  501 -0.00000000000E+00  0.00000000000E+00  0.88362462668E+02  0.88362462668E+02  0.00000000000E+00 0.  1.
          3   -1    0    0  501    0  0.00000000000E+00 -0.00000000000E+00 -0.14241742636E+03  0.14241742636E+03  0.00000000000E+00 0. -1.
         23    2    1    2    0    0  0.42924650917E+02 -0.42890673286E+02 -0.24146638776E+01  0.10930598278E+03  0.90883616563E+02 0.  0.
         23    2    1    2    0    0 -0.42924650917E+02  0.42890673286E+02 -0.51640299812E+02  0.12147390624E+03  0.91689987576E+02 0.  0.
          5    1    3    3  502    0 -0.20616382742E+02 -0.16115515840E+02 -0.25103240844E+02  0.36565117107E+02  0.47000000000E+01 0. -1.
         -5    1    4    4    0  503 -0.17717284114E+02  0.33174253580E+02  0.21351188179E+02  0.43501683802E+02  0.47000000000E+01 0.  1.
          5    1    4    4  503    0 -0.25207366803E+02  0.97164197056E+01 -0.72991487991E+02  0.77972222440E+02  0.47000000000E+01 0. -1.
         -5    1    3    3    0  502  0.63541033659E+02 -0.26775157446E+02  0.22688576966E+02  0.72740865677E+02  0.47000000000E+01 0.  1.
<mgrwt>
<rscale>  0 0.10978258E+03</rscale>
<asrwt>0</asrwt>
<pdfrwt beam="1">  1        3 0.21910373E-01 0.10995085E+03</pdfrwt>
<pdfrwt beam="2">  1       -3 0.13594225E-01 0.10995085E+03</pdfrwt>
<totfact> 0.18511542E+03</totfact>
</mgrwt>
</event>
<event>
 8    1  0.3177960E-004  0.1200047E+03  0.7546771E-02  0.1248204E+00
         -4   -1    0    0    0  501 -0.00000000000E+00  0.00000000000E+00  0.12759129075E+03  0.12759129075E+03  0.00000000000E+00 0.  1.
          4   -1    0    0  501    0  0.00000000000E+00 -0.00000000000E+00 -0.17310176724E+03  0.17310176724E+03  0.00000000000E+00 0. -1.
         23    2    1    2    0    0  0.27923921491E+02 -0.65355379268E+02  0.72767630354E+02  0.14034335828E+03  0.96695704117E+02 0.  0.
         23    2    1    2    0    0 -0.27923921491E+02  0.65355379268E+02 -0.11827810684E+03  0.16034969972E+03  0.81677687594E+02 0.  0.
          5    1    3    3  502    0 -0.18827129253E+02 -0.55899738662E+02  0.79105886057E+01  0.59698483988E+02  0.47000000000E+01 0. -1.
         -5    1    4    4    0  503 -0.42163945391E+02  0.39784823668E+02 -0.11702360008E+03  0.13067992753E+03  0.47000000000E+01 0.  1.
          5    1    4    4  503    0  0.14240023900E+02  0.25570555599E+02 -0.12545067675E+01  0.29669772186E+02  0.47000000000E+01 0. -1.
         -5    1    3    3    0  502  0.46751050744E+02 -0.94556406059E+01  0.64857041748E+02  0.80644874290E+02  0.47000000000E+01 0.  1.
<mgrwt>
<rscale>  0 0.11695678E+03</rscale>
<asrwt>0</asrwt>
<pdfrwt beam="1">  1        4 0.26631041E-01 0.12000471E+03</pdfrwt>
<pdfrwt beam="2">  1       -4 0.19629429E-01 0.12000471E+03</pdfrwt>
<totfact> 0.50274009E+02</totfact>
</mgrwt>
</event>
<event>
 8    1  0.3177960E-004  0.1089147E+03  0.7546771E-02  0.1270612E+00
          1   -1    0    0  501    0  0.00000000000E+00  0.00000000000E+00  0.24567411987E+03  0.24567411987E+03  0.00000000000E+00 0. -1.
         -1   -1    0    0    0  501 -0.00000000000E+00 -0.00000000000E+00 -0.41580673432E+02  0.41580673432E+02  0.00000000000E+00 0.  1.
         23    2    1    2    0    0 -0.55038841874E+01  0.10829335963E+02  0.11273811661E+03  0.15675552270E+03  0.10823513155E+03 0.  0.
         23    2    1    2    0    0  0.55038841874E+01 -0.10829335963E+02  0.91355329823E+02  0.13049927060E+03  0.92394242687E+02 0.  0.
          5    1    3    3  502    0 -0.41765444524E+02  0.60029696313E+01  0.11209746194E+03  0.11986792304E+03  0.47000000000E+01 0. -1.
         -5    1    3    3    0  502  0.36261560336E+02  0.48263663321E+01  0.64065467055E+00  0.36887599656E+02  0.47000000000E+01 0.  1.
          5    1    4    4  503    0 -0.21738173020E+02  0.33243994371E+02  0.50059751191E+02  0.64076360831E+02  0.47000000000E+01 0. -1.
         -5    1    4    4    0  503  0.27242057208E+02 -0.44073330335E+02  0.41295578632E+02  0.66422909770E+02  0.47000000000E+01 0.  1.
<mgrwt>
<rscale>  0 0.10475059E+03</rscale>
<asrwt>0</asrwt>
<pdfrwt beam="1">  1        1 0.37796018E-01 0.10891470E+03</pdfrwt>
<pdfrwt beam="2">  1       -1 0.63970268E-02 0.10891470E+03</pdfrwt>
<totfact> 0.12617371E+04</totfact>
</mgrwt>
</event>
<event>
 8    1  0.3177960E-004  0.1003269E+03  0.7546771E-02  0.1280461E+00
         -1   -1    0    0    0  501 -0.00000000000E+00  0.00000000000E+00  0.71491377185E+02  0.71491377185E+02  0.00000000000E+00 0.  1.
          1   -1    0    0  501    0  0.00000000000E+00 -0.00000000000E+00 -0.14658350573E+03  0.14658350573E+03  0.00000000000E+00 0. -1.
         23    2    1    2    0    0  0.32433773298E+02  0.27296365905E+02 -0.11716963290E+02  0.99407743610E+02  0.89149150411E+02 0.  0.
         23    2    1    2    0    0 -0.32433773298E+02 -0.27296365905E+02 -0.63375165253E+02  0.11866713930E+03  0.90930947083E+02 0.  0.
          5    1    3    3  502    0  0.34953889078E+02 -0.17161072642E+02 -0.31646025487E+02  0.50396802528E+02  0.47000000000E+01 0. -1.
         -5    1    3    3    0  502 -0.25201157800E+01  0.44457438547E+02  0.19929062197E+02  0.49010941082E+02  0.47000000000E+01 0.  1.
          5    1    4    4  503    0  0.21375660826E+02 -0.39295389051E+02 -0.27346722050E+02  0.52640095776E+02  0.47000000000E+01 0. -1.
         -5    1    4    4    0  503 -0.53809434124E+02  0.11999023147E+02 -0.36028443203E+02  0.66027043527E+02  0.47000000000E+01 0.  1.
<mgrwt>
<rscale>  0 0.99921393E+02</rscale>
<asrwt>0</asrwt>
<pdfrwt beam="1">  1        1 0.22551308E-01 0.10032686E+03</pdfrwt>
<pdfrwt beam="2">  1       -1 0.10998673E-01 0.10032686E+03</pdfrwt>
<totfact> 0.10507797E+04</totfact>
</mgrwt>
</event>
<event>
 8    1  0.3177960E-004  0.9168701E+02  0.7546771E-02  0.1299382E+00
         -3   -1    0    0    0  501 -0.00000000000E+00  0.00000000000E+00  0.39462779202E+03  0.39462779202E+03  0.00000000000E+00 0.  1.
          3   -1    0    0  501    0  0.00000000000E+00 -0.00000000000E+00 -0.29568266324E+02  0.29568266324E+02  0.00000000000E+00 0. -1.
         23    2    1    2    0    0 -0.38174577461E+01  0.14414889904E+02  0.29547757616E+03  0.30909542621E+03  0.89502080755E+02 0.  0.
         23    2    1    2    0    0  0.38174577461E+01 -0.14414889904E+02  0.69581949540E+02  0.11510063213E+03  0.90466268747E+02 0.  0.
          5    1    3    3  502    0 -0.92910515964E+00 -0.24776739076E+02  0.24260755134E+02  0.35006060551E+02  0.47000000000E+01 0. -1.
         -5    1    3    3    0  502 -0.28883525864E+01  0.39191628980E+02  0.27121682102E+03  0.27408936566E+03  0.47000000000E+01 0.  1.
          5    1    4    4  503    0  0.41056629753E+02 -0.28781308110E+02  0.47582476182E+02  0.69283422136E+02  0.47000000000E+01 0. -1.
         -5    1    4    4    0  503 -0.37239172007E+02  0.14366418206E+02  0.21999473358E+02  0.45817209997E+02  0.47000000000E+01 0.  1.
<mgrwt>
<rscale>  0 0.91448275E+02</rscale>
<asrwt>0</asrwt>
<pdfrwt beam="1">  1        3 0.45489643E-02 0.91687010E+02</pdfrwt>
<pdfrwt beam="2">  1       -3 0.60711964E-01 0.91687010E+02</pdfrwt>
<totfact> 0.15225689E+03</totfact>
</mgrwt>
</event>
<event>
 8    1  0.3177960E-004  0.1514311E+03  0.7546771E-02  0.1198916E+00
         -2   -1    0    0    0  501 -0.00000000000E+00  0.00000000000E+00  0.29367107247E+03  0.29367107247E+03  0.00000000000E+00 0.  1.
          2   -1    0    0  501    0  0.00000000000E+00 -0.00000000000E+00 -0.84184049349E+02  0.84184049349E+02  0.00000000000E+00 0. -1.
         23    2    1    2    0    0 -0.21799057368E+02 -0.11702413021E+03  0.52362363567E+02  0.15963613565E+03  0.92585272771E+02 0.  0.
         23    2    1    2    0    0  0.21799057368E+02  0.11702413021E+03  0.15712465955E+03  0.21821898616E+03  0.93602998511E+02 0.  0.
          5    1    4    4  502    0  0.38927597979E+02  0.13698792631E+02  0.21417568935E+02  0.46731328497E+02  0.47000000000E+01 0. -1.
         -5    1    3    3    0  503  0.20725273342E+02  0.39328793828E+01  0.16443838052E+01  0.21674835488E+02  0.47000000000E+01 0.  1.
          5    1    3    3  503    0 -0.42524330710E+02 -0.12095700959E+03  0.50717979762E+02  0.13796130016E+03  0.47000000000E+01 0. -1.
         -5    1    4    4    0  502 -0.17128540611E+02  0.10332533758E+03  0.13570709062E+03  0.17148765767E+03  0.47000000000E+01 0.  1.
<mgrwt>
<rscale>  0 0.15127408E+03</rscale>
<asrwt>0</asrwt>
<pdfrwt beam="1">  1        2 0.12951392E-01 0.15143106E+03</pdfrwt>
<pdfrwt beam="2">  1       -2 0.45180164E-01 0.15143106E+03</pdfrwt>
<totfact> 0.21266289E+03</totfact>
</mgrwt>
</event>
<event>
 8    1  0.3177960E-004  0.9556230E+02  0.7546771E-02  0.1291956E+00
          2   -1    0    0  501    0  0.00000000000E+00  0.00000000000E+00  0.89732824894E+02  0.89732824894E+02  0.00000000000E+00 0. -1.
         -2   -1    0    0    0  501 -0.00000000000E+00 -0.00000000000E+00 -0.11925950953E+03  0.11925950953E+03  0.00000000000E+00 0.  1.
         23    2    1    2    0    0 -0.10001036168E+02 -0.24545895675E+02 -0.58650183866E+02  0.10909072168E+03  0.88081892413E+02 0.  0.
         23    2    1    2    0    0  0.10001036168E+02  0.24545895675E+02  0.29123499229E+02  0.99901612741E+02  0.91813029043E+02 0.  0.
          5    1    3    3  502    0  0.28359702355E+02  0.12215655736E+02 -0.20255041910E+01  0.31299962140E+02  0.47000000000E+01 0. -1.
         -5    1    4    4    0  503 -0.15261541193E+02  0.45293034585E+02 -0.96328593940E+01  0.48982196782E+02  0.47000000000E+01 0.  1.
          5    1    4    4  503    0  0.25262577361E+02 -0.20747138910E+02  0.38756358623E+02  0.50919415959E+02  0.47000000000E+01 0. -1.
         -5    1    3    3    0  502 -0.38360738523E+02 -0.36761551411E+02 -0.56624679675E+02  0.77790759544E+02  0.47000000000E+01 0.  1.
<mgrwt>
<rscale>  0 0.94654725E+02</rscale>
<asrwt>0</asrwt>
<pdfrwt beam="1">  1        2 0.13805050E-01 0.95562304E+02</pdfrwt>
<pdfrwt beam="2">  1       -2 0.18347617E-01 0.95562304E+02</pdfrwt>
<totfact> 0.95633022E+03</totfact>
</mgrwt>
</event>
<event>
 8    1  0.3177960E-004  0.9716628E+02  0.7546771E-02  0.1286851E+00
          2   -1    0    0  501    0  0.00000000000E+00  0.00000000000E+00  0.40031716704E+03  0.40031716704E+03  0.00000000000E+00 0. -1.
         -2   -1    0    0    0  501 -0.00000000000E+00 -0.00000000000E+00 -0.35158477637E+02  0.35158477637E+02  0.00000000000E+00 0.  1.
         23    2    1    2    0    0 -0.34831246177E+02  0.88470166982E+01  0.30809672943E+03  0.32279310904E+03  0.89332587242E+02 0.  0.
         23    2    1    2    0    0  0.34831246177E+02 -0.88470166982E+01  0.57061959975E+02  0.11268253564E+03  0.90276249076E+02 0.  0.
          5    1    3    3  502    0 -0.57482559069E+02 -0.17429571979E+01  0.12190442763E+03  0.13487053782E+03  0.47000000000E+01 0. -1.
         -5    1    3    3    0  502  0.22651312893E+02  0.10589973896E+02  0.18619230180E+03  0.18792257122E+03  0.47000000000E+01 0.  1.
          5    1    4    4  503    0  0.58931292536E+02 -0.27410432030E+02  0.46827382518E+02  0.80244144818E+02  0.47000000000E+01 0. -1.
         -5    1    4    4    0  503 -0.24100046360E+02  0.18563415332E+02  0.10234577457E+02  0.32438390821E+02  0.47000000000E+01 0.  1.
<mgrwt>
<rscale>  0 0.96946510E+02</rscale>
<asrwt>0</asrwt>
<pdfrwt beam="1">  1        2 0.61587253E-01 0.97166283E+02</pdfrwt>
<pdfrwt beam="2">  1       -2 0.54089968E-02 0.97166283E+02</pdfrwt>
<totfact> 0.12724734E+04</totfact>
</mgrwt>
</event>
<event>
 8    1  0.3177960E-004  0.9544084E+02  0.7546771E-02  0.1291139E+00
         -1   -1    0    0    0  501 -0.00000000000E+00  0.00000000000E+00  0.85446405332E+03  0.85446405332E+03  0.00000000000E+00 0.  1.
          1   -1    0    0  501    0  0.00000000000E+00 -0.00000000000E+00 -0.10601741472E+02  0.10601741472E+02  0.00000000000E+00 0. -1.
         23    2    1    2    0    0 -0.17402606174E+02 -0.13127192301E+02  0.37797149948E+03  0.38983510498E+03  0.92918140163E+02 0.  0.
         23    2    1    2    0    0  0.17402606174E+02  0.13127192301E+02  0.46589081237E+03  0.47523068982E+03  0.91185446305E+02 0.  0.
          5    1    4    4  502    0  0.42815258700E+02 -0.19413369661E+02  0.32242190067E+03  0.32586499863E+03  0.47000000000E+01 0. -1.
         -5    1    3    3    0  503 -0.41469591449E+02 -0.37472108235E+02  0.28893307642E+03  0.29432685667E+03  0.47000000000E+01 0.  1.
          5    1    3    3  503    0  0.24066985275E+02  0.24344915935E+02  0.89038423062E+02  0.95508248301E+02  0.47000000000E+01 0. -1.
         -5    1    4    4    0  502 -0.25412652526E+02  0.32540561962E+02  0.14346891169E+03  0.14936569119E+03  0.47000000000E+01 0.  1.
<mgrwt>
<rscale>  0 0.95016507E+02</rscale>
<asrwt>0</asrwt>
<pdfrwt beam="1">  1        1 0.16310378E-02 0.95440844E+02</pdfrwt>
<pdfrwt beam="2">  1       -1 0.13145595E+00 0.95440844E+02</pdfrwt>
<totfact> 0.39924553E+03</totfact>
</mgrwt>
</event>
<event>
 8    1  0.3177960E-004  0.1057639E+03  0.7546771E-02  0.1272284E+00
          1   -1    0    0  501    0  0.00000000000E+00  0.00000000000E+00  0.63894294720E+03  0.63894294720E+03  0.00000000000E+00 0. -1.
         -1   -1    0    0    0  501 -0.00000000000E+00 -0.00000000000E+00 -0.39877700009E+02  0.39877700009E+02  0.00000000000E+00 0.  1.
         23    2    1    2    0    0 -0.12925097295E+02 -0.20303033786E+02  0.34452901393E+02  0.10438778932E+03  0.95553842534E+02 0.  0.
         23    2    1    2    0    0  0.12925097295E+02  0.20303033786E+02  0.56461234580E+03  0.57443285789E+03  0.10298900853E+03 0.  0.
          5    1    4    4  502    0  0.50807007460E+02  0.31254981336E+02  0.42810303010E+03  0.43226441011E+03  0.47000000000E+01 0. -1.
         -5    1    4    4    0  502 -0.37881910165E+02 -0.10951947550E+02  0.13650931569E+03  0.14216844778E+03  0.47000000000E+01 0.  1.
          5    1    3    3  503    0  0.35437093214E+02  0.14120639762E+02  0.18959375616E+02  0.42857064371E+02  0.47000000000E+01 0. -1.
         -5    1    3    3    0  503 -0.48362190509E+02 -0.34423673548E+02  0.15493525777E+02  0.61530724946E+02  0.47000000000E+01 0.  1.
<mgrwt>
<rscale>  0 0.10390932E+03</rscale>
<asrwt>0</asrwt>
<pdfrwt beam="1">  1        1 0.98298907E-01 0.10576392E+03</pdfrwt>
<pdfrwt beam="2">  1       -1 0.61350312E-02 0.10576392E+03</pdfrwt>
<totfact> 0.39934797E+03</totfact>
</mgrwt>
</event>
<event>
 8    1  0.3177960E-004  0.9527707E+02  0.7546771E-02  0.1290879E+00
         -1   -1    0    0    0  501 -0.00000000000E+00  0.00000000000E+00  0.50753783854E+02  0.50753783854E+02  0.00000000000E+00 0.  1.
          1   -1    0    0  501    0  0.00000000000E+00 -0.00000000000E+00 -0.32492496868E+03  0.32492496868E+03  0.00000000000E+00 0. -1.
         23    2    1    2    0    0  0.12811730636E+02  0.23754613568E+02 -0.26326568532E+03  0.27977958722E+03  0.90770998942E+02 0.  0.
         23    2    1    2    0    0 -0.12811730636E+02 -0.23754613568E+02 -0.10905499507E+02  0.95899165317E+02  0.91374492510E+02 0.  0.
          5    1    4    4  502    0  0.27990182470E+02  0.14924658792E+02 -0.21348051210E+02  0.38523045638E+02  0.47000000000E+01 0. -1.
         -5    1    3    3    0  503 -0.33232745465E+02  0.27888889001E+02 -0.17090477807E+03  0.17638803437E+03  0.47000000000E+01 0. -1.
          5    1    3    3  503    0  0.46044476100E+02 -0.41342754324E+01 -0.92360907247E+02  0.10339155285E+03  0.47000000000E+01 0.  1.
         -5    1    4    4    0  502 -0.40801913106E+02 -0.38679272360E+02  0.10442551703E+02  0.57376119680E+02  0.47000000000E+01 0.  1.
<mgrwt>
<rscale>  0 0.95132084E+02</rscale>
<asrwt>0</asrwt>
<pdfrwt beam="1">  1        1 0.49988457E-01 0.95277070E+02</pdfrwt>
<pdfrwt beam="2">  1       -1 0.78082744E-02 0.95277070E+02</pdfrwt>
<totfact> 0.65848546E+03</totfact>
</mgrwt>
</event>
<event>
 8    1  0.3177960E-004  0.1158238E+03  0.7546771E-02  0.1251149E+00
          2   -1    0    0  501    0  0.00000000000E+00  0.00000000000E+00  0.67841219264E+03  0.67841219264E+03  0.00000000000E+00 0. -1.
         -2   -1    0    0    0  501 -0.00000000000E+00 -0.00000000000E+00 -0.40439475961E+02  0.40439475961E+02  0.00000000000E+00 0.  1.
         23    2    1    2    0    0  0.43114331665E+02 -0.51854972620E+02  0.58128660979E+02  0.12755285138E+03  0.91340050840E+02 0.  0.
         23    2    1    2    0    0 -0.43114331665E+02  0.51854972620E+02  0.57984405570E+03  0.59129881722E+03  0.94166759189E+02 0.  0.
          5    1    4    4  502    0 -0.72055640080E+02  0.38657596802E+02  0.45898660126E+03  0.46623729494E+03  0.47000000000E+01 0. -1.
         -5    1    3    3    0  503  0.23969430593E+02  0.17277239335E+02 -0.68023687998E+01  0.30682223246E+02  0.47000000000E+01 0.  1.
          5    1    3    3  503    0  0.19144901072E+02 -0.69132211955E+02  0.64931029779E+02  0.96870628134E+02  0.47000000000E+01 0. -1.
         -5    1    4    4    0  502  0.28941308415E+02  0.13197375818E+02  0.12085745444E+03  0.12506152228E+03  0.47000000000E+01 0.  1.
<mgrwt>
<rscale>  0 0.11524800E+03</rscale>
<asrwt>0</asrwt>
<pdfrwt beam="1">  1        2 0.10437110E+00 0.11582384E+03</pdfrwt>
<pdfrwt beam="2">  1       -2 0.62214584E-02 0.11582384E+03</pdfrwt>
<totfact> 0.58423234E+03</totfact>
</mgrwt>
</event>
<event>
 7    1  0.3177960E-004  0.2972978E+03  0.7546771E-02  0.1129263E+00
         -1   -1    0    0    0  501 -0.00000000000E+00  0.00000000000E+00  0.45602239644E+03  0.45602239644E+03  0.00000000000E+00 0.  1.
          1   -1    0    0  501    0  0.00000000000E+00 -0.00000000000E+00 -0.90254096984E+02  0.90254096984E+02  0.00000000000E+00 0. -1.
         23    2    1    2    0    0 -0.77746101998E+01 -0.19708155218E+02  0.46838765581E+02  0.11026959028E+03  0.97553352752E+02 0.  0.
          5    1    3    3  502    0 -0.87436473396E+01  0.29870779598E+02 -0.11542569187E+02  0.33526642331E+02  0.47000000000E+01 0. -1.
         -5    1    3    3    0  502  0.96903713983E+00 -0.49578934815E+02  0.58381334768E+02  0.76742947947E+02  0.47000000000E+01 0.  1.
          5    1    1    2  503    0  0.10366055495E+03  0.10159189591E+03  0.79976365374E+02  0.16578520134E+03  0.47000000000E+01 0. -1.
         -5    1    1    2    0  503 -0.95885944746E+02 -0.81883740689E+02  0.23895316850E+03  0.27022170181E+03  0.47000000000E+01 0.  1.
<mgrwt>
<rscale>  0 0.22631128E+03</rscale>
<asrwt>0</asrwt>
<pdfrwt beam="1">  1        1 0.13885246E-01 0.29729778E+03</pdfrwt>
<pdfrwt beam="2">  1       -1 0.70157290E-01 0.29729778E+03</pdfrwt>
<totfact> 0.88203853E+02</totfact>
</mgrwt>
</event>
<event>
 8    1  0.3177960E-004  0.9542388E+02  0.7546771E-02  0.1290530E+00
         -3   -1    0    0    0  501 -0.00000000000E+00  0.00000000000E+00  0.76115037015E+03  0.76115037015E+03  0.00000000000E+00 0.  1.
          3   -1    0    0  501    0  0.00000000000E+00 -0.00000000000E+00 -0.12870430280E+02  0.12870430280E+02  0.00000000000E+00 0. -1.
         23    2    1    2    0    0 -0.26224870769E+02  0.10298294907E+01  0.47969493607E+03  0.48898813420E+03  0.91177625005E+02 0.  0.
         23    2    1    2    0    0  0.26224870769E+02 -0.10298294907E+01  0.26858500379E+03  0.28503266622E+03  0.91743730880E+02 0.  0.
          5    1    4    4  502    0 -0.17963181529E+02 -0.11991626599E+02  0.20764960215E+03  0.20882270536E+03  0.47000000000E+01 0.  1.
         -5    1    4    4    0  502  0.44188052299E+02  0.10961797109E+02  0.60935401639E+02  0.76209960863E+02  0.47000000000E+01 0. -1.
          5    1    3    3  503    0  0.31061162364E+02  0.13196427790E+02  0.12996005509E+03  0.13435269790E+03  0.47000000000E+01 0. -1.
         -5    1    3    3    0  503 -0.57286033133E+02 -0.12166598299E+02  0.34973488098E+03  0.35463543630E+03  0.47000000000E+01 0.  1.
<mgrwt>
<rscale>  0 0.95287550E+02</rscale>
<asrwt>0</asrwt>
<pdfrwt beam="1">  1        3 0.19800668E-02 0.95423878E+02</pdfrwt>
<pdfrwt beam="2">  1       -3 0.11710002E+00 0.95423878E+02</pdfrwt>
<totfact> 0.13139334E+03</totfact>
</mgrwt>
</event>
<event>
 8    1  0.3177960E-004  0.1097292E+03  0.7546771E-02  0.1261599E+00
         -3   -1    0    0    0  501 -0.00000000000E+00  0.00000000000E+00  0.15134939389E+03  0.15134939389E+03  0.00000000000E+00 0.  1.
          3   -1    0    0  501    0  0.00000000000E+00 -0.00000000000E+00 -0.10333996525E+03  0.10333996525E+03  0.00000000000E+00 0. -1.
         23    2    1    2    0    0 -0.38987171685E+02  0.43931081682E+02 -0.38033341586E+02  0.11613368080E+03  0.92685259073E+02 0.  0.
         23    2    1    2    0    0  0.38987171685E+02 -0.43931081682E+02  0.86042770230E+02  0.13855567834E+03  0.91347568105E+02 0.  0.
          5    1    3    3  502    0 -0.47215530121E+02 -0.10603064739E+02 -0.36440192604E+02  0.60759434687E+02  0.47000000000E+01 0. -1.
         -5    1    3    3    0  502  0.82283584362E+01  0.54534146422E+02 -0.15931489818E+01  0.55374246109E+02  0.47000000000E+01 0.  1.
          5    1    4    4  503    0  0.13854664660E+02 -0.69892956639E+02  0.49054501337E+02  0.86633776450E+02  0.47000000000E+01 0. -1.
         -5    1    4    4    0  503  0.25132507025E+02  0.25961874956E+02  0.36988268893E+02  0.51921901894E+02  0.47000000000E+01 0.  1.
<mgrwt>
<rscale>  0 0.10944622E+03</rscale>
<asrwt>0</asrwt>
<pdfrwt beam="1">  1        3 0.15898456E-01 0.10972920E+03</pdfrwt>
<pdfrwt beam="2">  1       -3 0.23284522E-01 0.10972920E+03</pdfrwt>
<totfact> 0.12729562E+03</totfact>
</mgrwt>
</event>
<event>
 8    1  0.3177960E-004  0.1004171E+03  0.7546771E-02  0.1287600E+00
          1   -1    0    0  501    0  0.00000000000E+00  0.00000000000E+00  0.89885766355E+03  0.89885766355E+03  0.00000000000E+00 0. -1.
         -1   -1    0    0    0  501 -0.00000000000E+00 -0.00000000000E+00 -0.13313770147E+02  0.13313770147E+02  0.00000000000E+00 0.  1.
         23    2    1    2    0    0 -0.63531477168E+01  0.42462147467E+02  0.17977048132E+03  0.19929016704E+03  0.74536892019E+02 0.  0.
         23    2    1    2    0    0  0.63531477168E+01 -0.42462147467E+02  0.70577341208E+03  0.71288126665E+03  0.90775518139E+02 0.  0.
          5    1    3    3  502    0 -0.20630614321E+02  0.26329260491E+02  0.17293792996E+03  0.17620575990E+03  0.47000000000E+01 0. -1.
         -5    1    3    3    0  502  0.14277466605E+02  0.16132886976E+02  0.68325513648E+01  0.23084407139E+02  0.47000000000E+01 0.  1.
          5    1    4    4  503    0 -0.11505061876E+00 -0.70797404911E+02  0.50553468259E+03  0.51048965815E+03  0.47000000000E+01 0. -1.
         -5    1    4    4    0  503  0.64681983355E+01  0.28335257444E+02  0.20023872949E+03  0.20239160850E+03  0.47000000000E+01 0.  1.
<mgrwt>
<rscale>  0 0.96605844E+02</rscale>
<asrwt>0</asrwt>
<pdfrwt beam="1">  1        1 0.13828575E+00 0.10041709E+03</pdfrwt>
<pdfrwt beam="2">  1       -1 0.20482730E-02 0.10041709E+03</pdfrwt>
<totfact> 0.11905543E+04</totfact>
</mgrwt>
</event>
<event>
 8    1  0.3177960E-004  0.1744722E+03  0.7546771E-02  0.1174905E+00
          1   -1    0    0  501    0  0.00000000000E+00  0.00000000000E+00  0.67445850268E+03  0.67445850268E+03  0.00000000000E+00 0. -1.
         -1   -1    0    0    0  501 -0.00000000000E+00 -0.00000000000E+00 -0.53122737506E+02  0.53122737506E+02  0.00000000000E+00 0.  1.
         23    2    1    2    0    0 -0.14179218829E+03  0.30203152065E+02  0.15108577370E+03  0.22600810098E+03  0.85061716654E+02 0.  0.
         23    2    1    2    0    0  0.14179218829E+03 -0.30203152065E+02  0.47024999147E+03  0.50157313920E+03  0.97073706212E+02 0.  0.
          5    1    3    3  502    0 -0.74937674709E+02  0.58050205124E+02  0.95020632932E+02  0.13430000778E+03  0.47000000000E+01 0. -1.
         -5    1    3    3    0  502 -0.66854513580E+02 -0.27847053059E+02  0.56065140770E+02  0.91708093207E+02  0.47000000000E+01 0.  1.
          5    1    4    4  503    0  0.92626465687E+02 -0.48780307556E+02  0.40125206111E+03  0.41471012418E+03  0.47000000000E+01 0. -1.
         -5    1    4    4    0  503  0.49165722602E+02  0.18577155490E+02  0.68997930355E+02  0.86863015020E+02  0.47000000000E+01 0.  1.
<mgrwt>
<rscale>  0 0.17285316E+03</rscale>
<asrwt>0</asrwt>
<pdfrwt beam="1">  1        1 0.10376284E+00 0.17447223E+03</pdfrwt>
<pdfrwt beam="2">  1       -1 0.81727293E-02 0.17447223E+03</pdfrwt>
<totfact> 0.24516609E+03</totfact>
</mgrwt>
</event>
<event>
 8    1  0.3177960E-004  0.2267928E+03  0.7546771E-02  0.1130647E+00
          2   -1    0    0  501    0  0.00000000000E+00  0.00000000000E+00  0.18512386521E+04  0.18512386521E+04  0.00000000000E+00 0. -1.
         -2   -1    0    0    0  501 -0.00000000000E+00 -0.00000000000E+00 -0.40057746322E+02  0.40057746322E+02  0.00000000000E+00 0.  1.
         23    2    1    2    0    0 -0.64692449075E+02  0.18628147509E+03  0.14655948296E+04  0.14830384948E+04  0.11202263826E+03 0.  0.
         23    2    1    2    0    0  0.64692449075E+02 -0.18628147509E+03  0.34558607622E+03  0.40825790370E+03  0.91426904825E+02 0.  0.
          5    1    3    3  502    0 -0.53075036624E+02  0.15425951935E+02  0.36368077677E+03  0.36788682621E+03  0.47000000000E+01 0. -1.
         -5    1    4    4    0  503  0.26044102140E+02 -0.15777092421E+03  0.20766716016E+03  0.26214060958E+03  0.47000000000E+01 0.  1.
          5    1    4    4  503    0  0.38648346935E+02 -0.28510550875E+02  0.13791891606E+03  0.14611729412E+03  0.47000000000E+01 0. -1.
         -5    1    3    3    0  502 -0.11617412451E+02  0.17085552315E+03  0.11019140528E+04  0.11151516686E+04  0.47000000000E+01 0.  1.
<mgrwt>
<rscale>  0 0.22439655E+03</rscale>
<asrwt>0</asrwt>
<pdfrwt beam="1">  1        2 0.28480588E+00 0.22679280E+03</pdfrwt>
<pdfrwt beam="2">  1       -2 0.61627317E-02 0.22679280E+03</pdfrwt>
<totfact> 0.12688153E+03</totfact>
</mgrwt>
</event>
<event>
 8    1  0.3177960E-004  0.9564350E+02  0.7546771E-02  0.1290847E+00
         -1   -1    0    0    0  501 -0.00000000000E+00  0.00000000000E+00  0.87436541471E+02  0.87436541471E+02  0.00000000000E+00 0.  1.
          1   -1    0    0  501    0  0.00000000000E+00 -0.00000000000E+00 -0.14875076304E+03  0.14875076304E+03  0.00000000000E+00 0. -1.
         23    2    1    2    0    0  0.25113019903E+02 -0.90622168452E+01  0.35429163107E+02  0.10014701316E+03  0.89785361297E+02 0.  0.
         23    2    1    2    0    0 -0.25113019903E+02  0.90622168452E+01 -0.96743384681E+02  0.13604029136E+03  0.91841661844E+02 0.  0.
          5    1    4    4  502    0 -0.50397083417E+02 -0.84852982227E+01 -0.90864539173E+02  0.10435669975E+03  0.47000000000E+01 0. -1.
         -5    1    4    4    0  502  0.25284063514E+02  0.17547515068E+02 -0.58788455078E+01  0.31683591611E+02  0.47000000000E+01 0.  1.
          5    1    3    3  503    0  0.27388468263E+02  0.26592741205E+02  0.48423556466E+02  0.61840382433E+02  0.47000000000E+01 0. -1.
         -5    1    3    3    0  503 -0.22754483601E+01 -0.35654958050E+02 -0.12994393359E+02  0.38306630726E+02  0.47000000000E+01 0.  1.
<mgrwt>
<rscale>  0 0.95146434E+02</rscale>
<asrwt>0</asrwt>
<pdfrwt beam="1">  1        1 0.22884732E-01 0.95643496E+02</pdfrwt>
<pdfrwt beam="2">  1       -1 0.13451776E-01 0.95643496E+02</pdfrwt>
<totfact> 0.75492128E+03</totfact>
</mgrwt>
</event>
<event>
 8    1  0.3177960E-004  0.1216887E+03  0.7546771E-02  0.1240551E+00
          1   -1    0    0  501    0  0.00000000000E+00  0.00000000000E+00  0.29097491138E+03  0.29097491138E+03  0.00000000000E+00 0. -1.
         -1   -1    0    0    0  501 -0.00000000000E+00 -0.00000000000E+00 -0.50821902077E+02  0.50821902077E+02  0.00000000000E+00 0.  1.
         23    2    1    2    0    0 -0.62673307840E+02  0.48911293911E+02  0.12963885004E+03  0.17780430949E+03  0.92129706634E+02 0.  0.
         23    2    1    2    0    0  0.62673307840E+02 -0.48911293911E+02  0.11051415927E+03  0.16399250398E+03  0.91432509394E+02 0.  0.
          5    1    4    4  502    0  0.26073069542E+02  0.26330776717E+02  0.34809333685E+02  0.51057756213E+02  0.47000000000E+01 0. -1.
         -5    1    3    3    0  503 -0.95768600732E+01 -0.17831651336E+02 -0.20068662061E+01  0.20875860466E+02  0.47000000000E+01 0.  1.
          5    1    3    3  503    0 -0.53096447767E+02  0.66742945247E+02  0.13164571625E+03  0.15692844902E+03  0.47000000000E+01 0. -1.
         -5    1    4    4    0  502  0.36600238297E+02 -0.75242070628E+02  0.75704825583E+02  0.11293474776E+03  0.47000000000E+01 0.  1.
<mgrwt>
<rscale>  0 0.12155674E+03</rscale>
<asrwt>0</asrwt>
<pdfrwt beam="1">  1        1 0.44765370E-01 0.12168871E+03</pdfrwt>
<pdfrwt beam="2">  1       -1 0.78187544E-02 0.12168871E+03</pdfrwt>
<totfact> 0.76608332E+03</totfact>
</mgrwt>
</event>
<event>
 8    1  0.3177960E-004  0.1127861E+03  0.7546771E-02  0.1263118E+00
         -2   -1    0    0    0  501 -0.00000000000E+00  0.00000000000E+00  0.21040992458E+02  0.21040992458E+02  0.00000000000E+00 0.  1.
          2   -1    0    0  501    0  0.00000000000E+00 -0.00000000000E+00 -0.80490758463E+03  0.80490758463E+03  0.00000000000E+00 0. -1.
         23    2    1    2    0    0  0.23277661815E+02 -0.49417226303E+02 -0.61668798175E+03  0.62428204983E+03  0.80250228112E+02 0.  0.
         23    2    1    2    0    0 -0.23277661815E+02  0.49417226303E+02 -0.16717861042E+03  0.20166652726E+03  0.98675167283E+02 0.  0.
          5    1    4    4  502    0 -0.41748513827E+02  0.57598964280E+02 -0.16626476908E+03  0.18090506497E+03  0.47000000000E+01 0. -1.
         -5    1    4    4    0  502  0.18470852012E+02 -0.81817379779E+01 -0.91384133980E+00  0.20761462289E+02  0.47000000000E+01 0.  1.
          5    1    3    3  503    0 -0.13262983644E+02 -0.54147052406E+02 -0.45247838080E+03  0.45592388083E+03  0.47000000000E+01 0. -1.
         -5    1    3    3    0  503  0.36540645459E+02  0.47298261033E+01 -0.16420960095E+03  0.16835816900E+03  0.47000000000E+01 0.  1.
<mgrwt>
<rscale>  0 0.10863533E+03</rscale>
<asrwt>0</asrwt>
<pdfrwt beam="1">  1        2 0.12383193E+00 0.11278608E+03</pdfrwt>
<pdfrwt beam="2">  1       -2 0.32370760E-02 0.11278608E+03</pdfrwt>
<totfact> 0.12558473E+04</totfact>
</mgrwt>
</event>
<event>
 8    1  0.3177960E-004  0.1034431E+03  0.7546771E-02  0.1277514E+00
         -2   -1    0    0    0  501 -0.00000000000E+00  0.00000000000E+00  0.94299784264E+01  0.94299784264E+01  0.00000000000E+00 0.  1.
          2   -1    0    0  501    0  0.00000000000E+00 -0.00000000000E+00 -0.10703328243E+04  0.10703328243E+04  0.00000000000E+00 0. -1.
         23    2    1    2    0    0  0.31871961581E+01  0.36842367586E+02 -0.63183508230E+03  0.64024686490E+03  0.96607238507E+02 0.  0.
         23    2    1    2    0    0 -0.31871961581E+01 -0.36842367586E+02 -0.42906776357E+03  0.43951593781E+03  0.87792913089E+02 0.  0.
          5    1    4    4  502    0 -0.99596081292E+01  0.27577328716E+02 -0.11235201594E+03  0.11621001823E+03  0.47000000000E+01 0. -1.
         -5    1    4    4    0  502  0.67724119711E+01 -0.64419696302E+02 -0.31671574763E+03  0.32330591958E+03  0.47000000000E+01 0.  1.
          5    1    3    3  503    0  0.25345441943E+02 -0.26018010658E+02 -0.22252377337E+03  0.22551773327E+03  0.47000000000E+01 0.  1.
         -5    1    3    3    0  503 -0.22158245785E+02  0.62860378244E+02 -0.40931130893E+03  0.41472913163E+03  0.47000000000E+01 0. -1.
<mgrwt>
<rscale>  0 0.10133458E+03</rscale>
<asrwt>0</asrwt>
<pdfrwt beam="1">  1        2 0.16466662E+00 0.10344311E+03</pdfrwt>
<pdfrwt beam="2">  1       -2 0.14507657E-02 0.10344311E+03</pdfrwt>
<totfact> 0.27383927E+04</totfact>
</mgrwt>
</event>
<event>
 8    1  0.3177960E-004  0.1154093E+03  0.7546771E-02  0.1251000E+00
         -1   -1    0    0    0  501 -0.00000000000E+00  0.00000000000E+00  0.15777786497E+03  0.15777786497E+03  0.00000000000E+00 0.  1.
          1   -1    0    0  501    0  0.00000000000E+00 -0.00000000000E+00 -0.95216265642E+02  0.95216265642E+02  0.00000000000E+00 0. -1.
         23    2    1    2    0    0  0.41888844416E+01  0.67748911384E+02 -0.11788049318E+02  0.11570906926E+03  0.92963266158E+02 0.  0.
         23    2    1    2    0    0 -0.41888844416E+01 -0.67748911384E+02  0.74349648645E+02  0.13728506136E+03  0.93337324104E+02 0.  0.
          5    1    4    4  502    0 -0.26581477304E+02  0.11375270798E+01 -0.73482108282E+01  0.27999198308E+02  0.47000000000E+01 0. -1.
         -5    1    3    3    0  503  0.23135296031E+02  0.83365753558E+02  0.29407950816E+01  0.86693881355E+02  0.47000000000E+01 0.  1.
          5    1    3    3  503    0 -0.18946411590E+02 -0.15616842173E+02 -0.14728844399E+02  0.29015187901E+02  0.47000000000E+01 0. -1.
         -5    1    4    4    0  502  0.22392592862E+02 -0.68886438464E+02  0.81697859474E+02  0.10928586305E+03  0.47000000000E+01 0.  1.
<mgrwt>
<rscale>  0 0.11533370E+03</rscale>
<asrwt>0</asrwt>
<pdfrwt beam="1">  1        1 0.14648656E-01 0.11540935E+03</pdfrwt>
<pdfrwt beam="2">  1       -1 0.24273518E-01 0.11540935E+03</pdfrwt>
<totfact> 0.53009436E+03</totfact>
</mgrwt>
</event>
<event>
 8    1  0.3177960E-004  0.1322157E+03  0.7546771E-02  0.1229612E+00
         -2   -1    0    0    0  501 -0.00000000000E+00  0.00000000000E+00  0.15640076047E+02  0.15640076047E+02  0.00000000000E+00 0.  1.
          2   -1    0    0  501    0  0.00000000000E+00 -0.00000000000E+00 -0.13079415309E+04  0.13079415309E+04  0.00000000000E+00 0. -1.
         23    2    1    2    0    0 -0.75099648318E+02  0.79452552905E+01 -0.29881419952E+03  0.32133517407E+03  0.90902607239E+02 0.  0.
         23    2    1    2    0    0  0.75099648318E+02 -0.79452552905E+01 -0.99348725532E+03  0.10022464329E+04  0.10852604038E+03 0.  0.
          5    1    3    3  502    0 -0.62099972299E+02 -0.23762183303E+02 -0.10437838559E+03  0.12384662003E+03  0.47000000000E+01 0. -1.
         -5    1    4    4    0  503  0.10156779180E+03 -0.17318932008E+02 -0.81552659269E+03  0.82202291643E+03  0.47000000000E+01 0.  1.
          5    1    4    4  503    0 -0.26468143479E+02  0.93736767178E+01 -0.17796066262E+03  0.18022351643E+03  0.47000000000E+01 0. -1.
         -5    1    3    3    0  502 -0.12999676019E+02  0.31707438594E+02 -0.19443581393E+03  0.19748855404E+03  0.47000000000E+01 0.  1.
<mgrwt>
<rscale>  0 0.12855757E+03</rscale>
<asrwt>0</asrwt>
<pdfrwt beam="1">  1        2 0.20122179E+00 0.13221568E+03</pdfrwt>
<pdfrwt beam="2">  1       -2 0.24061653E-02 0.13221568E+03</pdfrwt>
<totfact> 0.99107365E+03</totfact>
</mgrwt>
</event>
<event>
 8    1  0.3177960E-004  0.9589990E+02  0.7546771E-02  0.1291740E+00
          2   -1    0    0  501    0  0.00000000000E+00  0.00000000000E+00  0.25689308036E+03  0.25689308036E+03  0.00000000000E+00 0. -1.
         -2   -1    0    0    0  501 -0.00000000000E+00 -0.00000000000E+00 -0.34184039668E+02  0.34184039668E+02  0.00000000000E+00 0.  1.
         23    2    1    2    0    0 -0.86558463514E+01  0.61207799265E+01  0.10845379074E+03  0.14477228627E+03  0.95312132092E+02 0.  0.
         23    2    1    2    0    0  0.86558463514E+01 -0.61207799265E+01  0.11425524996E+03  0.14630483376E+03  0.90765933123E+02 0.  0.
          5    1    4    4  502    0 -0.31883305572E+02  0.21732389439E+02  0.69536599138E+02  0.79663483131E+02  0.47000000000E+01 0. -1.
         -5    1    4    4    0  502  0.40539151924E+02 -0.27853169366E+02  0.44718650818E+02  0.66641350627E+02  0.47000000000E+01 0.  1.
          5    1    3    3  503    0 -0.46812191506E+02 -0.15983016003E+02  0.71375014802E+02  0.86967354865E+02  0.47000000000E+01 0. -1.
         -5    1    3    3    0  503  0.38156345155E+02  0.22103795930E+02  0.37078775935E+02  0.57804931407E+02  0.47000000000E+01 0.  1.
<mgrwt>
<rscale>  0 0.94750146E+02</rscale>
<asrwt>0</asrwt>
<pdfrwt beam="1">  1        2 0.39522011E-01 0.95899896E+02</pdfrwt>
<pdfrwt beam="2">  1       -2 0.52590832E-02 0.95899896E+02</pdfrwt>
<totfact> 0.21108234E+04</totfact>
</mgrwt>
</event>
<event>
 8    1  0.3177960E-004  0.1775616E+03  0.7546771E-02  0.1170948E+00
          2   -1    0    0  501    0  0.00000000000E+00  0.00000000000E+00  0.60310631645E+03  0.60310631645E+03  0.00000000000E+00 0. -1.
         -2   -1    0    0    0  501 -0.00000000000E+00 -0.00000000000E+00 -0.51591451100E+02  0.51591451100E+02  0.00000000000E+00 0.  1.
         23    2    1    2    0    0  0.39844986963E+02 -0.14562855905E+03  0.29932352182E+03  0.34802687337E+03  0.93449631773E+02 0.  0.
         23    2    1    2    0    0 -0.39844986963E+02  0.14562855905E+03  0.25219134354E+03  0.30667089418E+03  0.87471500426E+02 0.  0.
          5    1    3    3  502    0 -0.21316288142E+01 -0.12359998144E+03  0.25277325955E+03  0.28142123231E+03  0.47000000000E+01 0. -1.
         -5    1    3    3    0  502  0.41976615777E+02 -0.22028577613E+02  0.46550262267E+02  0.66605641058E+02  0.47000000000E+01 0.  1.
          5    1    4    4  503    0  0.21931488004E+02  0.32968124029E+02  0.29768068183E+02  0.49760579291E+02  0.47000000000E+01 0. -1.
         -5    1    4    4    0  503 -0.61776474967E+02  0.11266043502E+03  0.22242327535E+03  0.25691031489E+03  0.47000000000E+01 0.  1.
<mgrwt>
<rscale>  0 0.17678855E+03</rscale>
<asrwt>0</asrwt>
<pdfrwt beam="1">  1        2 0.92785582E-01 0.17756163E+03</pdfrwt>
<pdfrwt beam="2">  1       -2 0.79371468E-02 0.17756163E+03</pdfrwt>
<totfact> 0.47041637E+03</totfact>
</mgrwt>
</event>
<event>
 8    1  0.3177960E-004  0.1071014E+03  0.7546771E-02  0.1268242E+00
         -1   -1    0    0    0  501 -0.00000000000E+00  0.00000000000E+00  0.29334790778E+02  0.29334790778E+02  0.00000000000E+00 0.  1.
          1   -1    0    0  501    0  0.00000000000E+00 -0.00000000000E+00 -0.87960344786E+03  0.87960344786E+03  0.00000000000E+00 0. -1.
         23    2    1    2    0    0  0.14438111912E+02 -0.42820606327E+02 -0.77328221476E+03  0.78066388658E+03  0.97101270580E+02 0.  0.
         23    2    1    2    0    0 -0.14438111912E+02  0.42820606327E+02 -0.76986442320E+02  0.12827435205E+03  0.92115871008E+02 0.  0.
          5    1    4    4  502    0 -0.48778598533E+02  0.69401649076E+01 -0.54296794495E+02  0.73469377677E+02  0.47000000000E+01 0. -1.
         -5    1    3    3    0  503 -0.26612038680E+02 -0.55763892353E+02 -0.52374938215E+03  0.52740242471E+03  0.47000000000E+01 0.  1.
          5    1    3    3  503    0  0.41050150593E+02  0.12943286025E+02 -0.24953283262E+03  0.25326146187E+03  0.47000000000E+01 0. -1.
         -5    1    4    4    0  502  0.34340486621E+02  0.35880441420E+02 -0.22689647825E+02  0.54804974375E+02  0.47000000000E+01 0.  1.
<mgrwt>
<rscale>  0 0.10595870E+03</rscale>
<asrwt>0</asrwt>
<pdfrwt beam="1">  1        1 0.13532362E+00 0.10710145E+03</pdfrwt>
<pdfrwt beam="2">  1       -1 0.45130443E-02 0.10710145E+03</pdfrwt>
<totfact> 0.39417699E+03</totfact>
</mgrwt>
</event>
<event>
 8    1  0.3177960E-004  0.9309785E+02  0.7546771E-02  0.1296294E+00
          1   -1    0    0  501    0  0.00000000000E+00  0.00000000000E+00  0.41033345305E+03  0.41033345305E+03  0.00000000000E+00 0. -1.
         -1   -1    0    0    0  501 -0.00000000000E+00 -0.00000000000E+00 -0.21278520372E+02  0.21278520372E+02  0.00000000000E+00 0.  1.
         23    2    1    2    0    0 -0.10082223140E+02 -0.30425029094E+01  0.16427694601E+03  0.18882300004E+03  0.92500282732E+02 0.  0.
         23    2    1    2    0    0  0.10082223140E+02  0.30425029094E+01  0.22477798667E+03  0.24278897339E+03  0.91161583244E+02 0.  0.
          5    1    3    3  502    0  0.84079865854E+01  0.28799537041E+02  0.14268322008E+03  0.14587905560E+03  0.47000000000E+01 0. -1.
         -5    1    3    3    0  502 -0.18490209725E+02 -0.31842039951E+02  0.21593725933E+02  0.42943944434E+02  0.47000000000E+01 0.  1.
          5    1    4    4  503    0  0.48833752432E+02  0.37364623875E+01  0.15747015053E+03  0.16497767981E+03  0.47000000000E+01 0. -1.
         -5    1    4    4    0  503 -0.38751529292E+02 -0.69395947818E+00  0.67307836144E+02  0.77811293580E+02  0.47000000000E+01 0.  1.
<mgrwt>
<rscale>  0 0.92763562E+02</rscale>
<asrwt>0</asrwt>
<pdfrwt beam="1">  1        1 0.63128217E-01 0.93097854E+02</pdfrwt>
<pdfrwt beam="2">  1       -1 0.32736188E-02 0.93097854E+02</pdfrwt>
<totfact> 0.17622816E+04</totfact>
</mgrwt>
</event>
<event>
 8    1  0.3177960E-004  0.1094226E+03  0.7546771E-02  0.1261818E+00
         -2   -1    0    0    0  501 -0.00000000000E+00  0.00000000000E+00  0.57420873465E+02  0.57420873465E+02  0.00000000000E+00 0.  1.
          2   -1    0    0  501    0  0.00000000000E+00 -0.00000000000E+00 -0.22523682455E+03  0.22523682455E+03  0.00000000000E+00 0. -1.
         23    2    1    2    0    0 -0.58805404257E+02 -0.13471520340E+02 -0.12309293753E+03  0.16444831589E+03  0.90839528294E+02 0.  0.
         23    2    1    2    0    0  0.58805404257E+02  0.13471520340E+02 -0.44723013550E+02  0.11820938212E+03  0.91289389577E+02 0.  0.
          5    1    3    3  502    0 -0.24554468825E+02  0.38262721509E+02 -0.63933351027E+02  0.78590846605E+02  0.47000000000E+01 0. -1.
         -5    1    4    4    0  503 -0.14961039514E+02 -0.14100376983E+02  0.88257865886E+01  0.22861273877E+02  0.47000000000E+01 0.  1.
          5    1    4    4  503    0  0.73766443770E+02  0.27571897323E+02 -0.53548800138E+02  0.95348108239E+02  0.47000000000E+01 0. -1.
         -5    1    3    3    0  502 -0.34250935432E+02 -0.51734241849E+02 -0.59159586504E+02  0.85857469290E+02  0.47000000000E+01 0.  1.
<mgrwt>
<rscale>  0 0.10932874E+03</rscale>
<asrwt>0</asrwt>
<pdfrwt beam="1">  1        2 0.34651820E-01 0.10942262E+03</pdfrwt>
<pdfrwt beam="2">  1       -2 0.88339804E-02 0.10942262E+03</pdfrwt>
<totfact> 0.11182959E+04</totfact>
</mgrwt>
</event>
<event>
 8    1  0.3177960E-004  0.1059596E+03  0.7546771E-02  0.1269266E+00
         -2   -1    0    0    0  501 -0.00000000000E+00  0.00000000000E+00  0.38962511541E+02  0.38962511541E+02  0.00000000000E+00 0.  1.
          2   -1    0    0  501    0  0.00000000000E+00 -0.00000000000E+00 -0.67032785115E+03  0.67032785115E+03  0.00000000000E+00 0. -1.
         23    2    1    2    0    0  0.43618890499E+02  0.32709933771E+02 -0.58674758932E+03  0.59623835352E+03  0.90856443180E+02 0.  0.
         23    2    1    2    0    0 -0.43618890499E+02 -0.32709933771E+02 -0.44617750292E+02  0.11305200917E+03  0.88416433767E+02 0.  0.
          5    1    4    4  502    0 -0.34627215011E+02  0.26409949639E+02 -0.21144317745E+02  0.48638478927E+02  0.47000000000E+01 0. -1.
         -5    1    4    4    0  502 -0.89916754883E+01 -0.59119883411E+02 -0.23473432547E+02  0.64413530241E+02  0.47000000000E+01 0.  1.
          5    1    3    3  503    0  0.87138051423E+00  0.54485821777E+02 -0.23982736997E+03  0.24598520578E+03  0.47000000000E+01 0. -1.
         -5    1    3    3    0  503  0.42747509985E+02 -0.21775888006E+02 -0.34692021935E+03  0.35025314774E+03  0.47000000000E+01 0.  1.
<mgrwt>
<rscale>  0 0.10543457E+03</rscale>
<asrwt>0</asrwt>
<pdfrwt beam="1">  1        2 0.10312736E+00 0.10595962E+03</pdfrwt>
<pdfrwt beam="2">  1       -2 0.59942326E-02 0.10595962E+03</pdfrwt>
<totfact> 0.62357215E+03</totfact>
</mgrwt>
</event>
<event>
 8    1  0.3177960E-004  0.1005684E+03  0.7546771E-02  0.1279152E+00
         -1   -1    0    0    0  501 -0.00000000000E+00  0.00000000000E+00  0.45330507120E+02  0.45330507120E+02  0.00000000000E+00 0.  1.
          1   -1    0    0  501    0  0.00000000000E+00 -0.00000000000E+00 -0.29117934575E+03  0.29117934575E+03  0.00000000000E+00 0. -1.
         23    2    1    2    0    0 -0.30711366054E+02 -0.29143062276E+02 -0.41415561680E+02  0.10867883014E+03  0.91122627746E+02 0.  0.
         23    2    1    2    0    0  0.30711366054E+02  0.29143062276E+02 -0.20443327695E+03  0.22783102273E+03  0.91222278584E+02 0.  0.
          5    1    4    4  502    0  0.39238418128E+01  0.21609806768E+02 -0.19749737461E+03  0.19877042854E+03  0.47000000000E+01 0. -1.
         -5    1    4    4    0  502  0.26787524242E+02  0.75332555088E+01 -0.69359023393E+01  0.29060594192E+02  0.47000000000E+01 0.  1.
          5    1    3    3  503    0 -0.39630017271E+02  0.16173830960E+02 -0.44789764122E+02  0.62131667022E+02  0.47000000000E+01 0. -1.
         -5    1    3    3    0  503  0.89186512166E+01 -0.45316893237E+02  0.33742024419E+01  0.46547163117E+02  0.47000000000E+01 0.  1.
<mgrwt>
<rscale>  0 0.10054583E+03</rscale>
<asrwt>0</asrwt>
<pdfrwt beam="1">  1        1 0.44796823E-01 0.10056844E+03</pdfrwt>
<pdfrwt beam="2">  1       -1 0.69739241E-02 0.10056844E+03</pdfrwt>
<totfact> 0.89499356E+03</totfact>
</mgrwt>
</event>
<event>
 8    1  0.3177960E-004  0.1816348E+03  0.7546771E-02  0.1166236E+00
          2   -1    0    0  501    0  0.00000000000E+00  0.00000000000E+00  0.21918854334E+03  0.21918854334E+03  0.00000000000E+00 0. -1.
         -2   -1    0    0    0  501 -0.00000000000E+00 -0.00000000000E+00 -0.16900912958E+03  0.16900912958E+03  0.00000000000E+00 0.  1.
         23    2    1    2    0    0 -0.13892918414E+03  0.75926403136E+02 -0.39152823500E+02  0.18580670716E+03  0.89022760791E+02 0.  0.
         23    2    1    2    0    0  0.13892918414E+03 -0.75926403136E+02  0.89332237260E+02  0.20239096577E+03  0.88970318148E+02 0.  0.
          5    1    4    4  502    0  0.11238323458E+03 -0.71463050724E+02  0.10609054284E+03  0.17033570475E+03  0.47000000000E+01 0. -1.
         -5    1    4    4    0  502  0.26545949562E+02 -0.44633524123E+01 -0.16758305580E+02  0.32055261016E+02  0.47000000000E+01 0.  1.
          5    1    3    3  503    0 -0.20985608254E+02  0.19341609093E+02  0.26622602361E+02  0.39310896105E+02  0.47000000000E+01 0. -1.
         -5    1    3    3    0  503 -0.11794357589E+03  0.56584794043E+02 -0.65775425861E+02  0.14649581106E+03  0.47000000000E+01 0.  1.
<mgrwt>
<rscale>  0 0.18162834E+03</rscale>
<asrwt>0</asrwt>
<pdfrwt beam="1">  1        2 0.33721314E-01 0.18163477E+03</pdfrwt>
<pdfrwt beam="2">  1       -2 0.26001405E-01 0.18163477E+03</pdfrwt>
<totfact> 0.20113920E+03</totfact>
</mgrwt>
</event>
<event>
 8    1  0.3177960E-004  0.1066830E+03  0.7546771E-02  0.1267627E+00
          1   -1    0    0  501    0  0.00000000000E+00  0.00000000000E+00  0.21511523472E+02  0.21511523472E+02  0.00000000000E+00 0. -1.
         -1   -1    0    0    0  501 -0.00000000000E+00 -0.00000000000E+00 -0.65450635764E+03  0.65450635764E+03  0.00000000000E+00 0.  1.
         23    2    1    2    0    0  0.52596629498E+02 -0.11754398561E+02 -0.16580924804E+03  0.19716485121E+03  0.92068998575E+02 0.  0.
         23    2    1    2    0    0 -0.52596629498E+02  0.11754398561E+02 -0.46718558613E+03  0.47885302990E+03  0.90184705112E+02 0.  0.
          5    1    3    3  502    0 -0.12044815317E+02 -0.29140666393E+02 -0.22798140561E+02  0.39193127292E+02  0.47000000000E+01 0. -1.
         -5    1    4    4    0  503  0.49237732113E+01  0.40163063236E+02 -0.18150740095E+03  0.18602242282E+03  0.47000000000E+01 0.  1.
          5    1    4    4  503    0 -0.57520402709E+02 -0.28408664675E+02 -0.28567818518E+03  0.29283060709E+03  0.47000000000E+01 0. -1.
         -5    1    3    3    0  502  0.64641444815E+02  0.17386267832E+02 -0.14301110747E+03  0.15797172392E+03  0.47000000000E+01 0.  1.
<mgrwt>
<rscale>  0 0.10627525E+03</rscale>
<asrwt>0</asrwt>
<pdfrwt beam="1">  1        1 0.33094653E-02 0.10668304E+03</pdfrwt>
<pdfrwt beam="2">  1       -1 0.10069328E+00 0.10668304E+03</pdfrwt>
<totfact> 0.27996399E+03</totfact>
</mgrwt>
</event>
<event>
 8    1  0.3177960E-004  0.1040703E+03  0.7546771E-02  0.1272690E+00
         -1   -1    0    0    0  501 -0.00000000000E+00  0.00000000000E+00  0.32796591073E+02  0.32796591073E+02  0.00000000000E+00 0.  1.
          1   -1    0    0  501    0  0.00000000000E+00 -0.00000000000E+00 -0.33217142011E+03  0.33217142011E+03  0.00000000000E+00 0. -1.
         23    2    1    2    0    0 -0.38510046748E+02 -0.28769588440E+02 -0.12310585577E+03  0.16026976341E+03  0.90667703279E+02 0.  0.
         23    2    1    2    0    0  0.38510046748E+02  0.28769588440E+02 -0.17626897327E+03  0.20469824778E+03  0.92303351982E+02 0.  0.
          5    1    4    4  502    0  0.67578356728E+02  0.21003036549E+02 -0.14283819681E+03  0.15947665130E+03  0.47000000000E+01 0. -1.
         -5    1    4    4    0  502 -0.29068309980E+02  0.77665518918E+01 -0.33430776458E+02  0.45221596478E+02  0.47000000000E+01 0.  1.
          5    1    3    3  503    0  0.22904751519E+02 -0.63277927222E+01 -0.75394822228E+02  0.79190515983E+02  0.47000000000E+01 0. -1.
         -5    1    3    3    0  503 -0.61414798267E+02 -0.22441795718E+02 -0.47711033546E+02  0.81079247427E+02  0.47000000000E+01 0.  1.
<mgrwt>
<rscale>  0 0.10370639E+03</rscale>
<asrwt>0</asrwt>
<pdfrwt beam="1">  1        1 0.51103294E-01 0.10407027E+03</pdfrwt>
<pdfrwt beam="2">  1       -1 0.50456295E-02 0.10407027E+03</pdfrwt>
<totfact> 0.12318963E+04</totfact>
</mgrwt>
</event>
<event>
 8    1  0.3177960E-004  0.1014572E+03  0.7546771E-02  0.1278466E+00
          2   -1    0    0  501    0  0.00000000000E+00  0.00000000000E+00  0.52507949959E+03  0.52507949959E+03  0.00000000000E+00 0. -1.
         -2   -1    0    0    0  501 -0.00000000000E+00 -0.00000000000E+00 -0.20087981208E+02  0.20087981208E+02  0.00000000000E+00 0.  1.
         23    2    1    2    0    0 -0.36554053168E+02 -0.22082339048E+02  0.19115157968E+03  0.21533560535E+03  0.89479986682E+02 0.  0.
         23    2    1    2    0    0  0.36554053168E+02  0.22082339048E+02  0.31383993870E+03  0.32983187545E+03  0.92031138403E+02 0.  0.
          5    1    4    4  502    0  0.64347134838E+02  0.25454079477E+02  0.25839690767E+03  0.26754348398E+03  0.47000000000E+01 0. -1.
         -5    1    3    3    0  503 -0.46294256563E+02  0.23376639089E+02  0.91724588164E+02  0.10547566316E+03  0.47000000000E+01 0.  1.
          5    1    3    3  503    0  0.97402033950E+01 -0.45458978138E+02  0.99426991520E+02  0.10985994219E+03  0.47000000000E+01 0. -1.
         -5    1    4    4    0  502 -0.27793081670E+02 -0.33717404286E+01  0.55443031028E+02  0.62288391469E+02  0.47000000000E+01 0.  1.
<mgrwt>
<rscale>  0 0.10087511E+03</rscale>
<asrwt>0</asrwt>
<pdfrwt beam="1">  1        2 0.80781451E-01 0.10145718E+03</pdfrwt>
<pdfrwt beam="2">  1       -2 0.30904590E-02 0.10145718E+03</pdfrwt>
<totfact> 0.21816680E+04</totfact>
</mgrwt>
</event>
<event>
 8    1  0.3177960E-004  0.1226173E+03  0.7546771E-02  0.1239915E+00
          2   -1    0    0  501    0  0.00000000000E+00  0.00000000000E+00  0.46411656993E+02  0.46411656993E+02  0.00000000000E+00 0. -1.
         -2   -1    0    0    0  501 -0.00000000000E+00 -0.00000000000E+00 -0.33462924085E+03  0.33462924085E+03  0.00000000000E+00 0.  1.
         23    2    1    2    0    0  0.24265480099E+02 -0.76818684035E+02 -0.18934009909E+03  0.22557633702E+03  0.92439639535E+02 0.  0.
         23    2    1    2    0    0 -0.24265480099E+02  0.76818684035E+02 -0.98877484765E+02  0.15546456082E+03  0.88896281910E+02 0.  0.
          5    1    4    4  502    0  0.23351835250E+02  0.20752684859E+02  0.66992876034E+00  0.31599382003E+02  0.47000000000E+01 0. -1.
         -5    1    3    3    0  503  0.26551841582E+02 -0.97530579954E+02 -0.15344657922E+03  0.18380739102E+03  0.47000000000E+01 0.  1.
          5    1    3    3  503    0 -0.22863614828E+01  0.20711895920E+02 -0.35893519870E+02  0.41768946001E+02  0.47000000000E+01 0. -1.
         -5    1    4    4    0  502 -0.47617315350E+02  0.56065999175E+02 -0.99547413525E+02  0.12386517882E+03  0.47000000000E+01 0.  1.
<mgrwt>
<rscale>  0 0.12194973E+03</rscale>
<asrwt>0</asrwt>
<pdfrwt beam="1">  1        2 0.71402547E-02 0.12261733E+03</pdfrwt>
<pdfrwt beam="2">  1       -2 0.51481423E-01 0.12261733E+03</pdfrwt>
<totfact> 0.33843706E+03</totfact>
</mgrwt>
</event>
<event>
 8    1  0.3177960E-004  0.9508289E+02  0.7546771E-02  0.1295136E+00
          1   -1    0    0  501    0  0.00000000000E+00  0.00000000000E+00  0.81875233354E+03  0.81875233354E+03  0.00000000000E+00 0. -1.
         -1   -1    0    0    0  501 -0.00000000000E+00 -0.00000000000E+00 -0.10347126920E+02  0.10347126920E+02  0.00000000000E+00 0.  1.
         23    2    1    2    0    0 -0.64392870318E+00 -0.50597916774E+01  0.34585011642E+03  0.35687285413E+03  0.87863045994E+02 0.  0.
         23    2    1    2    0    0  0.64392870318E+00  0.50597916774E+01  0.46255509020E+03  0.47222660633E+03  0.94945985271E+02 0.  0.
          5    1    3    3  502    0 -0.39033287914E+02 -0.82144881830E+01  0.25409321485E+03  0.25724798777E+03  0.47000000000E+01 0. -1.
         -5    1    3    3    0  502  0.38389359211E+02  0.31546965056E+01  0.91756901575E+02  0.99624866360E+02  0.47000000000E+01 0.  1.
          5    1    4    4  503    0 -0.26516615951E+02 -0.35772820928E+02  0.18567124841E+03  0.19099405259E+03  0.47000000000E+01 0. -1.
         -5    1    4    4    0  503  0.27160544655E+02  0.40832612605E+02  0.27688384180E+03  0.28123255375E+03  0.47000000000E+01 0.  1.
<mgrwt>
<rscale>  0 0.93263345E+02</rscale>
<asrwt>0</asrwt>
<pdfrwt beam="1">  1        1 0.12596185E+00 0.95082891E+02</pdfrwt>
<pdfrwt beam="2">  1       -1 0.15918663E-02 0.95082891E+02</pdfrwt>
<totfact> 0.19600667E+04</totfact>
</mgrwt>
</event>
<event>
 8    1  0.3177960E-004  0.9361224E+02  0.7546771E-02  0.1298419E+00
          1   -1    0    0  501    0  0.00000000000E+00  0.00000000000E+00  0.89880788433E+03  0.89880788433E+03  0.00000000000E+00 0. -1.
         -1   -1    0    0    0  501 -0.00000000000E+00 -0.00000000000E+00 -0.10132106999E+02  0.10132106999E+02  0.00000000000E+00 0.  1.
         23    2    1    2    0    0  0.81130622097E+00  0.71449734167E+01  0.57764022897E+03  0.58412256034E+03  0.86482498263E+02 0.  0.
         23    2    1    2    0    0 -0.81130622097E+00 -0.71449734167E+01  0.31103554836E+03  0.32481743099E+03  0.93335643084E+02 0.  0.
          5    1    4    4  502    0 -0.29272205536E+02 -0.23763811174E+02  0.26660192659E+03  0.26929585589E+03  0.47000000000E+01 0. -1.
         -5    1    4    4    0  502  0.28460899315E+02  0.16618837757E+02  0.44433621774E+02  0.55521575105E+02  0.47000000000E+01 0.  1.
          5    1    3    3  503    0 -0.10231094359E+02  0.44798005773E+02  0.35634728871E+03  0.35932856383E+03  0.47000000000E+01 0. -1.
         -5    1    3    3    0  503  0.11042400580E+02 -0.37653032356E+02  0.22129294026E+03  0.22479399650E+03  0.47000000000E+01 0.  1.
<mgrwt>
<rscale>  0 0.91855583E+02</rscale>
<asrwt>0</asrwt>
<pdfrwt beam="1">  1        1 0.13827807E+00 0.93612238E+02</pdfrwt>
<pdfrwt beam="2">  1       -1 0.15587864E-02 0.93612238E+02</pdfrwt>
<totfact> 0.17479995E+04</totfact>
</mgrwt>
</event>
<event>
 8    1  0.3177960E-004  0.1038101E+03  0.7546771E-02  0.1272912E+00
         -3   -1    0    0    0  501 -0.00000000000E+00  0.00000000000E+00  0.98470639272E+02  0.98470639272E+02  0.00000000000E+00 0.  1.
          3   -1    0    0  501    0  0.00000000000E+00 -0.00000000000E+00 -0.14565518438E+03  0.14565518438E+03  0.00000000000E+00 0. -1.
         23    2    1    2    0    0  0.50746748880E+02 -0.55487173412E+01  0.37952239843E+02  0.11053009502E+03  0.90390865751E+02 0.  0.
         23    2    1    2    0    0 -0.50746748880E+02  0.55487173412E+01 -0.85136784948E+02  0.13359572862E+03  0.89406519726E+02 0.  0.
          5    1    4    4  502    0 -0.53665192084E+02  0.29502960910E+02 -0.21004529477E+02  0.64912693693E+02  0.47000000000E+01 0. -1.
         -5    1    4    4    0  502  0.29184432045E+01 -0.23954243569E+02 -0.64132255471E+02  0.68683034932E+02  0.47000000000E+01 0.  1.
          5    1    3    3  503    0 -0.22770111332E+02 -0.17452140716E+02  0.13008215800E+02  0.31849000988E+02  0.47000000000E+01 0. -1.
         -5    1    3    3    0  503  0.73516860212E+02  0.11903423375E+02  0.24944024043E+02  0.78681094037E+02  0.47000000000E+01 0.  1.
<mgrwt>
<rscale>  0 0.10359541E+03</rscale>
<asrwt>0</asrwt>
<pdfrwt beam="1">  1        3 0.22408490E-01 0.10381006E+03</pdfrwt>
<pdfrwt beam="2">  1       -3 0.15149329E-01 0.10381006E+03</pdfrwt>
<totfact> 0.14647701E+03</totfact>
</mgrwt>
</event>
<event>
 8    1  0.3177960E-004  0.1755923E+03  0.7546771E-02  0.1172212E+00
         -2   -1    0    0    0  501 -0.00000000000E+00  0.00000000000E+00  0.25499518650E+02  0.25499518650E+02  0.00000000000E+00 0.  1.
          2   -1    0    0  501    0  0.00000000000E+00 -0.00000000000E+00 -0.14293310077E+04  0.14293310077E+04  0.00000000000E+00 0. -1.
         23    2    1    2    0    0 -0.11942905705E+03  0.90563536057E+02 -0.98823427631E+03  0.10036612536E+04  0.90905848488E+02 0.  0.
         23    2    1    2    0    0  0.11942905705E+03 -0.90563536057E+02 -0.41559721272E+03  0.45116927277E+03  0.91474672683E+02 0.  0.
          5    1    3    3  502    0 -0.11834935534E+03  0.41040449958E+02 -0.72792946698E+03  0.73864354552E+03  0.47000000000E+01 0. -1.
         -5    1    3    3    0  502 -0.10797017033E+01  0.49523086098E+02 -0.26030480933E+03  0.26501770804E+03  0.47000000000E+01 0.  1.
          5    1    4    4  503    0  0.28861185715E+02 -0.15977211318E+00 -0.18593372916E+03  0.18821911488E+03  0.47000000000E+01 0. -1.
         -5    1    4    4    0  503  0.90567871333E+02 -0.90403763943E+02 -0.22966348356E+03  0.26295015789E+03  0.47000000000E+01 0.  1.
<mgrwt>
<rscale>  0 0.17551838E+03</rscale>
<asrwt>0</asrwt>
<pdfrwt beam="1">  1        2 0.21989699E+00 0.17559234E+03</pdfrwt>
<pdfrwt beam="2">  1       -2 0.39230045E-02 0.17559234E+03</pdfrwt>
<totfact> 0.41876052E+03</totfact>
</mgrwt>
</event>
<event>
 8    1  0.3177960E-004  0.1458199E+03  0.7546771E-02  0.1207661E+00
          1   -1    0    0  501    0  0.00000000000E+00  0.00000000000E+00  0.11100865861E+03  0.11100865861E+03  0.00000000000E+00 0. -1.
         -1   -1    0    0    0  501 -0.00000000000E+00 -0.00000000000E+00 -0.18691056420E+03  0.18691056420E+03  0.00000000000E+00 0.  1.
         23    2    1    2    0    0  0.97018499079E+02 -0.39498138673E+02 -0.58089999747E+02  0.15696460830E+03  0.10144332440E+03 0.  0.
         23    2    1    2    0    0 -0.97018499079E+02  0.39498138673E+02 -0.17811905846E+02  0.14095461451E+03  0.92618827673E+02 0.  0.
          5    1    3    3  502    0  0.34077030361E+02  0.15331782376E+02  0.19929404029E+02  0.42609608001E+02  0.47000000000E+01 0. -1.
         -5    1    4    4    0  503 -0.10436280940E+03  0.61850107061E+01 -0.71019694277E+01  0.10489222237E+03  0.47000000000E+01 0.  1.
          5    1    4    4  503    0  0.73443103201E+01  0.33313127967E+02 -0.10709936418E+02  0.36062392144E+02  0.47000000000E+01 0. -1.
         -5    1    3    3    0  502  0.62941468718E+02 -0.54829921049E+02 -0.78019403776E+02  0.11435500029E+03  0.47000000000E+01 0.  1.
<mgrwt>
<rscale>  0 0.14429741E+03</rscale>
<asrwt>0</asrwt>
<pdfrwt beam="1">  1        1 0.17078255E-01 0.14581989E+03</pdfrwt>
<pdfrwt beam="2">  1       -1 0.28755471E-01 0.14581989E+03</pdfrwt>
<totfact> 0.33348967E+03</totfact>
</mgrwt>
</event>
<event>
 8    1  0.3177960E-004  0.1150722E+03  0.7546771E-02  0.1251833E+00
         -1   -1    0    0    0  501 -0.00000000000E+00  0.00000000000E+00  0.25679717062E+03  0.25679717062E+03  0.00000000000E+00 0.  1.
          1   -1    0    0  501    0  0.00000000000E+00 -0.00000000000E+00 -0.21822961236E+03  0.21822961236E+03  0.00000000000E+00 0. -1.
         23    2    1    2    0    0 -0.68787066470E+02 -0.36036145774E+01  0.22707115076E+03  0.25417568629E+03  0.91100633601E+02 0.  0.
         23    2    1    2    0    0  0.68787066470E+02  0.36036145774E+01 -0.18850359251E+03  0.22085109668E+03  0.92178934507E+02 0.  0.
          5    1    4    4  502    0  0.79060196435E+02  0.27878449924E+02 -0.11327770732E+03  0.14100231064E+03  0.47000000000E+01 0. -1.
         -5    1    4    4    0  502 -0.10273129965E+02 -0.24274835346E+02 -0.75225885183E+02  0.79848786039E+02  0.47000000000E+01 0.  1.
          5    1    3    3  503    0  0.19175786539E+02 -0.63180677167E+01  0.18637424405E+02  0.27876017605E+02  0.47000000000E+01 0. -1.
         -5    1    3    3    0  503 -0.87962853008E+02  0.27144531393E+01  0.20843372636E+03  0.22629966869E+03  0.47000000000E+01 0.  1.
<mgrwt>
<rscale>  0 0.11485607E+03</rscale>
<asrwt>0</asrwt>
<pdfrwt beam="1">  1        1 0.33573787E-01 0.11507216E+03</pdfrwt>
<pdfrwt beam="2">  1       -1 0.39507257E-01 0.11507216E+03</pdfrwt>
<totfact> 0.82269453E+02</totfact>
</mgrwt>
</event>
<event>
 8    1  0.3177960E-004  0.1304496E+03  0.7546771E-02  0.1227311E+00
          2   -1    0    0  501    0  0.00000000000E+00  0.00000000000E+00  0.36557185645E+03  0.36557185645E+03  0.00000000000E+00 0. -1.
         -2   -1    0    0    0  501 -0.00000000000E+00 -0.00000000000E+00 -0.84696256512E+02  0.84696256512E+02  0.00000000000E+00 0.  1.
         23    2    1    2    0    0 -0.62437451130E+01 -0.91278614843E+02 -0.12050618187E+02  0.12960805123E+03  0.91006920962E+02 0.  0.
         23    2    1    2    0    0  0.62437451130E+01  0.91278614843E+02  0.29292621812E+03  0.32066006174E+03  0.92985676571E+02 0.  0.
          5    1    3    3  502    0 -0.35816318109E+02 -0.14079563416E+02  0.16340449295E+02  0.42073067775E+02  0.47000000000E+01 0. -1.
         -5    1    3    3    0  502  0.29572572996E+02 -0.77199051427E+02 -0.28391067483E+02  0.87534983450E+02  0.47000000000E+01 0.  1.
          5    1    4    4  503    0 -0.11746032612E+01  0.71051085356E+02  0.28975878317E+03  0.29838210209E+03  0.47000000000E+01 0. -1.
         -5    1    4    4    0  503  0.74183483742E+01  0.20227529487E+02  0.31674349521E+01  0.22277959645E+02  0.47000000000E+01 0.  1.
<mgrwt>
<rscale>  0 0.13009745E+03</rscale>
<asrwt>0</asrwt>
<pdfrwt beam="1">  1        2 0.56241823E-01 0.13044963E+03</pdfrwt>
<pdfrwt beam="2">  1       -2 0.13030194E-01 0.13044963E+03</pdfrwt>
<totfact> 0.36730071E+03</totfact>
</mgrwt>
</event>
<event>
 8    1  0.3177960E-004  0.9177053E+02  0.7546771E-02  0.1302694E+00
         -2   -1    0    0    0  501 -0.00000000000E+00  0.00000000000E+00  0.48342696272E+02  0.48342696272E+02  0.00000000000E+00 0.  1.
          2   -1    0    0  501    0  0.00000000000E+00 -0.00000000000E+00 -0.48069206853E+03  0.48069206853E+03  0.00000000000E+00 0. -1.
         23    2    1    2    0    0 -0.55754995082E+01 -0.18999763342E+02  0.19361005979E+01  0.85158992546E+02  0.82802344920E+02 0.  0.
         23    2    1    2    0    0  0.55754995082E+01  0.18999763342E+02 -0.43428547286E+03  0.44387577225E+03  0.89608883822E+02 0.  0.
          5    1    3    3  502    0 -0.28283604784E+02  0.10382392777E+02 -0.24680432859E+02  0.39229709984E+02  0.47000000000E+01 0. -1.
         -5    1    3    3    0  502  0.22708105275E+02 -0.29382156119E+02  0.26616533457E+02  0.45929282562E+02  0.47000000000E+01 0.  1.
          5    1    4    4  503    0 -0.13626448784E+02  0.51196974563E+02 -0.22442698013E+03  0.23064338213E+03  0.47000000000E+01 0. -1.
         -5    1    4    4    0  503  0.19201948293E+02 -0.32197211221E+02 -0.20985849273E+03  0.21323239013E+03  0.47000000000E+01 0.  1.
<mgrwt>
<rscale>  0 0.90065191E+02</rscale>
<asrwt>0</asrwt>
<pdfrwt beam="1">  1        2 0.73952624E-01 0.91770525E+02</pdfrwt>
<pdfrwt beam="2">  1       -2 0.74373381E-02 0.91770525E+02</pdfrwt>
<totfact> 0.64527432E+03</totfact>
</mgrwt>
</event>
<event>
 8    1  0.3177960E-004  0.9924220E+02  0.7546771E-02  0.1283476E+00
          1   -1    0    0  501    0  0.00000000000E+00  0.00000000000E+00  0.80150207278E+03  0.80150207278E+03  0.00000000000E+00 0. -1.
         -1   -1    0    0    0  501 -0.00000000000E+00 -0.00000000000E+00 -0.15314935893E+02  0.15314935893E+02  0.00000000000E+00 0.  1.
         23    2    1    2    0    0  0.19434388543E+02  0.24546091729E+02  0.19649291062E+03  0.21883013979E+03  0.91087650530E+02 0.  0.
         23    2    1    2    0    0 -0.19434388543E+02 -0.24546091729E+02  0.58969422626E+03  0.59798686888E+03  0.94174353136E+02 0.  0.
          5    1    4    4  502    0 -0.49989291596E+02 -0.31872133402E+02  0.48344823910E+03  0.48709244713E+03  0.47000000000E+01 0. -1.
         -5    1    4    4    0  502  0.30554903054E+02  0.73260416730E+01  0.10624598716E+03  0.11089442175E+03  0.47000000000E+01 0.  1.
          5    1    3    3  503    0  0.23300004952E+02 -0.19301106853E+02  0.15553857759E+03  0.15852369562E+03  0.47000000000E+01 0. -1.
         -5    1    3    3    0  503 -0.38656164091E+01  0.43847198582E+02  0.40954333034E+02  0.60306444166E+02  0.47000000000E+01 0.  1.
<mgrwt>
<rscale>  0 0.98502945E+02</rscale>
<asrwt>0</asrwt>
<pdfrwt beam="1">  1        1 0.12330798E+00 0.99242203E+02</pdfrwt>
<pdfrwt beam="2">  1       -1 0.23561446E-02 0.99242203E+02</pdfrwt>
<totfact> 0.11596368E+04</totfact>
</mgrwt>
</event>
<event>
 8    1  0.3177960E-004  0.1052371E+03  0.7546771E-02  0.1270166E+00
          1   -1    0    0  501    0  0.00000000000E+00  0.00000000000E+00  0.10670656410E+03  0.10670656410E+03  0.00000000000E+00 0. -1.
         -1   -1    0    0    0  501 -0.00000000000E+00 -0.00000000000E+00 -0.30808676612E+03  0.30808676612E+03  0.00000000000E+00 0.  1.
         23    2    1    2    0    0 -0.37946976677E+02  0.37638025555E+02 -0.27016586752E+03  0.28993868268E+03  0.90654562667E+02 0.  0.
         23    2    1    2    0    0  0.37946976677E+02 -0.37638025555E+02  0.68785665510E+02  0.12485464754E+03  0.89446191797E+02 0.  0.
          5    1    3    3  502    0 -0.18009532507E+02 -0.17741329348E+02 -0.19121946034E+02  0.32044295097E+02  0.47000000000E+01 0. -1.
         -5    1    3    3    0  502 -0.19937444170E+02  0.55379354903E+02 -0.25104392149E+03  0.25789438758E+03  0.47000000000E+01 0.  1.
          5    1    4    4  503    0  0.63304791090E+02 -0.67257135358E+01  0.44908589420E+02  0.78048723252E+02  0.47000000000E+01 0. -1.
         -5    1    4    4    0  503 -0.25357814413E+02 -0.30912312020E+02  0.23877076090E+02  0.46805924292E+02  0.47000000000E+01 0.  1.
<mgrwt>
<rscale>  0 0.10497634E+03</rscale>
<asrwt>0</asrwt>
<pdfrwt beam="1">  1        1 0.16416394E-01 0.10523708E+03</pdfrwt>
<pdfrwt beam="2">  1       -1 0.47397964E-01 0.10523708E+03</pdfrwt>
<totfact> 0.14573950E+03</totfact>
</mgrwt>
</event>
<event>
 8    1  0.3177960E-004  0.9757422E+02  0.7546771E-02  0.1287074E+00
         -2   -1    0    0    0  501 -0.00000000000E+00  0.00000000000E+00  0.83699233998E+01  0.83699233998E+01  0.00000000000E+00 0.  1.
          2   -1    0    0  501    0  0.00000000000E+00 -0.00000000000E+00 -0.11103164489E+04  0.11103164489E+04  0.00000000000E+00 0. -1.
         23    2    1    2    0    0 -0.23008391454E+02  0.48249140109E+01 -0.58456967561E+03  0.59218895268E+03  0.91724501417E+02 0.  0.
         23    2    1    2    0    0  0.23008391454E+02 -0.48249140109E+01 -0.51737684988E+03  0.52649741961E+03  0.94699853178E+02 0.  0.
          5    1    4    4  502    0 -0.35333348714E+02 -0.86319567252E+00 -0.13419893567E+03  0.13885472615E+03  0.47000000000E+01 0. -1.
         -5    1    4    4    0  502  0.58341740167E+02 -0.39617183384E+01 -0.38317791421E+03  0.38764269346E+03  0.47000000000E+01 0.  1.
          5    1    3    3  503    0 -0.46221284108E+02  0.32952288094E+02 -0.39504775919E+03  0.39913291325E+03  0.47000000000E+01 0. -1.
         -5    1    3    3    0  503  0.23212892654E+02 -0.28127374083E+02 -0.18952191641E+03  0.19305603943E+03  0.47000000000E+01 0.  1.
<mgrwt>
<rscale>  0 0.96844833E+02</rscale>
<asrwt>0</asrwt>
<pdfrwt beam="1">  1        2 0.17081781E+00 0.97574218E+02</pdfrwt>
<pdfrwt beam="2">  1       -2 0.12876813E-02 0.97574218E+02</pdfrwt>
<totfact> 0.30655934E+04</totfact>
</mgrwt>
</event>
<event>
 8    1  0.3177960E-004  0.9335046E+02  0.7546771E-02  0.1295066E+00
         -1   -1    0    0    0  501 -0.00000000000E+00  0.00000000000E+00  0.15315908923E+03  0.15315908923E+03  0.00000000000E+00 0.  1.
          1   -1    0    0  501    0  0.00000000000E+00 -0.00000000000E+00 -0.70944658778E+02  0.70944658778E+02  0.00000000000E+00 0. -1.
         23    2    1    2    0    0 -0.15840519167E+02 -0.36205096914E+01 -0.89585330403E+01  0.93779337733E+02  0.91925397652E+02 0.  0.
         23    2    1    2    0    0  0.15840519167E+02  0.36205096914E+01  0.91172963492E+02  0.13032441028E+03  0.91694669986E+02 0.  0.
          5    1    3    3  502    0 -0.21453318055E+02  0.41618286819E+02 -0.92147568307E+01  0.47951312774E+02  0.47000000000E+01 0. -1.
         -5    1    3    3    0  502  0.56127988878E+01 -0.45238796510E+02  0.25622379047E+00  0.45828024959E+02  0.47000000000E+01 0.  1.
          5    1    4    4  503    0  0.26840958136E+02  0.37432120705E+02  0.19619129915E+02  0.50285196159E+02  0.47000000000E+01 0. -1.
         -5    1    4    4    0  503 -0.11000438969E+02 -0.33811611013E+02  0.71553833577E+02  0.80039214116E+02  0.47000000000E+01 0.  1.
<mgrwt>
<rscale>  0 0.93293612E+02</rscale>
<asrwt>0</asrwt>
<pdfrwt beam="1">  1        1 0.10914563E-01 0.93350463E+02</pdfrwt>
<pdfrwt beam="2">  1       -1 0.23562937E-01 0.93350463E+02</pdfrwt>
<totfact> 0.80137451E+03</totfact>
</mgrwt>
</event>
<event>
 8    1  0.3177960E-004  0.9608860E+02  0.7546771E-02  0.1289207E+00
          1   -1    0    0  501    0  0.00000000000E+00  0.00000000000E+00  0.56869406156E+02  0.56869406156E+02  0.00000000000E+00 0. -1.
         -1   -1    0    0    0  501 -0.00000000000E+00 -0.00000000000E+00 -0.16756101520E+03  0.16756101520E+03  0.00000000000E+00 0.  1.
         23    2    1    2    0    0  0.24552782597E+02 -0.16446475621E+02 -0.77864001978E+02  0.12367627991E+03  0.91431360681E+02 0.  0.
         23    2    1    2    0    0 -0.24552782597E+02  0.16446475621E+02 -0.32827607063E+02  0.10075414144E+03  0.90556167862E+02 0.  0.
          5    1    4    4  502    0 -0.38978676031E+02  0.44108123168E+02 -0.60254467565E+01  0.59357052851E+02  0.47000000000E+01 0. -1.
         -5    1    3    3    0  503  0.51488226660E+02 -0.35428343044E+02 -0.47797655723E+02  0.78822020197E+02  0.47000000000E+01 0.  1.
          5    1    3    3  503    0 -0.26935444062E+02  0.18981867423E+02 -0.30066346255E+02  0.44854259718E+02  0.47000000000E+01 0. -1.
         -5    1    4    4    0  502  0.14425893434E+02 -0.27661647548E+02 -0.26802160306E+02  0.41397088587E+02  0.47000000000E+01 0.  1.
<mgrwt>
<rscale>  0 0.95879824E+02</rscale>
<asrwt>0</asrwt>
<pdfrwt beam="1">  1        1 0.87491394E-02 0.96088602E+02</pdfrwt>
<pdfrwt beam="2">  1       -1 0.25778618E-01 0.96088602E+02</pdfrwt>
<totfact> 0.92822899E+03</totfact>
</mgrwt>
</event>
<event>
 8    1  0.3177960E-004  0.9179664E+02  0.7546771E-02  0.1298712E+00
          1   -1    0    0  501    0  0.00000000000E+00  0.00000000000E+00  0.25572092363E+03  0.25572092363E+03  0.00000000000E+00 0. -1.
         -1   -1    0    0    0  501 -0.00000000000E+00 -0.00000000000E+00 -0.38671930792E+02  0.38671930792E+02  0.00000000000E+00 0.  1.
         23    2    1    2    0    0  0.13325609909E+02 -0.45406197284E+01  0.16572198132E+03  0.18944761526E+03  0.90710720039E+02 0.  0.
         23    2    1    2    0    0 -0.13325609909E+02  0.45406197284E+01  0.51327011522E+02  0.10494523916E+03  0.90448062465E+02 0.  0.
          5    1    3    3  502    0  0.20339867766E+02 -0.36944677350E+02  0.36548878112E+02  0.56004731019E+02  0.47000000000E+01 0. -1.
         -5    1    4    4    0  503 -0.69595176730E+01  0.36883430216E+02 -0.63407130603E+01  0.38355142456E+02  0.47000000000E+01 0.  1.
          5    1    4    4  503    0 -0.63660922363E+01 -0.32342810487E+02  0.57667724582E+02  0.66590096704E+02  0.47000000000E+01 0. -1.
         -5    1    3    3    0  502 -0.70142578568E+01  0.32404057622E+02  0.12917310320E+03  0.13344288424E+03  0.47000000000E+01 0.  1.
<mgrwt>
<rscale>  0 0.91731690E+02</rscale>
<asrwt>0</asrwt>
<pdfrwt beam="1">  1        1 0.39341679E-01 0.91796644E+02</pdfrwt>
<pdfrwt beam="2">  1       -1 0.59495280E-02 0.91796644E+02</pdfrwt>
<totfact> 0.13163294E+04</totfact>
</mgrwt>
</event>
<event>
 8    1  0.3177960E-004  0.1142745E+03  0.7546771E-02  0.1253501E+00
          1   -1    0    0  501    0  0.00000000000E+00  0.00000000000E+00  0.62607562209E+03  0.62607562209E+03  0.00000000000E+00 0. -1.
         -1   -1    0    0    0  501 -0.00000000000E+00 -0.00000000000E+00 -0.21815779790E+02  0.21815779790E+02  0.00000000000E+00 0.  1.
         23    2    1    2    0    0 -0.20488886601E+02 -0.63524167204E+02  0.22356361246E+03  0.25041401222E+03  0.90947096745E+02 0.  0.
         23    2    1    2    0    0  0.20488886601E+02  0.63524167204E+02  0.38069622984E+03  0.39747738966E+03  0.92755277929E+02 0.  0.
          5    1    4    4  502    0  0.29655552375E+02  0.25799590121E+02  0.33500673131E+03  0.33733762117E+03  0.47000000000E+01 0. -1.
         -5    1    4    4    0  502 -0.91666657740E+01  0.37724577084E+02  0.45689498530E+02  0.60139768485E+02  0.47000000000E+01 0.  1.
          5    1    3    3  503    0  0.16045332647E+02  0.13412072861E+02  0.85329132888E+02  0.87980039313E+02  0.47000000000E+01 0. -1.
         -5    1    3    3    0  503 -0.36534219248E+02 -0.76936240065E+02  0.13823447957E+03  0.16243397290E+03  0.47000000000E+01 0.  1.
<mgrwt>
<rscale>  0 0.11390702E+03</rscale>
<asrwt>0</asrwt>
<pdfrwt beam="1">  1        1 0.96319313E-01 0.11427448E+03</pdfrwt>
<pdfrwt beam="2">  1       -1 0.33562743E-02 0.11427448E+03</pdfrwt>
<totfact> 0.99916947E+03</totfact>
</mgrwt>
</event>
<event>
 8    1  0.3177960E-004  0.1234792E+03  0.7546771E-02  0.1237932E+00
         -1   -1    0    0    0  501 -0.00000000000E+00  0.00000000000E+00  0.26046073174E+03  0.26046073174E+03  0.00000000000E+00 0.  1.
          1   -1    0    0  501    0  0.00000000000E+00 -0.00000000000E+00 -0.61138340149E+02  0.61138340149E+02  0.00000000000E+00 0. -1.
         23    2    1    2    0    0  0.25670091545E+02 -0.77491567441E+02  0.63596673528E+02  0.13889439611E+03  0.92645667808E+02 0.  0.
         23    2    1    2    0    0 -0.25670091545E+02  0.77491567441E+02  0.13572571807E+03  0.18270467578E+03  0.91080356731E+02 0.  0.
          5    1    4    4  502    0 -0.73586373488E+01  0.64904652611E+02  0.25687449725E+02  0.70346986769E+02  0.47000000000E+01 0. -1.
         -5    1    3    3    0  503 -0.25436909859E+00 -0.92534973444E+02  0.53093186062E+02  0.10678840021E+03  0.47000000000E+01 0.  1.
          5    1    3    3  503    0  0.25924460643E+02  0.15043406003E+02  0.10503487465E+02  0.32105995900E+02  0.47000000000E+01 0. -1.
         -5    1    4    4    0  502 -0.18311454196E+02  0.12586914830E+02  0.11003826834E+03  0.11235768901E+03  0.47000000000E+01 0.  1.
<mgrwt>
<rscale>  0 0.12318565E+03</rscale>
<asrwt>0</asrwt>
<pdfrwt beam="1">  1        1 0.94058986E-02 0.12347921E+03</pdfrwt>
<pdfrwt beam="2">  1       -1 0.40070881E-01 0.12347921E+03</pdfrwt>
<totfact> 0.40856881E+03</totfact>
</mgrwt>
</event>
<event>
 8    1  0.3177960E-004  0.9520263E+02  0.7546771E-02  0.1291840E+00
          2   -1    0    0  501    0  0.00000000000E+00  0.00000000000E+00  0.79757655197E+03  0.79757655197E+03  0.00000000000E+00 0. -1.
         -2   -1    0    0    0  501 -0.00000000000E+00 -0.00000000000E+00 -0.12266021219E+02  0.12266021219E+02  0.00000000000E+00 0.  1.
         23    2    1    2    0    0  0.72114172203E+01 -0.19464033136E+02  0.27314297022E+03  0.28925874730E+03  0.92912257447E+02 0.  0.
         23    2    1    2    0    0 -0.72114172203E+01  0.19464033136E+02  0.51216756053E+03  0.52058382589E+03  0.90890354788E+02 0.  0.
          5    1    4    4  502    0  0.25750301124E+02  0.33925643159E+02  0.40856521133E+03  0.41080609682E+03  0.47000000000E+01 0. -1.
         -5    1    3    3    0  503  0.15425729692E+02 -0.51350010430E+02  0.22061747027E+03  0.22708794529E+03  0.47000000000E+01 0.  1.
          5    1    3    3  503    0 -0.82143124714E+01  0.31885977295E+02  0.52525499950E+02  0.62170802009E+02  0.47000000000E+01 0. -1.
         -5    1    4    4    0  502 -0.32961718344E+02 -0.14461610023E+02  0.10360234920E+03  0.10977772907E+03  0.47000000000E+01 0.  1.
<mgrwt>
<rscale>  0 0.94705698E+02</rscale>
<asrwt>0</asrwt>
<pdfrwt beam="1">  1        2 0.12270404E+00 0.95202630E+02</pdfrwt>
<pdfrwt beam="2">  1       -2 0.18870808E-02 0.95202630E+02</pdfrwt>
<totfact> 0.27388190E+04</totfact>
</mgrwt>
</event>
<event>
 8    1  0.3177960E-004  0.1255846E+03  0.7546771E-02  0.1234379E+00
          1   -1    0    0  501    0  0.00000000000E+00  0.00000000000E+00  0.25411609866E+03  0.25411609866E+03  0.00000000000E+00 0. -1.
         -1   -1    0    0    0  501 -0.00000000000E+00 -0.00000000000E+00 -0.12897223422E+03  0.12897223422E+03  0.00000000000E+00 0.  1.
         23    2    1    2    0    0 -0.69506860768E+02 -0.53798861838E+02 -0.75610113404E+02  0.14658916733E+03  0.89699350615E+02 0.  0.
         23    2    1    2    0    0  0.69506860768E+02  0.53798861838E+02  0.20075397784E+03  0.23649916556E+03  0.88905424244E+02 0.  0.
          5    1    4    4  502    0  0.19766908906E+02 -0.47174161760E+01  0.13097992981E+03  0.13263037629E+03  0.47000000000E+01 0. -1.
         -5    1    4    4    0  502  0.49739951862E+02  0.58516278014E+02  0.69774048036E+02  0.10386878926E+03  0.47000000000E+01 0.  1.
          5    1    3    3  503    0 -0.12131903553E+02  0.19669879671E+02 -0.40503398183E+02  0.46868993103E+02  0.47000000000E+01 0. -1.
         -5    1    3    3    0  503 -0.57374957215E+02 -0.73468741509E+02 -0.35106715221E+02  0.99720174228E+02  0.47000000000E+01 0.  1.
<mgrwt>
<rscale>  0 0.12544291E+03</rscale>
<asrwt>0</asrwt>
<pdfrwt beam="1">  1        1 0.39094784E-01 0.12558461E+03</pdfrwt>
<pdfrwt beam="2">  1       -1 0.19841882E-01 0.12558461E+03</pdfrwt>
<totfact> 0.21493153E+03</totfact>
</mgrwt>
</event>
<event>
 8    1  0.3177960E-004  0.9596416E+02  0.7546771E-02  0.1292624E+00
         -2   -1    0    0    0  501 -0.00000000000E+00  0.00000000000E+00  0.16358678481E+02  0.16358678481E+02  0.00000000000E+00 0.  1.
          2   -1    0    0  501    0  0.00000000000E+00 -0.00000000000E+00 -0.55520945854E+03  0.55520945854E+03  0.00000000000E+00 0. -1.
         23    2    1    2    0    0  0.32402511251E+02  0.42908780311E+01 -0.34260730994E+03  0.35579332231E+03  0.90226298852E+02 0.  0.
         23    2    1    2    0    0 -0.32402511251E+02 -0.42908780311E+01 -0.19624347011E+03  0.21577481471E+03  0.83540030705E+02 0.  0.
          5    1    4    4  502    0  0.25139777144E+02  0.80357242299E+01 -0.35159903579E+02  0.44214138897E+02  0.47000000000E+01 0. -1.
         -5    1    4    4    0  502 -0.57542288395E+02 -0.12326602261E+02 -0.16108356653E+03  0.17156067581E+03  0.47000000000E+01 0.  1.
          5    1    3    3  503    0  0.52875286096E+02  0.28949089757E+02 -0.26273324696E+03  0.26960099172E+03  0.47000000000E+01 0. -1.
         -5    1    3    3    0  503 -0.20472774845E+02 -0.24658211726E+02 -0.79874062978E+02  0.86192330586E+02  0.47000000000E+01 0.  1.
<mgrwt>
<rscale>  0 0.94359986E+02</rscale>
<asrwt>0</asrwt>
<pdfrwt beam="1">  1        2 0.85416849E-01 0.95964157E+02</pdfrwt>
<pdfrwt beam="2">  1       -2 0.25167195E-02 0.95964157E+02</pdfrwt>
<totfact> 0.27504290E+04</totfact>
</mgrwt>
</event>
<event>
 8    1  0.3177960E-004  0.9659578E+02  0.7546771E-02  0.1288628E+00
          2   -1    0    0  501    0  0.00000000000E+00  0.00000000000E+00  0.37425170470E+02  0.37425170470E+02  0.00000000000E+00 0. -1.
         -2   -1    0    0    0  501 -0.00000000000E+00 -0.00000000000E+00 -0.26192161671E+03  0.26192161671E+03  0.00000000000E+00 0.  1.
         23    2    1    2    0    0 -0.25686167636E+02 -0.97928965382E+01 -0.15164564015E+03  0.17979750892E+03  0.92601641479E+02 0.  0.
         23    2    1    2    0    0  0.25686167636E+02  0.97928965382E+01 -0.72850806085E+02  0.11954927826E+03  0.90714441822E+02 0.  0.
          5    1    3    3  502    0  0.24705669826E+02  0.23066815325E+02 -0.37634903075E+02  0.50802795398E+02  0.47000000000E+01 0. -1.
         -5    1    3    3    0  502 -0.50391837462E+02 -0.32859711863E+02 -0.11401073708E+03  0.12899471352E+03  0.47000000000E+01 0.  1.
          5    1    4    4  503    0  0.57985201633E+02 -0.19721550590E+01 -0.33792561715E+02  0.67306762151E+02  0.47000000000E+01 0. -1.
         -5    1    4    4    0  503 -0.32299033997E+02  0.11765051597E+02 -0.39058244370E+02  0.52242516110E+02  0.47000000000E+01 0.  1.
<mgrwt>
<rscale>  0 0.96140659E+02</rscale>
<asrwt>0</asrwt>
<pdfrwt beam="1">  1        2 0.57577187E-02 0.96595776E+02</pdfrwt>
<pdfrwt beam="2">  1       -2 0.40295632E-01 0.96595776E+02</pdfrwt>
<totfact> 0.70076902E+03</totfact>
</mgrwt>
</event>
<event>
 8    1  0.3177960E-004  0.1952451E+03  0.7546771E-02  0.1154070E+00
         -2   -1    0    0    0  501 -0.00000000000E+00  0.00000000000E+00  0.21936311877E+02  0.21936311877E+02  0.00000000000E+00 0.  1.
          2   -1    0    0  501    0  0.00000000000E+00 -0.00000000000E+00 -0.17311754645E+04  0.17311754645E+04  0.00000000000E+00 0. -1.
         23    2    1    2    0    0  0.16440372401E+03 -0.51366919613E+02 -0.89325987503E+03  0.91409877401E+03  0.89421582419E+02 0.  0.
         23    2    1    2    0    0 -0.16440372401E+03  0.51366919613E+02 -0.81597927763E+03  0.83901300241E+03  0.91942872431E+02 0.  0.
          5    1    3    3  502    0  0.13068582434E+01 -0.20846865062E+02 -0.20453502026E+03  0.20565253262E+03  0.47000000000E+01 0. -1.
         -5    1    3    3    0  502  0.16309686576E+03 -0.30520054551E+02 -0.68872485477E+03  0.70844624139E+03  0.47000000000E+01 0.  1.
          5    1    4    4  503    0 -0.13128153213E+03  0.28110514584E+01 -0.64215208784E+03  0.65545719662E+03  0.47000000000E+01 0. -1.
         -5    1    4    4    0  503 -0.33122191882E+02  0.48555868155E+02 -0.17382718979E+03  0.18355580579E+03  0.47000000000E+01 0.  1.
<mgrwt>
<rscale>  0 0.19495076E+03</rscale>
<asrwt>0</asrwt>
<pdfrwt beam="1">  1        2 0.26633475E+00 0.19524507E+03</pdfrwt>
<pdfrwt beam="2">  1       -2 0.33748164E-02 0.19524507E+03</pdfrwt>
<totfact> 0.36455386E+03</totfact>
</mgrwt>
</event>
<event>
 8    1  0.3177960E-004  0.9052402E+02  0.7546771E-02  0.1304606E+00
         -1   -1    0    0    0  501 -0.00000000000E+00  0.00000000000E+00  0.20211099250E+03  0.20211099250E+03  0.00000000000E+00 0.  1.
          1   -1    0    0  501    0  0.00000000000E+00 -0.00000000000E+00 -0.40796570344E+02  0.40796570344E+02  0.00000000000E+00 0. -1.
         23    2    1    2    0    0  0.23160912118E+01 -0.17024201624E+02  0.11224614001E+03  0.14420053186E+03  0.88878623548E+02 0.  0.
         23    2    1    2    0    0 -0.23160912118E+01  0.17024201624E+02  0.49068282154E+02  0.98707030985E+02  0.83905863520E+02 0.  0.
          5    1    3    3  502    0 -0.96182026083E+01  0.27745099043E+02  0.92158080524E+01  0.31133927802E+02  0.47000000000E+01 0. -1.
         -5    1    3    3    0  502  0.11934293820E+02 -0.44769300667E+02  0.10303033195E+03  0.11306660406E+03  0.47000000000E+01 0.  1.
          5    1    4    4  503    0  0.26396257782E+02  0.26083142931E+02 -0.38902915059E+01  0.37607408021E+02  0.47000000000E+01 0. -1.
         -5    1    4    4    0  503 -0.28712348994E+02 -0.90589413072E+01  0.52958573660E+02  0.61099622964E+02  0.47000000000E+01 0.  1.
<mgrwt>
<rscale>  0 0.89279284E+02</rscale>
<asrwt>0</asrwt>
<pdfrwt beam="1">  1        1 0.62763955E-02 0.90524016E+02</pdfrwt>
<pdfrwt beam="2">  1       -1 0.31093998E-01 0.90524016E+02</pdfrwt>
<totfact> 0.10536547E+04</totfact>
</mgrwt>
</event>
<event>
 8    1  0.3177960E-004  0.3057815E+03  0.7546771E-02  0.1082439E+00
         -1   -1    0    0    0  501 -0.00000000000E+00  0.00000000000E+00  0.36183892645E+03  0.36183892645E+03  0.00000000000E+00 0.  1.
          1   -1    0    0  501    0  0.00000000000E+00 -0.00000000000E+00 -0.32119875495E+03  0.32119875495E+03  0.00000000000E+00 0. -1.
         23    2    1    2    0    0  0.15638565366E+03 -0.24645304424E+03 -0.13110794074E+03  0.33270352993E+03  0.91141489007E+02 0.  0.
         23    2    1    2    0    0 -0.15638565366E+03  0.24645304424E+03  0.17174811224E+03  0.35033415148E+03  0.89671778998E+02 0.  0.
          5    1    4    4  502    0 -0.73242307320E+02  0.95298955202E+02  0.12061576773E+03  0.17034253687E+03  0.47000000000E+01 0. -1.
         -5    1    3    3    0  503  0.49260511445E+02 -0.13221986852E+03 -0.24726866860E+02  0.14332550215E+03  0.47000000000E+01 0.  1.
          5    1    3    3  503    0  0.10712514221E+03 -0.11423317571E+03 -0.10638107388E+03  0.18937802778E+03  0.47000000000E+01 0. -1.
         -5    1    4    4    0  502 -0.83143346338E+02  0.15115408903E+03  0.51132344517E+02  0.17999161460E+03  0.47000000000E+01 0.  1.
<mgrwt>
<rscale>  0 0.30567277E+03</rscale>
<asrwt>0</asrwt>
<pdfrwt beam="1">  1        1 0.49415193E-01 0.30578153E+03</pdfrwt>
<pdfrwt beam="2">  1       -1 0.55667527E-01 0.30578153E+03</pdfrwt>
<totfact> 0.27084450E+02</totfact>
</mgrwt>
</event>
<event>
 8    1  0.3177960E-004  0.1145212E+03  0.7546771E-02  0.1253604E+00
         -3   -1    0    0    0  501 -0.00000000000E+00  0.00000000000E+00  0.92085031950E+02  0.92085031950E+02  0.00000000000E+00 0.  1.
          3   -1    0    0  501    0  0.00000000000E+00 -0.00000000000E+00 -0.14240820242E+03  0.14240820242E+03  0.00000000000E+00 0. -1.
         23    2    1    2    0    0 -0.56172705193E+02 -0.36164184794E+02 -0.70793583589E+01  0.11207944680E+03  0.89713232080E+02 0.  0.
         23    2    1    2    0    0  0.56172705193E+02  0.36164184794E+02 -0.43243812114E+02  0.12241378757E+03  0.93015520374E+02 0.  0.
          5    1    4    4  502    0  0.36449693708E+02  0.28182365091E+02 -0.72442048570E+02  0.85981197215E+02  0.47000000000E+01 0. -1.
         -5    1    4    4    0  502  0.19723011485E+02  0.79818197036E+01  0.29198236456E+02  0.36432590355E+02  0.47000000000E+01 0.  1.
          5    1    3    3  503    0  0.77843996228E+01  0.22384846212E+02  0.41657919528E+01  0.24517790276E+02  0.47000000000E+01 0. -1.
         -5    1    3    3    0  503 -0.63957104816E+02 -0.58549031006E+02 -0.11245150312E+02  0.87561656527E+02  0.47000000000E+01 0.  1.
<mgrwt>
<rscale>  0 0.11384892E+03</rscale>
<asrwt>0</asrwt>
<pdfrwt beam="1">  1        3 0.21908954E-01 0.11452121E+03</pdfrwt>
<pdfrwt beam="2">  1       -3 0.14166928E-01 0.11452121E+03</pdfrwt>
<totfact> 0.17393098E+03</totfact>
</mgrwt>
</event>
<event>
 8    1  0.3177960E-004  0.1004179E+03  0.7546771E-02  0.1281673E+00
         -2   -1    0    0    0  501 -0.00000000000E+00  0.00000000000E+00  0.30644646005E+02  0.30644646005E+02  0.00000000000E+00 0.  1.
          2   -1    0    0  501    0  0.00000000000E+00 -0.00000000000E+00 -0.32106242884E+03  0.32106242884E+03  0.00000000000E+00 0. -1.
         23    2    1    2    0    0  0.34016973120E+02  0.94007815513E+01 -0.16550944898E+03  0.19143902676E+03  0.89498570435E+02 0.  0.
         23    2    1    2    0    0 -0.34016973120E+02 -0.94007815513E+01 -0.12490833385E+03  0.16026804808E+03  0.94011840835E+02 0.  0.
          5    1    3    3  502    0 -0.50667196155E+01  0.21204241697E+02 -0.14270889560E+03  0.14444102740E+03  0.47000000000E+01 0. -1.
         -5    1    4    4    0  503 -0.31306357912E+02 -0.44263684920E+02 -0.37726535247E+02  0.66217394318E+02  0.47000000000E+01 0.  1.
          5    1    4    4  503    0 -0.27106152081E+01  0.34862903369E+02 -0.87181798604E+02  0.94050653766E+02  0.47000000000E+01 0. -1.
         -5    1    3    3    0  502  0.39083692736E+02 -0.11803460146E+02 -0.22800553388E+02  0.46997999362E+02  0.47000000000E+01 0.  1.
<mgrwt>
<rscale>  0 0.99347853E+02</rscale>
<asrwt>0</asrwt>
<pdfrwt beam="1">  1        2 0.49394219E-01 0.10041790E+03</pdfrwt>
<pdfrwt beam="2">  1       -2 0.47145610E-02 0.10041790E+03</pdfrwt>
<totfact> 0.19752932E+04</totfact>
</mgrwt>
</event>
<event>
 8    1  0.3177960E-004  0.1157088E+03  0.7546771E-02  0.1251055E+00
          2   -1    0    0  501    0  0.00000000000E+00  0.00000000000E+00  0.16844245338E+03  0.16844245338E+03  0.00000000000E+00 0. -1.
         -2   -1    0    0    0  501 -0.00000000000E+00 -0.00000000000E+00 -0.14384314488E+03  0.14384314488E+03  0.00000000000E+00 0.  1.
         23    2    1    2    0    0 -0.68504103809E+02 -0.16327149563E+02  0.11759044993E+03  0.16384075274E+03  0.89760182118E+02 0.  0.
         23    2    1    2    0    0  0.68504103809E+02  0.16327149563E+02 -0.92991141429E+02  0.14844484551E+03  0.91810302929E+02 0.  0.
          5    1    3    3  502    0 -0.81793800881E+02 -0.33345843635E+02  0.75470755755E+02  0.11627594818E+03  0.47000000000E+01 0. -1.
         -5    1    3    3    0  502  0.13289697072E+02  0.17018694072E+02  0.42119694174E+02  0.47564804567E+02  0.47000000000E+01 0.  1.
          5    1    4    4  503    0  0.38218483531E+02 -0.17112419253E+02  0.30325894930E+01  0.42246585367E+02  0.47000000000E+01 0. -1.
         -5    1    4    4    0  503  0.30285620278E+02  0.33439568816E+02 -0.96023730922E+02  0.10619826015E+03  0.47000000000E+01 0.  1.
<mgrwt>
<rscale>  0 0.11530166E+03</rscale>
<asrwt>0</asrwt>
<pdfrwt beam="1">  1        2 0.25914223E-01 0.11570877E+03</pdfrwt>
<pdfrwt beam="2">  1       -2 0.22129715E-01 0.11570877E+03</pdfrwt>
<totfact> 0.34723268E+03</totfact>
</mgrwt>
</event>
<event>
 8    1  0.3177960E-004  0.1181754E+03  0.7546771E-02  0.1247109E+00
         -1   -1    0    0    0  501 -0.00000000000E+00  0.00000000000E+00  0.69344118454E+02  0.69344118454E+02  0.00000000000E+00 0.  1.
          1   -1    0    0  501    0  0.00000000000E+00 -0.00000000000E+00 -0.21701106231E+03  0.21701106231E+03  0.00000000000E+00 0. -1.
         23    2    1    2    0    0 -0.53700901330E+02 -0.46181425133E+02 -0.11739473275E+03  0.16657415917E+03  0.94598712433E+02 0.  0.
         23    2    1    2    0    0  0.53700901330E+02  0.46181425133E+02 -0.30272211103E+02  0.11978102159E+03  0.91730995513E+02 0.  0.
          5    1    3    3  502    0 -0.76562673715E+02 -0.27909346108E+02 -0.10820585271E+03  0.13554103131E+03  0.47000000000E+01 0. -1.
         -5    1    4    4    0  503  0.67658108557E+02  0.10340389608E+02 -0.40549387219E+02  0.79692447036E+02  0.47000000000E+01 0.  1.
          5    1    4    4  503    0 -0.13957207227E+02  0.35841035525E+02  0.10277176115E+02  0.40088574557E+02  0.47000000000E+01 0. -1.
         -5    1    3    3    0  502  0.22861772385E+02 -0.18272079026E+02 -0.91888800376E+01  0.31033127861E+02  0.47000000000E+01 0.  1.
<mgrwt>
<rscale>  0 0.11760052E+03</rscale>
<asrwt>0</asrwt>
<pdfrwt beam="1">  1        1 0.33386317E-01 0.11817541E+03</pdfrwt>
<pdfrwt beam="2">  1       -1 0.10668326E-01 0.11817541E+03</pdfrwt>
<totfact> 0.68543088E+03</totfact>
</mgrwt>
</event>
<event>
 8    1  0.3177960E-004  0.1347999E+03  0.7546771E-02  0.1220577E+00
          2   -1    0    0  501    0  0.00000000000E+00  0.00000000000E+00  0.57627685281E+03  0.57627685281E+03  0.00000000000E+00 0. -1.
         -2   -1    0    0    0  501 -0.00000000000E+00 -0.00000000000E+00 -0.31505181510E+02  0.31505181510E+02  0.00000000000E+00 0.  1.
         23    2    1    2    0    0 -0.77915775749E+02  0.59972363875E+02  0.26447654674E+03  0.29684822291E+03  0.92214267489E+02 0.  0.
         23    2    1    2    0    0  0.77915775749E+02 -0.59972363875E+02  0.28029512456E+03  0.31093381141E+03  0.91907157982E+02 0.  0.
          5    1    3    3  502    0 -0.70681244937E+02 -0.16396838742E+01  0.16426580884E+03  0.17889626296E+03  0.47000000000E+01 0. -1.
         -5    1    4    4    0  503  0.64079829060E+02 -0.25292574206E+02  0.73914966538E+02  0.10115063559E+03  0.47000000000E+01 0.  1.
          5    1    4    4  503    0  0.13835946689E+02 -0.34679789669E+02  0.20638015802E+03  0.20978317582E+03  0.47000000000E+01 0. -1.
         -5    1    3    3    0  502 -0.72345308127E+01  0.61612047749E+02  0.10021073791E+03  0.11795195995E+03  0.47000000000E+01 0.  1.
<mgrwt>
<rscale>  0 0.13474743E+03</rscale>
<asrwt>0</asrwt>
<pdfrwt beam="1">  1        2 0.88657970E-01 0.13479994E+03</pdfrwt>
<pdfrwt beam="2">  1       -2 0.48469514E-02 0.13479994E+03</pdfrwt>
<totfact> 0.10353819E+04</totfact>
</mgrwt>
</event>
<event>
 7    1  0.3902810E-004  0.2111729E+03  0.7546771E-02  0.1144905E+00
         -1   -1    0    0    0  501 -0.00000000000E+00  0.00000000000E+00  0.21209126905E+03  0.21209126905E+03  0.00000000000E+00 0.  1.
          1   -1    0    0  501    0  0.00000000000E+00 -0.00000000000E+00 -0.41068382172E+03  0.41068382172E+03  0.00000000000E+00 0. -1.
         23    2    1    2    0    0  0.12371267525E+03 -0.11213486896E+03  0.13102340663E+03  0.23131543922E+03  0.91981761689E+02 0.  0.
          5    1    3    3  502    0 -0.84571485780E+01 -0.29848249558E+02  0.68546538082E+01  0.32117248366E+02  0.47000000000E+01 0. -1.
         -5    1    3    3    0  502  0.13216982383E+03 -0.82286619405E+02  0.12416875282E+03  0.19919819086E+03  0.47000000000E+01 0.  1.
          5    1    1    2  503    0 -0.14514651559E+03  0.65339778841E+02 -0.25674530036E+03  0.30212089789E+03  0.47000000000E+01 0. -1.
         -5    1    1    2    0  503  0.21433840340E+02  0.46795090122E+02 -0.72870658941E+02  0.89338753661E+02  0.47000000000E+01 0.  1.
<mgrwt>
<rscale>  0 0.20583833E+03</rscale>
<asrwt>0</asrwt>
<pdfrwt beam="1">  1        1 0.63182125E-01 0.21117286E+03</pdfrwt>
<pdfrwt beam="2">  1       -1 0.32629427E-01 0.21117286E+03</pdfrwt>
<totfact> 0.52129668E+02</totfact>
</mgrwt>
</event>
<event>
 8    1  0.3177960E-004  0.1041483E+03  0.7546771E-02  0.1277025E+00
          2   -1    0    0  501    0  0.00000000000E+00  0.00000000000E+00  0.29508202441E+03  0.29508202441E+03  0.00000000000E+00 0. -1.
         -2   -1    0    0    0  501 -0.00000000000E+00 -0.00000000000E+00 -0.59618693464E+02  0.59618693464E+02  0.00000000000E+00 0.  1.
         23    2    1    2    0    0 -0.97516406552E+01  0.47009213306E+02  0.33591768640E+01  0.10420242193E+03  0.92422400071E+02 0.  0.
         23    2    1    2    0    0  0.97516406552E+01 -0.47009213306E+02  0.23210415408E+03  0.25049829594E+03  0.81068472909E+02 0.  0.
          5    1    4    4  502    0 -0.21013119924E+02 -0.57105959760E+02  0.13884692956E+03  0.15166806420E+03  0.47000000000E+01 0. -1.
         -5    1    3    3    0  503  0.27793297974E+02  0.18713502501E+01 -0.25998081629E+02  0.38392181658E+02  0.47000000000E+01 0.  1.
          5    1    3    3  503    0 -0.37544938630E+02  0.45137863056E+02  0.29357258493E+02  0.65810240268E+02  0.47000000000E+01 0. -1.
         -5    1    4    4    0  502  0.30764760579E+02  0.10096746454E+02  0.93257224514E+02  0.98830231743E+02  0.47000000000E+01 0.  1.
<mgrwt>
<rscale>  0 0.10157168E+03</rscale>
<asrwt>0</asrwt>
<pdfrwt beam="1">  1        2 0.45397234E-01 0.10414826E+03</pdfrwt>
<pdfrwt beam="2">  1       -2 0.91721069E-02 0.10414826E+03</pdfrwt>
<totfact> 0.79010484E+03</totfact>
</mgrwt>
</event>
<event>
 8    1  0.3177960E-004  0.1115066E+03  0.7546771E-02  0.1259480E+00
         -4   -1    0    0    0  501 -0.00000000000E+00  0.00000000000E+00  0.11865360008E+03  0.11865360008E+03  0.00000000000E+00 0.  1.
          4   -1    0    0  501    0  0.00000000000E+00 -0.00000000000E+00 -0.15635788468E+03  0.15635788468E+03  0.00000000000E+00 0. -1.
         23    2    1    2    0    0  0.58471512576E+02  0.21542212241E+02  0.62448289753E+02  0.12780263486E+03  0.92470210835E+02 0.  0.
         23    2    1    2    0    0 -0.58471512576E+02 -0.21542212241E+02 -0.10015257435E+03  0.14720884990E+03  0.88073393530E+02 0.  0.
          5    1    3    3  502    0  0.23954199209E+02 -0.21025691560E+02 -0.12737676269E+02  0.34644216863E+02  0.47000000000E+01 0. -1.
         -5    1    4    4    0  503  0.21366994781E+02  0.68786228333E+01 -0.19052162558E+02  0.29815076995E+02  0.47000000000E+01 0.  1.
          5    1    4    4  503    0 -0.79838507357E+02 -0.28420835075E+02 -0.81100411796E+02  0.11739377291E+03  0.47000000000E+01 0. -1.
         -5    1    3    3    0  502  0.34517313367E+02  0.42567903801E+02  0.75185966023E+02  0.93158417993E+02  0.47000000000E+01 0.  1.
<mgrwt>
<rscale>  0 0.11059084E+03</rscale>
<asrwt>0</asrwt>
<pdfrwt beam="1">  1        4 0.24055059E-01 0.11150661E+03</pdfrwt>
<pdfrwt beam="2">  1       -4 0.18254400E-01 0.11150661E+03</pdfrwt>
<totfact> 0.67966362E+02</totfact>
</mgrwt>
</event>
<event>
 8    1  0.3177960E-004  0.1219144E+03  0.7546771E-02  0.1240535E+00
         -2   -1    0    0    0  501 -0.00000000000E+00  0.00000000000E+00  0.79639758440E+02  0.79639758440E+02  0.00000000000E+00 0.  1.
          2   -1    0    0  501    0  0.00000000000E+00 -0.00000000000E+00 -0.21313073185E+03  0.21313073185E+03  0.00000000000E+00 0. -1.
         23    2    1    2    0    0  0.71172050086E+00 -0.79321757899E+02 -0.12005532449E+03  0.17011793459E+03  0.90743500641E+02 0.  0.
         23    2    1    2    0    0 -0.71172050086E+00  0.79321757899E+02 -0.13435648920E+02  0.12265255570E+03  0.92577993797E+02 0.  0.
          5    1    3    3  502    0 -0.15596294403E+02  0.13489037740E+02 -0.44406403638E+02  0.49185538752E+02  0.47000000000E+01 0. -1.
         -5    1    3    3    0  502  0.16308014904E+02 -0.92810795639E+02 -0.75648920854E+02  0.12093239584E+03  0.47000000000E+01 0.  1.
          5    1    4    4  503    0  0.25879497064E+02  0.85513534657E+02 -0.24593292893E+02  0.92785952779E+02  0.47000000000E+01 0. -1.
         -5    1    4    4    0  503 -0.26591217565E+02 -0.61917767573E+01  0.11157643973E+02  0.29866602921E+02  0.47000000000E+01 0.  1.
<mgrwt>
<rscale>  0 0.12156617E+03</rscale>
<asrwt>0</asrwt>
<pdfrwt beam="1">  1        2 0.32789343E-01 0.12191445E+03</pdfrwt>
<pdfrwt beam="2">  1       -2 0.12252271E-01 0.12191445E+03</pdfrwt>
<totfact> 0.71569709E+03</totfact>
</mgrwt>
</event>
<event>
 8    1  0.3177960E-004  0.9293486E+02  0.7546771E-02  0.1297119E+00
         -2   -1    0    0    0  501 -0.00000000000E+00  0.00000000000E+00  0.11531972036E+03  0.11531972036E+03  0.00000000000E+00 0.  1.
          2   -1    0    0  501    0  0.00000000000E+00 -0.00000000000E+00 -0.17986551782E+03  0.17986551782E+03  0.00000000000E+00 0. -1.
         23    2    1    2    0    0  0.15553750613E+02 -0.28024703254E+02  0.81518173992E+02  0.12206224183E+03  0.85009852595E+02 0.  0.
         23    2    1    2    0    0 -0.15553750613E+02  0.28024703254E+02 -0.14606397146E+03  0.17312299636E+03  0.87232935062E+02 0.  0.
          5    1    3    3  502    0 -0.13846744632E+02  0.22757862749E+02  0.86784559133E+01  0.28408770667E+02  0.47000000000E+01 0. -1.
         -5    1    4    4    0  503 -0.30065719520E+02 -0.13949072149E+02 -0.19117224742E+02  0.38549739116E+02  0.47000000000E+01 0.  1.
          5    1    4    4  503    0  0.14511968908E+02  0.41973775403E+02 -0.12694674671E+03  0.13457325724E+03  0.47000000000E+01 0. -1.
         -5    1    3    3    0  502  0.29400495245E+02 -0.50782566003E+02  0.72839718079E+02  0.93653471159E+02  0.47000000000E+01 0.  1.
<mgrwt>
<rscale>  0 0.92409559E+02</rscale>
<asrwt>0</asrwt>
<pdfrwt beam="1">  1        2 0.27671618E-01 0.92934859E+02</pdfrwt>
<pdfrwt beam="2">  1       -2 0.17741496E-01 0.92934859E+02</pdfrwt>
<totfact> 0.46222894E+03</totfact>
</mgrwt>
</event>
<event>
 8    1  0.3177960E-004  0.9703980E+02  0.7546771E-02  0.1288746E+00
         -1   -1    0    0    0  501 -0.00000000000E+00  0.00000000000E+00  0.33044259803E+03  0.33044259803E+03  0.00000000000E+00 0.  1.
          1   -1    0    0  501    0  0.00000000000E+00 -0.00000000000E+00 -0.29240574345E+02  0.29240574345E+02  0.00000000000E+00 0. -1.
         23    2    1    2    0    0 -0.85595207027E+01  0.57743726989E+01  0.19286138113E+03  0.21423758775E+03  0.92712582207E+02 0.  0.
         23    2    1    2    0    0  0.85595207027E+01 -0.57743726989E+01  0.10834064255E+03  0.14544558462E+03  0.96488934507E+02 0.  0.
          5    1    4    4  502    0 -0.35810298545E+02 -0.17956458163E+02  0.18450573470E+02  0.44354543544E+02  0.47000000000E+01 0. -1.
         -5    1    4    4    0  502  0.44369819248E+02  0.12182085464E+02  0.89890069085E+02  0.10109104108E+03  0.47000000000E+01 0.  1.
          5    1    3    3  503    0  0.21664981775E+02 -0.87853906029E+01  0.63535348536E+01  0.24678167041E+02  0.47000000000E+01 0. -1.
         -5    1    3    3    0  503 -0.30224502478E+02  0.14559763302E+02  0.18650784627E+03  0.18955942071E+03  0.47000000000E+01 0.  1.
<mgrwt>
<rscale>  0 0.96087359E+02</rscale>
<asrwt>0</asrwt>
<pdfrwt beam="1">  1        1 0.44985501E-02 0.97039802E+02</pdfrwt>
<pdfrwt beam="2">  1       -1 0.50837320E-01 0.97039802E+02</pdfrwt>
<totfact> 0.70758161E+03</totfact>
</mgrwt>
</event>
<event>
 8    1  0.3177960E-004  0.9229012E+02  0.7546771E-02  0.1298077E+00
         -1   -1    0    0    0  501 -0.00000000000E+00  0.00000000000E+00  0.62271699809E+02  0.62271699809E+02  0.00000000000E+00 0.  1.
          1   -1    0    0  501    0  0.00000000000E+00 -0.00000000000E+00 -0.18837848058E+03  0.18837848058E+03  0.00000000000E+00 0. -1.
         23    2    1    2    0    0 -0.11217545424E+01  0.36532129206E+01  0.38928054204E+01  0.91221956829E+02  0.91058701813E+02 0.  0.
         23    2    1    2    0    0  0.11217545424E+01 -0.36532129206E+01 -0.12999958619E+03  0.15942822356E+03  0.92210963336E+02 0.  0.
          5    1    4    4  502    0 -0.18554710444E+02 -0.25558381546E+02 -0.12522353258E+03  0.12923053532E+03  0.47000000000E+01 0. -1.
         -5    1    4    4    0  502  0.19676464986E+02  0.21905168626E+02 -0.47760536085E+01  0.30197688238E+02  0.47000000000E+01 0.  1.
          5    1    3    3  503    0 -0.45593856880E+01 -0.43222060409E+02 -0.10547615121E+01  0.43727989042E+02  0.47000000000E+01 0. -1.
         -5    1    3    3    0  503  0.34376311456E+01  0.46875273329E+02  0.49475669324E+01  0.47493967787E+02  0.47000000000E+01 0.  1.
<mgrwt>
<rscale>  0 0.92000948E+02</rscale>
<asrwt>0</asrwt>
<pdfrwt beam="1">  1        1 0.28981304E-01 0.92290119E+02</pdfrwt>
<pdfrwt beam="2">  1       -1 0.95802616E-02 0.92290119E+02</pdfrwt>
<totfact> 0.94188715E+03</totfact>
</mgrwt>
</event>
<event>
 8    1  0.3177960E-004  0.9297129E+02  0.7546771E-02  0.1296589E+00
          1   -1    0    0  501    0  0.00000000000E+00  0.00000000000E+00  0.28073821446E+03  0.28073821446E+03  0.00000000000E+00 0. -1.
         -1   -1    0    0    0  501 -0.00000000000E+00 -0.00000000000E+00 -0.36946900494E+02  0.36946900494E+02  0.00000000000E+00 0.  1.
         23    2    1    2    0    0 -0.11977015849E+02 -0.70464848492E+01  0.18829240250E+03  0.20940866776E+03  0.90580679174E+02 0.  0.
         23    2    1    2    0    0  0.11977015849E+02  0.70464848492E+01  0.55498911467E+02  0.10827644719E+03  0.91926916536E+02 0.  0.
          5    1    4    4  502    0 -0.35557990823E+02 -0.96653527635E+01  0.41652528501E+02  0.55810508741E+02  0.47000000000E+01 0. -1.
         -5    1    4    4    0  502  0.47535006672E+02  0.16711837613E+02  0.13846382966E+02  0.52465938445E+02  0.47000000000E+01 0.  1.
          5    1    3    3  503    0  0.38338130679E+02 -0.11333832544E+02  0.96041372289E+02  0.10413598425E+03  0.47000000000E+01 0. -1.
         -5    1    3    3    0  503 -0.50315146529E+02  0.42873476947E+01  0.92251030207E+02  0.10527268352E+03  0.47000000000E+01 0.  1.
<mgrwt>
<rscale>  0 0.92636760E+02</rscale>
<asrwt>0</asrwt>
<pdfrwt beam="1">  1        1 0.43190493E-01 0.92971285E+02</pdfrwt>
<pdfrwt beam="2">  1       -1 0.56841387E-02 0.92971285E+02</pdfrwt>
<totfact> 0.12578058E+04</totfact>
</mgrwt>
</event>
<event>
 8    1  0.3177960E-004  0.9802538E+02  0.7546771E-02  0.1290917E+00
         -2   -1    0    0    0  501 -0.00000000000E+00  0.00000000000E+00  0.53965496794E+03  0.53965496794E+03  0.00000000000E+00 0.  1.
          2   -1    0    0  501    0  0.00000000000E+00 -0.00000000000E+00 -0.26563745393E+02  0.26563745393E+02  0.00000000000E+00 0. -1.
         23    2    1    2    0    0  0.17325708437E+02  0.16794467723E+02  0.44543291147E+03  0.45609149668E+03  0.95009159595E+02 0.  0.
         23    2    1    2    0    0 -0.17325708437E+02 -0.16794467723E+02  0.67658311085E+02  0.11012721666E+03  0.83475280597E+02 0.  0.
          5    1    4    4  502    0  0.23263173859E+02  0.33311369321E+00 -0.57162425152E+01  0.24414169067E+02  0.47000000000E+01 0. -1.
         -5    1    4    4    0  502 -0.40588882296E+02 -0.17127581416E+02  0.73374553600E+02  0.85713047590E+02  0.47000000000E+01 0.  1.
          5    1    3    3  503    0  0.13610078271E+02 -0.28220754141E+02  0.58722672952E+02  0.66723965061E+02  0.47000000000E+01 0. -1.
         -5    1    3    3    0  503  0.37156301655E+01  0.45015221864E+02  0.38671023852E+03  0.38936753162E+03  0.47000000000E+01 0.  1.
<mgrwt>
<rscale>  0 0.95115179E+02</rscale>
<asrwt>0</asrwt>
<pdfrwt beam="1">  1        2 0.40867305E-02 0.98025378E+02</pdfrwt>
<pdfrwt beam="2">  1       -2 0.83023833E-01 0.98025378E+02</pdfrwt>
<totfact> 0.25221952E+03</totfact>
</mgrwt>
</event>
<event>
 8    1  0.3177960E-004  0.1006069E+03  0.7546771E-02  0.1279249E+00
         -1   -1    0    0    0  501 -0.00000000000E+00  0.00000000000E+00  0.24091709651E+02  0.24091709651E+02  0.00000000000E+00 0.  1.
          1   -1    0    0  501    0  0.00000000000E+00 -0.00000000000E+00 -0.44870234300E+03  0.44870234300E+03  0.00000000000E+00 0. -1.
         23    2    1    2    0    0 -0.77020090604E+01 -0.44329634562E+02 -0.15039170570E+03  0.18070198202E+03  0.89504769244E+02 0.  0.
         23    2    1    2    0    0  0.77020090604E+01  0.44329634562E+02 -0.27421892765E+03  0.29209207063E+03  0.89985109890E+02 0.  0.
          5    1    4    4  502    0 -0.40366896458E+02  0.12384674324E+02 -0.10669761286E+03  0.11484483914E+03  0.47000000000E+01 0. -1.
         -5    1    3    3    0  503 -0.10647246985E+02 -0.71383138560E+02 -0.11421910565E+03  0.13519249400E+03  0.47000000000E+01 0.  1.
          5    1    3    3  503    0  0.29452379248E+01  0.27053503998E+02 -0.36172600053E+02  0.45509488017E+02  0.47000000000E+01 0. -1.
         -5    1    4    4    0  502  0.48068905518E+02  0.31944960238E+02 -0.16752131479E+03  0.17724723149E+03  0.47000000000E+01 0.  1.
<mgrwt>
<rscale>  0 0.10049942E+03</rscale>
<asrwt>0</asrwt>
<pdfrwt beam="1">  1        1 0.69031127E-01 0.10060695E+03</pdfrwt>
<pdfrwt beam="2">  1       -1 0.37064170E-02 0.10060695E+03</pdfrwt>
<totfact> 0.13252488E+04</totfact>
</mgrwt>
</event>
<event>
 8    1  0.3177960E-004  0.1180952E+03  0.7546771E-02  0.1246590E+00
         -1   -1    0    0    0  501 -0.00000000000E+00  0.00000000000E+00  0.95157694373E+02  0.95157694373E+02  0.00000000000E+00 0.  1.
          1   -1    0    0  501    0  0.00000000000E+00 -0.00000000000E+00 -0.14868238646E+03  0.14868238646E+03  0.00000000000E+00 0. -1.
         23    2    1    2    0    0 -0.74108225382E+02 -0.10001538954E+02 -0.44308765198E+02  0.12613378931E+03  0.91402441333E+02 0.  0.
         23    2    1    2    0    0  0.74108225382E+02  0.10001538954E+02 -0.92159268899E+01  0.11770629152E+03  0.90431067147E+02 0.  0.
          5    1    3    3  502    0 -0.62642127203E+02  0.23788605536E+02  0.23430174364E+01  0.67212451112E+02  0.47000000000E+01 0. -1.
         -5    1    4    4    0  503  0.70396388770E+02 -0.21625407452E+02 -0.29707423504E+02  0.79548292318E+02  0.47000000000E+01 0.  1.
          5    1    4    4  503    0  0.37118366114E+01  0.31626946405E+02  0.20491496614E+02  0.38157999207E+02  0.47000000000E+01 0. -1.
         -5    1    3    3    0  502 -0.11466098179E+02 -0.33790144489E+02 -0.46651782634E+02  0.58921338198E+02  0.47000000000E+01 0.  1.
<mgrwt>
<rscale>  0 0.11790716E+03</rscale>
<asrwt>0</asrwt>
<pdfrwt beam="1">  1        1 0.22874213E-01 0.11809516E+03</pdfrwt>
<pdfrwt beam="2">  1       -1 0.14639645E-01 0.11809516E+03</pdfrwt>
<totfact> 0.67346980E+03</totfact>
</mgrwt>
</event>
<event>
 8    1  0.3177960E-004  0.1022348E+03  0.7546771E-02  0.1280688E+00
          2   -1    0    0  501    0  0.00000000000E+00  0.00000000000E+00  0.23618159621E+03  0.23618159621E+03  0.00000000000E+00 0. -1.
         -2   -1    0    0    0  501 -0.00000000000E+00 -0.00000000000E+00 -0.43327434533E+02  0.43327434533E+02  0.00000000000E+00 0.  1.
         23    2    1    2    0    0  0.36200819356E+02 -0.24494965064E+02  0.12902758629E+03  0.15898609280E+03  0.81963144432E+02 0.  0.
         23    2    1    2    0    0 -0.36200819356E+02  0.24494965064E+02  0.63826575391E+02  0.12052293794E+03  0.92419934047E+02 0.  0.
          5    1    3    3  502    0  0.53594795743E+02 -0.38236168919E+02  0.72281946049E+02  0.97883484148E+02  0.47000000000E+01 0. -1.
         -5    1    4    4    0  503 -0.25996438027E+02  0.57067488248E+02  0.58057249206E+02  0.85587657933E+02  0.47000000000E+01 0.  1.
          5    1    4    4  503    0 -0.10204381329E+02 -0.32572523184E+02  0.57693261841E+01  0.34935280012E+02  0.47000000000E+01 0. -1.
         -5    1    3    3    0  502 -0.17393976387E+02  0.13741203855E+02  0.56745640242E+02  0.61102608655E+02  0.47000000000E+01 0.  1.
<mgrwt>
<rscale>  0 0.99813804E+02</rscale>
<asrwt>0</asrwt>
<pdfrwt beam="1">  1        2 0.36335629E-01 0.10223476E+03</pdfrwt>
<pdfrwt beam="2">  1       -2 0.66657593E-02 0.10223476E+03</pdfrwt>
<totfact> 0.16259451E+04</totfact>
</mgrwt>
</event>
<event>
 8    1  0.3177960E-004  0.9861488E+02  0.7546771E-02  0.1285165E+00
         -2   -1    0    0    0  501 -0.00000000000E+00  0.00000000000E+00  0.49262626482E+02  0.49262626482E+02  0.00000000000E+00 0.  1.
          2   -1    0    0  501    0  0.00000000000E+00 -0.00000000000E+00 -0.23084771142E+03  0.23084771142E+03  0.00000000000E+00 0. -1.
         23    2    1    2    0    0 -0.34278735130E+02  0.17921388731E+02 -0.15077257454E+03  0.18015899320E+03  0.90712103615E+02 0.  0.
         23    2    1    2    0    0  0.34278735130E+02 -0.17921388731E+02 -0.30812510398E+02  0.99951344700E+02  0.86859960017E+02 0.  0.
          5    1    3    3  502    0 -0.45750394448E+02  0.38107583231E+02 -0.14341251444E+03  0.15535290724E+03  0.47000000000E+01 0. -1.
         -5    1    4    4    0  503  0.54727619701E+02 -0.27150346024E+02 -0.42158169209E+02  0.74375095821E+02  0.47000000000E+01 0.  1.
          5    1    4    4  503    0 -0.20448884571E+02  0.92289572932E+01  0.11345658810E+02  0.25576248879E+02  0.47000000000E+01 0. -1.
         -5    1    3    3    0  502  0.11471659318E+02 -0.20186194500E+02 -0.73600601025E+01  0.24806085959E+02  0.47000000000E+01 0.  1.
<mgrwt>
<rscale>  0 0.97719907E+02</rscale>
<asrwt>0</asrwt>
<pdfrwt beam="1">  1        2 0.35515032E-01 0.98614875E+02</pdfrwt>
<pdfrwt beam="2">  1       -2 0.75788657E-02 0.98614875E+02</pdfrwt>
<totfact> 0.13656928E+04</totfact>
</mgrwt>
</event>
<event>
 8    1  0.3177960E-004  0.1237587E+03  0.7546771E-02  0.1237438E+00
          1   -1    0    0  501    0  0.00000000000E+00  0.00000000000E+00  0.10546670430E+03  0.10546670430E+03  0.00000000000E+00 0. -1.
         -1   -1    0    0    0  501 -0.00000000000E+00 -0.00000000000E+00 -0.15452837805E+03  0.15452837805E+03  0.00000000000E+00 0.  1.
         23    2    1    2    0    0  0.73269058990E+02  0.41809359196E+02  0.93065090959E+01  0.12410815337E+03  0.90552996077E+02 0.  0.
         23    2    1    2    0    0 -0.73269058990E+02 -0.41809359196E+02 -0.58368182847E+02  0.13588692899E+03  0.89118096816E+02 0.  0.
          5    1    3    3  502    0  0.48269163507E+02  0.61586911027E+02  0.32028772016E+02  0.84680529004E+02  0.47000000000E+01 0. -1.
         -5    1    4    4    0  503 -0.25171891252E+01 -0.41771915784E+02 -0.48605345655E+02  0.64310176610E+02  0.47000000000E+01 0.  1.
          5    1    4    4  503    0 -0.70751869865E+02 -0.37443411700E-01 -0.97628371922E+01  0.71576752381E+02  0.47000000000E+01 0. -1.
         -5    1    3    3    0  502  0.24999895483E+02 -0.19777551831E+02 -0.22722262920E+02  0.39427624362E+02  0.47000000000E+01 0.  1.
<mgrwt>
<rscale>  0 0.12349639E+03</rscale>
<asrwt>0</asrwt>
<pdfrwt beam="1">  1        1 0.16225647E-01 0.12375873E+03</pdfrwt>
<pdfrwt beam="2">  1       -1 0.23773597E-01 0.12375873E+03</pdfrwt>
<totfact> 0.48301441E+03</totfact>
</mgrwt>
</event>
<event>
 8    1  0.3177960E-004  0.1234429E+03  0.7546771E-02  0.1237910E+00
          2   -1    0    0  501    0  0.00000000000E+00  0.00000000000E+00  0.12170378723E+04  0.12170378723E+04  0.00000000000E+00 0. -1.
         -2   -1    0    0    0  501 -0.00000000000E+00 -0.00000000000E+00 -0.12955615176E+02  0.12955615176E+02  0.00000000000E+00 0.  1.
         23    2    1    2    0    0  0.48018208356E+02 -0.66654672430E+02  0.72452943440E+03  0.73480759871E+03  0.90833430552E+02 0.  0.
         23    2    1    2    0    0 -0.48018208356E+02  0.66654672430E+02  0.47955282270E+03  0.49518588875E+03  0.92138813579E+02 0.  0.
          5    1    4    4  502    0  0.24947786897E+02  0.17732000998E+01  0.87071717842E+02  0.90714444041E+02  0.47000000000E+01 0. -1.
         -5    1    3    3    0  503 -0.25636010532E+02 -0.30424311352E+02  0.21841888573E+03  0.22206247635E+03  0.47000000000E+01 0.  1.
          5    1    3    3  503    0  0.73654218888E+02 -0.36230361078E+02  0.50611054867E+03  0.51274512236E+03  0.47000000000E+01 0. -1.
         -5    1    4    4    0  502 -0.72965995254E+02  0.64881472330E+02  0.39248110485E+03  0.40447144471E+03  0.47000000000E+01 0.  1.
<mgrwt>
<rscale>  0 0.12319938E+03</rscale>
<asrwt>0</asrwt>
<pdfrwt beam="1">  1        2 0.18723650E+00 0.12344292E+03</pdfrwt>
<pdfrwt beam="2">  1       -2 0.19931725E-02 0.12344292E+03</pdfrwt>
<totfact> 0.14542670E+04</totfact>
</mgrwt>
</event>
<event>
 8    1  0.3177960E-004  0.9990950E+02  0.7546771E-02  0.1281620E+00
         -1   -1    0    0    0  501 -0.00000000000E+00  0.00000000000E+00  0.29530471040E+02  0.29530471040E+02  0.00000000000E+00 0.  1.
          1   -1    0    0  501    0  0.00000000000E+00 -0.00000000000E+00 -0.35046441776E+03  0.35046441776E+03  0.00000000000E+00 0. -1.
         23    2    1    2    0    0  0.41732601236E+02  0.50750722439E+01 -0.20377223623E+03  0.22601834967E+03  0.88282522421E+02 0.  0.
         23    2    1    2    0    0 -0.41732601236E+02 -0.50750722439E+01 -0.11716171049E+03  0.15397653913E+03  0.90634109658E+02 0.  0.
          5    1    3    3  502    0 -0.10794582408E+02  0.35148395078E+02 -0.78279780302E+02  0.86612624311E+02  0.47000000000E+01 0. -1.
         -5    1    3    3    0  502  0.52527183644E+02 -0.30073322834E+02 -0.12549245592E+03  0.13940572535E+03  0.47000000000E+01 0.  1.
          5    1    4    4  503    0 -0.71970189135E+01 -0.35214684610E+02 -0.10424009662E+02  0.37717649329E+02  0.47000000000E+01 0. -1.
         -5    1    4    4    0  503 -0.34535582323E+02  0.30139612367E+02 -0.10673770083E+03  0.11625888980E+03  0.47000000000E+01 0.  1.
<mgrwt>
<rscale>  0 0.99373130E+02</rscale>
<asrwt>0</asrwt>
<pdfrwt beam="1">  1        1 0.53917605E-01 0.99909500E+02</pdfrwt>
<pdfrwt beam="2">  1       -1 0.45431492E-02 0.99909500E+02</pdfrwt>
<totfact> 0.13398439E+04</totfact>
</mgrwt>
</event>
<event>
 8    1  0.3177960E-004  0.1400491E+03  0.7546771E-02  0.1213980E+00
          1   -1    0    0  501    0  0.00000000000E+00  0.00000000000E+00  0.20642392716E+02  0.20642392716E+02  0.00000000000E+00 0. -1.
         -1   -1    0    0    0  501 -0.00000000000E+00 -0.00000000000E+00 -0.11880402749E+04  0.11880402749E+04  0.00000000000E+00 0.  1.
         23    2    1    2    0    0  0.43144136313E+02  0.94616228507E+02 -0.30877938320E+03  0.33905525183E+03  0.93808896745E+02 0.  0.
         23    2    1    2    0    0 -0.43144136313E+02 -0.94616228507E+02 -0.85861849897E+03  0.86962741577E+03  0.90622669879E+02 0.  0.
          5    1    3    3  502    0 -0.15919082270E+02  0.14170098213E+02 -0.99861729449E+01  0.24000469032E+02  0.47000000000E+01 0. -1.
         -5    1    3    3    0  502  0.59063218583E+02  0.80446130294E+02 -0.29879321026E+03  0.31505478280E+03  0.47000000000E+01 0.  1.
          5    1    4    4  503    0 -0.40201027325E+02  0.24886714535E+01 -0.26953830037E+03  0.27257164462E+03  0.47000000000E+01 0. -1.
         -5    1    4    4    0  503 -0.29431089877E+01 -0.97104899961E+02 -0.58908019859E+03  0.59705577115E+03  0.47000000000E+01 0.  1.
<mgrwt>
<rscale>  0 0.13951762E+03</rscale>
<asrwt>0</asrwt>
<pdfrwt beam="1">  1        1 0.31757533E-02 0.14004912E+03</pdfrwt>
<pdfrwt beam="2">  1       -1 0.18277540E+00 0.14004912E+03</pdfrwt>
<totfact> 0.68027666E+02</totfact>
</mgrwt>
</event>
<event>
 8    1  0.3177960E-004  0.3573680E+03  0.7546771E-02  0.1059677E+00
          1   -1    0    0  501    0  0.00000000000E+00  0.00000000000E+00  0.30797315340E+04  0.30797315340E+04  0.00000000000E+00 0. -1.
         -1   -1    0    0    0  501 -0.00000000000E+00 -0.00000000000E+00 -0.42780719973E+02  0.42780719973E+02  0.00000000000E+00 0.  1.
         23    2    1    2    0    0 -0.28402830422E+03  0.19597048739E+03  0.17983235191E+04  0.18334883137E+04  0.92926893641E+02 0.  0.
         23    2    1    2    0    0  0.28402830422E+03 -0.19597048739E+03  0.12386272949E+04  0.12890239403E+04  0.91151705213E+02 0.  0.
          5    1    3    3  502    0 -0.55735803060E+02  0.25172349690E+02  0.52817396099E+03  0.53172356540E+03  0.47000000000E+01 0. -1.
         -5    1    3    3    0  502 -0.22829250116E+03  0.17079813770E+03  0.12701495581E+04  0.13017647483E+04  0.47000000000E+01 0.  1.
          5    1    4    4  503    0  0.26149422310E+03 -0.20071211170E+03  0.11928055343E+04  0.12375264494E+04  0.47000000000E+01 0. -1.
         -5    1    4    4    0  503  0.22534081122E+02  0.47416243113E+01  0.45821760696E+02  0.51497490874E+02  0.47000000000E+01 0.  1.
<mgrwt>
<rscale>  0 0.35725361E+03</rscale>
<asrwt>0</asrwt>
<pdfrwt beam="1">  1        1 0.47380468E+00 0.35736804E+03</pdfrwt>
<pdfrwt beam="2">  1       -1 0.65816517E-02 0.35736804E+03</pdfrwt>
<totfact> 0.72007404E+01</totfact>
</mgrwt>
</event>
<event>
 8    1  0.3177960E-004  0.1008559E+03  0.7546771E-02  0.1278906E+00
          3   -1    0    0  501    0  0.00000000000E+00  0.00000000000E+00  0.23944647471E+02  0.23944647471E+02  0.00000000000E+00 0. -1.
         -3   -1    0    0    0  501 -0.00000000000E+00 -0.00000000000E+00 -0.45325607725E+03  0.45325607725E+03  0.00000000000E+00 0.  1.
         23    2    1    2    0    0  0.28599614828E+02  0.30834489356E+02 -0.27848511076E+03  0.29618554581E+03  0.91669062012E+02 0.  0.
         23    2    1    2    0    0 -0.28599614828E+02 -0.30834489356E+02 -0.15082631902E+03  0.18101517891E+03  0.90825177043E+02 0.  0.
          5    1    3    3  502    0  0.57843381846E+02  0.27484540631E+02 -0.13314964728E+03  0.14782481310E+03  0.47000000000E+01 0. -1.
         -5    1    3    3    0  502 -0.29243767017E+02  0.33499487248E+01 -0.14533546348E+03  0.14836073271E+03  0.47000000000E+01 0.  1.
          5    1    4    4  503    0 -0.18717706127E+02  0.28874123512E+02 -0.30402989536E+02  0.46157332071E+02  0.47000000000E+01 0. -1.
         -5    1    4    4    0  503 -0.98819087013E+01 -0.59708612868E+02 -0.12042332948E+03  0.13485784684E+03  0.47000000000E+01 0.  1.
<mgrwt>
<rscale>  0 0.10066379E+03</rscale>
<asrwt>0</asrwt>
<pdfrwt beam="1">  1        3 0.36837923E-02 0.10085594E+03</pdfrwt>
<pdfrwt beam="2">  1       -3 0.69731698E-01 0.10085594E+03</pdfrwt>
<totfact> 0.16149461E+03</totfact>
</mgrwt>
</event>
<event>
 8    1  0.3177960E-004  0.1136924E+03  0.7546771E-02  0.1255650E+00
         -2   -1    0    0    0  501 -0.00000000000E+00  0.00000000000E+00  0.33408123282E+02  0.33408123282E+02  0.00000000000E+00 0.  1.
          2   -1    0    0  501    0  0.00000000000E+00 -0.00000000000E+00 -0.50592752932E+03  0.50592752932E+03  0.00000000000E+00 0. -1.
         23    2    1    2    0    0 -0.67740607506E+02 -0.83756356665E+01 -0.10146829973E+03  0.15238690275E+03  0.90923105443E+02 0.  0.
         23    2    1    2    0    0  0.67740607506E+02  0.83756356665E+01 -0.37105110631E+03  0.38694874985E+03  0.85973660705E+02 0.  0.
          5    1    4    4  502    0  0.87828633549E+02  0.11929682165E+02 -0.29425330871E+03  0.30734880165E+03  0.47000000000E+01 0. -1.
         -5    1    3    3    0  503 -0.53373091212E+02  0.25351960494E+02 -0.98944052521E+02  0.11534047120E+03  0.47000000000E+01 0.  1.
          5    1    3    3  503    0 -0.14367516295E+02 -0.33727596161E+02 -0.25242472053E+01  0.37046431558E+02  0.47000000000E+01 0. -1.
         -5    1    4    4    0  502 -0.20088026043E+02 -0.35540464986E+01 -0.76797797598E+02  0.79599948196E+02  0.47000000000E+01 0.  1.
<mgrwt>
<rscale>  0 0.11269994E+03</rscale>
<asrwt>0</asrwt>
<pdfrwt beam="1">  1        2 0.77834994E-01 0.11369236E+03</pdfrwt>
<pdfrwt beam="2">  1       -2 0.51397120E-02 0.11369236E+03</pdfrwt>
<totfact> 0.10823188E+04</totfact>
</mgrwt>
</event>
<event>
 8    1  0.3177960E-004  0.9213087E+02  0.7546771E-02  0.1299583E+00
         -3   -1    0    0    0  501 -0.00000000000E+00  0.00000000000E+00  0.14266763608E+02  0.14266763608E+02  0.00000000000E+00 0.  1.
          3   -1    0    0  501    0  0.00000000000E+00 -0.00000000000E+00 -0.67719251993E+03  0.67719251993E+03  0.00000000000E+00 0. -1.
         23    2    1    2    0    0 -0.82244198423E+01  0.41279314840E+01 -0.20224397642E+03  0.22224023752E+03  0.91670149315E+02 0.  0.
         23    2    1    2    0    0  0.82244198423E+01 -0.41279314840E+01 -0.46068177990E+03  0.46921904602E+03  0.88623529098E+02 0.  0.
          5    1    4    4  502    0 -0.21608622600E+02  0.27372989022E+02 -0.31987561974E+03  0.32180539959E+03  0.47000000000E+01 0. -1.
         -5    1    4    4    0  502  0.29833042442E+02 -0.31500920506E+02 -0.14080616016E+03  0.14741364643E+03  0.47000000000E+01 0.  1.
          5    1    3    3  503    0 -0.33422904139E+02  0.24306202076E+02 -0.17458354905E+03  0.17946974001E+03  0.47000000000E+01 0. -1.
         -5    1    3    3    0  503  0.25198484297E+02 -0.20178270592E+02 -0.27660427365E+02  0.42770497507E+02  0.47000000000E+01 0.  1.
<mgrwt>
<rscale>  0 0.91363622E+02</rscale>
<asrwt>0</asrwt>
<pdfrwt beam="1">  1        3 0.10418345E+00 0.92130870E+02</pdfrwt>
<pdfrwt beam="2">  1       -3 0.21948870E-02 0.92130870E+02</pdfrwt>
<totfact> 0.14636142E+03</totfact>
</mgrwt>
</event>
<event>
 8    1  0.3177960E-004  0.1020084E+03  0.7546771E-02  0.1277069E+00
          2   -1    0    0  501    0  0.00000000000E+00  0.00000000000E+00  0.68118499560E+03  0.68118499560E+03  0.00000000000E+00 0. -1.
         -2   -1    0    0    0  501 -0.00000000000E+00 -0.00000000000E+00 -0.32766151151E+02  0.32766151151E+02  0.00000000000E+00 0.  1.
         23    2    1    2    0    0  0.21432969718E+02 -0.38889853904E+02  0.58569308133E+03  0.59420041528E+03  0.89810662350E+02 0.  0.
         23    2    1    2    0    0 -0.21432969718E+02  0.38889853904E+02  0.62725763116E+02  0.11975073147E+03  0.91836394753E+02 0.  0.
          5    1    4    4  502    0  0.22441723461E+02  0.25803136937E+02  0.65077248249E+02  0.73665263642E+02  0.47000000000E+01 0. -1.
         -5    1    4    4    0  502 -0.43874693179E+02  0.13086716966E+02 -0.23514851335E+01  0.46085467827E+02  0.47000000000E+01 0.  1.
          5    1    3    3  503    0  0.42647044106E+02  0.12209740737E+02  0.27049962755E+03  0.27415321746E+03  0.47000000000E+01 0. -1.
         -5    1    3    3    0  503 -0.21214074388E+02 -0.51099594641E+02  0.31519345378E+03  0.32004719782E+03  0.47000000000E+01 0.  1.
<mgrwt>
<rscale>  0 0.10155037E+03</rscale>
<asrwt>0</asrwt>
<pdfrwt beam="1">  1        2 0.10479768E+00 0.10200841E+03</pdfrwt>
<pdfrwt beam="2">  1       -2 0.50409468E-02 0.10200841E+03</pdfrwt>
<totfact> 0.79154401E+03</totfact>
</mgrwt>
</event>
<event>
 8    1  0.3177960E-004  0.9207613E+02  0.7546771E-02  0.1298126E+00
         -1   -1    0    0    0  501 -0.00000000000E+00  0.00000000000E+00  0.68121956735E+03  0.68121956735E+03  0.00000000000E+00 0.  1.
          1   -1    0    0  501    0  0.00000000000E+00 -0.00000000000E+00 -0.39161123518E+03  0.39161123518E+03  0.00000000000E+00 0. -1.
         23    2    1    2    0    0  0.16636870466E+01  0.87152923117E+01  0.67265358573E+03  0.67887435917E+03  0.91262396219E+02 0.  0.
         23    2    1    2    0    0 -0.16636870466E+01 -0.87152923117E+01 -0.38304525356E+03  0.39395644336E+03  0.91647633978E+02 0.  0.
          5    1    4    4  502    0  0.44103986335E+02  0.26040492862E+01 -0.20034916373E+03  0.20521652003E+03  0.47000000000E+01 0. -1.
         -5    1    3    3    0  503  0.41067246401E+02 -0.15810217677E+02  0.37197748988E+03  0.37460088720E+03  0.47000000000E+01 0.  1.
          5    1    3    3  503    0 -0.39403559354E+02  0.24525509988E+02  0.30067609585E+03  0.30427347197E+03  0.47000000000E+01 0. -1.
         -5    1    4    4    0  502 -0.45767673382E+02 -0.11319341598E+02 -0.18269608983E+03  0.18873992334E+03  0.47000000000E+01 0.  1.
<mgrwt>
<rscale>  0 0.91980117E+02</rscale>
<asrwt>0</asrwt>
<pdfrwt beam="1">  1        1 0.60247882E-01 0.92076126E+02</pdfrwt>
<pdfrwt beam="2">  1       -1 0.10480301E+00 0.92076126E+02</pdfrwt>
<totfact> 0.60807630E+01</totfact>
</mgrwt>
</event>
<event>
 8    1  0.3177960E-004  0.1156946E+03  0.7546771E-02  0.1250568E+00
         -1   -1    0    0    0  501 -0.00000000000E+00  0.00000000000E+00  0.73796083323E+02  0.73796083323E+02  0.00000000000E+00 0.  1.
          1   -1    0    0  501    0  0.00000000000E+00 -0.00000000000E+00 -0.21950390660E+03  0.21950390660E+03  0.00000000000E+00 0. -1.
         23    2    1    2    0    0  0.47916648387E+02  0.52949465813E+02 -0.11295718751E+02  0.11624467805E+03  0.91025165695E+02 0.  0.
         23    2    1    2    0    0 -0.47916648387E+02 -0.52949465813E+02 -0.13441210452E+03  0.17705531187E+03  0.90456168930E+02 0.  0.
          5    1    3    3  502    0  0.71015574346E+02  0.54126130158E+02 -0.19012784078E+02  0.91413487648E+02  0.47000000000E+01 0. -1.
         -5    1    3    3    0  502 -0.23098925959E+02 -0.11766643454E+01  0.77170653266E+01  0.24831190400E+02  0.47000000000E+01 0.  1.
          5    1    4    4  503    0 -0.16438060881E+02 -0.54860558451E+02 -0.24247412537E+02  0.62369205012E+02  0.47000000000E+01 0. -1.
         -5    1    4    4    0  503 -0.31478587506E+02  0.19110926383E+01 -0.11016469199E+03  0.11468610686E+03  0.47000000000E+01 0.  1.
<mgrwt>
<rscale>  0 0.11558262E+03</rscale>
<asrwt>0</asrwt>
<pdfrwt beam="1">  1        1 0.33769831E-01 0.11569456E+03</pdfrwt>
<pdfrwt beam="2">  1       -1 0.11353244E-01 0.11569456E+03</pdfrwt>
<totfact> 0.61361016E+03</totfact>
</mgrwt>
</event>
<event>
 8    1  0.3177960E-004  0.1074574E+03  0.7546771E-02  0.1266300E+00
          1   -1    0    0  501    0  0.00000000000E+00  0.00000000000E+00  0.15884848386E+03  0.15884848386E+03  0.00000000000E+00 0. -1.
         -1   -1    0    0    0  501 -0.00000000000E+00 -0.00000000000E+00 -0.12668705258E+03  0.12668705258E+03  0.00000000000E+00 0.  1.
         23    2    1    2    0    0 -0.18953680839E+02 -0.25603578095E+02 -0.78173914624E+02  0.13288433931E+03  0.10262700170E+03 0.  0.
         23    2    1    2    0    0  0.18953680839E+02  0.25603578095E+02  0.11033534590E+03  0.15265119713E+03  0.10056696377E+03 0.  0.
          5    1    3    3  502    0  0.41540910492E+02 -0.77739707363E+01 -0.20143387129E+02  0.47052395375E+02  0.47000000000E+01 0. -1.
         -5    1    3    3    0  502 -0.60494591331E+02 -0.17829607359E+02 -0.58030527495E+02  0.85831943938E+02  0.47000000000E+01 0.  1.
          5    1    4    4  503    0 -0.88997900338E+01 -0.28228378692E+02  0.78501975797E+02  0.84027958622E+02  0.47000000000E+01 0. -1.
         -5    1    4    4    0  503  0.27853470872E+02  0.53831956787E+02  0.31833370105E+02  0.68623238508E+02  0.47000000000E+01 0.  1.
<mgrwt>
<rscale>  0 0.10696255E+03</rscale>
<asrwt>0</asrwt>
<pdfrwt beam="1">  1        1 0.24438228E-01 0.10745737E+03</pdfrwt>
<pdfrwt beam="2">  1       -1 0.19490316E-01 0.10745737E+03</pdfrwt>
<totfact> 0.39260473E+03</totfact>
</mgrwt>
</event>
<event>
 8    1  0.3177960E-004  0.1139609E+03  0.7546771E-02  0.1256075E+00
          1   -1    0    0  501    0  0.00000000000E+00  0.00000000000E+00  0.18755312375E+03  0.18755312375E+03  0.00000000000E+00 0. -1.
         -1   -1    0    0    0  501 -0.00000000000E+00 -0.00000000000E+00 -0.76216422038E+02  0.76216422038E+02  0.00000000000E+00 0.  1.
         23    2    1    2    0    0 -0.45033062457E+02  0.41905701949E+02  0.54745447406E+01  0.10822568361E+03  0.88874987385E+02 0.  0.
         23    2    1    2    0    0  0.45033062457E+02 -0.41905701949E+02  0.10586215698E+03  0.15554386218E+03  0.95932435665E+02 0.  0.
          5    1    4    4  502    0  0.73449019756E+02 -0.17428284994E+02  0.63368576855E+02  0.98672033290E+02  0.47000000000E+01 0. -1.
         -5    1    4    4    0  502 -0.28415957299E+02 -0.24477416955E+02  0.42493580121E+02  0.56871828891E+02  0.47000000000E+01 0.  1.
          5    1    3    3  503    0  0.10629552935E+02  0.44585483114E+02  0.20330191410E+02  0.50361288535E+02  0.47000000000E+01 0. -1.
         -5    1    3    3    0  503 -0.55662615393E+02 -0.26797811654E+01 -0.14855646670E+02  0.57864395075E+02  0.47000000000E+01 0.  1.
<mgrwt>
<rscale>  0 0.11246322E+03</rscale>
<asrwt>0</asrwt>
<pdfrwt beam="1">  1        1 0.28854327E-01 0.11396094E+03</pdfrwt>
<pdfrwt beam="2">  1       -1 0.11725603E-01 0.11396094E+03</pdfrwt>
<totfact> 0.70856109E+03</totfact>
</mgrwt>
</event>
<event>
 8    1  0.3177960E-004  0.1149555E+03  0.7546771E-02  0.1255878E+00
          1   -1    0    0  501    0  0.00000000000E+00  0.00000000000E+00  0.13639199889E+03  0.13639199889E+03  0.00000000000E+00 0. -1.
         -1   -1    0    0    0  501 -0.00000000000E+00 -0.00000000000E+00 -0.14668163613E+03  0.14668163613E+03  0.00000000000E+00 0.  1.
         23    2    1    2    0    0  0.55113016217E+02 -0.38035679287E+01 -0.93786261301E+02  0.14835978519E+03  0.10081096849E+03 0.  0.
         23    2    1    2    0    0 -0.55113016217E+02  0.38035679287E+01  0.83496624061E+02  0.13471384982E+03  0.90134474082E+02 0.  0.
          5    1    4    4  502    0  0.41512357384E+01 -0.28677254221E+02  0.52642308786E+02  0.60273711866E+02  0.47000000000E+01 0. -1.
         -5    1    3    3    0  503  0.80434690534E+02 -0.16090590276E+02 -0.85650510564E+02  0.11868760043E+03  0.47000000000E+01 0.  1.
          5    1    3    3  503    0 -0.25321674317E+02  0.12287022348E+02 -0.81357507367E+01  0.29672184760E+02  0.47000000000E+01 0. -1.
         -5    1    4    4    0  502 -0.59264251955E+02  0.32480822150E+02  0.30854315275E+02  0.74440137953E+02  0.47000000000E+01 0.  1.
<mgrwt>
<rscale>  0 0.11257287E+03</rscale>
<asrwt>0</asrwt>
<pdfrwt beam="1">  1        1 0.20983384E-01 0.11495548E+03</pdfrwt>
<pdfrwt beam="2">  1       -1 0.22566406E-01 0.11495548E+03</pdfrwt>
<totfact> 0.37722589E+03</totfact>
</mgrwt>
</event>
<event>
 8    1  0.3177960E-004  0.1028629E+03  0.7546771E-02  0.1274514E+00
         -1   -1    0    0    0  501 -0.00000000000E+00  0.00000000000E+00  0.25314956562E+03  0.25314956562E+03  0.00000000000E+00 0.  1.
          1   -1    0    0  501    0  0.00000000000E+00 -0.00000000000E+00 -0.57844721231E+02  0.57844721231E+02  0.00000000000E+00 0. -1.
         23    2    1    2    0    0 -0.41103158927E+01  0.47156396952E+02  0.15577051156E+02  0.10403566754E+03  0.91324449778E+02 0.  0.
         23    2    1    2    0    0  0.41103158927E+01 -0.47156396952E+02  0.17972779323E+03  0.20695861931E+03  0.91044878916E+02 0.  0.
          5    1    4    4  502    0  0.41956607245E+02 -0.23433463833E+02  0.49271239243E+02  0.68987166453E+02  0.47000000000E+01 0. -1.
         -5    1    4    4    0  502 -0.37846291352E+02 -0.23722933119E+02  0.13045655399E+03  0.13797145286E+03  0.47000000000E+01 0.  1.
          5    1    3    3  503    0  0.29500610068E+02  0.59591361810E+02  0.84163996029E+01  0.67188854574E+02  0.47000000000E+01 0. -1.
         -5    1    3    3    0  503 -0.33610925961E+02 -0.12434964858E+02  0.71606515527E+01  0.36846812964E+02  0.47000000000E+01 0.  1.
<mgrwt>
<rscale>  0 0.10280081E+03</rscale>
<asrwt>0</asrwt>
<pdfrwt beam="1">  1        1 0.88991880E-02 0.10286290E+03</pdfrwt>
<pdfrwt beam="2">  1       -1 0.38946086E-01 0.10286290E+03</pdfrwt>
<totfact> 0.45636084E+03</totfact>
</mgrwt>
</event>
<event>
 8    1  0.3177960E-004  0.9737968E+02  0.7546771E-02  0.1289393E+00
          2   -1    0    0  501    0  0.00000000000E+00  0.00000000000E+00  0.10931288140E+03  0.10931288140E+03  0.00000000000E+00 0. -1.
         -2   -1    0    0    0  501 -0.00000000000E+00 -0.00000000000E+00 -0.81363115876E+02  0.81363115876E+02  0.00000000000E+00 0.  1.
         23    2    1    2    0    0  0.74275291034E+00 -0.12763211533E+02  0.12526647177E+02  0.98182073945E+02  0.96536788346E+02 0.  0.
         23    2    1    2    0    0 -0.74275291034E+00  0.12763211533E+02  0.15423118349E+02  0.92493923333E+02  0.90298405431E+02 0.  0.
          5    1    3    3  502    0 -0.26957163595E+01 -0.39867930431E+02  0.41694031610E+02  0.57941358592E+02  0.47000000000E+01 0. -1.
         -5    1    4    4    0  503  0.32736393492E+02 -0.48332006776E+01 -0.21246717898E+02  0.39604852090E+02  0.47000000000E+01 0.  1.
          5    1    4    4  503    0 -0.33479146402E+02  0.17596412211E+02  0.36669836247E+02  0.52889071243E+02  0.47000000000E+01 0. -1.
         -5    1    3    3    0  502  0.34384692698E+01  0.27104718898E+02 -0.29167384433E+02  0.40240715353E+02  0.47000000000E+01 0.  1.
<mgrwt>
<rscale>  0 0.95796305E+02</rscale>
<asrwt>0</asrwt>
<pdfrwt beam="1">  1        2 0.16817366E-01 0.97379683E+02</pdfrwt>
<pdfrwt beam="2">  1       -2 0.12517402E-01 0.97379683E+02</pdfrwt>
<totfact> 0.14182830E+04</totfact>
</mgrwt>
</event>
<event>
 8    1  0.3233896E-004  0.9281070E+02  0.7546771E-02  0.1296734E+00
          2   -1    0    0  501    0  0.00000000000E+00  0.00000000000E+00  0.45350334604E+03  0.45350334604E+03  0.00000000000E+00 0. -1.
         -2   -1    0    0    0  501 -0.00000000000E+00 -0.00000000000E+00 -0.52729923960E+02  0.52729923960E+02  0.00000000000E+00 0.  1.
         23    2    1    2    0    0  0.12329317947E+01  0.10780460313E+02  0.40305689531E+03  0.41339447937E+03  0.91227168515E+02 0.  0.
         23    2    1    2    0    0 -0.12329317947E+01 -0.10780460313E+02 -0.22834732272E+01  0.92838790628E+02  0.92174228230E+02 0.  0.
          5    1    3    3  502    0  0.10742857419E+02 -0.31670787977E+02  0.72805683609E+02  0.80257120322E+02  0.47000000000E+01 0. -1.
         -5    1    4    4    0  503  0.40526113004E+02  0.11802697594E+02 -0.12041186740E+02  0.44144645019E+02  0.47000000000E+01 0.  1.
          5    1    4    4  503    0 -0.41759044799E+02 -0.22583157906E+02  0.97577135128E+01  0.48694145609E+02  0.47000000000E+01 0. -1.
         -5    1    3    3    0  502 -0.95099256244E+01  0.42451248290E+02  0.33025121170E+03  0.33313735905E+03  0.47000000000E+01 0.  1.
<mgrwt>
<rscale>  0 0.92574681E+02</rscale>
<asrwt>0</asrwt>
<pdfrwt beam="1">  1        2 0.69769743E-01 0.92810704E+02</pdfrwt>
<pdfrwt beam="2">  1       -2 0.81122963E-02 0.92810704E+02</pdfrwt>
<totfact> 0.60198234E+03</totfact>
</mgrwt>
</event>
<event>
 8    1  0.3177960E-004  0.1266955E+03  0.7546771E-02  0.1238000E+00
          2   -1    0    0  501    0  0.00000000000E+00  0.00000000000E+00  0.13051927097E+02  0.13051927097E+02  0.00000000000E+00 0. -1.
         -2   -1    0    0    0  501 -0.00000000000E+00 -0.00000000000E+00 -0.12028663306E+04  0.12028663306E+04  0.00000000000E+00 0.  1.
         23    2    1    2    0    0  0.94380288823E+01 -0.66064903118E+02 -0.74049367985E+03  0.74907689060E+03  0.91277874211E+02 0.  0.
         23    2    1    2    0    0 -0.94380288823E+01  0.66064903118E+02 -0.44932072365E+03  0.46684136710E+03  0.10769448229E+03 0.  0.
          5    1    3    3  502    0 -0.26394154053E+02  0.13510667529E+01 -0.85065979414E+02  0.89200827368E+02  0.47000000000E+01 0. -1.
         -5    1    4    4    0  503 -0.16315883829E+02 -0.25991150109E+02 -0.72846649076E+02  0.79186313405E+02  0.47000000000E+01 0.  1.
          5    1    4    4  503    0  0.68778549468E+01  0.92056053227E+02 -0.37647407458E+03  0.38765505369E+03  0.47000000000E+01 0. -1.
         -5    1    3    3    0  502  0.35832182935E+02 -0.67415969871E+02 -0.65542770044E+03  0.65987606323E+03  0.47000000000E+01 0.  1.
<mgrwt>
<rscale>  0 0.12314300E+03</rscale>
<asrwt>0</asrwt>
<pdfrwt beam="1">  1        2 0.20079893E-02 0.12669550E+03</pdfrwt>
<pdfrwt beam="2">  1       -2 0.18505631E+00 0.12669550E+03</pdfrwt>
<totfact> 0.94613177E+02</totfact>
</mgrwt>
</event>
<event>
 8    1  0.3177960E-004  0.1027863E+03  0.7546771E-02  0.1277133E+00
         -2   -1    0    0    0  501 -0.00000000000E+00  0.00000000000E+00  0.59211220754E+02  0.59211220754E+02  0.00000000000E+00 0.  1.
          2   -1    0    0  501    0  0.00000000000E+00 -0.00000000000E+00 -0.22904372184E+03  0.22904372184E+03  0.00000000000E+00 0. -1.
         23    2    1    2    0    0  0.17415582670E+02 -0.32749474939E+02 -0.15970105244E+03  0.18991959909E+03  0.95860301176E+02 0.  0.
         23    2    1    2    0    0 -0.17415582670E+02  0.32749474939E+02 -0.10131448648E+02  0.98335343501E+02  0.90506148417E+02 0.  0.
          5    1    4    4  502    0  0.26158123819E+02  0.44233479023E+02 -0.12038031403E+02  0.52989171614E+02  0.47000000000E+01 0. -1.
         -5    1    4    4    0  502 -0.43573706490E+02 -0.11484004085E+02  0.19065827545E+01  0.45346171888E+02  0.47000000000E+01 0.  1.
          5    1    3    3  503    0  0.52209401593E+02 -0.19891221942E+02 -0.13191350941E+03  0.14333438628E+03  0.47000000000E+01 0. -1.
         -5    1    3    3    0  503 -0.34793818923E+02 -0.12858252997E+02 -0.27787543025E+02  0.46585212812E+02  0.47000000000E+01 0.  1.
<mgrwt>
<rscale>  0 0.10151952E+03</rscale>
<asrwt>0</asrwt>
<pdfrwt beam="1">  1        2 0.35237495E-01 0.10278632E+03</pdfrwt>
<pdfrwt beam="2">  1       -2 0.91094188E-02 0.10278632E+03</pdfrwt>
<totfact> 0.10418739E+04</totfact>
</mgrwt>
</event>
<event>
 8    1  0.3177960E-004  0.9646338E+02  0.7546771E-02  0.1291680E+00
         -2   -1    0    0    0  501 -0.00000000000E+00  0.00000000000E+00  0.84715980731E+02  0.84715980731E+02  0.00000000000E+00 0.  1.
          2   -1    0    0  501    0  0.00000000000E+00 -0.00000000000E+00 -0.10251999633E+03  0.10251999633E+03  0.00000000000E+00 0. -1.
         23    2    1    2    0    0  0.23529867066E+02  0.22942452834E+02 -0.68066162966E+01  0.90147734782E+02  0.83667635766E+02 0.  0.
         23    2    1    2    0    0 -0.23529867066E+02 -0.22942452834E+02 -0.10997399300E+02  0.97088242277E+02  0.90692740674E+02 0.  0.
          5    1    4    4  502    0 -0.44092519685E+02 -0.46732555294E+02 -0.10622106208E+02  0.65291662230E+02  0.47000000000E+01 0. -1.
         -5    1    3    3    0  503 -0.29812217883E+02  0.66243700722E+01 -0.13595602310E+02  0.33757680846E+02  0.47000000000E+01 0.  1.
          5    1    3    3  503    0  0.53342084949E+02  0.16318082762E+02  0.67889860138E+01  0.56390053935E+02  0.47000000000E+01 0. -1.
         -5    1    4    4    0  502  0.20562652619E+02  0.23790102460E+02 -0.37529309263E+00  0.31796580047E+02  0.47000000000E+01 0.  1.
<mgrwt>
<rscale>  0 0.94776396E+02</rscale>
<asrwt>0</asrwt>
<pdfrwt beam="1">  1        2 0.15772307E-01 0.96463382E+02</pdfrwt>
<pdfrwt beam="2">  1       -2 0.13033228E-01 0.96463382E+02</pdfrwt>
<totfact> 0.14301604E+04</totfact>
</mgrwt>
</event>
<event>
 8    1  0.3177960E-004  0.1150645E+03  0.7546771E-02  0.1252519E+00
          1   -1    0    0  501    0  0.00000000000E+00  0.00000000000E+00  0.98883029329E+03  0.98883029329E+03  0.00000000000E+00 0. -1.
         -1   -1    0    0    0  501 -0.00000000000E+00 -0.00000000000E+00 -0.18964761539E+02  0.18964761539E+02  0.00000000000E+00 0.  1.
         23    2    1    2    0    0  0.55579767567E+02  0.42060002949E+02  0.76831623667E+03  0.77688460414E+03  0.91551593131E+02 0.  0.
         23    2    1    2    0    0 -0.55579767567E+02 -0.42060002949E+02  0.20154929508E+03  0.23091045069E+03  0.88540180029E+02 0.  0.
          5    1    3    3  502    0  0.76540437149E+02  0.29874099645E+02  0.68668941071E+03  0.69160345367E+03  0.47000000000E+01 0. -1.
         -5    1    4    4    0  503 -0.71045128883E+02 -0.26061367748E+02  0.92931759090E+02  0.11993751321E+03  0.47000000000E+01 0.  1.
          5    1    4    4  503    0  0.15465361316E+02 -0.15998635201E+02  0.10861753599E+03  0.11097293748E+03  0.47000000000E+01 0. -1.
         -5    1    3    3    0  502 -0.20960669582E+02  0.12185903304E+02  0.81626825966E+02  0.85281150473E+02  0.47000000000E+01 0.  1.
<mgrwt>
<rscale>  0 0.11446455E+03</rscale>
<asrwt>0</asrwt>
<pdfrwt beam="1">  1        1 0.15212770E+00 0.11506454E+03</pdfrwt>
<pdfrwt beam="2">  1       -1 0.29176564E-02 0.11506454E+03</pdfrwt>
<totfact> 0.61821906E+03</totfact>
</mgrwt>
</event>
<event>
 8    1  0.3177960E-004  0.9689211E+02  0.7546771E-02  0.1295682E+00
         -2   -1    0    0    0  501 -0.00000000000E+00  0.00000000000E+00  0.10521592412E+03  0.10521592412E+03  0.00000000000E+00 0.  1.
          2   -1    0    0  501    0  0.00000000000E+00 -0.00000000000E+00 -0.83992737770E+02  0.83992737770E+02  0.00000000000E+00 0. -1.
         23    2    1    2    0    0 -0.26073772591E+02 -0.27019130203E+02  0.39895146732E+02  0.10478408034E+03  0.89320802419E+02 0.  0.
         23    2    1    2    0    0  0.26073772591E+02  0.27019130203E+02 -0.18671960383E+02  0.84424581555E+02  0.73273411632E+02 0.  0.
          5    1    3    3  502    0 -0.25782447551E+02  0.26721774298E+02 -0.43110634245E+00  0.37430785138E+02  0.47000000000E+01 0. -1.
         -5    1    4    4    0  503 -0.17836349977E+02 -0.12351103216E+02 -0.10975260876E+02  0.24763511109E+02  0.47000000000E+01 0.  1.
          5    1    4    4  503    0  0.43910122568E+02  0.39370233419E+02 -0.76966995069E+01  0.59661070446E+02  0.47000000000E+01 0. -1.
         -5    1    3    3    0  502 -0.29132504019E+00 -0.53740904501E+02  0.40326253075E+02  0.67353295197E+02  0.47000000000E+01 0.  1.
<mgrwt>
<rscale>  0 0.93027415E+02</rscale>
<asrwt>0</asrwt>
<pdfrwt beam="1">  1        2 0.12921960E-01 0.96892109E+02</pdfrwt>
<pdfrwt beam="2">  1       -2 0.16187065E-01 0.96892109E+02</pdfrwt>
<totfact> 0.12719779E+04</totfact>
</mgrwt>
</event>
<event>
 8    1  0.3177960E-004  0.1089818E+03  0.7546771E-02  0.1266030E+00
          2   -1    0    0  501    0  0.00000000000E+00  0.00000000000E+00  0.38385844883E+03  0.38385844883E+03  0.00000000000E+00 0. -1.
         -2   -1    0    0    0  501 -0.00000000000E+00 -0.00000000000E+00 -0.29041689507E+02  0.29041689507E+02  0.00000000000E+00 0.  1.
         23    2    1    2    0    0 -0.54810592157E+01 -0.43852030087E+02  0.15671307729E+03  0.18679815512E+03  0.91550639601E+02 0.  0.
         23    2    1    2    0    0  0.54810592157E+01  0.43852030087E+02  0.19810368203E+03  0.22610198321E+03  0.99619252280E+02 0.  0.
          5    1    3    3  502    0  0.39735630465E+02 -0.57693719830E+01  0.81875605709E+02  0.91312161248E+02  0.47000000000E+01 0. -1.
         -5    1    3    3    0  502 -0.45216689681E+02 -0.38082658104E+02  0.74837471580E+02  0.95485993875E+02  0.47000000000E+01 0.  1.
          5    1    4    4  503    0  0.44343672525E+02  0.18301417433E+02  0.15569352109E+03  0.16298424980E+03  0.47000000000E+01 0. -1.
         -5    1    4    4    0  503 -0.38862613309E+02  0.25550612654E+02  0.42410160945E+02  0.63117733416E+02  0.47000000000E+01 0.  1.
<mgrwt>
<rscale>  0 0.10710311E+03</rscale>
<asrwt>0</asrwt>
<pdfrwt beam="1">  1        2 0.59055142E-01 0.10898182E+03</pdfrwt>
<pdfrwt beam="2">  1       -2 0.44679525E-02 0.10898182E+03</pdfrwt>
<totfact> 0.17868461E+04</totfact>
</mgrwt>
</event>
<event>
 8    1  0.3177960E-004  0.1081022E+03  0.7546771E-02  0.1264662E+00
          2   -1    0    0  501    0  0.00000000000E+00  0.00000000000E+00  0.13405778302E+04  0.13405778302E+04  0.00000000000E+00 0. -1.
         -2   -1    0    0    0  501 -0.00000000000E+00 -0.00000000000E+00 -0.87128679215E+01  0.87128679215E+01  0.00000000000E+00 0.  1.
         23    2    1    2    0    0 -0.43455501041E+02  0.34638792085E+02  0.60228109018E+03  0.61190570520E+03  0.92724613697E+02 0.  0.
         23    2    1    2    0    0  0.43455501041E+02 -0.34638792085E+02  0.72958387209E+03  0.73738499291E+03  0.91409927609E+02 0.  0.
          5    1    3    3  502    0  0.28402333441E+02  0.26970468665E+01  0.18638162066E+03  0.18861114794E+03  0.47000000000E+01 0.  1.
         -5    1    4    4    0  503  0.36866447383E+02  0.25324293305E+02  0.25174724615E+03  0.25573271343E+03  0.47000000000E+01 0.  1.
          5    1    4    4  503    0  0.65890536575E+01 -0.59963085390E+02  0.47783662594E+03  0.48165227948E+03  0.47000000000E+01 0. -1.
         -5    1    3    3    0  502 -0.71857834482E+02  0.31941745218E+02  0.41589946952E+03  0.42329455727E+03  0.47000000000E+01 0. -1.
<mgrwt>
<rscale>  0 0.10781969E+03</rscale>
<asrwt>0</asrwt>
<pdfrwt beam="1">  1        2 0.20624258E+00 0.10810218E+03</pdfrwt>
<pdfrwt beam="2">  1       -2 0.13404423E-02 0.10810218E+03</pdfrwt>
<totfact> 0.21887755E+04</totfact>
</mgrwt>
</event>
<event>
 8    1  0.3177960E-004  0.9198558E+02  0.7546771E-02  0.1312502E+00
         -1   -1    0    0    0  501 -0.00000000000E+00  0.00000000000E+00  0.84686124819E+02  0.84686124819E+02  0.00000000000E+00 0.  1.
          1   -1    0    0  501    0  0.00000000000E+00 -0.00000000000E+00 -0.86037062199E+02  0.86037062199E+02  0.00000000000E+00 0. -1.
         23    2    1    2    0    0  0.21283778483E+02 -0.53261813333E+01 -0.26255685638E+02  0.75425788248E+02  0.67218457810E+02 0.  0.
         23    2    1    2    0    0 -0.21283778483E+02  0.53261813333E+01  0.24904748258E+02  0.95297398770E+02  0.89330735430E+02 0.  0.
          5    1    4    4  502    0  0.18168494511E+02 -0.25974102188E+02  0.30712319978E+02  0.44385637043E+02  0.47000000000E+01 0. -1.
         -5    1    4    4    0  502 -0.39452272994E+02  0.31300283521E+02 -0.58075717202E+01  0.50911761727E+02  0.47000000000E+01 0.  1.
          5    1    3    3  503    0  0.36831626036E+02  0.86406779766E+01 -0.35502236901E+02  0.52093462329E+02  0.47000000000E+01 0. -1.
         -5    1    3    3    0  503 -0.15547847554E+02 -0.13966859310E+02  0.92465512633E+01  0.23332325919E+02  0.47000000000E+01 0.  1.
<mgrwt>
<rscale>  0 0.86130645E+02</rscale>
<asrwt>0</asrwt>
<pdfrwt beam="1">  1        1 0.13236471E-01 0.91985584E+02</pdfrwt>
<pdfrwt beam="2">  1       -1 0.13028635E-01 0.91985584E+02</pdfrwt>
<totfact> 0.15818757E+04</totfact>
</mgrwt>
</event>
<event>
 8    1  0.3177960E-004  0.1661255E+03  0.7546771E-02  0.1186947E+00
          1   -1    0    0  501    0  0.00000000000E+00  0.00000000000E+00  0.10377056404E+04  0.10377056404E+04  0.00000000000E+00 0. -1.
         -1   -1    0    0    0  501 -0.00000000000E+00 -0.00000000000E+00 -0.24487327643E+02  0.24487327643E+02  0.00000000000E+00 0.  1.
         23    2    1    2    0    0  0.10215061723E+03 -0.59112122656E+02  0.56375919387E+03  0.58301535687E+03  0.90296655664E+02 0.  0.
         23    2    1    2    0    0 -0.10215061723E+03  0.59112122656E+02  0.44945911886E+03  0.47917761114E+03  0.11691318085E+03 0.  0.
          5    1    4    4  502    0 -0.10681331810E+03  0.35666277429E+02  0.43797338708E+03  0.45224323771E+03  0.47000000000E+01 0. -1.
         -5    1    3    3    0  503  0.93088191694E+02 -0.76525797181E+01  0.41075540321E+03  0.42126721292E+03  0.47000000000E+01 0.  1.
          5    1    3    3  503    0  0.90624255323E+01 -0.51459542938E+02  0.15300379066E+03  0.16174814395E+03  0.47000000000E+01 0. -1.
         -5    1    4    4    0  502  0.46627008694E+01  0.23445845227E+02  0.11485731780E+02  0.26934373434E+02  0.47000000000E+01 0.  1.
<mgrwt>
<rscale>  0 0.16155976E+03</rscale>
<asrwt>0</asrwt>
<pdfrwt beam="1">  1        1 0.15964699E+00 0.16612551E+03</pdfrwt>
<pdfrwt beam="2">  1       -1 0.37672820E-02 0.16612551E+03</pdfrwt>
<totfact> 0.39774668E+03</totfact>
</mgrwt>
</event>
<event>
 8    1  0.3177960E-004  0.1071867E+03  0.7546771E-02  0.1268004E+00
         -1   -1    0    0    0  501 -0.00000000000E+00  0.00000000000E+00  0.19412188888E+02  0.19412188888E+02  0.00000000000E+00 0.  1.
          1   -1    0    0  501    0  0.00000000000E+00 -0.00000000000E+00 -0.57576135658E+03  0.57576135658E+03  0.00000000000E+00 0. -1.
         23    2    1    2    0    0 -0.42353664780E+02  0.25737412645E+02 -0.31831219735E+03  0.33587443723E+03  0.95040703251E+02 0.  0.
         23    2    1    2    0    0  0.42353664780E+02 -0.25737412645E+02 -0.23803697034E+03  0.25929910824E+03  0.90100948675E+02 0.  0.
          5    1    3    3  502    0 -0.60419205006E+02 -0.14850057645E+02 -0.19319778597E+03  0.20302334607E+03  0.47000000000E+01 0. -1.
         -5    1    4    4    0  503  0.51487390240E+02  0.36680145538E+01 -0.63325735667E+02  0.81833028065E+02  0.47000000000E+01 0.  1.
          5    1    4    4  503    0 -0.91337254596E+01 -0.29405427199E+02 -0.17471123467E+03  0.17746608017E+03  0.47000000000E+01 0. -1.
         -5    1    3    3    0  502  0.18065540226E+02  0.40587470290E+02 -0.12511441138E+03  0.13285109116E+03  0.47000000000E+01 0.  1.
<mgrwt>
<rscale>  0 0.10608102E+03</rscale>
<asrwt>0</asrwt>
<pdfrwt beam="1">  1        1 0.88578667E-01 0.10718667E+03</pdfrwt>
<pdfrwt beam="2">  1       -1 0.29864907E-02 0.10718667E+03</pdfrwt>
<totfact> 0.13188702E+04</totfact>
</mgrwt>
</event>
<event>
 8    1  0.3177960E-004  0.1225056E+03  0.7546771E-02  0.1243300E+00
          3   -1    0    0  501    0  0.00000000000E+00  0.00000000000E+00  0.47728944672E+03  0.47728944672E+03  0.00000000000E+00 0. -1.
         -3   -1    0    0    0  501 -0.00000000000E+00 -0.00000000000E+00 -0.42533128790E+02  0.42533128790E+02  0.00000000000E+00 0.  1.
         23    2    1    2    0    0  0.63729312099E+02  0.86642428839E+00  0.37091762475E+03  0.39062451648E+03  0.10462051715E+03 0.  0.
         23    2    1    2    0    0 -0.63729312099E+02 -0.86642428839E+00  0.63838693172E+02  0.12919805903E+03  0.92490993071E+02 0.  0.
          5    1    3    3  502    0  0.15796419311E+02  0.38442080689E+02  0.56327337703E+02  0.70158245441E+02  0.47000000000E+01 0. -1.
         -5    1    3    3    0  502  0.47932892789E+02 -0.37575656401E+02  0.31459028705E+03  0.32046627104E+03  0.47000000000E+01 0.  1.
          5    1    4    4  503    0 -0.81914450554E+02  0.14514008741E+02  0.63763562115E+02  0.10492147308E+03  0.47000000000E+01 0. -1.
         -5    1    4    4    0  503  0.18185138454E+02 -0.15380433029E+02  0.75131057359E-01  0.24276585951E+02  0.47000000000E+01 0.  1.
<mgrwt>
<rscale>  0 0.11987690E+03</rscale>
<asrwt>0</asrwt>
<pdfrwt beam="1">  1        3 0.73429142E-01 0.12250563E+03</pdfrwt>
<pdfrwt beam="2">  1       -3 0.65435586E-02 0.12250563E+03</pdfrwt>
<totfact> 0.60667440E+02</totfact>
</mgrwt>
</event>
<event>
 8    1  0.3177960E-004  0.9776761E+02  0.7546771E-02  0.1286721E+00
         -1   -1    0    0    0  501 -0.00000000000E+00  0.00000000000E+00  0.12506371614E+03  0.12506371614E+03  0.00000000000E+00 0.  1.
          1   -1    0    0  501    0  0.00000000000E+00 -0.00000000000E+00 -0.86482315351E+02  0.86482315351E+02  0.00000000000E+00 0. -1.
         23    2    1    2    0    0 -0.21015700506E+02  0.16490717075E+02  0.59579350883E+02  0.11449106444E+03  0.94047335781E+02 0.  0.
         23    2    1    2    0    0  0.21015700506E+02 -0.16490717075E+02 -0.20997950092E+02  0.97054967054E+02  0.90912866550E+02 0.  0.
          5    1    3    3  502    0 -0.50423417838E+02  0.17112643454E+02  0.67996498404E+01  0.53885887489E+02  0.47000000000E+01 0. -1.
         -5    1    3    3    0  502  0.29407717333E+02 -0.62192637925E+00  0.52779701042E+02  0.60605176951E+02  0.47000000000E+01 0.  1.
          5    1    4    4  503    0 -0.28219951951E+02 -0.15683804710E+02 -0.32733353341E+02  0.46215904613E+02  0.47000000000E+01 0. -1.
         -5    1    4    4    0  503  0.49235652457E+02 -0.80691236534E+00  0.11735403249E+02  0.50839062441E+02  0.47000000000E+01 0.  1.
<mgrwt>
<rscale>  0 0.97005920E+02</rscale>
<asrwt>0</asrwt>
<pdfrwt beam="1">  1        1 0.13304972E-01 0.97767606E+02</pdfrwt>
<pdfrwt beam="2">  1       -1 0.19240572E-01 0.97767606E+02</pdfrwt>
<totfact> 0.86063723E+03</totfact>
</mgrwt>
</event>
<event>
 8    1  0.3177960E-004  0.1231221E+03  0.7546771E-02  0.1238678E+00
          4   -1    0    0  501    0  0.00000000000E+00  0.00000000000E+00  0.22519498215E+03  0.22519498215E+03  0.00000000000E+00 0. -1.
         -4   -1    0    0    0  501 -0.00000000000E+00 -0.00000000000E+00 -0.67983227188E+02  0.67983227188E+02  0.00000000000E+00 0.  1.
         23    2    1    2    0    0 -0.24065765178E+02 -0.79651015511E+02  0.56018429110E+02  0.13380713558E+03  0.88559809206E+02 0.  0.
         23    2    1    2    0    0  0.24065765178E+02  0.79651015511E+02  0.10119332585E+03  0.15937107376E+03  0.90750232112E+02 0.  0.
          5    1    3    3  502    0 -0.47767049256E+02 -0.29334174378E+02  0.53964554026E+02  0.77951573892E+02  0.47000000000E+01 0. -1.
         -5    1    4    4    0  503  0.53938042196E+02  0.65473424087E+02  0.51031804668E+02  0.99108106355E+02  0.47000000000E+01 0.  1.
          5    1    4    4  503    0 -0.29872277018E+02  0.14177591425E+02  0.50161521183E+02  0.60262967403E+02  0.47000000000E+01 0. -1.
         -5    1    3    3    0  502  0.23701284078E+02 -0.50316841133E+02  0.20538750842E+01  0.55855561688E+02  0.47000000000E+01 0.  1.
<mgrwt>
<rscale>  0 0.12271874E+03</rscale>
<asrwt>0</asrwt>
<pdfrwt beam="1">  1        4 0.34645382E-01 0.12312209E+03</pdfrwt>
<pdfrwt beam="2">  1       -4 0.10458958E-01 0.12312209E+03</pdfrwt>
<totfact> 0.91719955E+02</totfact>
</mgrwt>
</event>
<event>
 8    1  0.3177960E-004  0.9441118E+02  0.7546771E-02  0.1292649E+00
          2   -1    0    0  501    0  0.00000000000E+00  0.00000000000E+00  0.29966966070E+03  0.29966966070E+03  0.00000000000E+00 0. -1.
         -2   -1    0    0    0  501 -0.00000000000E+00 -0.00000000000E+00 -0.29735421923E+02  0.29735421923E+02  0.00000000000E+00 0.  1.
         23    2    1    2    0    0 -0.11679260751E+02  0.20251785511E+02  0.12719785510E+03  0.15840695985E+03  0.91470927849E+02 0.  0.
         23    2    1    2    0    0  0.11679260751E+02 -0.20251785511E+02  0.14273638368E+03  0.17099812277E+03  0.91214816866E+02 0.  0.
          5    1    3    3  502    0 -0.17386343400E+02 -0.34195784585E+02  0.62944228691E+02  0.73862727716E+02  0.47000000000E+01 0. -1.
         -5    1    3    3    0  502  0.57070826496E+01  0.54447570096E+02  0.64253626405E+02  0.84544232139E+02  0.47000000000E+01 0.  1.
          5    1    4    4  503    0 -0.35737452360E+02 -0.27538112573E+01  0.28641991262E+02  0.46121607095E+02  0.47000000000E+01 0. -1.
         -5    1    4    4    0  503  0.47416713110E+02 -0.17497974254E+02  0.11409439242E+03  0.12487651567E+03  0.47000000000E+01 0.  1.
<mgrwt>
<rscale>  0 0.94349089E+02</rscale>
<asrwt>0</asrwt>
<pdfrwt beam="1">  1        2 0.46103023E-01 0.94411178E+02</pdfrwt>
<pdfrwt beam="2">  1       -2 0.45746805E-02 0.94411178E+02</pdfrwt>
<totfact> 0.22061660E+04</totfact>
</mgrwt>
</event>
<event>
 8    1  0.3177960E-004  0.9467548E+02  0.7546771E-02  0.1292322E+00
          1   -1    0    0  501    0  0.00000000000E+00  0.00000000000E+00  0.34328635718E+03  0.34328635718E+03  0.00000000000E+00 0. -1.
         -1   -1    0    0    0  501 -0.00000000000E+00 -0.00000000000E+00 -0.35525877562E+02  0.35525877562E+02  0.00000000000E+00 0.  1.
         23    2    1    2    0    0 -0.12117640240E+02  0.18520415051E+02  0.55774418131E+02  0.10988280960E+03  0.92052176229E+02 0.  0.
         23    2    1    2    0    0  0.12117640240E+02 -0.18520415051E+02  0.25198606148E+03  0.26892942514E+03  0.91302889034E+02 0.  0.
          5    1    4    4  502    0  0.16890939121E+02  0.21630129542E+02  0.20449015483E+03  0.20637703301E+03  0.47000000000E+01 0. -1.
         -5    1    4    4    0  502 -0.47732988813E+01 -0.40150544593E+02  0.47495906651E+02  0.62552392136E+02  0.47000000000E+01 0.  1.
          5    1    3    3  503    0  0.24621155804E+02 -0.23714831719E+02  0.64032335216E+01  0.35095383687E+02  0.47000000000E+01 0. -1.
         -5    1    3    3    0  503 -0.36738796044E+02  0.42235246771E+02  0.49371184610E+02  0.74787425910E+02  0.47000000000E+01 0.  1.
<mgrwt>
<rscale>  0 0.94492860E+02</rscale>
<asrwt>0</asrwt>
<pdfrwt beam="1">  1        1 0.52813283E-01 0.94675478E+02</pdfrwt>
<pdfrwt beam="2">  1       -1 0.54655199E-02 0.94675478E+02</pdfrwt>
<totfact> 0.10432785E+04</totfact>
</mgrwt>
</event>
<event>
 8    1  0.3177960E-004  0.1591466E+03  0.7546771E-02  0.1189796E+00
         -2   -1    0    0    0  501 -0.00000000000E+00  0.00000000000E+00  0.44376126025E+02  0.44376126025E+02  0.00000000000E+00 0.  1.
          2   -1    0    0  501    0  0.00000000000E+00 -0.00000000000E+00 -0.56908357455E+03  0.56908357455E+03  0.00000000000E+00 0. -1.
         23    2    1    2    0    0 -0.23308870136E+02 -0.12757655295E+03 -0.26191953811E+03  0.30623805868E+03  0.91437540691E+02 0.  0.
         23    2    1    2    0    0  0.23308870136E+02  0.12757655295E+03 -0.26278791041E+03  0.30722164190E+03  0.92241916191E+02 0.  0.
          5    1    4    4  502    0 -0.29744165135E+02  0.81169767506E+02 -0.16811356988E+03  0.18909655971E+03  0.47000000000E+01 0. -1.
         -5    1    4    4    0  502  0.53053035271E+02  0.46406785442E+02 -0.94674340532E+02  0.11812508219E+03  0.47000000000E+01 0.  1.
          5    1    3    3  503    0 -0.49402364328E+02 -0.44556995408E+02 -0.15179905351E+03  0.16580398695E+03  0.47000000000E+01 0. -1.
         -5    1    3    3    0  503  0.26093494192E+02 -0.83019557540E+02 -0.11012048460E+03  0.14043407173E+03  0.47000000000E+01 0.  1.
<mgrwt>
<rscale>  0 0.15903029E+03</rscale>
<asrwt>0</asrwt>
<pdfrwt beam="1">  1        2 0.87551311E-01 0.15914663E+03</pdfrwt>
<pdfrwt beam="2">  1       -2 0.68270969E-02 0.15914663E+03</pdfrwt>
<totfact> 0.63104894E+03</totfact>
</mgrwt>
</event>
<event>
 8    1  0.3177960E-004  0.9405460E+02  0.7546771E-02  0.1299729E+00
          1   -1    0    0  501    0  0.00000000000E+00  0.00000000000E+00  0.20663809340E+03  0.20663809340E+03  0.00000000000E+00 0. -1.
         -1   -1    0    0    0  501 -0.00000000000E+00 -0.00000000000E+00 -0.44218945445E+02  0.44218945445E+02  0.00000000000E+00 0.  1.
         23    2    1    2    0    0 -0.23352186359E+02  0.47505795170E+01  0.13176644865E+03  0.16189090183E+03  0.90985572992E+02 0.  0.
         23    2    1    2    0    0  0.23352186359E+02 -0.47505795170E+01  0.30652699314E+02  0.88966137021E+02  0.80046817224E+02 0.  0.
          5    1    4    4  502    0  0.47895209216E+02 -0.16424691301E+02  0.46551107696E+01  0.51063505622E+02  0.47000000000E+01 0. -1.
         -5    1    4    4    0  502 -0.24543022856E+02  0.11674111784E+02  0.25997588544E+02  0.37902631399E+02  0.47000000000E+01 0.  1.
          5    1    3    3  503    0  0.19558263176E+02  0.13453023526E+02  0.11025980364E+03  0.11288411668E+03  0.47000000000E+01 0. -1.
         -5    1    3    3    0  503 -0.42910449535E+02 -0.87024440091E+01  0.21506645006E+02  0.49006785147E+02  0.47000000000E+01 0.  1.
<mgrwt>
<rscale>  0 0.91302159E+02</rscale>
<asrwt>0</asrwt>
<pdfrwt beam="1">  1        1 0.31790475E-01 0.94054596E+02</pdfrwt>
<pdfrwt beam="2">  1       -1 0.68029148E-02 0.94054596E+02</pdfrwt>
<totfact> 0.14046286E+04</totfact>
</mgrwt>
</event>
<event>
 8    1  0.3177960E-004  0.1037149E+03  0.7546771E-02  0.1278004E+00
          1   -1    0    0  501    0  0.00000000000E+00  0.00000000000E+00  0.16907370102E+03  0.16907370102E+03  0.00000000000E+00 0. -1.
         -1   -1    0    0    0  501 -0.00000000000E+00 -0.00000000000E+00 -0.78792510975E+02  0.78792510975E+02  0.00000000000E+00 0.  1.
         23    2    1    2    0    0  0.24721143004E+02  0.75098198274E+00 -0.20772417989E+02  0.95913316476E+02  0.90311527741E+02 0.  0.
         23    2    1    2    0    0 -0.24721143004E+02 -0.75098198274E+00  0.11105360803E+03  0.15195289551E+03  0.10072278647E+03 0.  0.
          5    1    3    3  502    0 -0.22295746288E+02  0.29886449248E+02 -0.33454251948E+01  0.37730385910E+02  0.47000000000E+01 0. -1.
         -5    1    4    4    0  503  0.38626735510E+02  0.49744449673E+01  0.33867287394E+02  0.51825215429E+02  0.47000000000E+01 0.  1.
          5    1    4    4  503    0 -0.63347878514E+02 -0.57254269501E+01  0.77186320636E+02  0.10012768009E+03  0.47000000000E+01 0. -1.
         -5    1    3    3    0  502  0.47016889292E+02 -0.29135467265E+02 -0.17426992794E+02  0.58182930566E+02  0.47000000000E+01 0.  1.
<mgrwt>
<rscale>  0 0.10109801E+03</rscale>
<asrwt>0</asrwt>
<pdfrwt beam="1">  1        1 0.26011339E-01 0.10371489E+03</pdfrwt>
<pdfrwt beam="2">  1       -1 0.12121925E-01 0.10371489E+03</pdfrwt>
<totfact> 0.76027655E+03</totfact>
</mgrwt>
</event>
<event>
 8    1  0.3177960E-004  0.1312393E+03  0.7546771E-02  0.1225811E+00
         -2   -1    0    0    0  501 -0.00000000000E+00  0.00000000000E+00  0.24350457728E+02  0.24350457728E+02  0.00000000000E+00 0.  1.
          2   -1    0    0  501    0  0.00000000000E+00 -0.00000000000E+00 -0.71839345930E+03  0.71839345930E+03  0.00000000000E+00 0. -1.
         23    2    1    2    0    0  0.91174089794E+02  0.21116439430E+02 -0.39774433562E+03  0.41868118531E+03  0.91294905421E+02 0.  0.
         23    2    1    2    0    0 -0.91174089794E+02 -0.21116439430E+02 -0.29629866596E+03  0.32406273172E+03  0.92006173577E+02 0.  0.
          5    1    4    4  502    0 -0.35943911958E+02  0.23366587275E+02 -0.19871202414E+03  0.20333843893E+03  0.47000000000E+01 0. -1.
         -5    1    3    3    0  503  0.37363708909E+02 -0.33254965612E+02 -0.11044250632E+03  0.12133250464E+03  0.47000000000E+01 0.  1.
          5    1    3    3  503    0  0.53810380885E+02  0.54371405042E+02 -0.28730182930E+03  0.29734868067E+03  0.47000000000E+01 0. -1.
         -5    1    4    4    0  502 -0.55230177836E+02 -0.44483026704E+02 -0.97586641819E+02  0.12072429279E+03  0.47000000000E+01 0.  1.
<mgrwt>
<rscale>  0 0.13111471E+03</rscale>
<asrwt>0</asrwt>
<pdfrwt beam="1">  1        2 0.11052204E+00 0.13123930E+03</pdfrwt>
<pdfrwt beam="2">  1       -2 0.37462253E-02 0.13123930E+03</pdfrwt>
<totfact> 0.11749862E+04</totfact>
</mgrwt>
</event>
<event>
 8    1  0.3177960E-004  0.1230298E+03  0.7546771E-02  0.1243327E+00
         -2   -1    0    0    0  501 -0.00000000000E+00  0.00000000000E+00  0.29373086412E+02  0.29373086412E+02  0.00000000000E+00 0.  1.
          2   -1    0    0  501    0  0.00000000000E+00 -0.00000000000E+00 -0.57530348104E+03  0.57530348104E+03  0.00000000000E+00 0. -1.
         23    2    1    2    0    0  0.64322749563E+02  0.57434761439E+01 -0.12950788754E+03  0.17045998683E+03  0.90077247658E+02 0.  0.
         23    2    1    2    0    0 -0.64322749563E+02 -0.57434761439E+01 -0.41642250709E+03  0.43421658062E+03  0.10471834054E+03 0.  0.
          5    1    4    4  502    0 -0.72333766842E+02  0.29276862041E+02 -0.34928736641E+03  0.35792885161E+03  0.47000000000E+01 0. -1.
         -5    1    3    3    0  503  0.84950369761E+02  0.87801509243E+01 -0.82568031828E+02  0.11888324631E+03  0.47000000000E+01 0.  1.
          5    1    3    3  503    0 -0.20627620198E+02 -0.30366747804E+01 -0.46939855708E+02  0.51576740519E+02  0.47000000000E+01 0. -1.
         -5    1    4    4    0  502  0.80110172792E+01 -0.35020338185E+02 -0.67135140674E+02  0.76287729012E+02  0.47000000000E+01 0.  1.
<mgrwt>
<rscale>  0 0.11986065E+03</rscale>
<asrwt>0</asrwt>
<pdfrwt beam="1">  1        2 0.88508221E-01 0.12302981E+03</pdfrwt>
<pdfrwt beam="2">  1       -2 0.45189367E-02 0.12302981E+03</pdfrwt>
<totfact> 0.11444782E+04</totfact>
</mgrwt>
</event>
<event>
 8    1  0.3177960E-004  0.1111038E+03  0.7546771E-02  0.1269461E+00
          2   -1    0    0  501    0  0.00000000000E+00  0.00000000000E+00  0.70405648471E+03  0.70405648471E+03  0.00000000000E+00 0. -1.
         -2   -1    0    0    0  501 -0.00000000000E+00 -0.00000000000E+00 -0.19087146779E+02  0.19087146779E+02  0.00000000000E+00 0.  1.
         23    2    1    2    0    0 -0.47573657833E+01 -0.22401429387E+01  0.18999634896E+03  0.22009696568E+03  0.11097932651E+03 0.  0.
         23    2    1    2    0    0  0.47573657833E+01  0.22401429387E+01  0.49497298897E+03  0.50304666581E+03  0.89610475966E+02 0.  0.
          5    1    3    3  502    0 -0.38205411838E+01  0.54160570948E+02  0.93801387532E+02  0.10848388951E+03  0.47000000000E+01 0. -1.
         -5    1    3    3    0  502 -0.93682459942E+00 -0.56400713887E+02  0.96194961428E+02  0.11161307617E+03  0.47000000000E+01 0.  1.
          5    1    4    4  503    0  0.16686455766E+02  0.42762139367E+02  0.29697570801E+03  0.30053901496E+03  0.47000000000E+01 0. -1.
         -5    1    4    4    0  503 -0.11929089983E+02 -0.40521996428E+02  0.19799728096E+03  0.20250765084E+03  0.47000000000E+01 0.  1.
<mgrwt>
<rscale>  0 0.10533509E+03</rscale>
<asrwt>0</asrwt>
<pdfrwt beam="1">  1        2 0.10831636E+00 0.11110383E+03</pdfrwt>
<pdfrwt beam="2">  1       -2 0.29364847E-02 0.11110383E+03</pdfrwt>
<totfact> 0.17004004E+04</totfact>
</mgrwt>
</event>
<event>
 8    1  0.3177960E-004  0.9727469E+02  0.7546771E-02  0.1288904E+00
          1   -1    0    0  501    0  0.00000000000E+00  0.00000000000E+00  0.41793952769E+02  0.41793952769E+02  0.00000000000E+00 0. -1.
         -1   -1    0    0    0  501 -0.00000000000E+00 -0.00000000000E+00 -0.31296831790E+03  0.31296831790E+03  0.00000000000E+00 0.  1.
         23    2    1    2    0    0 -0.44441840481E+01  0.19121166491E+02 -0.23720255522E+03  0.25637359063E+03  0.95273270079E+02 0.  0.
         23    2    1    2    0    0  0.44441840481E+01 -0.19121166491E+02 -0.33971809912E+02  0.98388680036E+02  0.90226818135E+02 0.  0.
          5    1    4    4  502    0  0.19990329117E+02 -0.43758025779E+02  0.59965080894E+01  0.48707557807E+02  0.47000000000E+01 0. -1.
         -5    1    4    4    0  502 -0.15546145069E+02  0.24636859288E+02 -0.39968318001E+02  0.49681122229E+02  0.47000000000E+01 0.  1.
          5    1    3    3  503    0 -0.27794300568E+02 -0.24789033213E+01 -0.21602845559E+03  0.21787393541E+03  0.47000000000E+01 0. -1.
         -5    1    3    3    0  503  0.23350116520E+02  0.21600069812E+02 -0.21174099631E+02  0.38499655227E+02  0.47000000000E+01 0.  1.
<mgrwt>
<rscale>  0 0.96016230E+02</rscale>
<asrwt>0</asrwt>
<pdfrwt beam="1">  1        1 0.64298391E-02 0.97274692E+02</pdfrwt>
<pdfrwt beam="2">  1       -1 0.48148970E-01 0.97274692E+02</pdfrwt>
<totfact> 0.48205760E+03</totfact>
</mgrwt>
</event>
<event>
 8    1  0.3177960E-004  0.9451206E+02  0.7546771E-02  0.1292463E+00
          1   -1    0    0  501    0  0.00000000000E+00  0.00000000000E+00  0.52349195885E+03  0.52349195885E+03  0.00000000000E+00 0. -1.
         -1   -1    0    0    0  501 -0.00000000000E+00 -0.00000000000E+00 -0.17540576074E+02  0.17540576074E+02  0.00000000000E+00 0.  1.
         23    2    1    2    0    0  0.10729191817E+02 -0.22377614800E+02  0.20612205871E+03  0.22675721055E+03  0.91195703003E+02 0.  0.
         23    2    1    2    0    0 -0.10729191817E+02  0.22377614800E+02  0.29982932406E+03  0.31427532437E+03  0.90859687113E+02 0.  0.
          5    1    3    3  502    0 -0.39368745433E+02 -0.15259367688E+01  0.77135852737E+02  0.86742471590E+02  0.47000000000E+01 0. -1.
         -5    1    4    4    0  503  0.24864925127E+02  0.16765704588E+02  0.32437809305E+02  0.44425835101E+02  0.47000000000E+01 0.  1.
          5    1    4    4  503    0 -0.35594116944E+02  0.56119102112E+01  0.26739151475E+03  0.26984948927E+03  0.47000000000E+01 0. -1.
         -5    1    3    3    0  502  0.50097937251E+02 -0.20851678031E+02  0.12898620598E+03  0.14001473896E+03  0.47000000000E+01 0.  1.
<mgrwt>
<rscale>  0 0.94430909E+02</rscale>
<asrwt>0</asrwt>
<pdfrwt beam="1">  1        1 0.80537212E-01 0.94512060E+02</pdfrwt>
<pdfrwt beam="2">  1       -1 0.26985506E-02 0.94512060E+02</pdfrwt>
<totfact> 0.17110515E+04</totfact>
</mgrwt>
</event>
<event>
 8    1  0.3177960E-004  0.9811915E+02  0.7546771E-02  0.1289007E+00
         -1   -1    0    0    0  501 -0.00000000000E+00  0.00000000000E+00  0.21814202582E+02  0.21814202582E+02  0.00000000000E+00 0.  1.
          1   -1    0    0  501    0  0.00000000000E+00 -0.00000000000E+00 -0.42497497583E+03  0.42497497583E+03  0.00000000000E+00 0. -1.
         23    2    1    2    0    0  0.64013917510E+01 -0.24501197053E+02 -0.25881782213E+03  0.27679239902E+03  0.94794939885E+02 0.  0.
         23    2    1    2    0    0 -0.64013917510E+01  0.24501197053E+02 -0.14434295111E+03  0.16999677939E+03  0.86155272582E+02 0.  0.
          5    1    4    4  502    0  0.13969616669E+02  0.48228588345E+02 -0.52214668447E+02  0.72592069296E+02  0.47000000000E+01 0. -1.
         -5    1    4    4    0  502 -0.20371008420E+02 -0.23727391292E+02 -0.92128282663E+02  0.97404710091E+02  0.47000000000E+01 0.  1.
          5    1    3    3  503    0  0.31877289213E+02 -0.47304116403E+02 -0.20515715431E+03  0.21299152322E+03  0.47000000000E+01 0. -1.
         -5    1    3    3    0  503 -0.25475897462E+02  0.22802919350E+02 -0.53660667822E+02  0.63800875805E+02  0.47000000000E+01 0.  1.
<mgrwt>
<rscale>  0 0.95969726E+02</rscale>
<asrwt>0</asrwt>
<pdfrwt beam="1">  1        1 0.65380771E-01 0.98119147E+02</pdfrwt>
<pdfrwt beam="2">  1       -1 0.33560309E-02 0.98119147E+02</pdfrwt>
<totfact> 0.16353149E+04</totfact>
</mgrwt>
</event>
<event>
 8    1  0.3177960E-004  0.1090870E+03  0.7546771E-02  0.1264048E+00
          2   -1    0    0  501    0  0.00000000000E+00  0.00000000000E+00  0.39322900097E+03  0.39322900097E+03  0.00000000000E+00 0. -1.
         -2   -1    0    0    0  501 -0.00000000000E+00 -0.00000000000E+00 -0.35204594946E+02  0.35204594946E+02  0.00000000000E+00 0.  1.
         23    2    1    2    0    0 -0.52755391006E+02  0.46109187185E+01  0.26461538938E+03  0.28481874796E+03  0.91082506792E+02 0.  0.
         23    2    1    2    0    0  0.52755391006E+02 -0.46109187185E+01  0.93409016645E+02  0.14361484795E+03  0.95370793802E+02 0.  0.
          5    1    4    4  502    0  0.27320602522E+02 -0.83731652837E+01  0.10926934572E+03  0.11304160797E+03  0.47000000000E+01 0. -1.
         -5    1    3    3    0  503 -0.16406660340E+02  0.45680863118E+02  0.10025933533E+03  0.11148965907E+03  0.47000000000E+01 0.  1.
          5    1    3    3  503    0 -0.36348730667E+02 -0.41069944400E+02  0.16435605404E+03  0.17332908889E+03  0.47000000000E+01 0. -1.
         -5    1    4    4    0  502  0.25434788484E+02  0.37622465652E+01 -0.15860329076E+02  0.30573239980E+02  0.47000000000E+01 0.  1.
<mgrwt>
<rscale>  0 0.10814271E+03</rscale>
<asrwt>0</asrwt>
<pdfrwt beam="1">  1        2 0.60496766E-01 0.10908703E+03</pdfrwt>
<pdfrwt beam="2">  1       -2 0.54160918E-02 0.10908703E+03</pdfrwt>
<totfact> 0.13072493E+04</totfact>
</mgrwt>
</event>
<event>
 8    1  0.3177960E-004  0.9808260E+02  0.7546771E-02  0.1284482E+00
          1   -1    0    0  501    0  0.00000000000E+00  0.00000000000E+00  0.66716621088E+03  0.66716621088E+03  0.00000000000E+00 0. -1.
         -1   -1    0    0    0  501 -0.00000000000E+00 -0.00000000000E+00 -0.14502288084E+02  0.14502288084E+02  0.00000000000E+00 0.  1.
         23    2    1    2    0    0 -0.22726841331E+02  0.24850407654E+02  0.29688339856E+03  0.31266587431E+03  0.92120272154E+02 0.  0.
         23    2    1    2    0    0  0.22726841331E+02 -0.24850407654E+02  0.35578052424E+03  0.36900262465E+03  0.91919005085E+02 0.  0.
          5    1    3    3  502    0 -0.18185268233E+02  0.58374211961E+02  0.15406728185E+03  0.16582240482E+03  0.47000000000E+01 0. -1.
         -5    1    3    3    0  502 -0.45415730975E+01 -0.33523804306E+02  0.14281611670E+03  0.14684346949E+03  0.47000000000E+01 0.  1.
          5    1    4    4  503    0  0.49053845654E+02 -0.19781956386E+01  0.29220510278E+03  0.29633782263E+03  0.47000000000E+01 0. -1.
         -5    1    4    4    0  503 -0.26327004324E+02 -0.22872212016E+02  0.63575421460E+02  0.72664802023E+02  0.47000000000E+01 0.  1.
<mgrwt>
<rscale>  0 0.98035315E+02</rscale>
<asrwt>0</asrwt>
<pdfrwt beam="1">  1        1 0.10264093E+00 0.98082601E+02</pdfrwt>
<pdfrwt beam="2">  1       -1 0.22311218E-02 0.98082601E+02</pdfrwt>
<totfact> 0.16301696E+04</totfact>
</mgrwt>
</event>
<event>
 8    1  0.3177960E-004  0.1237759E+03  0.7546771E-02  0.1237604E+00
         -2   -1    0    0    0  501 -0.00000000000E+00  0.00000000000E+00  0.49244476774E+02  0.49244476774E+02  0.00000000000E+00 0.  1.
          2   -1    0    0  501    0  0.00000000000E+00 -0.00000000000E+00 -0.81921484148E+03  0.81921484148E+03  0.00000000000E+00 0. -1.
         23    2    1    2    0    0  0.57900719396E+02 -0.57548891701E+02 -0.42621364997E+02  0.13090853849E+03  0.93038145153E+02 0.  0.
         23    2    1    2    0    0 -0.57900719396E+02  0.57548891701E+02 -0.72734899971E+03  0.73755077976E+03  0.90995698281E+02 0.  0.
          5    1    4    4  502    0 -0.78795445461E+02  0.30416796464E+02 -0.58389736979E+03  0.58999333232E+03  0.47000000000E+01 0. -1.
         -5    1    4    4    0  502  0.20894726065E+02  0.27132095237E+02 -0.14345162991E+03  0.14755744743E+03  0.47000000000E+01 0.  1.
          5    1    3    3  503    0 -0.22417032495E+02 -0.18057327749E+02 -0.27365782893E+02  0.39994580941E+02  0.47000000000E+01 0. -1.
         -5    1    3    3    0  503  0.80317751892E+02 -0.39491563952E+02 -0.15255582104E+02  0.90913957551E+02  0.47000000000E+01 0.  1.
<mgrwt>
<rscale>  0 0.12339213E+03</rscale>
<asrwt>0</asrwt>
<pdfrwt beam="1">  1        2 0.12603304E+00 0.12377586E+03</pdfrwt>
<pdfrwt beam="2">  1       -2 0.75760742E-02 0.12377586E+03</pdfrwt>
<totfact> 0.34566279E+03</totfact>
</mgrwt>
</event>
<event>
 8    1  0.3177960E-004  0.1212592E+03  0.7546771E-02  0.1242550E+00
         -1   -1    0    0    0  501 -0.00000000000E+00  0.00000000000E+00  0.63984574806E+03  0.63984574806E+03  0.00000000000E+00 0.  1.
          1   -1    0    0  501    0  0.00000000000E+00 -0.00000000000E+00 -0.93760181150E+02  0.93760181150E+02  0.00000000000E+00 0. -1.
         23    2    1    2    0    0 -0.73524562560E+02  0.24512972685E+02 -0.48191126646E+02  0.12708422488E+03  0.88437935276E+02 0.  0.
         23    2    1    2    0    0  0.73524562560E+02 -0.24512972685E+02  0.59427669356E+03  0.60652170433E+03  0.93257933671E+02 0.  0.
          5    1    3    3  502    0 -0.85052411767E+02  0.73683896782E+01 -0.13679490545E+02  0.86587668726E+02  0.47000000000E+01 0. -1.
         -5    1    3    3    0  502  0.11527849207E+02  0.17144583007E+02 -0.34511636101E+02  0.40496556153E+02  0.47000000000E+01 0.  1.
          5    1    4    4  503    0  0.17698240219E+02  0.34675371715E+02  0.22097302094E+03  0.22442543326E+03  0.47000000000E+01 0. -1.
         -5    1    4    4    0  503  0.55826322341E+02 -0.59188344400E+02  0.37330367262E+03  0.38209627108E+03  0.47000000000E+01 0.  1.
<mgrwt>
<rscale>  0 0.12033195E+03</rscale>
<asrwt>0</asrwt>
<pdfrwt beam="1">  1        1 0.14424644E-01 0.12125918E+03</pdfrwt>
<pdfrwt beam="2">  1       -1 0.98437804E-01 0.12125918E+03</pdfrwt>
<totfact> 0.41112413E+02</totfact>
</mgrwt>
</event>
<event>
 8    1  0.3177960E-004  0.1057764E+03  0.7546771E-02  0.1268768E+00
          2   -1    0    0  501    0  0.00000000000E+00  0.00000000000E+00  0.12378098145E+03  0.12378098145E+03  0.00000000000E+00 0. -1.
         -2   -1    0    0    0  501 -0.00000000000E+00 -0.00000000000E+00 -0.98632926135E+02  0.98632926135E+02  0.00000000000E+00 0.  1.
         23    2    1    2    0    0 -0.17506841931E+02  0.50888163252E+02 -0.20169995900E+02  0.10733838386E+03  0.90656523431E+02 0.  0.
         23    2    1    2    0    0  0.17506841931E+02 -0.50888163252E+02  0.45318051220E+02  0.11507552373E+03  0.91063470847E+02 0.  0.
          5    1    4    4  502    0  0.20852907039E+02  0.39819966255E+01  0.54925311692E+02  0.59072666213E+02  0.47000000000E+01 0. -1.
         -5    1    4    4    0  502 -0.33460651078E+01 -0.54870159878E+02 -0.96072604721E+01  0.56002857521E+02  0.47000000000E+01 0.  1.
          5    1    3    3  503    0  0.30680927958E+02  0.19632572687E+02  0.15170481429E+02  0.39736516675E+02  0.47000000000E+01 0. -1.
         -5    1    3    3    0  503 -0.48187769889E+02  0.31255590566E+02 -0.35340477329E+02  0.67601867181E+02  0.47000000000E+01 0.  1.
<mgrwt>
<rscale>  0 0.10568877E+03</rscale>
<asrwt>0</asrwt>
<pdfrwt beam="1">  1        2 0.19043228E-01 0.10577642E+03</pdfrwt>
<pdfrwt beam="2">  1       -2 0.15174296E-01 0.10577642E+03</pdfrwt>
<totfact> 0.91072675E+03</totfact>
</mgrwt>
</event>
<event>
 8    1  0.3177960E-004  0.1943336E+03  0.7546771E-02  0.1154635E+00
          2   -1    0    0  501    0  0.00000000000E+00  0.00000000000E+00  0.14935930506E+04  0.14935930506E+04  0.00000000000E+00 0. -1.
         -2   -1    0    0    0  501 -0.00000000000E+00 -0.00000000000E+00 -0.26476351247E+02  0.26476351247E+02  0.00000000000E+00 0.  1.
         23    2    1    2    0    0  0.25140347161E+02 -0.16903140366E+03  0.57114048858E+03  0.60326030212E+03  0.92292372082E+02 0.  0.
         23    2    1    2    0    0 -0.25140347161E+02  0.16903140366E+03  0.89597621077E+03  0.91680909972E+03  0.92530549491E+02 0.  0.
          5    1    4    4  502    0 -0.29497828422E+02  0.93458007385E+02  0.69692908910E+03  0.70380165264E+03  0.47000000000E+01 0. -1.
         -5    1    3    3    0  503 -0.29737396382E+01 -0.15544267788E+03  0.52338805903E+03  0.54601137312E+03  0.47000000000E+01 0.  1.
          5    1    3    3  503    0  0.28114086799E+02 -0.13588725776E+02  0.47752429547E+02  0.57248929007E+02  0.47000000000E+01 0. -1.
         -5    1    4    4    0  502  0.43574812616E+01  0.75573396271E+02  0.19904712168E+03  0.21300744709E+03  0.47000000000E+01 0.  1.
<mgrwt>
<rscale>  0 0.19430529E+03</rscale>
<asrwt>0</asrwt>
<pdfrwt beam="1">  1        2 0.22978348E+00 0.19433362E+03</pdfrwt>
<pdfrwt beam="2">  1       -2 0.40732860E-02 0.19433362E+03</pdfrwt>
<totfact> 0.36649174E+03</totfact>
</mgrwt>
</event>
<event>
 8    1  0.3177960E-004  0.1089369E+03  0.7546771E-02  0.1262794E+00
         -1   -1    0    0    0  501 -0.00000000000E+00  0.00000000000E+00  0.68629219672E+02  0.68629219672E+02  0.00000000000E+00 0.  1.
          1   -1    0    0  501    0  0.00000000000E+00 -0.00000000000E+00 -0.34064420141E+03  0.34064420141E+03  0.00000000000E+00 0. -1.
         23    2    1    2    0    0  0.51260163821E+02  0.29325111647E+02 -0.28011299659E+03  0.30055039787E+03  0.91540615212E+02 0.  0.
         23    2    1    2    0    0 -0.51260163821E+02 -0.29325111647E+02  0.80980148489E+01  0.10872302321E+03  0.90926076371E+02 0.  0.
          5    1    3    3  502    0  0.72972304559E+02  0.34691360561E+02 -0.24982015419E+03  0.26260359321E+03  0.47000000000E+01 0. -1.
         -5    1    4    4    0  503 -0.62356038635E+02  0.13276085054E+02  0.81982815201E+01  0.64450227373E+02  0.47000000000E+01 0.  1.
          5    1    4    4  503    0  0.11095874813E+02 -0.42601196700E+02 -0.10026667117E+00  0.44272795841E+02  0.47000000000E+01 0. -1.
         -5    1    3    3    0  502 -0.21712140738E+02 -0.53662489139E+01 -0.30292842401E+02  0.37946804656E+02  0.47000000000E+01 0.  1.
<mgrwt>
<rscale>  0 0.10880771E+03</rscale>
<asrwt>0</asrwt>
<pdfrwt beam="1">  1        1 0.52406800E-01 0.10893691E+03</pdfrwt>
<pdfrwt beam="2">  1       -1 0.10558342E-01 0.10893691E+03</pdfrwt>
<totfact> 0.39772076E+03</totfact>
</mgrwt>
</event>
<event>
 8    1  0.3177960E-004  0.9835632E+02  0.7546771E-02  0.1288334E+00
          2   -1    0    0  501    0  0.00000000000E+00  0.00000000000E+00  0.30724453756E+03  0.30724453756E+03  0.00000000000E+00 0. -1.
         -2   -1    0    0    0  501 -0.00000000000E+00 -0.00000000000E+00 -0.52556815613E+02  0.52556815613E+02  0.00000000000E+00 0.  1.
         23    2    1    2    0    0  0.20252896202E+02  0.26394437673E+02  0.24483681707E+03  0.26095295602E+03  0.83931711055E+02 0.  0.
         23    2    1    2    0    0 -0.20252896202E+02 -0.26394437673E+02  0.98509048800E+01  0.98848397151E+02  0.92558733503E+02 0.  0.
          5    1    3    3  502    0 -0.12854644859E+02  0.46789078590E+02  0.16458287378E+03  0.17165101838E+03  0.47000000000E+01 0. -1.
         -5    1    4    4    0  503  0.23714164246E+01 -0.31055830841E+02 -0.35669374703E+02  0.47586579377E+02  0.47000000000E+01 0.  1.
          5    1    4    4  503    0 -0.22624312627E+02  0.46613931683E+01  0.45520279583E+02  0.51261817774E+02  0.47000000000E+01 0. -1.
         -5    1    3    3    0  502  0.33107541061E+02 -0.20394640917E+02  0.80253943292E+02  0.89301937645E+02  0.47000000000E+01 0.  1.
<mgrwt>
<rscale>  0 0.96273238E+02</rscale>
<asrwt>0</asrwt>
<pdfrwt beam="1">  1        2 0.47268389E-01 0.98356318E+02</pdfrwt>
<pdfrwt beam="2">  1       -2 0.80856641E-02 0.98356318E+02</pdfrwt>
<totfact> 0.91560966E+03</totfact>
</mgrwt>
</event>
<event>
 8    1  0.3177960E-004  0.1014421E+03  0.7546771E-02  0.1283517E+00
          2   -1    0    0  501    0  0.00000000000E+00  0.00000000000E+00  0.62880909319E+03  0.62880909319E+03  0.00000000000E+00 0. -1.
         -2   -1    0    0    0  501 -0.00000000000E+00 -0.00000000000E+00 -0.14595605376E+02  0.14595605376E+02  0.00000000000E+00 0.  1.
         23    2    1    2    0    0  0.29006910574E+01  0.16528724466E+02  0.29577999906E+03  0.30920358122E+03  0.88540578570E+02 0.  0.
         23    2    1    2    0    0 -0.29006910574E+01 -0.16528724466E+02  0.31843348875E+03  0.33420111734E+03  0.10004442680E+03 0.  0.
          5    1    4    4  502    0 -0.48422146022E+02 -0.12306091501E+02  0.11222971221E+03  0.12293796166E+03  0.47000000000E+01 0. -1.
         -5    1    4    4    0  502  0.45521454965E+02 -0.42226329646E+01  0.20620377654E+03  0.21126315569E+03  0.47000000000E+01 0.  1.
          5    1    3    3  503    0 -0.14145744746E+02 -0.24241462971E+02  0.21612634189E+03  0.21799182618E+03  0.47000000000E+01 0. -1.
         -5    1    3    3    0  503  0.17046435804E+02  0.40770187437E+02  0.79653657174E+02  0.91211755045E+02  0.47000000000E+01 0.  1.
<mgrwt>
<rscale>  0 0.98483887E+02</rscale>
<asrwt>0</asrwt>
<pdfrwt beam="1">  1        2 0.96739839E-01 0.10144210E+03</pdfrwt>
<pdfrwt beam="2">  1       -2 0.22454782E-02 0.10144210E+03</pdfrwt>
<totfact> 0.28379936E+04</totfact>
</mgrwt>
</event>
<event>
 8    1  0.3177960E-004  0.1092732E+03  0.7546771E-02  0.1262733E+00
          1   -1    0    0  501    0  0.00000000000E+00  0.00000000000E+00  0.62721716496E+03  0.62721716496E+03  0.00000000000E+00 0. -1.
         -1   -1    0    0    0  501 -0.00000000000E+00 -0.00000000000E+00 -0.18739209098E+02  0.18739209098E+02  0.00000000000E+00 0.  1.
         23    2    1    2    0    0  0.54323541055E+02  0.28402997891E+02  0.30850851843E+03  0.32728906195E+03  0.90459088664E+02 0.  0.
         23    2    1    2    0    0 -0.54323541055E+02 -0.28402997891E+02  0.29996943743E+03  0.31866731211E+03  0.88370894616E+02 0.  0.
          5    1    3    3  502    0  0.79376924920E+02  0.17173447553E+02  0.22463403189E+03  0.23891036351E+03  0.47000000000E+01 0. -1.
         -5    1    4    4    0  503 -0.20401466275E+02  0.11421053895E+02  0.13462968688E+02  0.27386161179E+02  0.47000000000E+01 0.  1.
          5    1    4    4  503    0 -0.33922074780E+02 -0.39824051787E+02  0.28650646874E+03  0.29128115093E+03  0.47000000000E+01 0. -1.
         -5    1    3    3    0  502 -0.25053383866E+02  0.11229550338E+02  0.83874486546E+02  0.88378698436E+02  0.47000000000E+01 0.  1.
<mgrwt>
<rscale>  0 0.10884002E+03</rscale>
<asrwt>0</asrwt>
<pdfrwt beam="1">  1        1 0.96494932E-01 0.10927316E+03</pdfrwt>
<pdfrwt beam="2">  1       -1 0.28829557E-02 0.10927316E+03</pdfrwt>
<totfact> 0.12383779E+04</totfact>
</mgrwt>
</event>
<event>
 8    1  0.3177960E-004  0.1042116E+03  0.7546771E-02  0.1272694E+00
          1   -1    0    0  501    0  0.00000000000E+00  0.00000000000E+00  0.21546712992E+03  0.21546712992E+03  0.00000000000E+00 0. -1.
         -1   -1    0    0    0  501 -0.00000000000E+00 -0.00000000000E+00 -0.49748267095E+02  0.49748267095E+02  0.00000000000E+00 0.  1.
         23    2    1    2    0    0 -0.46047895837E+02  0.18089888772E+02  0.92613177475E+02  0.13791847642E+03  0.89424005218E+02 0.  0.
         23    2    1    2    0    0  0.46047895837E+02 -0.18089888772E+02  0.73105685346E+02  0.12729692059E+03  0.91719201782E+02 0.  0.
          5    1    3    3  502    0 -0.63738724073E+02  0.74628630066E+01  0.96904224522E+02  0.11632213032E+03  0.47000000000E+01 0. -1.
         -5    1    4    4    0  503 -0.26726303630E+02 -0.15303838208E+02  0.19634371774E+02  0.36825281052E+02  0.47000000000E+01 0.  1.
          5    1    4    4  503    0  0.72774199467E+02 -0.27860505638E+01  0.53471313573E+02  0.90471639540E+02  0.47000000000E+01 0. -1.
         -5    1    3    3    0  502  0.17690828236E+02  0.10627025766E+02 -0.42910470473E+01  0.21596346105E+02  0.47000000000E+01 0.  1.
<mgrwt>
<rscale>  0 0.10370438E+03</rscale>
<asrwt>0</asrwt>
<pdfrwt beam="1">  1        1 0.33148789E-01 0.10421163E+03</pdfrwt>
<pdfrwt beam="2">  1       -1 0.76535797E-02 0.10421163E+03</pdfrwt>
<totfact> 0.11303566E+04</totfact>
</mgrwt>
</event>
<event>
 8    1  0.3177960E-004  0.1252181E+03  0.7546771E-02  0.1235368E+00
          2   -1    0    0  501    0  0.00000000000E+00  0.00000000000E+00  0.23827823093E+03  0.23827823093E+03  0.00000000000E+00 0. -1.
         -2   -1    0    0    0  501 -0.00000000000E+00 -0.00000000000E+00 -0.65002197624E+02  0.65002197624E+02  0.00000000000E+00 0.  1.
         23    2    1    2    0    0 -0.82789613643E+02  0.19717685415E+02  0.82924238981E+02  0.15018652845E+03  0.91851274736E+02 0.  0.
         23    2    1    2    0    0  0.82789613643E+02 -0.19717685415E+02  0.90351794324E+02  0.15309390011E+03  0.89618013071E+02 0.  0.
          5    1    3    3  502    0 -0.19061795127E+02 -0.15260853736E+02  0.72438647502E+02  0.76587814580E+02  0.47000000000E+01 0. -1.
         -5    1    4    4    0  503  0.16823263375E+02 -0.48367057339E+02  0.40549281319E+02  0.65488385548E+02  0.47000000000E+01 0.  1.
          5    1    4    4  503    0  0.65966350268E+02  0.28649371924E+02  0.49802513005E+02  0.87605514558E+02  0.47000000000E+01 0. -1.
         -5    1    3    3    0  502 -0.63727818516E+02  0.34978539151E+02  0.10485591478E+02  0.73598713865E+02  0.47000000000E+01 0.  1.
<mgrwt>
<rscale>  0 0.12480885E+03</rscale>
<asrwt>0</asrwt>
<pdfrwt beam="1">  1        2 0.36658189E-01 0.12521807E+03</pdfrwt>
<pdfrwt beam="2">  1       -2 0.10000338E-01 0.12521807E+03</pdfrwt>
<totfact> 0.87763672E+03</totfact>
</mgrwt>
</event>
<event>
 8    1  0.3177960E-004  0.1205795E+03  0.7546771E-02  0.1243059E+00
          2   -1    0    0  501    0  0.00000000000E+00  0.00000000000E+00  0.33122100520E+03  0.33122100520E+03  0.00000000000E+00 0. -1.
         -2   -1    0    0    0  501 -0.00000000000E+00 -0.00000000000E+00 -0.45353262156E+02  0.45353262156E+02  0.00000000000E+00 0.  1.
         23    2    1    2    0    0  0.24406915224E+02 -0.71078599908E+02  0.18368570660E+03  0.21852180058E+03  0.91452029185E+02 0.  0.
         23    2    1    2    0    0 -0.24406915224E+02  0.71078599908E+02  0.10218203644E+03  0.15805246678E+03  0.94295009451E+02 0.  0.
          5    1    4    4  502    0  0.12715347847E+02  0.31195807788E+02  0.97385210665E+02  0.10315438794E+03  0.47000000000E+01 0. -1.
         -5    1    3    3    0  503  0.37269046872E+02 -0.38330154428E+02  0.17347368170E+03  0.18158576716E+03  0.47000000000E+01 0.  1.
          5    1    3    3  503    0 -0.12862131648E+02 -0.32748445480E+02  0.10212024902E+02  0.36936033416E+02  0.47000000000E+01 0. -1.
         -5    1    4    4    0  502 -0.37122263071E+02  0.39882792120E+02  0.47968257769E+01  0.54898078840E+02  0.47000000000E+01 0.  1.
<mgrwt>
<rscale>  0 0.12002315E+03</rscale>
<asrwt>0</asrwt>
<pdfrwt beam="1">  1        2 0.50957076E-01 0.12057949E+03</pdfrwt>
<pdfrwt beam="2">  1       -2 0.69774251E-02 0.12057949E+03</pdfrwt>
<totfact> 0.10773144E+04</totfact>
</mgrwt>
</event>
<event>
 8    1  0.3177960E-004  0.1402667E+03  0.7546771E-02  0.1213373E+00
          1   -1    0    0  501    0  0.00000000000E+00  0.00000000000E+00  0.32455848301E+02  0.32455848301E+02  0.00000000000E+00 0. -1.
         -1   -1    0    0    0  501 -0.00000000000E+00 -0.00000000000E+00 -0.79805353594E+03  0.79805353594E+03  0.00000000000E+00 0.  1.
         23    2    1    2    0    0 -0.10427912169E+03 -0.88142744733E+01 -0.58788262880E+03  0.60410843438E+03  0.91592513820E+02 0.  0.
         23    2    1    2    0    0  0.10427912169E+03  0.88142744733E+01 -0.17771505884E+03  0.22640094986E+03  0.93396580808E+02 0.  0.
          5    1    3    3  502    0 -0.40138411516E+02  0.16285153406E+02 -0.76099434654E+02  0.87689864038E+02  0.47000000000E+01 0. -1.
         -5    1    3    3    0  502 -0.64140710170E+02 -0.25099427880E+02 -0.51178319414E+03  0.51641857034E+03  0.47000000000E+01 0.  1.
          5    1    4    4  503    0  0.98467737349E+02 -0.11435254519E+02 -0.83351654692E+02  0.12960034215E+03  0.47000000000E+01 0. -1.
         -5    1    4    4    0  503  0.58113843372E+01  0.20249528992E+02 -0.94363404144E+02  0.96800607714E+02  0.47000000000E+01 0.  1.
<mgrwt>
<rscale>  0 0.13996706E+03</rscale>
<asrwt>0</asrwt>
<pdfrwt beam="1">  1        1 0.49932079E-02 0.14026670E+03</pdfrwt>
<pdfrwt beam="2">  1       -1 0.12277745E+00 0.14026670E+03</pdfrwt>
<totfact> 0.10266763E+03</totfact>
</mgrwt>
</event>
<event>
 8    1  0.3177960E-004  0.9762752E+02  0.7546771E-02  0.1286812E+00
          1   -1    0    0  501    0  0.00000000000E+00  0.00000000000E+00  0.31944662931E+03  0.31944662931E+03  0.00000000000E+00 0. -1.
         -1   -1    0    0    0  501 -0.00000000000E+00 -0.00000000000E+00 -0.55935771059E+02  0.55935771059E+02  0.00000000000E+00 0.  1.
         23    2    1    2    0    0 -0.11426230857E+02 -0.26377580531E+02  0.67874794295E+00  0.95004351523E+02  0.90548498625E+02 0.  0.
         23    2    1    2    0    0  0.11426230857E+02  0.26377580531E+02  0.26283211031E+03  0.28037804885E+03  0.93299499248E+02 0.  0.
          5    1    3    3  502    0  0.92394045028E+01 -0.56541631022E+02  0.58395487014E+01  0.57779866418E+02  0.47000000000E+01 0. -1.
         -5    1    3    3    0  502 -0.20665635360E+02  0.30164050491E+02 -0.51608007585E+01  0.37224485105E+02  0.47000000000E+01 0.  1.
          5    1    4    4  503    0  0.51603766094E+02  0.89056194355E+01  0.16256762846E+03  0.17085836988E+03  0.47000000000E+01 0. -1.
         -5    1    4    4    0  503 -0.40177535237E+02  0.17471961096E+02  0.10026448184E+03  0.10951967897E+03  0.47000000000E+01 0.  1.
<mgrwt>
<rscale>  0 0.96964394E+02</rscale>
<asrwt>0</asrwt>
<pdfrwt beam="1">  1        1 0.49145634E-01 0.97627517E+02</pdfrwt>
<pdfrwt beam="2">  1       -1 0.86055034E-02 0.97627517E+02</pdfrwt>
<totfact> 0.58232813E+03</totfact>
</mgrwt>
</event>
<event>
 8    1  0.3177960E-004  0.9444774E+02  0.7546771E-02  0.1292601E+00
          1   -1    0    0  501    0  0.00000000000E+00  0.00000000000E+00  0.24877240079E+03  0.24877240079E+03  0.00000000000E+00 0. -1.
         -1   -1    0    0    0  501 -0.00000000000E+00 -0.00000000000E+00 -0.37679732816E+02  0.37679732816E+02  0.00000000000E+00 0.  1.
         23    2    1    2    0    0 -0.12579859071E+02 -0.17882338234E+02  0.13787809161E+03  0.16695004609E+03  0.91563742108E+02 0.  0.
         23    2    1    2    0    0  0.12579859071E+02  0.17882338234E+02  0.73214576366E+02  0.11950208752E+03  0.91882228170E+02 0.  0.
          5    1    3    3  502    0  0.13650866471E+02 -0.43838733714E+02  0.11336173869E+03  0.12239752664E+03  0.47000000000E+01 0. -1.
         -5    1    4    4    0  503 -0.36408192623E+02 -0.19109043665E+01  0.12378357129E+02  0.38788165344E+02  0.47000000000E+01 0.  1.
          5    1    4    4  503    0  0.48988051694E+02  0.19793242601E+02  0.60836219237E+02  0.80713922172E+02  0.47000000000E+01 0. -1.
         -5    1    3    3    0  502 -0.26230725542E+02  0.25956395479E+02  0.24516352916E+02  0.44552519446E+02  0.47000000000E+01 0.  1.
<mgrwt>
<rscale>  0 0.94370188E+02</rscale>
<asrwt>0</asrwt>
<pdfrwt beam="1">  1        1 0.38272676E-01 0.94447735E+02</pdfrwt>
<pdfrwt beam="2">  1       -1 0.57968821E-02 0.94447735E+02</pdfrwt>
<totfact> 0.14183477E+04</totfact>
</mgrwt>
</event>
<event>
 8    1  0.3177960E-004  0.1002522E+03  0.7546771E-02  0.1282383E+00
         -2   -1    0    0    0  501 -0.00000000000E+00  0.00000000000E+00  0.32199403673E+02  0.32199403673E+02  0.00000000000E+00 0.  1.
          2   -1    0    0  501    0  0.00000000000E+00 -0.00000000000E+00 -0.29941405789E+03  0.29941405789E+03  0.00000000000E+00 0. -1.
         23    2    1    2    0    0  0.35481918016E+02  0.18831149213E+02 -0.14463507581E+03  0.17325864909E+03  0.86519799143E+02 0.  0.
         23    2    1    2    0    0 -0.35481918016E+02 -0.18831149213E+02 -0.12257957841E+03  0.15835481247E+03  0.91852680440E+02 0.  0.
          5    1    3    3  502    0  0.63914303258E+02  0.85276241482E+01 -0.10237267115E+03  0.12107853787E+03  0.47000000000E+01 0. -1.
         -5    1    3    3    0  502 -0.28432385243E+02  0.10303525065E+02 -0.42262404656E+02  0.52180111218E+02  0.47000000000E+01 0.  1.
          5    1    4    4  503    0  0.30912598949E+02 -0.92629822768E+01 -0.33600385433E+02  0.46823792197E+02  0.47000000000E+01 0. -1.
         -5    1    4    4    0  503 -0.66394516964E+02 -0.95681669360E+01 -0.88979192977E+02  0.11153102028E+03  0.47000000000E+01 0.  1.
<mgrwt>
<rscale>  0 0.99013861E+02</rscale>
<asrwt>0</asrwt>
<pdfrwt beam="1">  1        2 0.46063703E-01 0.10025215E+03</pdfrwt>
<pdfrwt beam="2">  1       -2 0.49537542E-02 0.10025215E+03</pdfrwt>
<totfact> 0.19741576E+04</totfact>
</mgrwt>
</event>
<event>
 8    1  0.3177960E-004  0.1128070E+03  0.7546771E-02  0.1257442E+00
          4   -1    0    0  501    0  0.00000000000E+00  0.00000000000E+00  0.16556921596E+03  0.16556921596E+03  0.00000000000E+00 0. -1.
         -4   -1    0    0    0  501 -0.00000000000E+00 -0.00000000000E+00 -0.83884203995E+02  0.83884203995E+02  0.00000000000E+00 0.  1.
         23    2    1    2    0    0 -0.10056679491E+02 -0.51025853965E+02  0.83091843915E+02  0.13663767072E+03  0.95188360422E+02 0.  0.
         23    2    1    2    0    0  0.10056679491E+02  0.51025853965E+02 -0.14068319551E+01  0.11281574923E+03  0.10010314442E+03 0.  0.
          5    1    4    4  502    0 -0.25921197239E+02  0.39677499101E+02  0.35830815257E+02  0.59599913785E+02  0.47000000000E+01 0. -1.
         -5    1    4    4    0  502  0.35977876730E+02  0.11348354864E+02 -0.37237647212E+02  0.53215835444E+02  0.47000000000E+01 0.  1.
          5    1    3    3  503    0 -0.31603500210E+02  0.11361216236E+02  0.49939680119E+01  0.34276641848E+02  0.47000000000E+01 0. -1.
         -5    1    3    3    0  503  0.21546820719E+02 -0.62387070202E+02  0.78097875903E+02  0.10236102887E+03  0.47000000000E+01 0.  1.
<mgrwt>
<rscale>  0 0.11170657E+03</rscale>
<asrwt>0</asrwt>
<pdfrwt beam="1">  1        4 0.25472187E-01 0.11280698E+03</pdfrwt>
<pdfrwt beam="2">  1       -4 0.12905262E-01 0.11280698E+03</pdfrwt>
<totfact> 0.11227129E+03</totfact>
</mgrwt>
</event>
<event>
 8    1  0.3177960E-004  0.9500105E+02  0.7546771E-02  0.1291342E+00
          1   -1    0    0  501    0  0.00000000000E+00  0.00000000000E+00  0.11195147229E+03  0.11195147229E+03  0.00000000000E+00 0. -1.
         -1   -1    0    0    0  501 -0.00000000000E+00 -0.00000000000E+00 -0.85557582708E+02  0.85557582708E+02  0.00000000000E+00 0.  1.
         23    2    1    2    0    0 -0.29129060654E+01  0.18570028007E+02  0.37547699666E+02  0.10215199502E+03  0.93122872456E+02 0.  0.
         23    2    1    2    0    0  0.29129060654E+01 -0.18570028007E+02 -0.11153810086E+02  0.95357059976E+02  0.92818265691E+02 0.  0.
          5    1    3    3  502    0  0.24943839486E+02 -0.28446230718E+02  0.25866403340E+02  0.46071075439E+02  0.47000000000E+01 0. -1.
         -5    1    4    4    0  503  0.37258732679E+02 -0.83353182851E+01  0.23669006165E+02  0.45166387332E+02  0.47000000000E+01 0.  1.
          5    1    4    4  503    0 -0.34345826613E+02 -0.10234709722E+02 -0.34822816251E+02  0.50190672644E+02  0.47000000000E+01 0. -1.
         -5    1    3    3    0  502 -0.27856745551E+02  0.47016258725E+02  0.11681296326E+02  0.56080919581E+02  0.47000000000E+01 0.  1.
<mgrwt>
<rscale>  0 0.94926325E+02</rscale>
<asrwt>0</asrwt>
<pdfrwt beam="1">  1        1 0.17223303E-01 0.95001054E+02</pdfrwt>
<pdfrwt beam="2">  1       -1 0.13162705E-01 0.95001054E+02</pdfrwt>
<totfact> 0.11154716E+04</totfact>
</mgrwt>
</event>
<event>
 8    1  0.3177960E-004  0.1118638E+03  0.7546771E-02  0.1257521E+00
         -1   -1    0    0    0  501 -0.00000000000E+00  0.00000000000E+00  0.62831441003E+02  0.62831441003E+02  0.00000000000E+00 0.  1.
          1   -1    0    0  501    0  0.00000000000E+00 -0.00000000000E+00 -0.20280953858E+03  0.20280953858E+03  0.00000000000E+00 0. -1.
         23    2    1    2    0    0 -0.15888400278E+02 -0.62380287561E+02 -0.48737159894E+02  0.12128581819E+03  0.90505234102E+02 0.  0.
         23    2    1    2    0    0  0.15888400278E+02  0.62380287561E+02 -0.91240937679E+02  0.14435516139E+03  0.91486405393E+02 0.  0.
          5    1    3    3  502    0  0.30259051305E+02  0.29667856744E+01 -0.16472020083E+02  0.34897413209E+02  0.47000000000E+01 0. -1.
         -5    1    4    4    0  503 -0.19466524776E+02  0.31757881154E+02  0.43846624344E+01  0.37799786599E+02  0.47000000000E+01 0.  1.
          5    1    4    4  503    0  0.35354925054E+02  0.30622406407E+02 -0.95625600114E+02  0.10655537479E+03  0.47000000000E+01 0. -1.
         -5    1    3    3    0  502 -0.46147451583E+02 -0.65347073236E+02 -0.32265139811E+02  0.86388404980E+02  0.47000000000E+01 0.  1.
<mgrwt>
<rscale>  0 0.11166298E+03</rscale>
<asrwt>0</asrwt>
<pdfrwt beam="1">  1        1 0.31201467E-01 0.11186377E+03</pdfrwt>
<pdfrwt beam="2">  1       -1 0.96663757E-02 0.11186377E+03</pdfrwt>
<totfact> 0.86221801E+03</totfact>
</mgrwt>
</event>
<event>
 8    1  0.3177960E-004  0.9269249E+02  0.7546771E-02  0.1296486E+00
          1   -1    0    0  501    0  0.00000000000E+00  0.00000000000E+00  0.22550560186E+03  0.22550560186E+03  0.00000000000E+00 0. -1.
         -1   -1    0    0    0  501 -0.00000000000E+00 -0.00000000000E+00 -0.65730245751E+02  0.65730245751E+02  0.00000000000E+00 0.  1.
         23    2    1    2    0    0  0.59244772036E+00  0.14631071093E+02  0.17431883574E+03  0.19740935137E+03  0.91482109065E+02 0.  0.
         23    2    1    2    0    0 -0.59244772036E+00 -0.14631071093E+02 -0.14543479633E+02  0.93826496239E+02  0.91528571282E+02 0.  0.
          5    1    4    4  502    0  0.38989049997E+02 -0.75904439665E+01  0.16040352866E+02  0.43094591068E+02  0.47000000000E+01 0.  1.
         -5    1    4    4    0  502 -0.39581497717E+02 -0.70406271267E+01 -0.30583832499E+02  0.50731905170E+02  0.47000000000E+01 0. -1.
          5    1    3    3  503    0  0.74648401847E+01  0.35624021532E+02  0.17062287190E+03  0.17452521068E+03  0.47000000000E+01 0. -1.
         -5    1    3    3    0  503 -0.68723924643E+01 -0.20992950439E+02  0.36959638433E+01  0.22884140688E+02  0.47000000000E+01 0.  1.
<mgrwt>
<rscale>  0 0.92681023E+02</rscale>
<asrwt>0</asrwt>
<pdfrwt beam="1">  1        1 0.34693169E-01 0.92692495E+02</pdfrwt>
<pdfrwt beam="2">  1       -1 0.10112346E-01 0.92692495E+02</pdfrwt>
<totfact> 0.69646708E+03</totfact>
</mgrwt>
</event>
<event>
 8    1  0.3177960E-004  0.9444483E+02  0.7546771E-02  0.1293153E+00
          3   -1    0    0  501    0  0.00000000000E+00  0.00000000000E+00  0.47588926994E+02  0.47588926994E+02  0.00000000000E+00 0. -1.
         -3   -1    0    0    0  501 -0.00000000000E+00 -0.00000000000E+00 -0.18532662140E+03  0.18532662140E+03  0.00000000000E+00 0.  1.
         23    2    1    2    0    0 -0.22116365156E+02  0.38840239819E+01 -0.73744392644E+02  0.11883238272E+03  0.90436057442E+02 0.  0.
         23    2    1    2    0    0  0.22116365156E+02 -0.38840239819E+01 -0.63993301766E+02  0.11408316568E+03  0.91736616303E+02 0.  0.
          5    1    4    4  502    0 -0.26964246380E+01  0.39027265271E+02 -0.10029376549E+02  0.40658043906E+02  0.47000000000E+01 0. -1.
         -5    1    4    4    0  502  0.24812789794E+02 -0.42911289253E+02 -0.53963925217E+02  0.73425121774E+02  0.47000000000E+01 0.  1.
          5    1    3    3  503    0  0.29443304139E+02 -0.79386985566E+01 -0.39135502408E+01  0.31102041233E+02  0.47000000000E+01 0. -1.
         -5    1    3    3    0  503 -0.51559669295E+02  0.11822722538E+02 -0.69830842403E+02  0.87730341483E+02  0.47000000000E+01 0.  1.
<mgrwt>
<rscale>  0 0.94127547E+02</rscale>
<asrwt>0</asrwt>
<pdfrwt beam="1">  1        3 0.73213737E-02 0.94444831E+02</pdfrwt>
<pdfrwt beam="2">  1       -3 0.28511787E-01 0.94444831E+02</pdfrwt>
<totfact> 0.30934520E+03</totfact>
</mgrwt>
</event>
<event>
 8    1  0.3177960E-004  0.1494926E+03  0.7546771E-02  0.1204219E+00
          4   -1    0    0  501    0  0.00000000000E+00  0.00000000000E+00  0.21601641622E+03  0.21601641622E+03  0.00000000000E+00 0.  1.
         -4   -1    0    0    0  501 -0.00000000000E+00 -0.00000000000E+00 -0.13547919763E+03  0.13547919763E+03  0.00000000000E+00 0. -1.
         23    2    1    2    0    0  0.49914606255E+02  0.96184067980E+02  0.13314729226E+03  0.19301577218E+03  0.88227229501E+02 0.  0.
         23    2    1    2    0    0 -0.49914606255E+02 -0.96184067980E+02 -0.52610073671E+02  0.15847984167E+03  0.10298153967E+03 0.  0.
          5    1    4    4  502    0 -0.61743539223E+02 -0.21283003621E+02 -0.50130570651E+02  0.82464507473E+02  0.47000000000E+01 0. -1.
         -5    1    4    4    0  502  0.11828932968E+02 -0.74901064359E+02 -0.24795030198E+01  0.76015334193E+02  0.47000000000E+01 0.  1.
          5    1    3    3  503    0  0.18515086133E+02  0.10010894191E+03  0.12238435593E+03  0.15926276791E+03  0.47000000000E+01 0. -1.
         -5    1    3    3    0  503  0.31399520121E+02 -0.39248739331E+01  0.10762936328E+02  0.33753004276E+02  0.47000000000E+01 0.  1.
<mgrwt>
<rscale>  0 0.14699207E+03</rscale>
<asrwt>0</asrwt>
<pdfrwt beam="1">  1        4 0.33233295E-01 0.14949261E+03</pdfrwt>
<pdfrwt beam="2">  1       -4 0.20842953E-01 0.14949261E+03</pdfrwt>
<totfact> 0.30982303E+02</totfact>
</mgrwt>
</event>
<event>
 8    1  0.3177960E-004  0.9204961E+02  0.7546771E-02  0.1298482E+00
          2   -1    0    0  501    0  0.00000000000E+00  0.00000000000E+00  0.45236386357E+03  0.45236386357E+03  0.00000000000E+00 0. -1.
         -2   -1    0    0    0  501 -0.00000000000E+00 -0.00000000000E+00 -0.56645550956E+02  0.56645550956E+02  0.00000000000E+00 0.  1.
         23    2    1    2    0    0  0.14524114366E+02 -0.70527065471E+01 -0.11158294378E+02  0.91850326265E+02  0.89728949252E+02 0.  0.
         23    2    1    2    0    0 -0.14524114366E+02  0.70527065471E+01  0.40687660699E+03  0.41715908826E+03  0.90622519454E+02 0.  0.
          5    1    4    4  502    0 -0.44519024483E+02 -0.31489317693E+01  0.34065747081E+03  0.34360073010E+03  0.47000000000E+01 0. -1.
         -5    1    4    4    0  502  0.29994910116E+02  0.10201638316E+02  0.66219136184E+02  0.73558358153E+02  0.47000000000E+01 0.  1.
          5    1    3    3  503    0 -0.21522051702E+02  0.66550745618E+01  0.28300515504E+02  0.36475990798E+02  0.47000000000E+01 0. -1.
         -5    1    3    3    0  503  0.36046166068E+02 -0.13707781109E+02 -0.39458809882E+02  0.55374335468E+02  0.47000000000E+01 0.  1.
<mgrwt>
<rscale>  0 0.91828927E+02</rscale>
<asrwt>0</asrwt>
<pdfrwt beam="1">  1        2 0.69594438E-01 0.92049615E+02</pdfrwt>
<pdfrwt beam="2">  1       -2 0.87147004E-02 0.92049615E+02</pdfrwt>
<totfact> 0.54048643E+03</totfact>
</mgrwt>
</event>
<event>
 8    1  0.3177960E-004  0.9210962E+02  0.7546771E-02  0.1301369E+00
          1   -1    0    0  501    0  0.00000000000E+00  0.00000000000E+00  0.64398070985E+03  0.64398070985E+03  0.00000000000E+00 0. -1.
         -1   -1    0    0    0  501 -0.00000000000E+00 -0.00000000000E+00 -0.16045129095E+02  0.16045129095E+02  0.00000000000E+00 0.  1.
         23    2    1    2    0    0 -0.88184321737E+01 -0.11014264288E+02  0.48010788091E+03  0.48886374359E+03  0.91022545108E+02 0.  0.
         23    2    1    2    0    0  0.88184321737E+01  0.11014264288E+02  0.14782769985E+03  0.17116209536E+03  0.85113778451E+02 0.  0.
          5    1    3    3  502    0 -0.39875081299E+01 -0.45047449170E+02  0.38405785644E+03  0.38673983502E+03  0.47000000000E+01 0. -1.
         -5    1    4    4    0  503  0.44736187269E+01  0.39674562908E+02  0.31183720965E+02  0.50878272963E+02  0.47000000000E+01 0.  1.
          5    1    4    4  503    0  0.43448134468E+01 -0.28660298621E+02  0.11664397888E+03  0.12028382240E+03  0.47000000000E+01 0. -1.
         -5    1    3    3    0  502 -0.48309240438E+01  0.34033184882E+02  0.96050024471E+02  0.10212390857E+03  0.47000000000E+01 0.  1.
<mgrwt>
<rscale>  0 0.90615068E+02</rscale>
<asrwt>0</asrwt>
<pdfrwt beam="1">  1        1 0.99073935E-01 0.92109622E+02</pdfrwt>
<pdfrwt beam="2">  1       -1 0.24684819E-02 0.92109622E+02</pdfrwt>
<totfact> 0.14725799E+04</totfact>
</mgrwt>
</event>
<event>
 8    1  0.3177960E-004  0.1214165E+03  0.7546771E-02  0.1246178E+00
         -4   -1    0    0    0  501 -0.00000000000E+00  0.00000000000E+00  0.24143982625E+03  0.24143982625E+03  0.00000000000E+00 0.  1.
          4   -1    0    0  501    0  0.00000000000E+00 -0.00000000000E+00 -0.14182015550E+03  0.14182015550E+03  0.00000000000E+00 0. -1.
         23    2    1    2    0    0 -0.21148624950E+02  0.67045978513E+02  0.19868335790E+03  0.22655778568E+03  0.83131979236E+02 0.  0.
         23    2    1    2    0    0  0.21148624950E+02 -0.67045978513E+02 -0.99063687159E+02  0.15670219607E+03  0.98992608653E+02 0.  0.
          5    1    3    3  502    0 -0.39603971508E+02  0.57100621435E+02  0.80549020306E+02  0.10648563377E+03  0.47000000000E+01 0. -1.
         -5    1    3    3    0  502  0.18455346557E+02  0.99453570777E+01  0.11813433760E+03  0.12007215191E+03  0.47000000000E+01 0.  1.
          5    1    4    4  503    0 -0.26770481021E+02 -0.15997436416E+02 -0.76893559300E+02  0.83110084152E+02  0.47000000000E+01 0. -1.
         -5    1    4    4    0  503  0.47919105972E+02 -0.51048542097E+02 -0.22170127859E+02  0.73592111918E+02  0.47000000000E+01 0.  1.
<mgrwt>
<rscale>  0 0.11815127E+03</rscale>
<asrwt>0</asrwt>
<pdfrwt beam="1">  1        4 0.21818486E-01 0.12141649E+03</pdfrwt>
<pdfrwt beam="2">  1       -4 0.37144589E-01 0.12141649E+03</pdfrwt>
<totfact> 0.22150833E+02</totfact>
</mgrwt>
</event>
<event>
 8    1  0.3177960E-004  0.1041686E+03  0.7546771E-02  0.1272209E+00
         -2   -1    0    0    0  501 -0.00000000000E+00  0.00000000000E+00  0.15625311128E+03  0.15625311128E+03  0.00000000000E+00 0.  1.
          2   -1    0    0  501    0  0.00000000000E+00 -0.00000000000E+00 -0.71187602178E+02  0.71187602178E+02  0.00000000000E+00 0. -1.
         23    2    1    2    0    0 -0.39464178371E+02  0.25216799585E+02  0.21777800127E+02  0.10555379175E+03  0.92054451383E+02 0.  0.
         23    2    1    2    0    0  0.39464178371E+02 -0.25216799585E+02  0.63287708978E+02  0.12188692171E+03  0.93047188135E+02 0.  0.
          5    1    3    3  502    0 -0.64773376963E+02  0.18065438093E+02 -0.51692006728E+01  0.67607403828E+02  0.47000000000E+01 0. -1.
         -5    1    4    4    0  503  0.34036768156E+02  0.17775610423E+02  0.67806124569E+02  0.78065577827E+02  0.47000000000E+01 0.  1.
          5    1    4    4  503    0  0.54274102149E+01 -0.42992410008E+02 -0.45184155917E+01  0.43821343880E+02  0.47000000000E+01 0. -1.
         -5    1    3    3    0  502  0.25309198592E+02  0.71513614921E+01  0.26947000800E+02  0.37946387927E+02  0.47000000000E+01 0.  1.
<mgrwt>
<rscale>  0 0.10394640E+03</rscale>
<asrwt>0</asrwt>
<pdfrwt beam="1">  1        2 0.10951939E-01 0.10416855E+03</pdfrwt>
<pdfrwt beam="2">  1       -2 0.24038940E-01 0.10416855E+03</pdfrwt>
<totfact> 0.80334114E+03</totfact>
</mgrwt>
</event>
<event>
 8    1  0.3177960E-004  0.1059410E+03  0.7546771E-02  0.1270699E+00
          1   -1    0    0  501    0  0.00000000000E+00  0.00000000000E+00  0.41277835743E+03  0.41277835743E+03  0.00000000000E+00 0. -1.
         -1   -1    0    0    0  501 -0.00000000000E+00 -0.00000000000E+00 -0.29872957982E+02  0.29872957982E+02  0.00000000000E+00 0.  1.
         23    2    1    2    0    0 -0.16420680668E+02 -0.53560951818E+02  0.10745729342E+03  0.14753244279E+03  0.84144741097E+02 0.  0.
         23    2    1    2    0    0  0.16420680668E+02  0.53560951818E+02  0.27544810603E+03  0.29511887262E+03  0.89917048145E+02 0.  0.
          5    1    4    4  502    0 -0.16750172148E+02  0.33024529840E+02  0.23775719025E+03  0.24066939845E+03  0.47000000000E+01 0. -1.
         -5    1    4    4    0  502  0.33170852816E+02  0.20536421978E+02  0.37690915781E+02  0.54449474163E+02  0.47000000000E+01 0.  1.
          5    1    3    3  503    0 -0.29357096387E+02 -0.34393458547E+00  0.81479407855E+02  0.86734890925E+02  0.47000000000E+01 0. -1.
         -5    1    3    3    0  503  0.12936415719E+02 -0.53217017232E+02  0.25977885562E+02  0.60797551867E+02  0.47000000000E+01 0.  1.
<mgrwt>
<rscale>  0 0.10470627E+03</rscale>
<asrwt>0</asrwt>
<pdfrwt beam="1">  1        1 0.63504358E-01 0.10594097E+03</pdfrwt>
<pdfrwt beam="2">  1       -1 0.45958400E-02 0.10594097E+03</pdfrwt>
<totfact> 0.10803735E+04</totfact>
</mgrwt>
</event>
<event>
 8    1  0.3177960E-004  0.1698081E+03  0.7546771E-02  0.1178570E+00
         -2   -1    0    0    0  501 -0.00000000000E+00  0.00000000000E+00  0.14457989072E+03  0.14457989072E+03  0.00000000000E+00 0.  1.
          2   -1    0    0  501    0  0.00000000000E+00 -0.00000000000E+00 -0.20821951566E+03  0.20821951566E+03  0.00000000000E+00 0. -1.
         23    2    1    2    0    0 -0.38116495766E+02  0.13811233234E+03 -0.72386199870E+02  0.18276619990E+03  0.87383283869E+02 0.  0.
         23    2    1    2    0    0  0.38116495766E+02 -0.13811233234E+03  0.87465749333E+01  0.17003320648E+03  0.91142224787E+02 0.  0.
          5    1    4    4  502    0 -0.11327524632E+02 -0.10101879840E+03  0.27240587727E+02  0.10534348611E+03  0.47000000000E+01 0. -1.
         -5    1    4    4    0  502  0.49444020399E+02 -0.37093533939E+02 -0.18494012794E+02  0.64689720377E+02  0.47000000000E+01 0.  1.
          5    1    3    3  503    0 -0.27696181216E+02  0.75427930170E+01 -0.36885587489E+02  0.46974554228E+02  0.47000000000E+01 0. -1.
         -5    1    3    3    0  503 -0.10420314550E+02  0.13056953933E+03 -0.35500612381E+02  0.13579164567E+03  0.47000000000E+01 0.  1.
<mgrwt>
<rscale>  0 0.16930900E+03</rscale>
<asrwt>0</asrwt>
<pdfrwt beam="1">  1        2 0.32033772E-01 0.16980809E+03</pdfrwt>
<pdfrwt beam="2">  1       -2 0.22243060E-01 0.16980809E+03</pdfrwt>
<totfact> 0.27856835E+03</totfact>
</mgrwt>
</event>
<event>
 8    1  0.3177960E-004  0.9473901E+02  0.7546771E-02  0.1293018E+00
         -2   -1    0    0    0  501 -0.00000000000E+00  0.00000000000E+00  0.13795460218E+03  0.13795460218E+03  0.00000000000E+00 0.  1.
          2   -1    0    0  501    0  0.00000000000E+00 -0.00000000000E+00 -0.70337732275E+02  0.70337732275E+02  0.00000000000E+00 0. -1.
         23    2    1    2    0    0 -0.90761893290E+01 -0.19519998484E+02  0.11379797743E+01  0.92555899028E+02  0.90010509905E+02 0.  0.
         23    2    1    2    0    0  0.90761893290E+01  0.19519998484E+02  0.66478890128E+02  0.11573643542E+03  0.92260891490E+02 0.  0.
          5    1    3    3  502    0  0.11473664982E+02  0.19895915096E+02 -0.30005198524E+02  0.38077478437E+02  0.47000000000E+01 0. -1.
         -5    1    3    3    0  502 -0.20549854311E+02 -0.39415913580E+02  0.31143178299E+02  0.54478420591E+02  0.47000000000E+01 0.  1.
          5    1    4    4  503    0  0.11635592600E+02  0.54965106553E+02  0.27327659447E+02  0.62653339292E+02  0.47000000000E+01 0. -1.
         -5    1    4    4    0  503 -0.25594032714E+01 -0.35445108070E+02  0.39151230681E+02  0.53083096132E+02  0.47000000000E+01 0.  1.
<mgrwt>
<rscale>  0 0.94186670E+02</rscale>
<asrwt>0</asrwt>
<pdfrwt beam="1">  1        2 0.10821190E-01 0.94739008E+02</pdfrwt>
<pdfrwt beam="2">  1       -2 0.21223785E-01 0.94739008E+02</pdfrwt>
<totfact> 0.99957918E+03</totfact>
</mgrwt>
</event>
<event>
 8    1  0.3177960E-004  0.9703494E+02  0.7546771E-02  0.1287397E+00
          1   -1    0    0  501    0  0.00000000000E+00  0.00000000000E+00  0.13323802650E+03  0.13323802650E+03  0.00000000000E+00 0. -1.
         -1   -1    0    0    0  501 -0.00000000000E+00 -0.00000000000E+00 -0.80958822677E+02  0.80958822677E+02  0.00000000000E+00 0.  1.
         23    2    1    2    0    0  0.85200177958E+01  0.29785432565E+02 -0.13649499058E+02  0.97990251248E+02  0.91956608347E+02 0.  0.
         23    2    1    2    0    0 -0.85200177958E+01 -0.29785432565E+02  0.65928702882E+02  0.11620659793E+03  0.90540691638E+02 0.  0.
          5    1    3    3  502    0  0.37698821622E+02  0.48766821411E+02 -0.10744685229E+02  0.62745057836E+02  0.47000000000E+01 0. -1.
         -5    1    4    4    0  503 -0.47422130309E+02 -0.30043870765E+02  0.35417494230E+02  0.66543080114E+02  0.47000000000E+01 0.  1.
          5    1    4    4  503    0  0.38902112514E+02  0.25843819925E+00  0.30511208652E+02  0.49663517815E+02  0.47000000000E+01 0. -1.
         -5    1    3    3    0  502 -0.29178803826E+02 -0.18981388846E+02 -0.29048138292E+01  0.35245193411E+02  0.47000000000E+01 0.  1.
<mgrwt>
<rscale>  0 0.96698007E+02</rscale>
<asrwt>0</asrwt>
<pdfrwt beam="1">  1        1 0.20498158E-01 0.97034945E+02</pdfrwt>
<pdfrwt beam="2">  1       -1 0.12455203E-01 0.97034945E+02</pdfrwt>
<totfact> 0.97650444E+03</totfact>
</mgrwt>
</event>
<event>
 8    1  0.3177960E-004  0.1574337E+03  0.7546771E-02  0.1192423E+00
         -1   -1    0    0    0  501 -0.00000000000E+00  0.00000000000E+00  0.34384690161E+03  0.34384690161E+03  0.00000000000E+00 0.  1.
          1   -1    0    0  501    0  0.00000000000E+00 -0.00000000000E+00 -0.71281652810E+02  0.71281652810E+02  0.00000000000E+00 0. -1.
         23    2    1    2    0    0 -0.60205103729E+01 -0.12478541949E+03  0.15393586207E+03  0.22018544560E+03  0.95800487268E+02 0.  0.
         23    2    1    2    0    0  0.60205103729E+01  0.12478541949E+03  0.11862938674E+03  0.19494310882E+03  0.91226294549E+02 0.  0.
          5    1    4    4  502    0  0.27370522190E+01  0.20321816666E+02 -0.14554580581E+02  0.25581116147E+02  0.47000000000E+01 0. -1.
         -5    1    4    4    0  502  0.32834581538E+01  0.10446360283E+03  0.13318396732E+03  0.16936199268E+03  0.47000000000E+01 0.  1.
          5    1    3    3  503    0 -0.23264974981E+02 -0.10863879439E+03  0.16046443709E+03  0.19522953741E+03  0.47000000000E+01 0. -1.
         -5    1    3    3    0  503  0.17244464608E+02 -0.16146625099E+02 -0.65285750208E+01  0.24955908189E+02  0.47000000000E+01 0.  1.
<mgrwt>
<rscale>  0 0.15674400E+03</rscale>
<asrwt>0</asrwt>
<pdfrwt beam="1">  1        1 0.10966408E-01 0.15743373E+03</pdfrwt>
<pdfrwt beam="2">  1       -1 0.52899522E-01 0.15743373E+03</pdfrwt>
<totfact> 0.20479931E+03</totfact>
</mgrwt>
</event>
<event>
 8    1  0.3177960E-004  0.1039239E+03  0.7546771E-02  0.1272571E+00
         -2   -1    0    0    0  501 -0.00000000000E+00  0.00000000000E+00  0.19263041355E+03  0.19263041355E+03  0.00000000000E+00 0.  1.
          2   -1    0    0  501    0  0.00000000000E+00 -0.00000000000E+00 -0.57258448445E+02  0.57258448445E+02  0.00000000000E+00 0. -1.
         23    2    1    2    0    0 -0.18339006915E+02 -0.49118871458E+02  0.47048010423E+02  0.11350225117E+03  0.88995859612E+02 0.  0.
         23    2    1    2    0    0  0.18339006915E+02  0.49118871458E+02  0.88323954680E+02  0.13638661082E+03  0.89728501232E+02 0.  0.
          5    1    4    4  502    0  0.36483494428E+02  0.36100996677E+02  0.71114389662E+01  0.52028741009E+02  0.47000000000E+01 0. -1.
         -5    1    4    4    0  502 -0.18144487513E+02  0.13017874781E+02  0.81212515714E+02  0.84357869813E+02  0.47000000000E+01 0.  1.
          5    1    3    3  503    0  0.30499550674E+01 -0.67628824305E+02  0.50544938829E+02  0.84615843339E+02  0.47000000000E+01 0. -1.
         -5    1    3    3    0  503 -0.21388961983E+02  0.18509952847E+02 -0.34969284061E+01  0.28886407831E+02  0.47000000000E+01 0.  1.
<mgrwt>
<rscale>  0 0.10376561E+03</rscale>
<asrwt>0</asrwt>
<pdfrwt beam="1">  1        2 0.88089922E-02 0.10392395E+03</pdfrwt>
<pdfrwt beam="2">  1       -2 0.29635448E-01 0.10392395E+03</pdfrwt>
<totfact> 0.72557325E+03</totfact>
</mgrwt>
</event>
<event>
 8    1  0.3177960E-004  0.9610115E+02  0.7546771E-02  0.1293529E+00
          1   -1    0    0  501    0  0.00000000000E+00  0.00000000000E+00  0.36020233512E+02  0.36020233512E+02  0.00000000000E+00 0. -1.
         -1   -1    0    0    0  501 -0.00000000000E+00 -0.00000000000E+00 -0.29673614544E+03  0.29673614544E+03  0.00000000000E+00 0.  1.
         23    2    1    2    0    0  0.44114027097E+01  0.97230915282E+01 -0.59046798234E+02  0.11279164588E+03  0.95506188360E+02 0.  0.
         23    2    1    2    0    0 -0.44114027097E+01 -0.97230915282E+01 -0.20166911369E+03  0.21996473307E+03  0.87178285115E+02 0.  0.
          5    1    3    3  502    0  0.46918416219E+02 -0.97568573535E+01 -0.21943890277E+02  0.52916522622E+02  0.47000000000E+01 0. -1.
         -5    1    4    4    0  503 -0.35434178919E+02  0.22096125097E+02 -0.11531065439E+03  0.12272920107E+03  0.47000000000E+01 0.  1.
          5    1    4    4  503    0  0.31022776209E+02 -0.31819216625E+02 -0.86358459302E+02  0.97235532001E+02  0.47000000000E+01 0. -1.
         -5    1    3    3    0  502 -0.42507013509E+02  0.19479948882E+02 -0.37102907956E+02  0.59875123254E+02  0.47000000000E+01 0.  1.
<mgrwt>
<rscale>  0 0.93962975E+02</rscale>
<asrwt>0</asrwt>
<pdfrwt beam="1">  1        1 0.55415744E-02 0.96101150E+02</pdfrwt>
<pdfrwt beam="2">  1       -1 0.45651714E-01 0.96101150E+02</pdfrwt>
<totfact> 0.64686541E+03</totfact>
</mgrwt>
</event>
<event>
 8    1  0.3177960E-004  0.9258713E+02  0.7546771E-02  0.1297492E+00
         -1   -1    0    0    0  501 -0.00000000000E+00  0.00000000000E+00  0.32350967724E+02  0.32350967724E+02  0.00000000000E+00 0.  1.
          1   -1    0    0  501    0  0.00000000000E+00 -0.00000000000E+00 -0.26648507566E+03  0.26648507566E+03  0.00000000000E+00 0. -1.
         23    2    1    2    0    0 -0.53843160067E+01 -0.10104656225E+01 -0.13902914919E+03  0.16703736594E+03  0.92424917613E+02 0.  0.
         23    2    1    2    0    0  0.53843160067E+01  0.10104656225E+01 -0.95104958753E+02  0.13179867745E+03  0.91081975707E+02 0.  0.
          5    1    3    3  502    0  0.20720133927E+02  0.39088082564E+02 -0.68581918503E+02  0.81748221351E+02  0.47000000000E+01 0. -1.
         -5    1    4    4    0  503  0.27896048954E+02 -0.30167275883E+02 -0.17196291922E+02  0.44789022509E+02  0.47000000000E+01 0.  1.
          5    1    4    4  503    0 -0.22511732947E+02  0.31177741506E+02 -0.77908666832E+02  0.87009654942E+02  0.47000000000E+01 0. -1.
         -5    1    3    3    0  502 -0.26104449934E+02 -0.40098548187E+02 -0.70447230684E+02  0.85289144586E+02  0.47000000000E+01 0.  1.
<mgrwt>
<rscale>  0 0.92250160E+02</rscale>
<asrwt>0</asrwt>
<pdfrwt beam="1">  1        1 0.40997705E-01 0.92587134E+02</pdfrwt>
<pdfrwt beam="2">  1       -1 0.49770718E-02 0.92587134E+02</pdfrwt>
<totfact> 0.16281957E+04</totfact>
</mgrwt>
</event>
<event>
 8    1  0.3177960E-004  0.1036885E+03  0.7546771E-02  0.1273572E+00
         -1   -1    0    0    0  501 -0.00000000000E+00  0.00000000000E+00  0.32715823969E+02  0.32715823969E+02  0.00000000000E+00 0.  1.
          1   -1    0    0  501    0  0.00000000000E+00 -0.00000000000E+00 -0.39137665163E+03  0.39137665163E+03  0.00000000000E+00 0. -1.
         23    2    1    2    0    0 -0.49620153899E+02 -0.14904700983E+02 -0.26894572790E+03  0.28824141218E+03  0.89816464828E+02 0.  0.
         23    2    1    2    0    0  0.49620153899E+02  0.14904700983E+02 -0.89715099761E+02  0.13585106342E+03  0.87877201386E+02 0.  0.
          5    1    3    3  502    0  0.21036984676E+02 -0.23891018887E+02 -0.77033265225E+02  0.83483827529E+02  0.47000000000E+01 0. -1.
         -5    1    4    4    0  503  0.43081587284E+02  0.47140798579E+02 -0.38238839898E+02  0.74582685191E+02  0.47000000000E+01 0.  1.
          5    1    4    4  503    0  0.65385666150E+01 -0.32236097596E+02 -0.51476259864E+02  0.61268378232E+02  0.47000000000E+01 0. -1.
         -5    1    3    3    0  502 -0.70657138575E+02  0.89863179042E+01 -0.19191246268E+03  0.20475758465E+03  0.47000000000E+01 0.  1.
<mgrwt>
<rscale>  0 0.10326714E+03</rscale>
<asrwt>0</asrwt>
<pdfrwt beam="1">  1        1 0.60211794E-01 0.10368851E+03</pdfrwt>
<pdfrwt beam="2">  1       -1 0.50332035E-02 0.10368851E+03</pdfrwt>
<totfact> 0.10087586E+04</totfact>
</mgrwt>
</event>
<event>
 8    1  0.3177960E-004  0.9756238E+02  0.7546771E-02  0.1287471E+00
          2   -1    0    0  501    0  0.00000000000E+00  0.00000000000E+00  0.35266136211E+03  0.35266136211E+03  0.00000000000E+00 0. -1.
         -2   -1    0    0    0  501 -0.00000000000E+00 -0.00000000000E+00 -0.28582614869E+02  0.28582614869E+02  0.00000000000E+00 0.  1.
         23    2    1    2    0    0 -0.19098790756E+02  0.86336091682E+01  0.21638916821E+03  0.23593236922E+03  0.91654283668E+02 0.  0.
         23    2    1    2    0    0  0.19098790756E+02 -0.86336091682E+01  0.10768957904E+03  0.14531160776E+03  0.95284389594E+02 0.  0.
          5    1    3    3  502    0  0.32851353164E+02  0.39772409089E+01  0.13556809509E+03  0.13962746240E+03  0.47000000000E+01 0. -1.
         -5    1    4    4    0  503 -0.19766589898E+02  0.22911244688E+02  0.50718056591E+01  0.31039594424E+02  0.47000000000E+01 0.  1.
          5    1    4    4  503    0  0.38865380654E+02 -0.31544853856E+02  0.10261777338E+03  0.11427201333E+03  0.47000000000E+01 0. -1.
         -5    1    3    3    0  502 -0.51950143920E+02  0.46563682592E+01  0.80821073119E+02  0.96304906825E+02  0.47000000000E+01 0.  1.
<mgrwt>
<rscale>  0 0.96664533E+02</rscale>
<asrwt>0</asrwt>
<pdfrwt beam="1">  1        2 0.54255591E-01 0.97562380E+02</pdfrwt>
<pdfrwt beam="2">  1       -2 0.43973256E-02 0.97562380E+02</pdfrwt>
<totfact> 0.19789653E+04</totfact>
</mgrwt>
</event>
<event>
 8    1  0.3177960E-004  0.9976691E+02  0.7546771E-02  0.1280931E+00
          1   -1    0    0  501    0  0.00000000000E+00  0.00000000000E+00  0.22332263036E+03  0.22332263036E+03  0.00000000000E+00 0. -1.
         -1   -1    0    0    0  501 -0.00000000000E+00 -0.00000000000E+00 -0.44488027260E+02  0.44488027260E+02  0.00000000000E+00 0.  1.
         23    2    1    2    0    0  0.24923796546E+02 -0.33675059958E+02  0.85282501393E+02  0.13104285274E+03  0.90243664111E+02 0.  0.
         23    2    1    2    0    0 -0.24923796546E+02  0.33675059958E+02  0.93552101705E+02  0.13676780488E+03  0.90544085512E+02 0.  0.
          5    1    4    4  502    0 -0.31096207460E+02  0.60692917386E+01  0.10197037642E+03  0.10688244986E+03  0.47000000000E+01 0. -1.
         -5    1    4    4    0  502  0.61724109146E+01  0.27605768220E+02 -0.84182747170E+01  0.29885355021E+02  0.47000000000E+01 0.  1.
          5    1    3    3  503    0  0.40094133208E+01 -0.54386018088E+02  0.18276751569E+02  0.57706533482E+02  0.47000000000E+01 0. -1.
         -5    1    3    3    0  503  0.20914383225E+02  0.20710958130E+02  0.67005749825E+02  0.73336319255E+02  0.47000000000E+01 0.  1.
<mgrwt>
<rscale>  0 0.99698700E+02</rscale>
<asrwt>0</asrwt>
<pdfrwt beam="1">  1        1 0.34357327E-01 0.99766912E+02</pdfrwt>
<pdfrwt beam="2">  1       -1 0.68443121E-02 0.99766912E+02</pdfrwt>
<totfact> 0.12726605E+04</totfact>
</mgrwt>
</event>
<event>
 8    1  0.3177960E-004  0.1002627E+03  0.7546771E-02  0.1281303E+00
          2   -1    0    0  501    0  0.00000000000E+00  0.00000000000E+00  0.10301461956E+04  0.10301461956E+04  0.00000000000E+00 0. -1.
         -2   -1    0    0    0  501 -0.00000000000E+00 -0.00000000000E+00 -0.97399534344E+01  0.97399534344E+01  0.00000000000E+00 0.  1.
         23    2    1    2    0    0  0.23525132250E+02  0.11743588615E+02  0.58851227622E+03  0.59650706641E+03  0.93715725972E+02 0.  0.
         23    2    1    2    0    0 -0.23525132250E+02 -0.11743588615E+02  0.43189396589E+03  0.44337908257E+03  0.96753652989E+02 0.  0.
          5    1    4    4  502    0  0.22165046723E+02  0.18723951466E+02  0.28453942023E+03  0.28605357421E+03  0.47000000000E+01 0. -1.
         -5    1    4    4    0  502 -0.45690178973E+02 -0.30467540081E+02  0.14735454567E+03  0.15732550836E+03  0.47000000000E+01 0.  1.
          5    1    3    3  503    0 -0.32199802372E+02  0.12982436292E+02  0.33878974799E+03  0.34059646837E+03  0.47000000000E+01 0. -1.
         -5    1    3    3    0  503  0.55724934622E+02 -0.12388476770E+01  0.24972252823E+03  0.25591059804E+03  0.47000000000E+01 0.  1.
<mgrwt>
<rscale>  0 0.99522477E+02</rscale>
<asrwt>0</asrwt>
<pdfrwt beam="1">  1        2 0.15848394E+00 0.10026272E+03</pdfrwt>
<pdfrwt beam="2">  1       -2 0.14984552E-02 0.10026272E+03</pdfrwt>
<totfact> 0.27501484E+04</totfact>
</mgrwt>
</event>
<event>
 8    1  0.3177960E-004  0.9581036E+02  0.7546771E-02  0.1290198E+00
         -2   -1    0    0    0  501 -0.00000000000E+00  0.00000000000E+00  0.42024998368E+03  0.42024998368E+03  0.00000000000E+00 0.  1.
          2   -1    0    0  501    0  0.00000000000E+00 -0.00000000000E+00 -0.22420115653E+02  0.22420115653E+02  0.00000000000E+00 0. -1.
         23    2    1    2    0    0  0.39320451850E+01 -0.23371653575E+02  0.15270425886E+03  0.17948539395E+03  0.91294692053E+02 0.  0.
         23    2    1    2    0    0 -0.39320451850E+01  0.23371653575E+02  0.24512560917E+03  0.26318470538E+03  0.92832805128E+02 0.  0.
          5    1    4    4  502    0 -0.43022282367E+02  0.12584175467E+02  0.69189298869E+02  0.82574374538E+02  0.47000000000E+01 0. -1.
         -5    1    4    4    0  502  0.39090237182E+02  0.10787478109E+02  0.17593631030E+03  0.18061033085E+03  0.47000000000E+01 0.  1.
          5    1    3    3  503    0 -0.36647035253E+02 -0.37066655096E+01  0.27159201414E+02  0.46004964770E+02  0.47000000000E+01 0. -1.
         -5    1    3    3    0  503  0.40579080438E+02 -0.19664988066E+02  0.12554505745E+03  0.13348042918E+03  0.47000000000E+01 0.  1.
<mgrwt>
<rscale>  0 0.95435782E+02</rscale>
<asrwt>0</asrwt>
<pdfrwt beam="1">  1        2 0.34492489E-02 0.95810359E+02</pdfrwt>
<pdfrwt beam="2">  1       -2 0.64653838E-01 0.95810359E+02</pdfrwt>
<totfact> 0.53633604E+03</totfact>
</mgrwt>
</event>
<event>
 8    1  0.3177960E-004  0.9972726E+02  0.7546771E-02  0.1281302E+00
         -2   -1    0    0    0  501 -0.00000000000E+00  0.00000000000E+00  0.82548991683E+02  0.82548991683E+02  0.00000000000E+00 0.  1.
          2   -1    0    0  501    0  0.00000000000E+00 -0.00000000000E+00 -0.12034059153E+03  0.12034059153E+03  0.00000000000E+00 0. -1.
         23    2    1    2    0    0  0.17378944899E+02 -0.39045098966E+02 -0.10488902996E+02  0.10027733001E+03  0.90105373588E+02 0.  0.
         23    2    1    2    0    0 -0.17378944899E+02  0.39045098966E+02 -0.27302696856E+02  0.10261225320E+03  0.89203642151E+02 0.  0.
          5    1    3    3  502    0  0.52648469882E+02 -0.12748836490E+02  0.16493682979E+01  0.54398571935E+02  0.47000000000E+01 0. -1.
         -5    1    4    4    0  503 -0.37241724843E+02  0.19180944571E+02  0.20572140156E+02  0.46905838171E+02  0.47000000000E+01 0.  1.
          5    1    4    4  503    0  0.19862779945E+02  0.19864154396E+02 -0.47874837012E+02  0.55706415033E+02  0.47000000000E+01 0. -1.
         -5    1    3    3    0  502 -0.35269524983E+02 -0.26296262477E+02 -0.12138271294E+02  0.45878758078E+02  0.47000000000E+01 0.  1.
<mgrwt>
<rscale>  0 0.99523137E+02</rscale>
<asrwt>0</asrwt>
<pdfrwt beam="1">  1        2 0.18513937E-01 0.99727257E+02</pdfrwt>
<pdfrwt beam="2">  1       -2 0.12699845E-01 0.99727257E+02</pdfrwt>
<totfact> 0.12454067E+04</totfact>
</mgrwt>
</event>
<event>
 8    1  0.3177960E-004  0.9813201E+02  0.7546771E-02  0.1284526E+00
          1   -1    0    0  501    0  0.00000000000E+00  0.00000000000E+00  0.50426428809E+02  0.50426428809E+02  0.00000000000E+00 0. -1.
         -1   -1    0    0    0  501 -0.00000000000E+00 -0.00000000000E+00 -0.19571008355E+03  0.19571008355E+03  0.00000000000E+00 0.  1.
         23    2    1    2    0    0  0.33605563239E+02 -0.10052031612E+02 -0.93379422970E+02  0.13512326375E+03  0.91149342032E+02 0.  0.
         23    2    1    2    0    0 -0.33605563239E+02  0.10052031612E+02 -0.51904231769E+02  0.11101324860E+03  0.91648867259E+02 0.  0.
          5    1    4    4  502    0  0.30459887889E+02  0.13630266504E+02 -0.20176993736E+02  0.39278365692E+02  0.47000000000E+01 0.  1.
         -5    1    3    3    0  503 -0.74624441284E+00  0.38062055442E+02 -0.37108025462E+02  0.53370146139E+02  0.47000000000E+01 0.  1.
          5    1    3    3  503    0  0.34351807652E+02 -0.48114087055E+02 -0.56271397508E+02  0.81753117614E+02  0.47000000000E+01 0. -1.
         -5    1    4    4    0  502 -0.64065451128E+02 -0.35782348919E+01 -0.31727238033E+02  0.71734882912E+02  0.47000000000E+01 0. -1.
<mgrwt>
<rscale>  0 0.98015215E+02</rscale>
<asrwt>0</asrwt>
<pdfrwt beam="1">  1        1 0.77579121E-02 0.98132014E+02</pdfrwt>
<pdfrwt beam="2">  1       -1 0.30109244E-01 0.98132014E+02</pdfrwt>
<totfact> 0.84424451E+03</totfact>
</mgrwt>
</event>
<event>
 8    1  0.3177960E-004  0.9452448E+02  0.7546771E-02  0.1292329E+00
         -1   -1    0    0    0  501 -0.00000000000E+00  0.00000000000E+00  0.18734412045E+02  0.18734412045E+02  0.00000000000E+00 0.  1.
          1   -1    0    0  501    0  0.00000000000E+00 -0.00000000000E+00 -0.61235969621E+03  0.61235969621E+03  0.00000000000E+00 0. -1.
         23    2    1    2    0    0  0.15489479412E+02 -0.20226822686E+02 -0.14820183691E+03  0.17578015148E+03  0.91026528338E+02 0.  0.
         23    2    1    2    0    0 -0.15489479412E+02  0.20226822686E+02 -0.44542344726E+03  0.45531395678E+03  0.90882911179E+02 0.  0.
          5    1    4    4  502    0 -0.43225100117E+00  0.55243173600E+02 -0.23884584989E+03  0.24519670691E+03  0.47000000000E+01 0. -1.
         -5    1    3    3    0  503  0.33251264488E+02 -0.47433500695E+02 -0.70097821866E+02  0.91057005269E+02  0.47000000000E+01 0.  1.
          5    1    3    3  503    0 -0.17761785076E+02  0.27206678009E+02 -0.78104015043E+02  0.84723146206E+02  0.47000000000E+01 0. -1.
         -5    1    4    4    0  502 -0.15057228411E+02 -0.35016350914E+02 -0.20657759737E+03  0.21011724987E+03  0.47000000000E+01 0.  1.
<mgrwt>
<rscale>  0 0.94489887E+02</rscale>
<asrwt>0</asrwt>
<pdfrwt beam="1">  1        1 0.94209177E-01 0.94524479E+02</pdfrwt>
<pdfrwt beam="2">  1       -1 0.28822175E-02 0.94524479E+02</pdfrwt>
<totfact> 0.12648580E+04</totfact>
</mgrwt>
</event>
<event>
 8    1  0.3177960E-004  0.1096584E+03  0.7546771E-02  0.1262391E+00
          1   -1    0    0  501    0  0.00000000000E+00  0.00000000000E+00  0.21010135316E+03  0.21010135316E+03  0.00000000000E+00 0. -1.
         -1   -1    0    0    0  501 -0.00000000000E+00 -0.00000000000E+00 -0.23271537093E+03  0.23271537093E+03  0.00000000000E+00 0.  1.
         23    2    1    2    0    0  0.58963947367E+02 -0.74427262339E+01 -0.20431480753E+03  0.23188253644E+03  0.92156545438E+02 0.  0.
         23    2    1    2    0    0 -0.58963947367E+02  0.74427262339E+01  0.18170078977E+03  0.21093418765E+03  0.89139852224E+02 0.  0.
          5    1    4    4  502    0 -0.72394023037E+02 -0.13587285180E+02  0.16440265111E+03  0.18021051740E+03  0.47000000000E+01 0. -1.
         -5    1    3    3    0  503  0.41447752087E+02 -0.48446818445E+02 -0.13433594661E+03  0.14877246695E+03  0.47000000000E+01 0.  1.
          5    1    3    3  503    0  0.17516195280E+02  0.41004092211E+02 -0.69978860921E+02  0.83110069492E+02  0.47000000000E+01 0. -1.
         -5    1    4    4    0  502  0.13430075670E+02  0.21030011414E+02  0.17298138660E+02  0.30723670251E+02  0.47000000000E+01 0.  1.
<mgrwt>
<rscale>  0 0.10902222E+03</rscale>
<asrwt>0</asrwt>
<pdfrwt beam="1">  1        1 0.32323285E-01 0.10965842E+03</pdfrwt>
<pdfrwt beam="2">  1       -1 0.35802364E-01 0.10965842E+03</pdfrwt>
<totfact> 0.10209523E+03</totfact>
</mgrwt>
</event>
<event>
 8    1  0.3177960E-004  0.1126434E+03  0.7546771E-02  0.1262138E+00
         -1   -1    0    0    0  501 -0.00000000000E+00  0.00000000000E+00  0.21538862448E+03  0.21538862448E+03  0.00000000000E+00 0.  1.
          1   -1    0    0  501    0  0.00000000000E+00 -0.00000000000E+00 -0.11332546478E+03  0.11332546478E+03  0.00000000000E+00 0. -1.
         23    2    1    2    0    0  0.81585833356E+00  0.38276421036E+02  0.17019941156E+03  0.19706650075E+03  0.91660329429E+02 0.  0.
         23    2    1    2    0    0 -0.81585833356E+00 -0.38276421036E+02 -0.68136251863E+02  0.13164758850E+03  0.10593766426E+03 0.  0.
          5    1    4    4  502    0  0.47853128791E+02 -0.38562801032E+02 -0.25248967143E+02  0.66607896682E+02  0.47000000000E+01 0. -1.
         -5    1    4    4    0  502 -0.48668987125E+02  0.28637999637E+00 -0.42887284720E+02  0.65039691819E+02  0.47000000000E+01 0.  1.
          5    1    3    3  503    0  0.39950747580E+02 -0.51275201442E+01  0.64270457382E+02  0.75994311544E+02  0.47000000000E+01 0.  1.
         -5    1    3    3    0  503 -0.39134889246E+02  0.43403941180E+02  0.10592895418E+03  0.12107218921E+03  0.47000000000E+01 0.  1.
<mgrwt>
<rscale>  0 0.10915773E+03</rscale>
<asrwt>0</asrwt>
<pdfrwt beam="1">  1        1 0.17434687E-01 0.11264341E+03</pdfrwt>
<pdfrwt beam="2">  1       -1 0.33136711E-01 0.11264341E+03</pdfrwt>
<totfact> 0.25248518E+03</totfact>
</mgrwt>
</event>
<event>
 7    1  0.3177960E-004  0.1538442E+03  0.7546771E-02  0.1215036E+00
          1   -1    0    0  501    0  0.00000000000E+00  0.00000000000E+00  0.10153204542E+04  0.10153204542E+04  0.00000000000E+00 0. -1.
         -1   -1    0    0    0  501 -0.00000000000E+00 -0.00000000000E+00 -0.32863648404E+02  0.32863648404E+02  0.00000000000E+00 0.  1.
         23    2    1    2    0    0  0.36575024251E+02 -0.26031920755E+02  0.81286624022E+03  0.81921029017E+03  0.91315835092E+02 0.  0.
          5    1    3    3  502    0  0.27288160002E+02  0.32230374861E+02  0.35564839472E+03  0.35817776509E+03  0.47000000000E+01 0. -1.
         -5    1    1    2    0  503 -0.25971832218E+00  0.52260141052E+02 -0.10565228030E+01  0.52482340238E+02  0.47000000000E+01 0.  1.
          5    1    1    2  503    0 -0.36315305929E+02 -0.26228220298E+02  0.17064708837E+03  0.17649147219E+03  0.47000000000E+01 0. -1.
         -5    1    3    3    0  502  0.92868642491E+01 -0.58262295616E+02  0.45721784550E+03  0.46103252508E+03  0.47000000000E+01 0.  1.
<mgrwt>
<rscale>  0 0.13873924E+03</rscale>
<asrwt>0</asrwt>
<pdfrwt beam="1">  1        1 0.15620312E+00 0.15384423E+03</pdfrwt>
<pdfrwt beam="2">  1       -1 0.50559467E-02 0.15384423E+03</pdfrwt>
<totfact> 0.26677344E+03</totfact>
</mgrwt>
</event>
<event>
 8    1  0.3177960E-004  0.1114150E+03  0.7546771E-02  0.1258615E+00
          2   -1    0    0  501    0  0.00000000000E+00  0.00000000000E+00  0.49352766360E+03  0.49352766360E+03  0.00000000000E+00 0. -1.
         -2   -1    0    0    0  501 -0.00000000000E+00 -0.00000000000E+00 -0.32765295384E+02  0.32765295384E+02  0.00000000000E+00 0.  1.
         23    2    1    2    0    0 -0.62315223383E+02  0.18795659461E+00  0.10204033429E+03  0.15108123350E+03  0.92358469574E+02 0.  0.
         23    2    1    2    0    0  0.62315223383E+02 -0.18795659461E+00  0.35872203392E+03  0.37521172547E+03  0.90659356498E+02 0.  0.
          5    1    3    3  502    0 -0.29539403952E+02 -0.35070466386E+02  0.90184472910E+02  0.10128101082E+03  0.47000000000E+01 0. -1.
         -5    1    3    3    0  502 -0.32775819432E+02  0.35258422980E+02  0.11855861380E+02  0.49800222686E+02  0.47000000000E+01 0.  1.
          5    1    4    4  503    0  0.81385254793E+02 -0.10052338046E+02  0.32291105910E+03  0.33319401449E+03  0.47000000000E+01 0. -1.
         -5    1    4    4    0  503 -0.19070031410E+02  0.98643814510E+01  0.35810974817E+02  0.42017710989E+02  0.47000000000E+01 0.  1.
<mgrwt>
<rscale>  0 0.11106226E+03</rscale>
<asrwt>0</asrwt>
<pdfrwt beam="1">  1        2 0.75927327E-01 0.11141503E+03</pdfrwt>
<pdfrwt beam="2">  1       -2 0.50408150E-02 0.11141503E+03</pdfrwt>
<totfact> 0.11430356E+04</totfact>
</mgrwt>
</event>
<event>
 7    1  0.3177960E-004  0.2504828E+03  0.7546771E-02  0.1113000E+00
          1   -1    0    0  501    0  0.00000000000E+00  0.00000000000E+00  0.54307998698E+02  0.54307998698E+02  0.00000000000E+00 0. -1.
         -1   -1    0    0    0  501 -0.00000000000E+00 -0.00000000000E+00 -0.28882316270E+03  0.28882316270E+03  0.00000000000E+00 0.  1.
         23    2    1    2    0    0 -0.21376264591E+02  0.43128014719E+02 -0.10144418057E+03  0.14476416571E+03  0.91371612433E+02 0.  0.
          5    1    3    3  502    0  0.88416986333E+01  0.28626786493E+02  0.70307475779E+01  0.31131815738E+02  0.47000000000E+01 0. -1.
         -5    1    1    2    0  503 -0.43391095117E+02  0.20793246467E+02 -0.78390636334E+02  0.92099555368E+02  0.47000000000E+01 0.  1.
          5    1    1    2  503    0  0.64767359708E+02 -0.63921261185E+02 -0.54680347095E+02  0.10626744033E+03  0.47000000000E+01 0. -1.
         -5    1    3    3    0  502 -0.30217963225E+02  0.14501228226E+02 -0.10847492815E+03  0.11363234997E+03  0.47000000000E+01 0.  1.
<mgrwt>
<rscale>  0 0.25048280E+03</rscale>
<asrwt>0</asrwt>
<pdfrwt beam="1">  1        1 0.83550767E-02 0.25048280E+03</pdfrwt>
<pdfrwt beam="2">  1       -1 0.44434333E-01 0.25048280E+03</pdfrwt>
<totfact> 0.41451148E+03</totfact>
</mgrwt>
</event>
<event>
 8    1  0.3177960E-004  0.1128946E+03  0.7546771E-02  0.1256325E+00
         -2   -1    0    0    0  501 -0.00000000000E+00  0.00000000000E+00  0.65656947220E+02  0.65656947220E+02  0.00000000000E+00 0.  1.
          2   -1    0    0  501    0  0.00000000000E+00 -0.00000000000E+00 -0.24871286938E+03  0.24871286938E+03  0.00000000000E+00 0. -1.
         23    2    1    2    0    0 -0.58025802461E+02 -0.21198549357E+02 -0.14611391030E+02  0.11159222029E+03  0.91776678053E+02 0.  0.
         23    2    1    2    0    0  0.58025802461E+02  0.21198549357E+02 -0.16844453113E+03  0.20277759631E+03  0.94492440191E+02 0.  0.
          5    1    4    4  502    0  0.48509134770E+02 -0.84512691779E+01 -0.16360093240E+03  0.17091493554E+03  0.47000000000E+01 0. -1.
         -5    1    3    3    0  503 -0.57725692176E+02  0.78454206360E+01  0.23886061393E+02  0.63138261705E+02  0.47000000000E+01 0.  1.
          5    1    3    3  503    0 -0.30011028482E+00 -0.29043969993E+02 -0.38497452424E+02  0.48453958582E+02  0.47000000000E+01 0. -1.
         -5    1    4    4    0  502  0.95166676915E+01  0.29649818535E+02 -0.48435987270E+01  0.31862660776E+02  0.47000000000E+01 0.  1.
<mgrwt>
<rscale>  0 0.11232453E+03</rscale>
<asrwt>0</asrwt>
<pdfrwt beam="1">  1        2 0.38263518E-01 0.11289461E+03</pdfrwt>
<pdfrwt beam="2">  1       -2 0.10101069E-01 0.11289461E+03</pdfrwt>
<totfact> 0.81907327E+03</totfact>
</mgrwt>
</event>
<event>
 8    1  0.3177960E-004  0.1159851E+03  0.7546771E-02  0.1250459E+00
         -1   -1    0    0    0  501 -0.00000000000E+00  0.00000000000E+00  0.27571150567E+02  0.27571150567E+02  0.00000000000E+00 0.  1.
          1   -1    0    0  501    0  0.00000000000E+00 -0.00000000000E+00 -0.49405884532E+03  0.49405884532E+03  0.00000000000E+00 0. -1.
         23    2    1    2    0    0  0.29398061847E+02 -0.66239637954E+02 -0.27223611727E+03  0.29538628665E+03  0.88817898649E+02 0.  0.
         23    2    1    2    0    0 -0.29398061847E+02  0.66239637954E+02 -0.19425157749E+03  0.22624370924E+03  0.90557191522E+02 0.  0.
          5    1    3    3  502    0  0.22666118393E+02 -0.86408121390E+02 -0.24292174477E+03  0.25886904112E+03  0.47000000000E+01 0. -1.
         -5    1    4    4    0  503 -0.21676005787E+02  0.87343499207E+02 -0.17248512958E+03  0.19460715816E+03  0.47000000000E+01 0.  1.
          5    1    4    4  503    0 -0.77220560601E+01 -0.21103861252E+02 -0.21766447904E+02  0.31636551075E+02  0.47000000000E+01 0. -1.
         -5    1    3    3    0  502  0.67319434539E+01  0.20168483435E+02 -0.29314372494E+02  0.36517245535E+02  0.47000000000E+01 0.  1.
<mgrwt>
<rscale>  0 0.11564539E+03</rscale>
<asrwt>0</asrwt>
<pdfrwt beam="1">  1        1 0.76009048E-01 0.11598509E+03</pdfrwt>
<pdfrwt beam="2">  1       -1 0.42417158E-02 0.11598509E+03</pdfrwt>
<totfact> 0.97343936E+03</totfact>
</mgrwt>
</event>
<event>
 8    1  0.3177960E-004  0.1006571E+03  0.7546771E-02  0.1282535E+00
         -2   -1    0    0    0  501 -0.00000000000E+00  0.00000000000E+00  0.10014199274E+03  0.10014199274E+03  0.00000000000E+00 0.  1.
          2   -1    0    0  501    0  0.00000000000E+00 -0.00000000000E+00 -0.94806629484E+02  0.94806629484E+02  0.00000000000E+00 0. -1.
         23    2    1    2    0    0  0.10533538152E+02  0.12583444692E+02 -0.23205720037E+01  0.94000784317E+02  0.92528178905E+02 0.  0.
         23    2    1    2    0    0 -0.10533538152E+02 -0.12583444692E+02  0.76559352595E+01  0.10094783791E+03  0.99310392846E+02 0.  0.
          5    1    4    4  502    0  0.43477147181E+02 -0.14837490245E+02  0.22375243753E+00  0.46179578916E+02  0.47000000000E+01 0. -1.
         -5    1    3    3    0  503 -0.37593336198E+02  0.89132804532E-01 -0.17596244052E+02  0.41773013728E+02  0.47000000000E+01 0.  1.
          5    1    3    3  503    0  0.48126874350E+02  0.12494311887E+02  0.15275672048E+02  0.52227770589E+02  0.47000000000E+01 0. -1.
         -5    1    4    4    0  502 -0.54010685332E+02  0.22540455534E+01  0.74321828220E+01  0.54768258991E+02  0.47000000000E+01 0.  1.
<mgrwt>
<rscale>  0 0.98942550E+02</rscale>
<asrwt>0</asrwt>
<pdfrwt beam="1">  1        2 0.14585635E-01 0.10065710E+03</pdfrwt>
<pdfrwt beam="2">  1       -2 0.15406460E-01 0.10065710E+03</pdfrwt>
<totfact> 0.12007929E+04</totfact>
</mgrwt>
</event>
<event>
 8    1  0.3177960E-004  0.1091363E+03  0.7546771E-02  0.1264334E+00
         -1   -1    0    0    0  501 -0.00000000000E+00  0.00000000000E+00  0.44293299945E+02  0.44293299945E+02  0.00000000000E+00 0.  1.
          1   -1    0    0  501    0  0.00000000000E+00 -0.00000000000E+00 -0.27720426185E+03  0.27720426185E+03  0.00000000000E+00 0. -1.
         23    2    1    2    0    0  0.59579150158E+02  0.45424362552E+01 -0.71778649462E+02  0.12688420436E+03  0.85890150402E+02 0.  0.
         23    2    1    2    0    0 -0.59579150158E+02 -0.45424362552E+01 -0.16113231244E+03  0.19461335744E+03  0.91325943299E+02 0.  0.
          5    1    4    4  502    0 -0.25004793372E+02 -0.43772053619E+01 -0.15742093164E+03  0.15952378925E+03  0.47000000000E+01 0. -1.
         -5    1    4    4    0  502 -0.34574356786E+02 -0.16523089329E+00 -0.37113808072E+01  0.35089568192E+02  0.47000000000E+01 0.  1.
          5    1    3    3  503    0  0.59868238132E+02  0.37022285911E+02 -0.57841050908E+02  0.91227916567E+02  0.47000000000E+01 0. -1.
         -5    1    3    3    0  503 -0.28908797328E+00 -0.32479849656E+02 -0.13937598554E+02  0.35656287790E+02  0.47000000000E+01 0.  1.
<mgrwt>
<rscale>  0 0.10799185E+03</rscale>
<asrwt>0</asrwt>
<pdfrwt beam="1">  1        1 0.42646810E-01 0.10913632E+03</pdfrwt>
<pdfrwt beam="2">  1       -1 0.68143538E-02 0.10913632E+03</pdfrwt>
<totfact> 0.99057274E+03</totfact>
</mgrwt>
</event>
<event>
 8    1  0.3177960E-004  0.9207388E+02  0.7546771E-02  0.1300405E+00
          1   -1    0    0  501    0  0.00000000000E+00  0.00000000000E+00  0.98364195998E+03  0.98364195998E+03  0.00000000000E+00 0. -1.
         -1   -1    0    0    0  501 -0.00000000000E+00 -0.00000000000E+00 -0.83500273066E+01  0.83500273066E+01  0.00000000000E+00 0.  1.
         23    2    1    2    0    0 -0.51541971182E+01  0.11514755583E+02  0.55709244790E+03  0.56464997522E+03  0.91205502408E+02 0.  0.
         23    2    1    2    0    0  0.51541971182E+01 -0.11514755583E+02  0.41819948478E+03  0.42734201207E+03  0.87012820118E+02 0.  0.
          5    1    4    4  502    0  0.18009030124E+02 -0.44465139546E+02  0.30088167043E+03  0.30471846580E+03  0.47000000000E+01 0. -1.
         -5    1    3    3    0  503 -0.38254222193E+02  0.28604977651E+02  0.41166886165E+03  0.41445744283E+03  0.47000000000E+01 0.  1.
          5    1    3    3  503    0  0.33100025074E+02 -0.17090222068E+02  0.14542358625E+03  0.15019253240E+03  0.47000000000E+01 0. -1.
         -5    1    4    4    0  502 -0.12854833006E+02  0.32950383963E+02  0.11731781435E+03  0.12262354627E+03  0.47000000000E+01 0.  1.
<mgrwt>
<rscale>  0 0.91018039E+02</rscale>
<asrwt>0</asrwt>
<pdfrwt beam="1">  1        1 0.15132944E+00 0.92073878E+02</pdfrwt>
<pdfrwt beam="2">  1       -1 0.12846204E-02 0.92073878E+02</pdfrwt>
<totfact> 0.19872975E+04</totfact>
</mgrwt>
</event>
<event>
 8    1  0.3177960E-004  0.1024880E+03  0.7546771E-02  0.1278582E+00
          1   -1    0    0  501    0  0.00000000000E+00  0.00000000000E+00  0.39687371943E+02  0.39687371943E+02  0.00000000000E+00 0. -1.
         -1   -1    0    0    0  501 -0.00000000000E+00 -0.00000000000E+00 -0.33213562451E+03  0.33213562451E+03  0.00000000000E+00 0.  1.
         23    2    1    2    0    0 -0.86245086788E+01 -0.32120164354E+02 -0.23611017114E+03  0.25487100714E+03  0.90028496916E+02 0.  0.
         23    2    1    2    0    0  0.86245086788E+01  0.32120164354E+02 -0.56338081429E+02  0.11695198931E+03  0.96941741667E+02 0.  0.
          5    1    3    3  502    0  0.11206661762E+02 -0.56865216578E+02 -0.10634555951E+03  0.12120523979E+03  0.47000000000E+01 0. -1.
         -5    1    3    3    0  502 -0.19831170440E+02  0.24745052225E+02 -0.12976461163E+03  0.13366576736E+03  0.47000000000E+01 0.  1.
          5    1    4    4  503    0 -0.39759068248E+02  0.24609944839E+02 -0.74143007745E+01  0.47576199395E+02  0.47000000000E+01 0. -1.
         -5    1    4    4    0  503  0.48383576927E+02  0.75102195147E+01 -0.48923780654E+02  0.69375789919E+02  0.47000000000E+01 0.  1.
<mgrwt>
<rscale>  0 0.10081946E+03</rscale>
<asrwt>0</asrwt>
<pdfrwt beam="1">  1        1 0.61057496E-02 0.10248799E+03</pdfrwt>
<pdfrwt beam="2">  1       -1 0.51097788E-01 0.10248799E+03</pdfrwt>
<totfact> 0.46590448E+03</totfact>
</mgrwt>
</event>
<event>
 8    1  0.3177960E-004  0.1269237E+03  0.7546771E-02  0.1232983E+00
         -1   -1    0    0    0  501 -0.00000000000E+00  0.00000000000E+00  0.41593806752E+02  0.41593806752E+02  0.00000000000E+00 0.  1.
          1   -1    0    0  501    0  0.00000000000E+00 -0.00000000000E+00 -0.38082167119E+03  0.38082167119E+03  0.00000000000E+00 0. -1.
         23    2    1    2    0    0 -0.82806153125E+02  0.13977679486E+02 -0.17885252384E+03  0.21931224122E+03  0.95170370105E+02 0.  0.
         23    2    1    2    0    0  0.82806153125E+02 -0.13977679486E+02 -0.16037534061E+03  0.20310323673E+03  0.92078446861E+02 0.  0.
          5    1    3    3  502    0 -0.87664603831E+02 -0.17361224237E+02 -0.15632915007E+03  0.18013158533E+03  0.47000000000E+01 0. -1.
         -5    1    4    4    0  503  0.39848606886E+02  0.18479758366E+02 -0.12875875061E+02  0.46014031540E+02  0.47000000000E+01 0.  1.
          5    1    4    4  503    0  0.42957546239E+02 -0.32457437851E+02 -0.14749946555E+03  0.15708920519E+03  0.47000000000E+01 0. -1.
         -5    1    3    3    0  502  0.48584507058E+01  0.31338903723E+02 -0.22523373761E+02  0.39180655883E+02  0.47000000000E+01 0.  1.
<mgrwt>
<rscale>  0 0.12634438E+03</rscale>
<asrwt>0</asrwt>
<pdfrwt beam="1">  1        1 0.58587952E-01 0.12692373E+03</pdfrwt>
<pdfrwt beam="2">  1       -1 0.63990470E-02 0.12692373E+03</pdfrwt>
<totfact> 0.74268576E+03</totfact>
</mgrwt>
</event>
<event>
 8    1  0.3177960E-004  0.1058247E+03  0.7546771E-02  0.1268911E+00
          1   -1    0    0  501    0  0.00000000000E+00  0.00000000000E+00  0.74148297325E+03  0.74148297325E+03  0.00000000000E+00 0. -1.
         -1   -1    0    0    0  501 -0.00000000000E+00 -0.00000000000E+00 -0.16541150637E+02  0.16541150637E+02  0.00000000000E+00 0.  1.
         23    2    1    2    0    0  0.46624366833E+02  0.29657091081E+02  0.47743762083E+03  0.48884537959E+03  0.89273449194E+02 0.  0.
         23    2    1    2    0    0 -0.46624366833E+02 -0.29657091081E+02  0.24750420179E+03  0.26917874430E+03  0.90252378619E+02 0.  0.
          5    1    4    4  502    0 -0.47001025539E+02  0.23044638250E+02  0.11231654997E+03  0.12400503679E+03  0.47000000000E+01 0. -1.
         -5    1    4    4    0  502  0.37665870538E+00 -0.52701729331E+02  0.13518765182E+03  0.14517370751E+03  0.47000000000E+01 0.  1.
          5    1    3    3  503    0  0.71556968807E+02  0.22135849946E+02  0.29022261751E+03  0.29976933358E+03  0.47000000000E+01 0. -1.
         -5    1    3    3    0  503 -0.24932601974E+02  0.75212411348E+01  0.18721500332E+03  0.18907604601E+03  0.47000000000E+01 0.  1.
<mgrwt>
<rscale>  0 0.10561567E+03</rscale>
<asrwt>0</asrwt>
<pdfrwt beam="1">  1        1 0.11407428E+00 0.10582470E+03</pdfrwt>
<pdfrwt beam="2">  1       -1 0.25447930E-02 0.10582470E+03</pdfrwt>
<totfact> 0.11692229E+04</totfact>
</mgrwt>
</event>
<event>
 8    1  0.3177960E-004  0.1107382E+03  0.7546771E-02  0.1260174E+00
          1   -1    0    0  501    0  0.00000000000E+00  0.00000000000E+00  0.53064498516E+02  0.53064498516E+02  0.00000000000E+00 0. -1.
         -1   -1    0    0    0  501 -0.00000000000E+00 -0.00000000000E+00 -0.22846070610E+03  0.22846070610E+03  0.00000000000E+00 0.  1.
         23    2    1    2    0    0 -0.18847556441E+02 -0.58503109460E+02 -0.10063105805E+03  0.14963143908E+03  0.92114675897E+02 0.  0.
         23    2    1    2    0    0  0.18847556441E+02  0.58503109460E+02 -0.74765149532E+02  0.13189376554E+03  0.89600745550E+02 0.  0.
          5    1    4    4  502    0 -0.24881407031E+02  0.46566516326E+02 -0.12030521097E+02  0.54353917029E+02  0.47000000000E+01 0. -1.
         -5    1    4    4    0  502  0.43728963472E+02  0.11936593134E+02 -0.62734628435E+02  0.77539848509E+02  0.47000000000E+01 0.  1.
          5    1    3    3  503    0 -0.51079088912E+02 -0.53548134666E+02 -0.50767031999E+02  0.89865775400E+02  0.47000000000E+01 0. -1.
         -5    1    3    3    0  503  0.32231532471E+02 -0.49549747940E+01 -0.49864026056E+02  0.59765663680E+02  0.47000000000E+01 0.  1.
<mgrwt>
<rscale>  0 0.11021398E+03</rscale>
<asrwt>0</asrwt>
<pdfrwt beam="1">  1        1 0.81637689E-02 0.11073824E+03</pdfrwt>
<pdfrwt beam="2">  1       -1 0.35147801E-01 0.11073824E+03</pdfrwt>
<totfact> 0.61388877E+03</totfact>
</mgrwt>
</event>
<event>
 8    1  0.3177960E-004  0.1093830E+03  0.7546771E-02  0.1263412E+00
         -1   -1    0    0    0  501 -0.00000000000E+00  0.00000000000E+00  0.27414197533E+03  0.27414197533E+03  0.00000000000E+00 0.  1.
          1   -1    0    0  501    0  0.00000000000E+00 -0.00000000000E+00 -0.15139721741E+03  0.15139721741E+03  0.00000000000E+00 0. -1.
         23    2    1    2    0    0 -0.22294051448E+02 -0.53258252501E+02  0.24175504396E+03  0.26389734433E+03  0.88672661368E+02 0.  0.
         23    2    1    2    0    0  0.22294051448E+02  0.53258252501E+02 -0.11901028603E+03  0.16164184841E+03  0.92904105329E+02 0.  0.
          5    1    4    4  502    0  0.53919675115E+02  0.54964458109E+02 -0.88720441773E+02  0.11756627836E+03  0.47000000000E+01 0. -1.
         -5    1    4    4    0  502 -0.31625623666E+02 -0.17062056082E+01 -0.30289844259E+02  0.44075570049E+02  0.47000000000E+01 0.  1.
          5    1    3    3  503    0  0.25150117943E+02  0.59437145162E+00  0.26054725807E+02  0.36521506635E+02  0.47000000000E+01 0. -1.
         -5    1    3    3    0  503 -0.47444169391E+02 -0.53852623952E+02  0.21570031815E+03  0.22737583769E+03  0.47000000000E+01 0.  1.
<mgrwt>
<rscale>  0 0.10847926E+03</rscale>
<asrwt>0</asrwt>
<pdfrwt beam="1">  1        1 0.23291880E-01 0.10938299E+03</pdfrwt>
<pdfrwt beam="2">  1       -1 0.42175689E-01 0.10938299E+03</pdfrwt>
<totfact> 0.11538866E+03</totfact>
</mgrwt>
</event>
<event>
 8    1  0.3177960E-004  0.9777546E+02  0.7546771E-02  0.1290895E+00
          1   -1    0    0  501    0  0.00000000000E+00  0.00000000000E+00  0.44533340447E+03  0.44533340447E+03  0.00000000000E+00 0. -1.
         -1   -1    0    0    0  501 -0.00000000000E+00 -0.00000000000E+00 -0.48591366308E+02  0.48591366308E+02  0.00000000000E+00 0.  1.
         23    2    1    2    0    0 -0.10714340480E+02  0.22173310005E+02  0.39435547520E+03  0.40629580616E+03  0.94623403633E+02 0.  0.
         23    2    1    2    0    0  0.10714340480E+02 -0.22173310005E+02  0.23865629662E+01  0.87628964622E+02  0.84063588964E+02 0.  0.
          5    1    3    3  502    0  0.41470905564E+01  0.38655540766E+02  0.37328931421E+03  0.37533778294E+03  0.47000000000E+01 0. -1.
         -5    1    4    4    0  503 -0.81121579344E+01 -0.39487890357E+02 -0.26723932311E+02  0.48593818016E+02  0.47000000000E+01 0.  1.
          5    1    4    4  503    0  0.18826498414E+02  0.17314580352E+02  0.29110495277E+02  0.39035146606E+02  0.47000000000E+01 0. -1.
         -5    1    3    3    0  502 -0.14861431036E+02 -0.16482230761E+02  0.21066160981E+02  0.30958023221E+02  0.47000000000E+01 0.  1.
<mgrwt>
<rscale>  0 0.95124865E+02</rscale>
<asrwt>0</asrwt>
<pdfrwt beam="1">  1        1 0.68512829E-01 0.97775464E+02</pdfrwt>
<pdfrwt beam="2">  1       -1 0.74755951E-02 0.97775464E+02</pdfrwt>
<totfact> 0.47589811E+03</totfact>
</mgrwt>
</event>
<event>
 8    1  0.3177960E-004  0.1217015E+03  0.7546771E-02  0.1240538E+00
         -1   -1    0    0    0  501 -0.00000000000E+00  0.00000000000E+00  0.85846395155E+02  0.85846395155E+02  0.00000000000E+00 0.  1.
          1   -1    0    0  501    0  0.00000000000E+00 -0.00000000000E+00 -0.40442410106E+03  0.40442410106E+03  0.00000000000E+00 0. -1.
         23    2    1    2    0    0 -0.54728582163E+02 -0.58175570662E+02 -0.34506823744E+03  0.36571931752E+03  0.91098386307E+02 0.  0.
         23    2    1    2    0    0  0.54728582163E+02  0.58175570662E+02  0.26490531529E+02  0.12455117870E+03  0.91823924597E+02 0.  0.
          5    1    3    3  502    0 -0.69645224097E+02 -0.12373211058E+02 -0.17267285973E+03  0.18665894053E+03  0.47000000000E+01 0. -1.
         -5    1    3    3    0  502  0.14916641935E+02 -0.45802359604E+02 -0.17239537771E+03  0.17906037699E+03  0.47000000000E+01 0.  1.
          5    1    4    4  503    0  0.55591016821E+01  0.34960578637E+02 -0.29531225688E+02  0.46339280969E+02  0.47000000000E+01 0. -1.
         -5    1    4    4    0  503  0.49169480481E+02  0.23214992025E+02  0.56021757217E+02  0.78211897734E+02  0.47000000000E+01 0.  1.
<mgrwt>
<rscale>  0 0.12156462E+03</rscale>
<asrwt>0</asrwt>
<pdfrwt beam="1">  1        1 0.62219093E-01 0.12170147E+03</pdfrwt>
<pdfrwt beam="2">  1       -1 0.13207138E-01 0.12170147E+03</pdfrwt>
<totfact> 0.22893096E+03</totfact>
</mgrwt>
</event>
<event>
 8    1  0.3177960E-004  0.1588042E+03  0.7546771E-02  0.1190818E+00
          1   -1    0    0  501    0  0.00000000000E+00  0.00000000000E+00  0.10440152633E+04  0.10440152633E+04  0.00000000000E+00 0. -1.
         -1   -1    0    0    0  501 -0.00000000000E+00 -0.00000000000E+00 -0.54300085283E+02  0.54300085283E+02  0.00000000000E+00 0.  1.
         23    2    1    2    0    0  0.12652000502E+03  0.17253010444E+02  0.90491490263E+03  0.91828794716E+03  0.89870990135E+02 0.  0.
         23    2    1    2    0    0 -0.12652000502E+03 -0.17253010444E+02  0.84800275359E+02  0.18002740139E+03  0.94412925556E+02 0.  0.
          5    1    4    4  502    0 -0.57227955181E+02  0.18573682569E+02 -0.55085678443E+01  0.60600782653E+02  0.47000000000E+01 0. -1.
         -5    1    4    4    0  502 -0.69292049834E+02 -0.35826693013E+02  0.90308843203E+02  0.11942661874E+03  0.47000000000E+01 0.  1.
          5    1    3    3  503    0  0.72606892185E+02  0.36795006965E+02  0.72067653354E+03  0.72527400982E+03  0.47000000000E+01 0. -1.
         -5    1    3    3    0  503  0.53913112830E+02 -0.19541996520E+02  0.18423836909E+03  0.19301393734E+03  0.47000000000E+01 0.  1.
<mgrwt>
<rscale>  0 0.15813561E+03</rscale>
<asrwt>0</asrwt>
<pdfrwt beam="1">  1        1 0.16061772E+00 0.15880421E+03</pdfrwt>
<pdfrwt beam="2">  1       -1 0.83538600E-02 0.15880421E+03</pdfrwt>
<totfact> 0.11973921E+03</totfact>
</mgrwt>
</event>
<event>
 8    1  0.3177960E-004  0.1026666E+03  0.7546771E-02  0.1275307E+00
         -2   -1    0    0    0  501 -0.00000000000E+00  0.00000000000E+00  0.82337129545E+02  0.82337129545E+02  0.00000000000E+00 0.  1.
          2   -1    0    0  501    0  0.00000000000E+00 -0.00000000000E+00 -0.33163102612E+03  0.33163102612E+03  0.00000000000E+00 0. -1.
         23    2    1    2    0    0 -0.18184741307E+02 -0.40016680387E+02  0.38280830732E+02  0.10861647950E+03  0.91652049036E+02 0.  0.
         23    2    1    2    0    0  0.18184741307E+02  0.40016680387E+02 -0.28757472730E+03  0.30535167616E+03  0.92781478879E+02 0.  0.
          5    1    3    3  502    0  0.82485426859E+01  0.26909542316E+02  0.17886073686E+02  0.33677344848E+02  0.47000000000E+01 0. -1.
         -5    1    4    4    0  503  0.33568531819E+02 -0.14762256010E+02 -0.57974626245E+02  0.68759856161E+02  0.47000000000E+01 0.  1.
          5    1    4    4  503    0 -0.15383790512E+02  0.54778936397E+02 -0.22960010106E+03  0.23659182000E+03  0.47000000000E+01 0. -1.
         -5    1    3    3    0  502 -0.26433283993E+02 -0.66926222703E+02  0.20394757046E+02  0.74939134656E+02  0.47000000000E+01 0.  1.
<mgrwt>
<rscale>  0 0.10241072E+03</rscale>
<asrwt>0</asrwt>
<pdfrwt beam="1">  1        2 0.51020158E-01 0.10266656E+03</pdfrwt>
<pdfrwt beam="2">  1       -2 0.12667251E-01 0.10266656E+03</pdfrwt>
<totfact> 0.42049154E+03</totfact>
</mgrwt>
</event>
<event>
 8    1  0.3177960E-004  0.1011638E+03  0.7546771E-02  0.1281745E+00
         -1   -1    0    0    0  501 -0.00000000000E+00  0.00000000000E+00  0.43917922694E+02  0.43917922694E+02  0.00000000000E+00 0.  1.
          1   -1    0    0  501    0  0.00000000000E+00 -0.00000000000E+00 -0.50946923807E+03  0.50946923807E+03  0.00000000000E+00 0. -1.
         23    2    1    2    0    0  0.25090347701E+02  0.12604324089E+02 -0.19446716902E+02  0.95955813796E+02  0.89671338060E+02 0.  0.
         23    2    1    2    0    0 -0.25090347701E+02 -0.12604324089E+02 -0.44610459848E+03  0.45743134697E+03  0.97189144849E+02 0.  0.
          5    1    3    3  502    0  0.24135089279E+02 -0.36688072491E+02 -0.12823915602E+02  0.45989781571E+02  0.47000000000E+01 0. -1.
         -5    1    4    4    0  503  0.36069307483E+02  0.27022123091E+01 -0.12748940862E+03  0.13260443508E+03  0.47000000000E+01 0.  1.
          5    1    4    4  503    0 -0.61159655184E+02 -0.15306536398E+02 -0.31861518986E+03  0.32482691189E+03  0.47000000000E+01 0. -1.
         -5    1    3    3    0  502  0.95525842193E+00  0.49292396580E+02 -0.66228012994E+01  0.49966032225E+02  0.47000000000E+01 0.  1.
<mgrwt>
<rscale>  0 0.99313905E+02</rscale>
<asrwt>0</asrwt>
<pdfrwt beam="1">  1        1 0.78379885E-01 0.10116385E+03</pdfrwt>
<pdfrwt beam="2">  1       -1 0.67566033E-02 0.10116385E+03</pdfrwt>
<totfact> 0.46670399E+03</totfact>
</mgrwt>
</event>
<event>
 8    1  0.3177960E-004  0.9110656E+02  0.7546771E-02  0.1303337E+00
          1   -1    0    0  501    0  0.00000000000E+00  0.00000000000E+00  0.21803093898E+03  0.21803093898E+03  0.00000000000E+00 0. -1.
         -1   -1    0    0    0  501 -0.00000000000E+00 -0.00000000000E+00 -0.69302583052E+02  0.69302583052E+02  0.00000000000E+00 0.  1.
         23    2    1    2    0    0  0.12678477197E+02 -0.24391557963E+01 -0.24147264338E+02  0.94252297900E+02  0.90187094528E+02 0.  0.
         23    2    1    2    0    0 -0.12678477197E+02  0.24391557963E+01  0.17287562027E+03  0.19308122413E+03  0.85015797152E+02 0.  0.
          5    1    3    3  502    0  0.91566734229E+01 -0.44415319506E+02 -0.24721526744E+02  0.51863370114E+02  0.47000000000E+01 0. -1.
         -5    1    3    3    0  502  0.35218037742E+01  0.41976163710E+02  0.57426240644E+00  0.42388927787E+02  0.47000000000E+01 0.  1.
          5    1    4    4  503    0  0.24867068423E+02  0.15778908085E+02  0.13377235199E+03  0.13705647445E+03  0.47000000000E+01 0. -1.
         -5    1    4    4    0  503 -0.37545545620E+02 -0.13339752289E+02  0.39103268279E+02  0.56024749684E+02  0.47000000000E+01 0.  1.
<mgrwt>
<rscale>  0 0.89799713E+02</rscale>
<asrwt>0</asrwt>
<pdfrwt beam="1">  1        1 0.33543221E-01 0.91106560E+02</pdfrwt>
<pdfrwt beam="2">  1       -1 0.10661936E-01 0.91106560E+02</pdfrwt>
<totfact> 0.66904145E+03</totfact>
</mgrwt>
</event>
<event>
 8    1  0.3177960E-004  0.1465726E+03  0.7546771E-02  0.1205112E+00
         -4   -1    0    0    0  501 -0.00000000000E+00  0.00000000000E+00  0.60733172869E+02  0.60733172869E+02  0.00000000000E+00 0.  1.
          4   -1    0    0  501    0  0.00000000000E+00 -0.00000000000E+00 -0.56988097454E+03  0.56988097454E+03  0.00000000000E+00 0. -1.
         23    2    1    2    0    0  0.69126006418E+02  0.90193606015E+02 -0.44937505510E+03  0.47232234274E+03  0.90758823119E+02 0.  0.
         23    2    1    2    0    0 -0.69126006418E+02 -0.90193606015E+02 -0.59772746573E+02  0.15829180467E+03  0.92575498186E+02 0.  0.
          5    1    3    3  502    0  0.60019704354E+02  0.11441203834E+02 -0.25688334235E+03  0.26409166521E+03  0.47000000000E+01 0.  1.
         -5    1    4    4    0  503 -0.29334229304E+02 -0.74124853052E+02  0.54874337314E+01  0.80044942237E+02  0.47000000000E+01 0.  1.
          5    1    4    4  503    0 -0.39791777114E+02 -0.16068752964E+02 -0.65260180304E+02  0.78246862436E+02  0.47000000000E+01 0. -1.
         -5    1    3    3    0  502  0.91063020639E+01  0.78752402182E+02 -0.19249171275E+03  0.20823067753E+03  0.47000000000E+01 0. -1.
<mgrwt>
<rscale>  0 0.14628657E+03</rscale>
<asrwt>0</asrwt>
<pdfrwt beam="1">  1        4 0.87673994E-01 0.14657256E+03</pdfrwt>
<pdfrwt beam="2">  1       -4 0.93435653E-02 0.14657256E+03</pdfrwt>
<totfact> 0.16687605E+02</totfact>
</mgrwt>
</event>
<event>
 8    1  0.3177960E-004  0.1001728E+03  0.7546771E-02  0.1281766E+00
          1   -1    0    0  501    0  0.00000000000E+00  0.00000000000E+00  0.43342957003E+03  0.43342957003E+03  0.00000000000E+00 0. -1.
         -1   -1    0    0    0  501 -0.00000000000E+00 -0.00000000000E+00 -0.74251463864E+02  0.74251463864E+02  0.00000000000E+00 0.  1.
         23    2    1    2    0    0 -0.92146376401E+01  0.28872030735E+02 -0.33537172742E+02  0.10239115534E+03  0.91873298787E+02 0.  0.
         23    2    1    2    0    0  0.92146376401E+01 -0.28872030735E+02  0.39271527891E+03  0.40528987856E+03  0.95478226147E+02 0.  0.
          5    1    4    4  502    0  0.32953108658E+02 -0.45143385562E+02  0.34377477936E+03  0.34832028587E+03  0.47000000000E+01 0. -1.
         -5    1    3    3    0  503 -0.25761406537E+02  0.10905270796E+02 -0.59819689168E+02  0.66204684201E+02  0.47000000000E+01 0.  1.
          5    1    3    3  503    0  0.16546768897E+02  0.17966759938E+02  0.26282516426E+02  0.36186471136E+02  0.47000000000E+01 0. -1.
         -5    1    4    4    0  502 -0.23738471018E+02  0.16271354828E+02  0.48940499554E+02  0.56969592686E+02  0.47000000000E+01 0.  1.
<mgrwt>
<rscale>  0 0.99304134E+02</rscale>
<asrwt>0</asrwt>
<pdfrwt beam="1">  1        1 0.66681471E-01 0.10017283E+03</pdfrwt>
<pdfrwt beam="2">  1       -1 0.11423302E-01 0.10017283E+03</pdfrwt>
<totfact> 0.26021664E+03</totfact>
</mgrwt>
</event>
<event>
 8    1  0.3177960E-004  0.9464210E+02  0.7546771E-02  0.1293251E+00
         -1   -1    0    0    0  501 -0.00000000000E+00  0.00000000000E+00  0.49611235641E+02  0.49611235641E+02  0.00000000000E+00 0.  1.
          1   -1    0    0  501    0  0.00000000000E+00 -0.00000000000E+00 -0.18593726671E+03  0.18593726671E+03  0.00000000000E+00 0. -1.
         23    2    1    2    0    0 -0.46053927392E+01  0.13720774921E+02 -0.40665557832E+02  0.10098233809E+03  0.91292254354E+02 0.  0.
         23    2    1    2    0    0  0.46053927392E+01 -0.13720774921E+02 -0.95660473239E+02  0.13456616427E+03  0.93528910601E+02 0.  0.
          5    1    3    3  502    0 -0.32578709577E+02 -0.13182954652E+01  0.15408255603E+02  0.36367768166E+02  0.47000000000E+01 0. -1.
         -5    1    3    3    0  502  0.27973316838E+02  0.15039070386E+02 -0.56073813435E+02  0.64614569921E+02  0.47000000000E+01 0.  1.
          5    1    4    4  503    0 -0.22651075351E+02  0.22611883178E+02 -0.79999895926E+02  0.86292768084E+02  0.47000000000E+01 0. -1.
         -5    1    4    4    0  503  0.27256468090E+02 -0.36332658098E+02 -0.15660577313E+02  0.48273396182E+02  0.47000000000E+01 0.  1.
<mgrwt>
<rscale>  0 0.94084764E+02</rscale>
<asrwt>0</asrwt>
<pdfrwt beam="1">  1        1 0.28605734E-01 0.94642096E+02</pdfrwt>
<pdfrwt beam="2">  1       -1 0.76324977E-02 0.94642096E+02</pdfrwt>
<totfact> 0.13486228E+04</totfact>
</mgrwt>
</event>
<event>
 8    1  0.3177960E-004  0.1150962E+03  0.7546771E-02  0.1264286E+00
          1   -1    0    0  501    0  0.00000000000E+00  0.00000000000E+00  0.25495840524E+03  0.25495840524E+03  0.00000000000E+00 0. -1.
         -1   -1    0    0    0  501 -0.00000000000E+00 -0.00000000000E+00 -0.43650634461E+02  0.43650634461E+02  0.00000000000E+00 0.  1.
         23    2    1    2    0    0  0.35419198053E+02  0.18823686471E+02  0.15496237440E+03  0.19302970199E+03  0.10788084914E+03 0.  0.
         23    2    1    2    0    0 -0.35419198053E+02 -0.18823686471E+02  0.56345396386E+02  0.10557933771E+03  0.79770559070E+02 0.  0.
          5    1    3    3  502    0  0.52471518805E+01 -0.29484214939E+02  0.12476012887E+03  0.12839015262E+03  0.47000000000E+01 0. -1.
         -5    1    4    4    0  503 -0.57457620320E+01  0.27096852665E+02  0.17159696833E+01  0.28147606606E+02  0.47000000000E+01 0.  1.
          5    1    4    4  503    0 -0.29673436021E+02 -0.45920539136E+02  0.54629426702E+02  0.77431731104E+02  0.47000000000E+01 0. -1.
         -5    1    3    3    0  502  0.30172046172E+02  0.48307901410E+02  0.30202245526E+02  0.64639549378E+02  0.47000000000E+01 0.  1.
<mgrwt>
<rscale>  0 0.10801719E+03</rscale>
<asrwt>0</asrwt>
<pdfrwt beam="1">  1        1 0.39224369E-01 0.11509617E+03</pdfrwt>
<pdfrwt beam="2">  1       -1 0.67154824E-02 0.11509617E+03</pdfrwt>
<totfact> 0.11267801E+04</totfact>
</mgrwt>
</event>
<event>
 8    1  0.3177960E-004  0.1041996E+03  0.7546771E-02  0.1272719E+00
         -1   -1    0    0    0  501 -0.00000000000E+00  0.00000000000E+00  0.69930199523E+02  0.69930199523E+02  0.00000000000E+00 0.  1.
          1   -1    0    0  501    0  0.00000000000E+00 -0.00000000000E+00 -0.17279672244E+03  0.17279672244E+03  0.00000000000E+00 0. -1.
         23    2    1    2    0    0 -0.44099575604E+02 -0.13595050395E+02 -0.91642835024E+01  0.10259248007E+03  0.91168168303E+02 0.  0.
         23    2    1    2    0    0  0.44099575604E+02  0.13595050395E+02 -0.93702239412E+02  0.14013444189E+03  0.93423520424E+02 0.  0.
          5    1    3    3  502    0 -0.27324122964E+02  0.30417076255E+02  0.21259707817E+02  0.46323551246E+02  0.47000000000E+01 0. -1.
         -5    1    3    3    0  502 -0.16775452640E+02 -0.44012126650E+02 -0.30423991319E+02  0.56268928827E+02  0.47000000000E+01 0.  1.
          5    1    4    4  503    0  0.42634768416E+02  0.42962848190E+02 -0.92106415007E+02  0.11031414908E+03  0.47000000000E+01 0. -1.
         -5    1    4    4    0  503  0.14648071878E+01 -0.29367797795E+02 -0.15958244053E+01  0.29820292804E+02  0.47000000000E+01 0.  1.
<mgrwt>
<rscale>  0 0.10369157E+03</rscale>
<asrwt>0</asrwt>
<pdfrwt beam="1">  1        1 0.26584111E-01 0.10419958E+03</pdfrwt>
<pdfrwt beam="2">  1       -1 0.10758492E-01 0.10419958E+03</pdfrwt>
<totfact> 0.88825357E+03</totfact>
</mgrwt>
</event>
<event>
 8    1  0.3177960E-004  0.9375718E+02  0.7546771E-02  0.1294133E+00
          1   -1    0    0  501    0  0.00000000000E+00  0.00000000000E+00  0.90823817207E+02  0.90823817207E+02  0.00000000000E+00 0. -1.
         -1   -1    0    0    0  501 -0.00000000000E+00 -0.00000000000E+00 -0.12377770155E+03  0.12377770155E+03  0.00000000000E+00 0.  1.
         23    2    1    2    0    0  0.12905433614E+02 -0.96519836909E+01 -0.66790335336E+02  0.11492547589E+03  0.92126028395E+02 0.  0.
         23    2    1    2    0    0 -0.12905433614E+02  0.96519836909E+01  0.33836450992E+02  0.99676042871E+02  0.92361772941E+02 0.  0.
          5    1    3    3  502    0  0.35496957811E+02  0.10660972856E+02  0.41699492797E+01  0.37592137915E+02  0.47000000000E+01 0. -1.
         -5    1    3    3    0  502 -0.22591524197E+02 -0.20312956547E+02 -0.70960284616E+02  0.77333337972E+02  0.47000000000E+01 0.  1.
          5    1    4    4  503    0 -0.46115880080E+02  0.15770020792E+02  0.42122095409E+02  0.64588922216E+02  0.47000000000E+01 0. -1.
         -5    1    4    4    0  503  0.33210446466E+02 -0.61180371014E+01 -0.82856444177E+01  0.35087120655E+02  0.47000000000E+01 0.  1.
<mgrwt>
<rscale>  0 0.93699066E+02</rscale>
<asrwt>0</asrwt>
<pdfrwt beam="1">  1        1 0.13972895E-01 0.93757176E+02</pdfrwt>
<pdfrwt beam="2">  1       -1 0.19042723E-01 0.93757176E+02</pdfrwt>
<totfact> 0.81836773E+03</totfact>
</mgrwt>
</event>
<event>
 8    1  0.3177960E-004  0.9846400E+02  0.7546771E-02  0.1284830E+00
          2   -1    0    0  501    0  0.00000000000E+00  0.00000000000E+00  0.14905159661E+03  0.14905159661E+03  0.00000000000E+00 0. -1.
         -2   -1    0    0    0  501 -0.00000000000E+00 -0.00000000000E+00 -0.65554459746E+02  0.65554459746E+02  0.00000000000E+00 0.  1.
         23    2    1    2    0    0  0.32591437410E+02  0.40249848210E+01  0.60204452177E+02  0.11342449403E+03  0.90344548748E+02 0.  0.
         23    2    1    2    0    0 -0.32591437410E+02 -0.40249848210E+01  0.23292684691E+02  0.10118156233E+03  0.92826489217E+02 0.  0.
          5    1    4    4  502    0 -0.59865637780E+02  0.17416805729E+02  0.21527146211E+02  0.66126755044E+02  0.47000000000E+01 0. -1.
         -5    1    4    4    0  502  0.27274200370E+02 -0.21441790550E+02  0.17655384802E+01  0.35054807287E+02  0.47000000000E+01 0.  1.
          5    1    3    3  503    0  0.26923542130E+02  0.23839141998E+02  0.77854120858E+02  0.85886762348E+02  0.47000000000E+01 0. -1.
         -5    1    3    3    0  503  0.56678952801E+01 -0.19814157177E+02 -0.17649668682E+02  0.27537731681E+02  0.47000000000E+01 0.  1.
<mgrwt>
<rscale>  0 0.97874662E+02</rscale>
<asrwt>0</asrwt>
<pdfrwt beam="1">  1        2 0.22931015E-01 0.98464001E+02</pdfrwt>
<pdfrwt beam="2">  1       -2 0.10085302E-01 0.98464001E+02</pdfrwt>
<totfact> 0.14087279E+04</totfact>
</mgrwt>
</event>
<event>
 7    1  0.3556676E-004  0.1465585E+03  0.7546771E-02  0.1227863E+00
          1   -1    0    0  501    0  0.00000000000E+00  0.00000000000E+00  0.32628041891E+03  0.32628041891E+03  0.00000000000E+00 0. -1.
         -1   -1    0    0    0  501 -0.00000000000E+00 -0.00000000000E+00 -0.96628417041E+02  0.96628417041E+02  0.00000000000E+00 0.  1.
         23    2    1    2    0    0 -0.11150674572E+01  0.90345985047E+01 -0.53074163139E+02  0.10445399095E+03  0.89503642869E+02 0.  0.
          5    1    3    3  502    0 -0.38548033675E+02  0.26549608479E+02 -0.19191733619E+02  0.50805956835E+02  0.47000000000E+01 0. -1.
         -5    1    3    3    0  502  0.37432966218E+02 -0.17515009974E+02 -0.33882429520E+02  0.53648034115E+02  0.47000000000E+01 0.  1.
          5    1    1    2  503    0 -0.23902674209E+02 -0.73379792443E+02  0.14532183506E+03  0.16461001646E+03  0.47000000000E+01 0. -1.
         -5    1    1    2    0  503  0.25017741666E+02  0.64345193938E+02  0.13740432995E+03  0.15384482854E+03  0.47000000000E+01 0.  1.
<mgrwt>
<rscale>  0 0.12972605E+03</rscale>
<asrwt>0</asrwt>
<pdfrwt beam="1">  1        1 0.50196987E-01 0.14655853E+03</pdfrwt>
<pdfrwt beam="2">  1       -1 0.14865910E-01 0.14655853E+03</pdfrwt>
<totfact> 0.25071744E+03</totfact>
</mgrwt>
</event>
<event>
 8    1  0.3177960E-004  0.1008269E+03  0.7546771E-02  0.1279145E+00
         -4   -1    0    0    0  501 -0.00000000000E+00  0.00000000000E+00  0.13964411270E+03  0.13964411270E+03  0.00000000000E+00 0.  1.
          4   -1    0    0  501    0  0.00000000000E+00 -0.00000000000E+00 -0.72018826660E+02  0.72018826660E+02  0.00000000000E+00 0. -1.
         23    2    1    2    0    0  0.38637059642E+02  0.21535584359E+02  0.32448302200E+02  0.10591961355E+03  0.90606117057E+02 0.  0.
         23    2    1    2    0    0 -0.38637059642E+02 -0.21535584359E+02  0.35176983843E+02  0.10574332581E+03  0.89373525104E+02 0.  0.
          5    1    3    3  502    0 -0.14370863943E+02 -0.25473287989E+02  0.12610532933E+02  0.32195118765E+02  0.47000000000E+01 0. -1.
         -5    1    4    4    0  503 -0.54814850739E+02  0.74715017453E+01 -0.21446322361E+01  0.55562403182E+02  0.47000000000E+01 0.  1.
          5    1    4    4  503    0  0.16177791097E+02 -0.29007086104E+02  0.37321616079E+02  0.50180922628E+02  0.47000000000E+01 0. -1.
         -5    1    3    3    0  502  0.53007923585E+02  0.47008872348E+02  0.19837769267E+02  0.73724494788E+02  0.47000000000E+01 0.  1.
<mgrwt>
<rscale>  0 0.10054925E+03</rscale>
<asrwt>0</asrwt>
<pdfrwt beam="1">  1        4 0.11079820E-01 0.10082694E+03</pdfrwt>
<pdfrwt beam="2">  1       -4 0.21483710E-01 0.10082694E+03</pdfrwt>
<totfact> 0.19317688E+03</totfact>
</mgrwt>
</event>
<event>
 8    1  0.3177960E-004  0.9675280E+02  0.7546771E-02  0.1294371E+00
          1   -1    0    0  501    0  0.00000000000E+00  0.00000000000E+00  0.14411151185E+03  0.14411151185E+03  0.00000000000E+00 0. -1.
         -1   -1    0    0    0  501 -0.00000000000E+00 -0.00000000000E+00 -0.67685753960E+02  0.67685753960E+02  0.00000000000E+00 0.  1.
         23    2    1    2    0    0 -0.74656703403E+01  0.73180653600E+01  0.82081635451E+02  0.12687986392E+03  0.96186353901E+02 0.  0.
         23    2    1    2    0    0  0.74656703403E+01 -0.73180653600E+01 -0.56558775633E+01  0.84917401884E+02  0.84081424093E+02 0.  0.
          5    1    4    4  502    0  0.18790578821E+02 -0.25502059797E+02  0.29461259724E+02  0.43514327880E+02  0.47000000000E+01 0. -1.
         -5    1    3    3    0  503 -0.56748509274E+01  0.51497908420E+02  0.48917230090E+02  0.71408850323E+02  0.47000000000E+01 0.  1.
          5    1    3    3  503    0 -0.17908194128E+01 -0.44179843060E+02  0.33164405360E+02  0.55471013601E+02  0.47000000000E+01 0. -1.
         -5    1    4    4    0  502 -0.11324908481E+02  0.18183994437E+02 -0.35117137287E+02  0.41403074004E+02  0.47000000000E+01 0.  1.
<mgrwt>
<rscale>  0 0.93595611E+02</rscale>
<asrwt>0</asrwt>
<pdfrwt beam="1">  1        1 0.22171002E-01 0.96752804E+02</pdfrwt>
<pdfrwt beam="2">  1       -1 0.10413193E-01 0.96752804E+02</pdfrwt>
<totfact> 0.11624960E+04</totfact>
</mgrwt>
</event>
<event>
 8    1  0.3177960E-004  0.1333349E+03  0.7546771E-02  0.1222846E+00
         -2   -1    0    0    0  501 -0.00000000000E+00  0.00000000000E+00  0.28951985225E+02  0.28951985225E+02  0.00000000000E+00 0.  1.
          2   -1    0    0  501    0  0.00000000000E+00 -0.00000000000E+00 -0.63877534730E+03  0.63877534730E+03  0.00000000000E+00 0. -1.
         23    2    1    2    0    0  0.98873339361E+01 -0.95812938969E+02 -0.23580188146E+03  0.27088874422E+03  0.92197102991E+02 0.  0.
         23    2    1    2    0    0 -0.98873339361E+01  0.95812938969E+02 -0.37402148062E+03  0.39683858831E+03  0.91164239470E+02 0.  0.
          5    1    3    3  502    0 -0.11584660353E+02 -0.50463478803E+02 -0.20574227393E+03  0.21220919002E+03  0.47000000000E+01 0. -1.
         -5    1    3    3    0  502  0.21471994289E+02 -0.45349460166E+02 -0.30059607529E+02  0.58679554199E+02  0.47000000000E+01 0.  1.
          5    1    4    4  503    0 -0.29623924682E+02  0.15520155138E+02 -0.38344064027E+02  0.51096079841E+02  0.47000000000E+01 0. -1.
         -5    1    4    4    0  503  0.19736590745E+02  0.80292783832E+02 -0.33567741659E+03  0.34574250847E+03  0.47000000000E+01 0.  1.
<mgrwt>
<rscale>  0 0.13315648E+03</rscale>
<asrwt>0</asrwt>
<pdfrwt beam="1">  1        2 0.98273119E-01 0.13333486E+03</pdfrwt>
<pdfrwt beam="2">  1       -2 0.44541521E-02 0.13333486E+03</pdfrwt>
<totfact> 0.10439488E+04</totfact>
</mgrwt>
</event>
<event>
 8    1  0.3177960E-004  0.9344908E+02  0.7546771E-02  0.1294893E+00
          2   -1    0    0  501    0  0.00000000000E+00  0.00000000000E+00  0.65381544567E+02  0.65381544567E+02  0.00000000000E+00 0. -1.
         -2   -1    0    0    0  501 -0.00000000000E+00 -0.00000000000E+00 -0.17486012788E+03  0.17486012788E+03  0.00000000000E+00 0.  1.
         23    2    1    2    0    0 -0.16046909859E+02 -0.11994482119E+02 -0.11350707837E+03  0.14702580288E+03  0.91276278168E+02 0.  0.
         23    2    1    2    0    0  0.16046909859E+02  0.11994482119E+02  0.40284950561E+01  0.93215869564E+02  0.90948329555E+02 0.  0.
          5    1    4    4  502    0  0.51974881800E+02 -0.29313787401E+01  0.10996194661E+02  0.53413365523E+02  0.47000000000E+01 0.  1.
         -5    1    4    4    0  502 -0.35927971941E+02  0.14925860859E+02 -0.69676996046E+01  0.39802504042E+02  0.47000000000E+01 0. -1.
          5    1    3    3  503    0 -0.44098269176E+02 -0.34370558227E+02 -0.57457946143E+02  0.80308767841E+02  0.47000000000E+01 0. -1.
         -5    1    3    3    0  503  0.28051359317E+02  0.22376076108E+02 -0.56049132225E+02  0.66717035041E+02  0.47000000000E+01 0.  1.
<mgrwt>
<rscale>  0 0.93368899E+02</rscale>
<asrwt>0</asrwt>
<pdfrwt beam="1">  1        2 0.10058699E-01 0.93449076E+02</pdfrwt>
<pdfrwt beam="2">  1       -2 0.26901558E-01 0.93449076E+02</pdfrwt>
<totfact> 0.72523583E+03</totfact>
</mgrwt>
</event>
<event>
 8    1  0.3177960E-004  0.9502432E+02  0.7546771E-02  0.1296606E+00
          1   -1    0    0  501    0  0.00000000000E+00  0.00000000000E+00  0.75252624635E+02  0.75252624635E+02  0.00000000000E+00 0. -1.
         -1   -1    0    0    0  501 -0.00000000000E+00 -0.00000000000E+00 -0.19692423664E+03  0.19692423664E+03  0.00000000000E+00 0.  1.
         23    2    1    2    0    0 -0.18482127009E+02 -0.67355706914E+01  0.31936693269E+02  0.91552573908E+02  0.83516252794E+02 0.  0.
         23    2    1    2    0    0  0.18482127009E+02  0.67355706914E+01 -0.15360830528E+03  0.18062428737E+03  0.92965933579E+02 0.  0.
          5    1    3    3  502    0 -0.44783521304E+02  0.12032816003E+02  0.10713285755E+01  0.46621778025E+02  0.47000000000E+01 0. -1.
         -5    1    3    3    0  502  0.26301394294E+02 -0.18768386694E+02  0.30865364694E+02  0.44930795882E+02  0.47000000000E+01 0.  1.
          5    1    4    4  503    0  0.10472315199E+02 -0.17648318229E+02  0.35192825810E+01  0.21344972987E+02  0.47000000000E+01 0. -1.
         -5    1    4    4    0  503  0.80098118103E+01  0.24383888920E+02 -0.15712758786E+03  0.15927931438E+03  0.47000000000E+01 0.  1.
<mgrwt>
<rscale>  0 0.92629641E+02</rscale>
<asrwt>0</asrwt>
<pdfrwt beam="1">  1        1 0.11577327E-01 0.95024322E+02</pdfrwt>
<pdfrwt beam="2">  1       -1 0.30296036E-01 0.95024322E+02</pdfrwt>
<totfact> 0.49213034E+03</totfact>
</mgrwt>
</event>
<event>
 8    1  0.3177960E-004  0.9488355E+02  0.7546771E-02  0.1292572E+00
          1   -1    0    0  501    0  0.00000000000E+00  0.00000000000E+00  0.21784222960E+03  0.21784222960E+03  0.00000000000E+00 0. -1.
         -1   -1    0    0    0  501 -0.00000000000E+00 -0.00000000000E+00 -0.43370624704E+02  0.43370624704E+02  0.00000000000E+00 0.  1.
         23    2    1    2    0    0  0.16061082499E+02 -0.89877138147E+01  0.54302384831E+02  0.10932354543E+03  0.93081422514E+02 0.  0.
         23    2    1    2    0    0 -0.16061082499E+02  0.89877138147E+01  0.12016922006E+03  0.15188930887E+03  0.91054836924E+02 0.  0.
          5    1    3    3  502    0  0.49207206815E+02  0.16554922695E+02  0.23673443486E+02  0.57253267108E+02  0.47000000000E+01 0. -1.
         -5    1    3    3    0  502 -0.33146124316E+02 -0.25542636510E+02  0.30628941344E+02  0.52070278326E+02  0.47000000000E+01 0.  1.
          5    1    4    4  503    0  0.68736739139E+01  0.24870142556E+02  0.12077757058E+03  0.12359240648E+03  0.47000000000E+01 0. -1.
         -5    1    4    4    0  503 -0.22934756413E+02 -0.15882428742E+02 -0.60835051811E+00  0.28296902389E+02  0.47000000000E+01 0.  1.
<mgrwt>
<rscale>  0 0.94382787E+02</rscale>
<asrwt>0</asrwt>
<pdfrwt beam="1">  1        1 0.33514189E-01 0.94883553E+02</pdfrwt>
<pdfrwt beam="2">  1       -1 0.66724039E-02 0.94883553E+02</pdfrwt>
<totfact> 0.13560662E+04</totfact>
</mgrwt>
</event>
<event>
 8    1  0.3177960E-004  0.9196458E+02  0.7546771E-02  0.1298194E+00
         -2   -1    0    0    0  501 -0.00000000000E+00  0.00000000000E+00  0.66278567131E+02  0.66278567131E+02  0.00000000000E+00 0.  1.
          2   -1    0    0  501    0  0.00000000000E+00 -0.00000000000E+00 -0.25545314672E+03  0.25545314672E+03  0.00000000000E+00 0. -1.
         23    2    1    2    0    0  0.11710945271E+02 -0.10425741667E+02 -0.20843646078E+03  0.22782283158E+03  0.90618111203E+02 0.  0.
         23    2    1    2    0    0 -0.11710945271E+02  0.10425741667E+02  0.19261881189E+02  0.93908882272E+02  0.90564980949E+02 0.  0.
          5    1    3    3  502    0 -0.23566290688E+02  0.25126883217E+02 -0.13057487479E+03  0.13512445465E+03  0.47000000000E+01 0. -1.
         -5    1    4    4    0  503  0.34931789178E+02  0.21653664029E+02  0.19432861055E+02  0.45703797980E+02  0.47000000000E+01 0.  1.
          5    1    4    4  503    0 -0.46642734449E+02 -0.11227922361E+02 -0.17097986603E+00  0.48205084292E+02  0.47000000000E+01 0. -1.
         -5    1    3    3    0  502  0.35277235959E+02 -0.35552624884E+02 -0.77861585982E+02  0.92698376926E+02  0.47000000000E+01 0.  1.
<mgrwt>
<rscale>  0 0.91951492E+02</rscale>
<asrwt>0</asrwt>
<pdfrwt beam="1">  1        2 0.39300484E-01 0.91964582E+02</pdfrwt>
<pdfrwt beam="2">  1       -2 0.10196703E-01 0.91964582E+02</pdfrwt>
<totfact> 0.77219759E+03</totfact>
</mgrwt>
</event>
<event>
 8    1  0.3177960E-004  0.1129821E+03  0.7546771E-02  0.1258293E+00
          1   -1    0    0  501    0  0.00000000000E+00  0.00000000000E+00  0.34509797070E+03  0.34509797070E+03  0.00000000000E+00 0. -1.
         -1   -1    0    0    0  501 -0.00000000000E+00 -0.00000000000E+00 -0.36162750869E+02  0.36162750869E+02  0.00000000000E+00 0.  1.
         23    2    1    2    0    0 -0.51943658767E+02  0.15220125470E+02  0.19617710573E+03  0.22638553716E+03  0.99172368708E+02 0.  0.
         23    2    1    2    0    0  0.51943658767E+02 -0.15220125470E+02  0.11275811409E+03  0.15487518440E+03  0.91335286419E+02 0.  0.
          5    1    4    4  502    0  0.64480218139E+02 -0.40649980862E+02  0.91180642034E+02  0.11893745817E+03  0.47000000000E+01 0. -1.
         -5    1    3    3    0  503  0.26075746142E+02  0.63684869006E+01  0.91347704073E+02  0.95325732107E+02  0.47000000000E+01 0. -1.
          5    1    3    3  503    0 -0.78019404909E+02  0.88516385694E+01  0.10482940166E+03  0.13105980505E+03  0.47000000000E+01 0.  1.
         -5    1    4    4    0  502 -0.12536559372E+02  0.25429855392E+02  0.21577472058E+02  0.35937726229E+02  0.47000000000E+01 0.  1.
<mgrwt>
<rscale>  0 0.11123898E+03</rscale>
<asrwt>0</asrwt>
<pdfrwt beam="1">  1        1 0.53091993E-01 0.11298210E+03</pdfrwt>
<pdfrwt beam="2">  1       -1 0.55635004E-02 0.11298210E+03</pdfrwt>
<totfact> 0.10246249E+04</totfact>
</mgrwt>
</event>
<event>
 8    1  0.3177960E-004  0.9537026E+02  0.7546771E-02  0.1290828E+00
          1   -1    0    0  501    0  0.00000000000E+00  0.00000000000E+00  0.27388719538E+03  0.27388719538E+03  0.00000000000E+00 0. -1.
         -1   -1    0    0    0  501 -0.00000000000E+00 -0.00000000000E+00 -0.33390936738E+02  0.33390936738E+02  0.00000000000E+00 0.  1.
         23    2    1    2    0    0  0.20352575189E+02 -0.16146093843E+02  0.13814421021E+03  0.16738020899E+03  0.90870170484E+02 0.  0.
         23    2    1    2    0    0 -0.20352575189E+02  0.16146093843E+02  0.10235204844E+03  0.13989792314E+03  0.91763627950E+02 0.  0.
          5    1    4    4  502    0 -0.40861104016E+02 -0.25691697553E+02  0.54208323452E+02  0.72734623639E+02  0.47000000000E+01 0. -1.
         -5    1    4    4    0  502  0.20508528826E+02  0.41837791396E+02  0.48143724988E+02  0.67163299496E+02  0.47000000000E+01 0.  1.
          5    1    3    3  503    0  0.32877291862E+02 -0.43071968743E+02  0.12125672358E+03  0.13289617687E+03  0.47000000000E+01 0. -1.
         -5    1    3    3    0  503 -0.12524716673E+02  0.26925874900E+02  0.16887486622E+02  0.34484032120E+02  0.47000000000E+01 0.  1.
<mgrwt>
<rscale>  0 0.95154694E+02</rscale>
<asrwt>0</asrwt>
<pdfrwt beam="1">  1        1 0.42136490E-01 0.95370263E+02</pdfrwt>
<pdfrwt beam="2">  1       -1 0.51370674E-02 0.95370263E+02</pdfrwt>
<totfact> 0.15076931E+04</totfact>
</mgrwt>
</event>
<event>
 8    1  0.3177960E-004  0.1044198E+03  0.7546771E-02  0.1274613E+00
         -1   -1    0    0    0  501 -0.00000000000E+00  0.00000000000E+00  0.28608703265E+02  0.28608703265E+02  0.00000000000E+00 0.  1.
          1   -1    0    0  501    0  0.00000000000E+00 -0.00000000000E+00 -0.41613926563E+03  0.41613926563E+03  0.00000000000E+00 0. -1.
         23    2    1    2    0    0  0.40393064394E+02 -0.26564935784E+02 -0.11584966538E+03  0.15596360633E+03  0.92553800930E+02 0.  0.
         23    2    1    2    0    0 -0.40393064394E+02  0.26564935784E+02 -0.27168089698E+03  0.28878436256E+03  0.85138726858E+02 0.  0.
          5    1    3    3  502    0 -0.37582359574E+01 -0.41563320514E+02 -0.96533998837E+02  0.10527362861E+03  0.47000000000E+01 0. -1.
         -5    1    3    3    0  502  0.44151300351E+02  0.14998384730E+02 -0.19315666547E+02  0.50689977721E+02  0.47000000000E+01 0.  1.
          5    1    4    4  503    0 -0.65580109624E+02  0.28459621643E+02 -0.21298883271E+03  0.22471545052E+03  0.47000000000E+01 0. -1.
         -5    1    4    4    0  503  0.25187045231E+02 -0.18946858583E+01 -0.58692064273E+02  0.64068912045E+02  0.47000000000E+01 0.  1.
<mgrwt>
<rscale>  0 0.10275225E+03</rscale>
<asrwt>0</asrwt>
<pdfrwt beam="1">  1        1 0.64021422E-01 0.10441983E+03</pdfrwt>
<pdfrwt beam="2">  1       -1 0.44013392E-02 0.10441983E+03</pdfrwt>
<totfact> 0.11379593E+04</totfact>
</mgrwt>
</event>
<event>
 8    1  0.3177960E-004  0.9388807E+02  0.7546771E-02  0.1295043E+00
         -2   -1    0    0    0  501 -0.00000000000E+00  0.00000000000E+00  0.43878173090E+03  0.43878173090E+03  0.00000000000E+00 0.  1.
          2   -1    0    0  501    0  0.00000000000E+00 -0.00000000000E+00 -0.20948481405E+02  0.20948481405E+02  0.00000000000E+00 0. -1.
         23    2    1    2    0    0 -0.85955728455E+01 -0.99648384840E+01  0.14810350331E+03  0.17412715754E+03  0.90622499531E+02 0.  0.
         23    2    1    2    0    0  0.85955728455E+01  0.99648384840E+01  0.26972974618E+03  0.28560305476E+03  0.92961212535E+02 0.  0.
          5    1    4    4  502    0  0.77865730478E+01 -0.24114074132E+02  0.17770746083E+02  0.31305090759E+02  0.47000000000E+01 0. -1.
         -5    1    3    3    0  503 -0.45313905085E+02 -0.45261174837E+01  0.11642342601E+03  0.12510131837E+03  0.47000000000E+01 0.  1.
          5    1    3    3  503    0  0.36718332240E+02 -0.54387210003E+01  0.31680077298E+02  0.49025839168E+02  0.47000000000E+01 0. -1.
         -5    1    4    4    0  502  0.80899979770E+00  0.34078912616E+02  0.25195900010E+03  0.25429796401E+03  0.47000000000E+01 0.  1.
<mgrwt>
<rscale>  0 0.93303876E+02</rscale>
<asrwt>0</asrwt>
<pdfrwt beam="1">  1        2 0.32228436E-02 0.93888066E+02</pdfrwt>
<pdfrwt beam="2">  1       -2 0.67504875E-01 0.93888066E+02</pdfrwt>
<totfact> 0.53525977E+03</totfact>
</mgrwt>
</event>
<event>
 7    1  0.3177960E-004  0.1629590E+03  0.7546771E-02  0.1197122E+00
          1   -1    0    0  501    0  0.00000000000E+00  0.00000000000E+00  0.26322667369E+03  0.26322667369E+03  0.00000000000E+00 0. -1.
         -1   -1    0    0    0  501 -0.00000000000E+00 -0.00000000000E+00 -0.98015701847E+02  0.98015701847E+02  0.00000000000E+00 0.  1.
         23    2    1    2    0    0  0.84140377645E+02  0.17898988935E+02 -0.45575617611E+01  0.12591924580E+03  0.91841755964E+02 0.  0.
          5    1    3    3  502    0  0.63917405913E+02  0.72571718688E+01  0.39806862947E+02  0.75794311527E+02  0.47000000000E+01 0. -1.
         -5    1    1    2    0  503  0.20305807501E+02 -0.24503581692E+02 -0.40020286289E+01  0.32416933340E+02  0.47000000000E+01 0.  1.
          5    1    1    2  503    0 -0.10444618515E+03  0.66045927572E+01  0.17377056223E+03  0.20290619639E+03  0.47000000000E+01 0. -1.
         -5    1    3    3    0  502  0.20222971732E+02  0.10641817066E+02 -0.44364424708E+02  0.50124934273E+02  0.47000000000E+01 0.  1.
<mgrwt>
<rscale>  0 0.15276031E+03</rscale>
<asrwt>0</asrwt>
<pdfrwt beam="1">  1        1 0.40496411E-01 0.16295895E+03</pdfrwt>
<pdfrwt beam="2">  1       -1 0.15079339E-01 0.16295895E+03</pdfrwt>
<totfact> 0.32153609E+03</totfact>
</mgrwt>
</event>
<event>
 8    1  0.3177960E-004  0.9494117E+02  0.7546771E-02  0.1292184E+00
          1   -1    0    0  501    0  0.00000000000E+00  0.00000000000E+00  0.38985050707E+03  0.38985050707E+03  0.00000000000E+00 0. -1.
         -1   -1    0    0    0  501 -0.00000000000E+00 -0.00000000000E+00 -0.36237403752E+02  0.36237403752E+02  0.00000000000E+00 0.  1.
         23    2    1    2    0    0  0.11031520276E+02 -0.30066637681E+02  0.30769565408E+03  0.32201000188E+03  0.89376331475E+02 0.  0.
         23    2    1    2    0    0 -0.11031520276E+02  0.30066637681E+02  0.45917449232E+02  0.10407790894E+03  0.87738827460E+02 0.  0.
          5    1    3    3  502    0 -0.31048186014E+02 -0.18282638817E+02  0.22907149138E+03  0.23193551453E+03  0.47000000000E+01 0. -1.
         -5    1    4    4    0  503  0.12162616525E+02  0.56404088171E+02  0.26122350641E+02  0.63512342156E+02  0.47000000000E+01 0.  1.
          5    1    4    4  503    0 -0.23194136800E+02 -0.26337450490E+02  0.19795098591E+02  0.40565566784E+02  0.47000000000E+01 0. -1.
         -5    1    3    3    0  502  0.42079706290E+02 -0.11783998864E+02  0.78624162701E+02  0.90074487348E+02  0.47000000000E+01 0.  1.
<mgrwt>
<rscale>  0 0.94553833E+02</rscale>
<asrwt>0</asrwt>
<pdfrwt beam="1">  1        1 0.59976998E-01 0.94941170E+02</pdfrwt>
<pdfrwt beam="2">  1       -1 0.55749854E-02 0.94941170E+02</pdfrwt>
<totfact> 0.86611993E+03</totfact>
</mgrwt>
</event>
<event>
 8    1  0.3177960E-004  0.1058506E+03  0.7546771E-02  0.1271253E+00
         -1   -1    0    0    0  501 -0.00000000000E+00  0.00000000000E+00  0.19694218144E+02  0.19694218144E+02  0.00000000000E+00 0.  1.
          1   -1    0    0  501    0  0.00000000000E+00 -0.00000000000E+00 -0.70505220968E+03  0.70505220968E+03  0.00000000000E+00 0. -1.
         23    2    1    2    0    0 -0.36365645634E+02  0.93387212911E+01 -0.17413338715E+03  0.20378120318E+03  0.98968026910E+02 0.  0.
         23    2    1    2    0    0  0.36365645634E+02 -0.93387212911E+01 -0.51122460438E+03  0.52096522464E+03  0.92975788586E+02 0.  0.
          5    1    3    3  502    0  0.31404671422E+02  0.16254330668E+02 -0.78975446657E+02  0.86658339629E+02  0.47000000000E+01 0. -1.
         -5    1    3    3    0  502 -0.67770317056E+02 -0.69156093770E+01 -0.95157940492E+02  0.11712286355E+03  0.47000000000E+01 0.  1.
          5    1    4    4  503    0  0.34677794399E+02  0.36669561638E+02 -0.33273277756E+03  0.33657153391E+03  0.47000000000E+01 0. -1.
         -5    1    4    4    0  503  0.16878512345E+01 -0.46008282929E+02 -0.17849182682E+03  0.18439369073E+03  0.47000000000E+01 0.  1.
<mgrwt>
<rscale>  0 0.10442709E+03</rscale>
<asrwt>0</asrwt>
<pdfrwt beam="1">  1        1 0.10846959E+00 0.10585057E+03</pdfrwt>
<pdfrwt beam="2">  1       -1 0.30298793E-02 0.10585057E+03</pdfrwt>
<totfact> 0.97689931E+03</totfact>
</mgrwt>
</event>
<event>
 7    1  0.3177960E-004  0.1604171E+03  0.7546771E-02  0.1199765E+00
         -2   -1    0    0    0  501 -0.00000000000E+00  0.00000000000E+00  0.21685193998E+03  0.21685193998E+03  0.00000000000E+00 0.  1.
          2   -1    0    0  501    0  0.00000000000E+00 -0.00000000000E+00 -0.27981087387E+03  0.27981087387E+03  0.00000000000E+00 0. -1.
         23    2    1    2    0    0 -0.84340206263E+02  0.36763755721E+01  0.17188596601E+03  0.21225855331E+03  0.91553929526E+02 0.  0.
          5    1    1    2  502    0  0.62297744674E+02  0.55059702751E+02 -0.18908594810E+03  0.20661114594E+03  0.47000000000E+01 0. -1.
         -5    1    3    3    0  503 -0.92720053492E+02  0.27434606210E+02  0.15016055631E+03  0.17866154765E+03  0.47000000000E+01 0.  1.
          5    1    3    3  503    0  0.83798472285E+01 -0.23758230638E+02  0.21725409703E+02  0.33597005661E+02  0.47000000000E+01 0. -1.
         -5    1    1    2    0  502  0.22042461589E+02 -0.58736078323E+02 -0.45758951798E+02  0.77793114601E+02  0.47000000000E+01 0.  1.
<mgrwt>
<rscale>  0 0.15057772E+03</rscale>
<asrwt>0</asrwt>
<pdfrwt beam="1">  1        2 0.43047827E-01 0.16041713E+03</pdfrwt>
<pdfrwt beam="2">  1       -2 0.33361837E-01 0.16041713E+03</pdfrwt>
<totfact> 0.98441201E+02</totfact>
</mgrwt>
</event>
<event>
 8    1  0.3177960E-004  0.1252151E+03  0.7546771E-02  0.1238614E+00
          2   -1    0    0  501    0  0.00000000000E+00  0.00000000000E+00  0.35737834680E+03  0.35737834680E+03  0.00000000000E+00 0. -1.
         -2   -1    0    0    0  501 -0.00000000000E+00 -0.00000000000E+00 -0.60870636521E+02  0.60870636521E+02  0.00000000000E+00 0.  1.
         23    2    1    2    0    0 -0.50051706544E+01 -0.81455177708E+02  0.27280589415E+03  0.30016973452E+03  0.94967446702E+02 0.  0.
         23    2    1    2    0    0  0.50051706544E+01  0.81455177708E+02  0.23701816132E+02  0.11807924880E+03  0.81981310066E+02 0.  0.
          5    1    3    3  502    0  0.16873675845E+02 -0.20520739646E+02  0.20323429677E+03  0.20501729457E+03  0.47000000000E+01 0. -1.
         -5    1    4    4    0  503  0.39153082733E+02  0.64023506611E+02  0.25529512348E+02  0.79409188933E+02  0.47000000000E+01 0.  1.
          5    1    4    4  503    0 -0.34147912079E+02  0.17431671098E+02 -0.18276962160E+01  0.38670059866E+02  0.47000000000E+01 0. -1.
         -5    1    3    3    0  502 -0.21878846499E+02 -0.60934438062E+02  0.69571597381E+02  0.95152439949E+02  0.47000000000E+01 0.  1.
<mgrwt>
<rscale>  0 0.12275897E+03</rscale>
<asrwt>0</asrwt>
<pdfrwt beam="1">  1        2 0.54981283E-01 0.12521507E+03</pdfrwt>
<pdfrwt beam="2">  1       -2 0.93647136E-02 0.12521507E+03</pdfrwt>
<totfact> 0.63317597E+03</totfact>
</mgrwt>
</event>
<event>
 8    1  0.3177960E-004  0.9318157E+02  0.7546771E-02  0.1296843E+00
          1   -1    0    0  501    0  0.00000000000E+00  0.00000000000E+00  0.52218122626E+03  0.52218122626E+03  0.00000000000E+00 0. -1.
         -1   -1    0    0    0  501 -0.00000000000E+00 -0.00000000000E+00 -0.17216770407E+02  0.17216770407E+02  0.00000000000E+00 0.  1.
         23    2    1    2    0    0 -0.21096016139E+02  0.14855156943E+02  0.18262649699E+03  0.20386176309E+03  0.86841599828E+02 0.  0.
         23    2    1    2    0    0  0.21096016139E+02 -0.14855156943E+02  0.32233795886E+03  0.33553623357E+03  0.89538185918E+02 0.  0.
          5    1    3    3  502    0  0.17595951658E+02 -0.21509073028E+02  0.25749922055E+02  0.38175990139E+02  0.47000000000E+01 0. -1.
         -5    1    3    3    0  502 -0.38691967796E+02  0.36364229971E+02  0.15687657494E+03  0.16568577295E+03  0.47000000000E+01 0.  1.
          5    1    4    4  503    0  0.29729791513E+02  0.27859064154E+02  0.22606519041E+03  0.22975540967E+03  0.47000000000E+01 0. -1.
         -5    1    4    4    0  503 -0.86337753747E+01 -0.42714221097E+02  0.96272768449E+02  0.10578082390E+03  0.47000000000E+01 0.  1.
<mgrwt>
<rscale>  0 0.92527698E+02</rscale>
<asrwt>0</asrwt>
<pdfrwt beam="1">  1        1 0.80335561E-01 0.93181566E+02</pdfrwt>
<pdfrwt beam="2">  1       -1 0.26487343E-02 0.93181566E+02</pdfrwt>
<totfact> 0.17608658E+04</totfact>
</mgrwt>
</event>
<event>
 8    1  0.3177960E-004  0.1639361E+03  0.7546771E-02  0.1184376E+00
          1   -1    0    0  501    0  0.00000000000E+00  0.00000000000E+00  0.11454924716E+04  0.11454924716E+04  0.00000000000E+00 0. -1.
         -1   -1    0    0    0  501 -0.00000000000E+00 -0.00000000000E+00 -0.24931146457E+02  0.24931146457E+02  0.00000000000E+00 0.  1.
         23    2    1    2    0    0 -0.12978981048E+03  0.39912831656E+02  0.70398879658E+03  0.72282450643E+03  0.91851033448E+02 0.  0.
         23    2    1    2    0    0  0.12978981048E+03 -0.39912831656E+02  0.41657252852E+03  0.44759911159E+03  0.91508820020E+02 0.  0.
          5    1    4    4  502    0  0.10391839928E+03 -0.62671136140E+02  0.25656743192E+03  0.28385848963E+03  0.47000000000E+01 0. -1.
         -5    1    4    4    0  502  0.25871411198E+02  0.22758304484E+02  0.16000509660E+03  0.16374062196E+03  0.47000000000E+01 0.  1.
          5    1    3    3  503    0 -0.72145077651E+02 -0.42113454680E+01  0.51929817796E+03  0.52432369324E+03  0.47000000000E+01 0. -1.
         -5    1    3    3    0  503 -0.57644732827E+02  0.44124177124E+02  0.18469061862E+03  0.19850081319E+03  0.47000000000E+01 0.  1.
<mgrwt>
<rscale>  0 0.16388820E+03</rscale>
<asrwt>0</asrwt>
<pdfrwt beam="1">  1        1 0.17622957E+00 0.16393609E+03</pdfrwt>
<pdfrwt beam="2">  1       -1 0.38355619E-02 0.16393609E+03</pdfrwt>
<totfact> 0.32448956E+03</totfact>
</mgrwt>
</event>
<event>
 8    1  0.3177960E-004  0.1037672E+03  0.7546771E-02  0.1273393E+00
         -2   -1    0    0    0  501 -0.00000000000E+00  0.00000000000E+00  0.46227401387E+02  0.46227401387E+02  0.00000000000E+00 0.  1.
          2   -1    0    0  501    0  0.00000000000E+00 -0.00000000000E+00 -0.29133054833E+03  0.29133054833E+03  0.00000000000E+00 0. -1.
         23    2    1    2    0    0  0.39992522522E+02 -0.26710602630E+02 -0.45421631908E+02  0.11327289541E+03  0.91949801734E+02 0.  0.
         23    2    1    2    0    0 -0.39992522522E+02  0.26710602630E+02 -0.19968151504E+03  0.22428505431E+03  0.90101165298E+02 0.  0.
          5    1    3    3  502    0 -0.11256643012E+01 -0.40448149949E+02 -0.55180493849E+02  0.68587876887E+02  0.47000000000E+01 0. -1.
         -5    1    3    3    0  502  0.41118186824E+02  0.13737547320E+02  0.97588619412E+01  0.44685018523E+02  0.47000000000E+01 0.  1.
          5    1    4    4  503    0 -0.50271396243E+02  0.52618152904E+02 -0.12942421063E+03  0.14855503893E+03  0.47000000000E+01 0. -1.
         -5    1    4    4    0  503  0.10278873721E+02 -0.25907550274E+02 -0.70257304407E+02  0.75730015375E+02  0.47000000000E+01 0.  1.
<mgrwt>
<rscale>  0 0.10335610E+03</rscale>
<asrwt>0</asrwt>
<pdfrwt beam="1">  1        2 0.44820085E-01 0.10376716E+03</pdfrwt>
<pdfrwt beam="2">  1       -2 0.71119078E-02 0.10376716E+03</pdfrwt>
<totfact> 0.11830090E+04</totfact>
</mgrwt>
</event>
<event>
 8    1  0.3177960E-004  0.9559193E+02  0.7546771E-02  0.1291963E+00
          1   -1    0    0  501    0  0.00000000000E+00  0.00000000000E+00  0.39592558521E+03  0.39592558521E+03  0.00000000000E+00 0. -1.
         -1   -1    0    0    0  501 -0.00000000000E+00 -0.00000000000E+00 -0.22394978438E+02  0.22394978438E+02  0.00000000000E+00 0.  1.
         23    2    1    2    0    0  0.27826177169E+01 -0.10961356304E+02  0.20294758070E+03  0.22277930119E+03  0.91186634079E+02 0.  0.
         23    2    1    2    0    0 -0.27826177169E+01  0.10961356304E+02  0.17058302607E+03  0.19554126245E+03  0.94920610224E+02 0.  0.
          5    1    3    3  502    0 -0.22688589942E+02  0.26197908643E+02  0.37649459452E+02  0.51387491940E+02  0.47000000000E+01 0. -1.
         -5    1    4    4    0  503 -0.18181534022E+01 -0.25311324424E+02  0.54162075270E+01  0.26370326693E+02  0.47000000000E+01 0.  1.
          5    1    4    4  503    0 -0.96446431467E+00  0.36272680728E+02  0.16516681854E+03  0.16917093576E+03  0.47000000000E+01 0. -1.
         -5    1    3    3    0  502  0.25471207659E+02 -0.37159264947E+02  0.16529812125E+03  0.17139180925E+03  0.47000000000E+01 0.  1.
<mgrwt>
<rscale>  0 0.94651466E+02</rscale>
<asrwt>0</asrwt>
<pdfrwt beam="1">  1        1 0.60911623E-01 0.95591927E+02</pdfrwt>
<pdfrwt beam="2">  1       -1 0.34453816E-02 0.95591927E+02</pdfrwt>
<totfact> 0.17155578E+04</totfact>
</mgrwt>
</event>
<event>
 7    1  0.3177960E-004  0.2358009E+03  0.7546771E-02  0.1122622E+00
          1   -1    0    0  501    0  0.00000000000E+00  0.00000000000E+00  0.42788522785E+03  0.42788522785E+03  0.00000000000E+00 0. -1.
         -1   -1    0    0    0  501 -0.00000000000E+00 -0.00000000000E+00 -0.32486546709E+02  0.32486546709E+02  0.00000000000E+00 0.  1.
         23    2    1    2    0    0 -0.12814367490E+01 -0.21078611021E+02  0.19340677308E+03  0.21438043087E+03  0.90037988338E+02 0.  0.
          5    1    3    3  502    0  0.12437114317E+02 -0.51920586314E+02  0.14938070483E+03  0.15870448661E+03  0.47000000000E+01 0. -1.
         -5    1    1    2    0  503 -0.40242795871E+01  0.41771821844E+02 -0.59025771907E+00  0.42231721851E+02  0.47000000000E+01 0.  1.
          5    1    1    2  503    0  0.53057163361E+01 -0.20693210822E+02  0.20258216578E+03  0.20375962184E+03  0.47000000000E+01 0. -1.
         -5    1    3    3    0  502 -0.13718551066E+02  0.30841975293E+02  0.44026068253E+02  0.55675944259E+02  0.47000000000E+01 0.  1.
<mgrwt>
<rscale>  0 0.23580088E+03</rscale>
<asrwt>0</asrwt>
<pdfrwt beam="1">  1        1 0.65828493E-01 0.23580088E+03</pdfrwt>
<pdfrwt beam="2">  1       -1 0.49979306E-02 0.23580088E+03</pdfrwt>
<totfact> 0.96309408E+03</totfact>
</mgrwt>
</event>
<event>
 8    1  0.3177960E-004  0.1048455E+03  0.7546771E-02  0.1274207E+00
         -1   -1    0    0    0  501 -0.00000000000E+00  0.00000000000E+00  0.54459125332E+03  0.54459125332E+03  0.00000000000E+00 0.  1.
          1   -1    0    0  501    0  0.00000000000E+00 -0.00000000000E+00 -0.19238259236E+02  0.19238259236E+02  0.00000000000E+00 0. -1.
         23    2    1    2    0    0  0.36143001548E+02 -0.36164258395E+02  0.29627326547E+03  0.31189677516E+03  0.82991447613E+02 0.  0.
         23    2    1    2    0    0 -0.36143001548E+02  0.36164258395E+02  0.22907972861E+03  0.25193273739E+03  0.91533665741E+02 0.  0.
          5    1    3    3  502    0  0.25967716464E+01  0.26001402658E+02  0.88197182113E+02  0.92106726659E+02  0.47000000000E+01 0. -1.
         -5    1    3    3    0  502  0.33546229901E+02 -0.62165661054E+02  0.20807608336E+03  0.21979004850E+03  0.47000000000E+01 0.  1.
          5    1    4    4  503    0 -0.76827826745E+01  0.63705867366E+02  0.12775869413E+03  0.14304487622E+03  0.47000000000E+01 0. -1.
         -5    1    4    4    0  503 -0.28460218873E+02 -0.27541608971E+02  0.10132103448E+03  0.10888786117E+03  0.47000000000E+01 0.  1.
<mgrwt>
<rscale>  0 0.10295273E+03</rscale>
<asrwt>0</asrwt>
<pdfrwt beam="1">  1        1 0.29597326E-02 0.10484552E+03</pdfrwt>
<pdfrwt beam="2">  1       -1 0.83783258E-01 0.10484552E+03</pdfrwt>
<totfact> 0.48169004E+03</totfact>
</mgrwt>
</event>
<event>
 8    1  0.3177960E-004  0.1072351E+03  0.7546771E-02  0.1268461E+00
         -1   -1    0    0    0  501 -0.00000000000E+00  0.00000000000E+00  0.17939832132E+02  0.17939832132E+02  0.00000000000E+00 0.  1.
          1   -1    0    0  501    0  0.00000000000E+00 -0.00000000000E+00 -0.80593296244E+03  0.80593296244E+03  0.00000000000E+00 0. -1.
         23    2    1    2    0    0  0.69717357899E+01  0.55834483688E+02 -0.58989697587E+03  0.59861415311E+03  0.84819617404E+02 0.  0.
         23    2    1    2    0    0 -0.69717357899E+01 -0.55834483688E+02 -0.19809615444E+03  0.22525864147E+03  0.91286770571E+02 0.  0.
          5    1    3    3  502    0  0.45744600387E+02  0.28913383836E+02 -0.32220911941E+03  0.32675580922E+03  0.47000000000E+01 0. -1.
         -5    1    3    3    0  502 -0.38772864597E+02  0.26921099852E+02 -0.26768785646E+03  0.27185834389E+03  0.47000000000E+01 0.  1.
          5    1    4    4  503    0  0.16292663054E+02 -0.46766112473E+02 -0.19304782472E+03  0.19935413910E+03  0.47000000000E+01 0. -1.
         -5    1    4    4    0  503 -0.23264398844E+02 -0.90683712153E+01 -0.50483297228E+01  0.25904502371E+02  0.47000000000E+01 0.  1.
<mgrwt>
<rscale>  0 0.10584617E+03</rscale>
<asrwt>0</asrwt>
<pdfrwt beam="1">  1        1 0.12398964E+00 0.10723511E+03</pdfrwt>
<pdfrwt beam="2">  1       -1 0.27599751E-02 0.10723511E+03</pdfrwt>
<totfact> 0.92092503E+03</totfact>
</mgrwt>
</event>
<event>
 8    1  0.3177960E-004  0.9116957E+02  0.7546771E-02  0.1300384E+00
          1   -1    0    0  501    0  0.00000000000E+00  0.00000000000E+00  0.19803496982E+03  0.19803496982E+03  0.00000000000E+00 0. -1.
         -1   -1    0    0    0  501 -0.00000000000E+00 -0.00000000000E+00 -0.41851525472E+02  0.41851525472E+02  0.00000000000E+00 0.  1.
         23    2    1    2    0    0 -0.18269546908E+00 -0.28685639067E+01  0.85302123238E+02  0.12485328549E+03  0.91124248316E+02 0.  0.
         23    2    1    2    0    0  0.18269546908E+00  0.28685639067E+01  0.70881321107E+02  0.11503320980E+03  0.90555042043E+02 0.  0.
          5    1    3    3  502    0 -0.17926367719E+02  0.33554070037E+02  0.72662408172E+02  0.82153185190E+02  0.47000000000E+01 0. -1.
         -5    1    4    4    0  503  0.66884327437E+01  0.44191605027E+02  0.52475919288E+02  0.69090123697E+02  0.47000000000E+01 0.  1.
          5    1    4    4  503    0 -0.65057372746E+01 -0.41323041120E+02  0.18405401819E+02  0.45943086107E+02  0.47000000000E+01 0. -1.
         -5    1    3    3    0  502  0.17743672250E+02 -0.36422633943E+02  0.12639715066E+02  0.42700100295E+02  0.47000000000E+01 0.  1.
<mgrwt>
<rscale>  0 0.91027007E+02</rscale>
<asrwt>0</asrwt>
<pdfrwt beam="1">  1        1 0.30466918E-01 0.91169571E+02</pdfrwt>
<pdfrwt beam="2">  1       -1 0.64386964E-02 0.91169571E+02</pdfrwt>
<totfact> 0.16005289E+04</totfact>
</mgrwt>
</event>
<event>
 8    1  0.3177960E-004  0.9315375E+02  0.7546771E-02  0.1296076E+00
         -1   -1    0    0    0  501 -0.00000000000E+00  0.00000000000E+00  0.21314018125E+02  0.21314018125E+02  0.00000000000E+00 0.  1.
          1   -1    0    0  501    0  0.00000000000E+00 -0.00000000000E+00 -0.40965994358E+03  0.40965994358E+03  0.00000000000E+00 0. -1.
         23    2    1    2    0    0  0.10532166652E+02  0.16864575498E+02 -0.22487425044E+03  0.24340511262E+03  0.91007032134E+02 0.  0.
         23    2    1    2    0    0 -0.10532166652E+02 -0.16864575498E+02 -0.16347167502E+03  0.18756884909E+03  0.89798352845E+02 0.  0.
          5    1    4    4  502    0 -0.15604699507E+02  0.32966390497E+02 -0.10019268974E+03  0.10672841527E+03  0.47000000000E+01 0. -1.
         -5    1    3    3    0  503 -0.30664324245E+01 -0.22759333027E+02 -0.11880461388E+02  0.26279756666E+02  0.47000000000E+01 0.  1.
          5    1    3    3  503    0  0.13598599076E+02  0.39623908525E+02 -0.21299378905E+03  0.21712535595E+03  0.47000000000E+01 0. -1.
         -5    1    4    4    0  502  0.50725328550E+01 -0.49830965996E+02 -0.63278985276E+02  0.80840433813E+02  0.47000000000E+01 0.  1.
<mgrwt>
<rscale>  0 0.92857217E+02</rscale>
<asrwt>0</asrwt>
<pdfrwt beam="1">  1        1 0.63024604E-01 0.93153746E+02</pdfrwt>
<pdfrwt beam="2">  1       -1 0.32790798E-02 0.93153746E+02</pdfrwt>
<totfact> 0.17617516E+04</totfact>
</mgrwt>
</event>
<event>
 8    1  0.3177960E-004  0.1048466E+03  0.7546771E-02  0.1270639E+00
         -1   -1    0    0    0  501 -0.00000000000E+00  0.00000000000E+00  0.15392172443E+02  0.15392172443E+02  0.00000000000E+00 0.  1.
          1   -1    0    0  501    0  0.00000000000E+00 -0.00000000000E+00 -0.81663829300E+03  0.81663829300E+03  0.00000000000E+00 0. -1.
         23    2    1    2    0    0 -0.40188930061E+02 -0.33645588037E+02 -0.54937503604E+03  0.55920843481E+03  0.90299322477E+02 0.  0.
         23    2    1    2    0    0  0.40188930061E+02  0.33645588037E+02 -0.25187108452E+03  0.27282203064E+03  0.90805514652E+02 0.  0.
          5    1    4    4  502    0  0.12010551434E+02 -0.24531205402E+02 -0.26606989051E+02  0.38419464475E+02  0.47000000000E+01 0. -1.
         -5    1    4    4    0  502  0.28178378627E+02  0.58176793439E+02 -0.22526409547E+03  0.23440256616E+03  0.47000000000E+01 0.  1.
          5    1    3    3  503    0  0.23881615903E+02 -0.26242432460E+02 -0.27478633659E+03  0.27710759213E+03  0.47000000000E+01 0. -1.
         -5    1    3    3    0  503 -0.64070545964E+02 -0.74031555769E+01 -0.27458869946E+03  0.28210084268E+03  0.47000000000E+01 0.  1.
<mgrwt>
<rscale>  0 0.10473694E+03</rscale>
<asrwt>0</asrwt>
<pdfrwt beam="1">  1        1 0.12563669E+00 0.10484664E+03</pdfrwt>
<pdfrwt beam="2">  1       -1 0.23680261E-02 0.10484664E+03</pdfrwt>
<totfact> 0.11240257E+04</totfact>
</mgrwt>
</event>
<event>
 8    1  0.3177960E-004  0.9585225E+02  0.7546771E-02  0.1290475E+00
         -1   -1    0    0    0  501 -0.00000000000E+00  0.00000000000E+00  0.10928267994E+03  0.10928267994E+03  0.00000000000E+00 0.  1.
          1   -1    0    0  501    0  0.00000000000E+00 -0.00000000000E+00 -0.89904924389E+02  0.89904924389E+02  0.00000000000E+00 0. -1.
         23    2    1    2    0    0 -0.35573528270E+01 -0.30026056129E+02 -0.19358525281E+02  0.97787557509E+02  0.90958425100E+02 0.  0.
         23    2    1    2    0    0  0.35573528270E+01  0.30026056129E+02  0.38736280834E+02  0.10140004682E+03  0.88697526668E+02 0.  0.
          5    1    4    4  502    0  0.41365018926E+02  0.77668344645E+01 -0.50190933017E+00  0.42352454726E+02  0.47000000000E+01 0. -1.
         -5    1    3    3    0  503 -0.31372031392E+02  0.20535343863E+02 -0.48463060699E+01  0.38098312085E+02  0.47000000000E+01 0.  1.
          5    1    3    3  503    0  0.27814678565E+02 -0.50561399992E+02 -0.14512219211E+02  0.59689245424E+02  0.47000000000E+01 0. -1.
         -5    1    4    4    0  502 -0.37807666099E+02  0.22259221665E+02  0.39238190164E+02  0.59047592096E+02  0.47000000000E+01 0.  1.
<mgrwt>
<rscale>  0 0.95312012E+02</rscale>
<asrwt>0</asrwt>
<pdfrwt beam="1">  1        1 0.13831527E-01 0.95852250E+02</pdfrwt>
<pdfrwt beam="2">  1       -1 0.16812720E-01 0.95852250E+02</pdfrwt>
<totfact> 0.10107425E+04</totfact>
</mgrwt>
</event>
<event>
 8    1  0.3177960E-004  0.1081457E+03  0.7546771E-02  0.1266550E+00
         -2   -1    0    0    0  501 -0.00000000000E+00  0.00000000000E+00  0.77792401130E+02  0.77792401130E+02  0.00000000000E+00 0.  1.
          2   -1    0    0  501    0  0.00000000000E+00 -0.00000000000E+00 -0.49912990478E+03  0.49912990478E+03  0.00000000000E+00 0. -1.
         23    2    1    2    0    0 -0.16926611794E+01 -0.47901103118E+02  0.31405363166E+02  0.11261349069E+03  0.96943904753E+02 0.  0.
         23    2    1    2    0    0  0.16926611794E+01  0.47901103118E+02 -0.45274286681E+03  0.46430881521E+03  0.91154767581E+02 0.  0.
          5    1    3    3  502    0  0.14595370897E+02 -0.15186959410E+02 -0.32402305765E+02  0.38931581096E+02  0.47000000000E+01 0. -1.
         -5    1    4    4    0  503  0.34615550903E+01 -0.24012156811E+02 -0.58115890494E+02  0.63151506445E+02  0.47000000000E+01 0.  1.
          5    1    4    4  503    0 -0.17688939109E+01  0.71913259929E+02 -0.39462697632E+03  0.40115730877E+03  0.47000000000E+01 0. -1.
         -5    1    3    3    0  502 -0.16288032076E+02 -0.32714143708E+02  0.63807668932E+02  0.73681909598E+02  0.47000000000E+01 0.  1.
<mgrwt>
<rscale>  0 0.10683264E+03</rscale>
<asrwt>0</asrwt>
<pdfrwt beam="1">  1        2 0.76789212E-01 0.10814574E+03</pdfrwt>
<pdfrwt beam="2">  1       -2 0.11968062E-01 0.10814574E+03</pdfrwt>
<totfact> 0.29875298E+03</totfact>
</mgrwt>
</event>
<event>
 8    1  0.3177960E-004  0.1320243E+03  0.7546771E-02  0.1226248E+00
         -2   -1    0    0    0  501 -0.00000000000E+00  0.00000000000E+00  0.78359705552E+02  0.78359705552E+02  0.00000000000E+00 0.  1.
          2   -1    0    0  501    0  0.00000000000E+00 -0.00000000000E+00 -0.32821162898E+03  0.32821162898E+03  0.00000000000E+00 0. -1.
         23    2    1    2    0    0 -0.82898103571E+02  0.36641022660E+02 -0.67785198954E+01  0.13219815739E+03  0.95998668580E+02 0.  0.
         23    2    1    2    0    0  0.82898103571E+02 -0.36641022660E+02 -0.24307340354E+03  0.27437317714E+03  0.89338125739E+02 0.  0.
          5    1    3    3  502    0 -0.10943096743E+02 -0.29227605143E+02  0.99912973244E+01  0.33104686843E+02  0.47000000000E+01 0. -1.
         -5    1    3    3    0  502 -0.71955006828E+02  0.65868627803E+02 -0.16769817220E+02  0.99093470551E+02  0.47000000000E+01 0.  1.
          5    1    4    4  503    0  0.45813676903E+02 -0.61278554608E+02 -0.19035444056E+03  0.20520930118E+03  0.47000000000E+01 0. -1.
         -5    1    4    4    0  503  0.37084426668E+02  0.24637531949E+02 -0.52718962973E+02  0.69163875967E+02  0.47000000000E+01 0.  1.
<mgrwt>
<rscale>  0 0.13081759E+03</rscale>
<asrwt>0</asrwt>
<pdfrwt beam="1">  1        2 0.50494097E-01 0.13202426E+03</pdfrwt>
<pdfrwt beam="2">  1       -2 0.12055339E-01 0.13202426E+03</pdfrwt>
<totfact> 0.46674371E+03</totfact>
</mgrwt>
</event>
<event>
 8    1  0.3177960E-004  0.8990332E+02  0.7546771E-02  0.1303326E+00
          1   -1    0    0  501    0  0.00000000000E+00  0.00000000000E+00  0.57551056718E+03  0.57551056718E+03  0.00000000000E+00 0. -1.
         -1   -1    0    0    0  501 -0.00000000000E+00 -0.00000000000E+00 -0.19921965190E+02  0.19921965190E+02  0.00000000000E+00 0.  1.
         23    2    1    2    0    0  0.13912652358E+02  0.99073129631E+01  0.11566619070E+03  0.14649667137E+03  0.88266020100E+02 0.  0.
         23    2    1    2    0    0 -0.13912652358E+02 -0.99073129631E+01  0.43992241129E+03  0.44893586101E+03  0.87863317692E+02 0.  0.
          5    1    3    3  502    0 -0.33008269456E+01  0.44547461644E+02  0.87702455762E+02  0.98535184296E+02  0.47000000000E+01 0. -1.
         -5    1    4    4    0  503 -0.19770195468E+02  0.36881200072E+02  0.20339721185E+03  0.20771037368E+03  0.47000000000E+01 0. -1.
          5    1    4    4  503    0  0.58575431093E+01 -0.46788513036E+02  0.23652519944E+03  0.24122548732E+03  0.47000000000E+01 0.  1.
         -5    1    3    3    0  502  0.17213479304E+02 -0.34640148681E+02  0.27963734942E+02  0.47961487073E+02  0.47000000000E+01 0.  1.
<mgrwt>
<rscale>  0 0.89804323E+02</rscale>
<asrwt>0</asrwt>
<pdfrwt beam="1">  1        1 0.88540075E-01 0.89903321E+02</pdfrwt>
<pdfrwt beam="2">  1       -1 0.30649182E-02 0.89903321E+02</pdfrwt>
<totfact> 0.12525313E+04</totfact>
</mgrwt>
</event>
<event>
 8    1  0.3177960E-004  0.9237975E+02  0.7546771E-02  0.1298988E+00
         -1   -1    0    0    0  501 -0.00000000000E+00  0.00000000000E+00  0.15032503571E+03  0.15032503571E+03  0.00000000000E+00 0.  1.
          1   -1    0    0  501    0  0.00000000000E+00 -0.00000000000E+00 -0.55054562435E+02  0.55054562435E+02  0.00000000000E+00 0. -1.
         23    2    1    2    0    0 -0.52796696875E+01 -0.16372259917E+02  0.53335732478E+02  0.10667107766E+03  0.90763939115E+02 0.  0.
         23    2    1    2    0    0  0.52796696875E+01  0.16372259917E+02  0.41934740793E+02  0.98708520479E+02  0.87686508216E+02 0.  0.
          5    1    3    3  502    0  0.41562392454E+02 -0.11781436531E+02  0.15628099601E+02  0.46179673130E+02  0.47000000000E+01 0. -1.
         -5    1    4    4    0  503 -0.22393775006E+02 -0.28423890341E+02  0.17606610942E+02  0.40515200234E+02  0.47000000000E+01 0.  1.
          5    1    4    4  503    0  0.27673444693E+02  0.44796150258E+02  0.24328129851E+02  0.58193320245E+02  0.47000000000E+01 0. -1.
         -5    1    3    3    0  502 -0.46842062142E+02 -0.45908233862E+01  0.37707632877E+02  0.60491404532E+02  0.47000000000E+01 0.  1.
<mgrwt>
<rscale>  0 0.91614862E+02</rscale>
<asrwt>0</asrwt>
<pdfrwt beam="1">  1        1 0.84699328E-02 0.92379751E+02</pdfrwt>
<pdfrwt beam="2">  1       -1 0.23126928E-01 0.92379751E+02</pdfrwt>
<totfact> 0.11511756E+04</totfact>
</mgrwt>
</event>
<event>
 8    1  0.3177960E-004  0.2815806E+03  0.7546771E-02  0.1094930E+00
         -1   -1    0    0    0  501 -0.00000000000E+00  0.00000000000E+00  0.15851101370E+03  0.15851101370E+03  0.00000000000E+00 0.  1.
          1   -1    0    0  501    0  0.00000000000E+00 -0.00000000000E+00 -0.50538681752E+03  0.50538681752E+03  0.00000000000E+00 0. -1.
         23    2    1    2    0    0  0.89974179215E+02  0.25048102741E+03 -0.13554564804E+03  0.31183520498E+03  0.89624072357E+02 0.  0.
         23    2    1    2    0    0 -0.89974179215E+02 -0.25048102741E+03 -0.21133015578E+03  0.35206262624E+03  0.91932366651E+02 0.  0.
          5    1    3    3  502    0  0.20136877791E+01  0.10888608236E+03 -0.25221098828E+02  0.11188577968E+03  0.47000000000E+01 0. -1.
         -5    1    4    4    0  503  0.17576915805E+02 -0.21959032942E+02 -0.27756634482E+02  0.39795324534E+02  0.47000000000E+01 0.  1.
          5    1    4    4  503    0 -0.10755109502E+03 -0.22852199447E+03 -0.18357352130E+03  0.31226730171E+03  0.47000000000E+01 0. -1.
         -5    1    3    3    0  502  0.87960491436E+02  0.14159494505E+03 -0.11032454921E+03  0.19994942530E+03  0.47000000000E+01 0.  1.
<mgrwt>
<rscale>  0 0.28139417E+03</rscale>
<asrwt>0</asrwt>
<pdfrwt beam="1">  1        1 0.77751818E-01 0.28158064E+03</pdfrwt>
<pdfrwt beam="2">  1       -1 0.24386310E-01 0.28158064E+03</pdfrwt>
<totfact> 0.64858985E+02</totfact>
</mgrwt>
</event>
<event>
 8    1  0.3177960E-004  0.2736301E+03  0.7546771E-02  0.1099253E+00
         -1   -1    0    0    0  501 -0.00000000000E+00  0.00000000000E+00  0.11933379042E+03  0.11933379042E+03  0.00000000000E+00 0.  1.
          1   -1    0    0  501    0  0.00000000000E+00 -0.00000000000E+00 -0.68863686645E+03  0.68863686645E+03  0.00000000000E+00 0. -1.
         23    2    1    2    0    0 -0.11258446741E+03 -0.23169198859E+03 -0.16379547219E+03  0.31890813594E+03  0.92287607957E+02 0.  0.
         23    2    1    2    0    0  0.11258446741E+03  0.23169198859E+03 -0.40550760383E+03  0.48906252093E+03  0.91593082356E+02 0.  0.
          5    1    3    3  502    0 -0.12750150629E+03 -0.21652564492E+03 -0.15583312933E+03  0.29571277147E+03  0.47000000000E+01 0. -1.
         -5    1    4    4    0  503  0.73630071501E+02  0.20108758232E+03 -0.37138237273E+03  0.42872434031E+03  0.47000000000E+01 0.  1.
          5    1    4    4  503    0  0.38954395913E+02  0.30604406262E+02 -0.34125231102E+02  0.60338180627E+02  0.47000000000E+01 0. -1.
         -5    1    3    3    0  502  0.14917038879E+02 -0.15166343663E+02 -0.79623428626E+01  0.23195364469E+02  0.47000000000E+01 0. -1.
<mgrwt>
<rscale>  0 0.27357174E+03</rscale>
<asrwt>0</asrwt>
<pdfrwt beam="1">  1        1 0.10594413E+00 0.27363012E+03</pdfrwt>
<pdfrwt beam="2">  1       -1 0.18359045E-01 0.27363012E+03</pdfrwt>
<totfact> 0.67222949E+02</totfact>
</mgrwt>
</event>
<event>
 8    1  0.3177960E-004  0.9578346E+02  0.7546771E-02  0.1289989E+00
         -3   -1    0    0    0  501 -0.00000000000E+00  0.00000000000E+00  0.37772824805E+03  0.37772824805E+03  0.00000000000E+00 0.  1.
          3   -1    0    0  501    0  0.00000000000E+00 -0.00000000000E+00 -0.24166976633E+02  0.24166976633E+02  0.00000000000E+00 0. -1.
         23    2    1    2    0    0 -0.25754763235E+02 -0.15688455391E+02  0.19271970562E+03  0.21521002972E+03  0.90912246111E+02 0.  0.
         23    2    1    2    0    0  0.25754763235E+02  0.15688455391E+02  0.16084156579E+03  0.18668519496E+03  0.89843849379E+02 0.  0.
          5    1    3    3  502    0  0.21069986474E+02  0.11868143220E+02  0.13957047299E+02  0.28314065812E+02  0.47000000000E+01 0. -1.
         -5    1    3    3    0  502 -0.46824749710E+02 -0.27556598610E+02  0.17876265832E+03  0.18689596390E+03  0.47000000000E+01 0.  1.
          5    1    4    4  503    0  0.29587603115E+02  0.50492007262E+02  0.88895182575E+02  0.10653315231E+03  0.47000000000E+01 0. -1.
         -5    1    4    4    0  503 -0.38328398796E+01 -0.34803551871E+02  0.71946383216E+02  0.80152042658E+02  0.47000000000E+01 0.  1.
<mgrwt>
<rscale>  0 0.95529086E+02</rscale>
<asrwt>0</asrwt>
<pdfrwt beam="1">  1        3 0.37179967E-02 0.95783464E+02</pdfrwt>
<pdfrwt beam="2">  1       -3 0.58112034E-01 0.95783464E+02</pdfrwt>
<totfact> 0.22968696E+03</totfact>
</mgrwt>
</event>
<event>
 7    1  0.3177960E-004  0.1879773E+03  0.7546771E-02  0.1168904E+00
         -3   -1    0    0    0  501 -0.00000000000E+00  0.00000000000E+00  0.69010046555E+03  0.69010046555E+03  0.00000000000E+00 0.  1.
          3   -1    0    0  501    0  0.00000000000E+00 -0.00000000000E+00 -0.72245914820E+02  0.72245914820E+02  0.00000000000E+00 0. -1.
         23    2    1    2    0    0 -0.10131392092E+03  0.70708414169E+02  0.53530002711E+03  0.55703997509E+03  0.92104421243E+02 0.  0.
          5    1    3    3  502    0 -0.21906888193E+02  0.29573837621E+02  0.43593765236E+02  0.57245349063E+02  0.47000000000E+01 0. -1.
         -5    1    3    3    0  502 -0.79407032726E+02  0.41134576548E+02  0.49170626188E+03  0.49979462602E+03  0.47000000000E+01 0.  1.
          5    1    1    2  503    0  0.94038953552E+02 -0.42276443586E+02 -0.14113382785E+02  0.10417245337E+03  0.47000000000E+01 0. -1.
         -5    1    1    2    0  503  0.72749673666E+01 -0.28431970583E+02  0.96667906401E+02  0.10113395191E+03  0.47000000000E+01 0.  1.
<mgrwt>
<rscale>  0 0.17886737E+03</rscale>
<asrwt>0</asrwt>
<pdfrwt beam="1">  1        3 0.11114757E-01 0.18797731E+03</pdfrwt>
<pdfrwt beam="2">  1       -3 0.10616930E+00 0.18797731E+03</pdfrwt>
<totfact> 0.11830673E+02</totfact>
</mgrwt>
</event>
<event>
 7    1  0.3177960E-004  0.1412777E+03  0.7546771E-02  0.1224317E+00
          4   -1    0    0  501    0  0.00000000000E+00  0.00000000000E+00  0.16783540834E+03  0.16783540834E+03  0.00000000000E+00 0. -1.
         -4   -1    0    0    0  501 -0.00000000000E+00 -0.00000000000E+00 -0.11401812421E+03  0.11401812421E+03  0.00000000000E+00 0.  1.
         23    2    1    2    0    0 -0.26154438952E+02  0.52567817830E+02 -0.36571178072E+02  0.11413513858E+03  0.90785178547E+02 0.  0.
          5    1    3    3  502    0  0.17544019916E+02  0.57807940333E+02 -0.72127172365E+01  0.61021831260E+02  0.47000000000E+01 0. -1.
         -5    1    3    3    0  502 -0.43698458868E+02 -0.52401225035E+01 -0.29358460836E+02  0.53113307315E+02  0.47000000000E+01 0.  1.
          5    1    1    2  503    0  0.10029464071E+02 -0.66178141814E+02 -0.74583572286E+01  0.67511878185E+02  0.47000000000E+01 0. -1.
         -5    1    1    2    0  503  0.16124974881E+02  0.13610323984E+02  0.97846819433E+02  0.10020651579E+03  0.47000000000E+01 0.  1.
<mgrwt>
<rscale>  0 0.13213842E+03</rscale>
<asrwt>0</asrwt>
<pdfrwt beam="1">  1        4 0.25820832E-01 0.14127769E+03</pdfrwt>
<pdfrwt beam="2">  1       -4 0.17541250E-01 0.14127769E+03</pdfrwt>
<totfact> 0.67235877E+02</totfact>
</mgrwt>
</event>
<event>
 8    1  0.3177960E-004  0.1086079E+03  0.7546771E-02  0.1263395E+00
         -2   -1    0    0    0  501 -0.00000000000E+00  0.00000000000E+00  0.13019510146E+03  0.13019510146E+03  0.00000000000E+00 0.  1.
          2   -1    0    0  501    0  0.00000000000E+00 -0.00000000000E+00 -0.17386211511E+03  0.17386211511E+03  0.00000000000E+00 0. -1.
         23    2    1    2    0    0  0.52474705509E+02  0.24793136620E+02  0.83649679880E+02  0.13670963690E+03  0.91235747028E+02 0.  0.
         23    2    1    2    0    0 -0.52474705509E+02 -0.24793136620E+02 -0.12731669353E+03  0.16734757967E+03  0.91800749609E+02 0.  0.
          5    1    4    4  502    0 -0.43006527184E+02 -0.52087319863E+02 -0.11900718374E+03  0.13692132797E+03  0.47000000000E+01 0. -1.
         -5    1    4    4    0  502 -0.94681783246E+01  0.27294183243E+02 -0.83095097907E+01  0.30426251703E+02  0.47000000000E+01 0.  1.
          5    1    3    3  503    0 -0.94447590695E+01  0.39090786648E+02  0.50974282785E+02  0.65098084304E+02  0.47000000000E+01 0.  1.
         -5    1    3    3    0  503  0.61919464578E+02 -0.14297650028E+02  0.32675397095E+02  0.71611552597E+02  0.47000000000E+01 0. -1.
<mgrwt>
<rscale>  0 0.10848840E+03</rscale>
<asrwt>0</asrwt>
<pdfrwt beam="1">  1        2 0.26748018E-01 0.10860788E+03</pdfrwt>
<pdfrwt beam="2">  1       -2 0.20030016E-01 0.10860788E+03</pdfrwt>
<totfact> 0.39576869E+03</totfact>
</mgrwt>
</event>
<event>
 8    1  0.3177960E-004  0.1173892E+03  0.7546771E-02  0.1248300E+00
         -3   -1    0    0    0  501 -0.00000000000E+00  0.00000000000E+00  0.63115918799E+03  0.63115918799E+03  0.00000000000E+00 0.  1.
          3   -1    0    0  501    0  0.00000000000E+00 -0.00000000000E+00 -0.26442426387E+02  0.26442426387E+02  0.00000000000E+00 0. -1.
         23    2    1    2    0    0 -0.21383342564E+02  0.69331170709E+02  0.16187488266E+03  0.19995924022E+03  0.92283051216E+02 0.  0.
         23    2    1    2    0    0  0.21383342564E+02 -0.69331170709E+02  0.44284187894E+03  0.45764237416E+03  0.89797295656E+02 0.  0.
          5    1    4    4  502    0 -0.47893248605E+01 -0.22510394217E+02  0.18504908853E+02  0.29902794720E+02  0.47000000000E+01 0. -1.
         -5    1    4    4    0  502  0.26172667424E+02 -0.46820776492E+02  0.42433697009E+03  0.42773957944E+03  0.47000000000E+01 0.  1.
          5    1    3    3  503    0 -0.29021037395E+02  0.12452724625E+02  0.43282481251E+01  0.32219787304E+02  0.47000000000E+01 0. -1.
         -5    1    3    3    0  503  0.76376948310E+01  0.56878446083E+02  0.15754663453E+03  0.16773945291E+03  0.47000000000E+01 0.  1.
<mgrwt>
<rscale>  0 0.11690016E+03</rscale>
<asrwt>0</asrwt>
<pdfrwt beam="1">  1        3 0.40680661E-02 0.11738918E+03</pdfrwt>
<pdfrwt beam="2">  1       -3 0.97101402E-01 0.11738918E+03</pdfrwt>
<totfact> 0.69240382E+02</totfact>
</mgrwt>
</event>
<event>
 8    1  0.3177960E-004  0.9495406E+02  0.7546771E-02  0.1291888E+00
          3   -1    0    0  501    0  0.00000000000E+00  0.00000000000E+00  0.22357678811E+03  0.22357678811E+03  0.00000000000E+00 0. -1.
         -3   -1    0    0    0  501 -0.00000000000E+00 -0.00000000000E+00 -0.40015088389E+02  0.40015088389E+02  0.00000000000E+00 0.  1.
         23    2    1    2    0    0 -0.13012788391E+01  0.22124493672E+02  0.83403701232E+02  0.12557775665E+03  0.91227238466E+02 0.  0.
         23    2    1    2    0    0  0.13012788391E+01 -0.22124493672E+02  0.10015799849E+03  0.13801411986E+03  0.92331392662E+02 0.  0.
          5    1    3    3  502    0 -0.21019728293E+02  0.18711828695E+02  0.96882663992E+02  0.10099654496E+03  0.47000000000E+01 0. -1.
         -5    1    3    3    0  502  0.19718449454E+02  0.34126649770E+01 -0.13478962760E+02  0.24581211691E+02  0.47000000000E+01 0.  1.
          5    1    4    4  503    0 -0.43439936430E+02 -0.24130972709E+02  0.53536018439E+02  0.73195130926E+02  0.47000000000E+01 0. -1.
         -5    1    4    4    0  503  0.44741215269E+02  0.20064790369E+01  0.46621980052E+02  0.64818988930E+02  0.47000000000E+01 0.  1.
<mgrwt>
<rscale>  0 0.94684585E+02</rscale>
<asrwt>0</asrwt>
<pdfrwt beam="1">  1        3 0.34396428E-01 0.94954055E+02</pdfrwt>
<pdfrwt beam="2">  1       -3 0.61561676E-02 0.94954055E+02</pdfrwt>
<totfact> 0.28890431E+03</totfact>
</mgrwt>
</event>
<event>
 8    1  0.3177960E-004  0.1206336E+03  0.7546771E-02  0.1243380E+00
          3   -1    0    0  501    0  0.00000000000E+00  0.00000000000E+00  0.73091877055E+02  0.73091877055E+02  0.00000000000E+00 0. -1.
         -3   -1    0    0    0  501 -0.00000000000E+00 -0.00000000000E+00 -0.21711244356E+03  0.21711244356E+03  0.00000000000E+00 0.  1.
         23    2    1    2    0    0  0.41949263785E+02 -0.66775923851E+02 -0.23680638393E+02  0.11981018264E+03  0.87034145549E+02 0.  0.
         23    2    1    2    0    0 -0.41949263785E+02  0.66775923851E+02 -0.12033992811E+03  0.17039413798E+03  0.91289096939E+02 0.  0.
          5    1    4    4  502    0  0.22837235092E+02  0.22509267857E+02 -0.69761255663E+02  0.76921578492E+02  0.47000000000E+01 0. -1.
         -5    1    4    4    0  502 -0.64786498876E+02  0.44266655994E+02 -0.50578672450E+02  0.93472559483E+02  0.47000000000E+01 0.  1.
          5    1    3    3  503    0  0.44474693775E+02 -0.39691240091E+02  0.24228145576E+02  0.64517330729E+02  0.47000000000E+01 0. -1.
         -5    1    3    3    0  503 -0.25254299907E+01 -0.27084683760E+02 -0.47908783970E+02  0.55292851911E+02  0.47000000000E+01 0.  1.
<mgrwt>
<rscale>  0 0.11982883E+03</rscale>
<asrwt>0</asrwt>
<pdfrwt beam="1">  1        3 0.11244904E-01 0.12063359E+03</pdfrwt>
<pdfrwt beam="2">  1       -3 0.33401914E-01 0.12063359E+03</pdfrwt>
<totfact> 0.12006298E+03</totfact>
</mgrwt>
</event>
<event>
 8    1  0.3177960E-004  0.1586602E+03  0.7546771E-02  0.1191078E+00
          1   -1    0    0  501    0  0.00000000000E+00  0.00000000000E+00  0.65266301500E+03  0.65266301500E+03  0.00000000000E+00 0. -1.
         -1   -1    0    0    0  501 -0.00000000000E+00 -0.00000000000E+00 -0.56770009126E+02  0.56770009126E+02  0.00000000000E+00 0.  1.
         23    2    1    2    0    0  0.11909756147E+03  0.38961811322E+02  0.91276079658E+02  0.18046110309E+03  0.92372263802E+02 0.  0.
         23    2    1    2    0    0 -0.11909756147E+03 -0.38961811322E+02  0.50461692621E+03  0.52897192104E+03  0.97318030890E+02 0.  0.
          5    1    4    4  502    0 -0.52618943806E+02  0.28186237770E+02  0.13971182455E+03  0.15200230645E+03  0.47000000000E+01 0.  1.
         -5    1    4    4    0  502 -0.66478617662E+02 -0.67148049092E+02  0.36490510166E+03  0.37696961458E+03  0.47000000000E+01 0. -1.
          5    1    3    3  503    0  0.75642496108E+02  0.17602851667E+02  0.10427727313E+03  0.13010567741E+03  0.47000000000E+01 0. -1.
         -5    1    3    3    0  503  0.43455065360E+02  0.21358959655E+02 -0.13001193470E+02  0.50355425672E+02  0.47000000000E+01 0.  1.
<mgrwt>
<rscale>  0 0.15790870E+03</rscale>
<asrwt>0</asrwt>
<pdfrwt beam="1">  1        1 0.10040969E+00 0.15866017E+03</pdfrwt>
<pdfrwt beam="2">  1       -1 0.87338480E-02 0.15866017E+03</pdfrwt>
<totfact> 0.23161966E+03</totfact>
</mgrwt>
</event>
<event>
 8    1  0.3177960E-004  0.9959413E+02  0.7546771E-02  0.1281744E+00
         -4   -1    0    0    0  501 -0.00000000000E+00  0.00000000000E+00  0.13258591267E+03  0.13258591267E+03  0.00000000000E+00 0.  1.
          4   -1    0    0  501    0  0.00000000000E+00 -0.00000000000E+00 -0.80812771928E+02  0.80812771928E+02  0.00000000000E+00 0. -1.
         23    2    1    2    0    0 -0.31162065919E+02 -0.24586437169E+02 -0.50104220115E+01  0.99720088207E+02  0.91342347344E+02 0.  0.
         23    2    1    2    0    0  0.31162065919E+02  0.24586437169E+02  0.56783562758E+02  0.11367859639E+03  0.90127038306E+02 0.  0.
          5    1    3    3  502    0 -0.54580315105E+02 -0.12329633741E+02 -0.29457598571E+02  0.63410336529E+02  0.47000000000E+01 0. -1.
         -5    1    3    3    0  502  0.23418249186E+02 -0.12256803429E+02  0.24447176559E+02  0.36309751678E+02  0.47000000000E+01 0.  1.
          5    1    4    4  503    0 -0.25409599282E+02  0.10180005708E+02 -0.53605001493E+01  0.28286131120E+02  0.47000000000E+01 0. -1.
         -5    1    4    4    0  503  0.56571665201E+02  0.14406431462E+02  0.62144062907E+02  0.85392465274E+02  0.47000000000E+01 0.  1.
<mgrwt>
<rscale>  0 0.99314604E+02</rscale>
<asrwt>0</asrwt>
<pdfrwt beam="1">  1        4 0.12432734E-01 0.99594135E+02</pdfrwt>
<pdfrwt beam="2">  1       -4 0.20397833E-01 0.99594135E+02</pdfrwt>
<totfact> 0.17386986E+03</totfact>
</mgrwt>
</event>
<event>
 8    1  0.3177960E-004  0.9307814E+02  0.7546771E-02  0.1296283E+00
          1   -1    0    0  501    0  0.00000000000E+00  0.00000000000E+00  0.37633666020E+03  0.37633666020E+03  0.00000000000E+00 0. -1.
         -1   -1    0    0    0  501 -0.00000000000E+00 -0.00000000000E+00 -0.23790170913E+02  0.23790170913E+02  0.00000000000E+00 0.  1.
         23    2    1    2    0    0 -0.10077909925E+02  0.16790737724E+02  0.13265792723E+03  0.16134969614E+03  0.89733525753E+02 0.  0.
         23    2    1    2    0    0  0.10077909925E+02 -0.16790737724E+02  0.21988856205E+03  0.23877713497E+03  0.90994765360E+02 0.  0.
          5    1    4    4  502    0 -0.34506360768E+01 -0.46399673492E+02  0.18504140526E+03  0.19085923675E+03  0.47000000000E+01 0. -1.
         -5    1    3    3    0  503  0.11822501665E+02  0.44577233548E+02  0.10922177946E+03  0.11865238474E+03  0.47000000000E+01 0.  1.
          5    1    3    3  503    0 -0.21900411590E+02 -0.27786495824E+02  0.23436147772E+02  0.42697311395E+02  0.47000000000E+01 0. -1.
         -5    1    4    4    0  502  0.13528546002E+02  0.29608935767E+02  0.34847156787E+02  0.47917898225E+02  0.47000000000E+01 0.  1.
<mgrwt>
<rscale>  0 0.92768443E+02</rscale>
<asrwt>0</asrwt>
<pdfrwt beam="1">  1        1 0.57897944E-01 0.93078142E+02</pdfrwt>
<pdfrwt beam="2">  1       -1 0.36600266E-02 0.93078142E+02</pdfrwt>
<totfact> 0.16694880E+04</totfact>
</mgrwt>
</event>
<event>
 8    1  0.3177960E-004  0.9934948E+02  0.7546771E-02  0.1281808E+00
         -2   -1    0    0    0  501 -0.00000000000E+00  0.00000000000E+00  0.18843610593E+03  0.18843610593E+03  0.00000000000E+00 0.  1.
          2   -1    0    0  501    0  0.00000000000E+00 -0.00000000000E+00 -0.70675762689E+02  0.70675762689E+02  0.00000000000E+00 0. -1.
         23    2    1    2    0    0  0.36571669500E+02 -0.72977841414E+01 -0.73398342854E+01  0.99360893331E+02  0.91803972097E+02 0.  0.
         23    2    1    2    0    0 -0.36571669500E+02  0.72977841414E+01  0.12510017752E+03  0.15975097529E+03  0.92084607969E+02 0.  0.
          5    1    3    3  502    0  0.18931805598E+02 -0.31197524303E+02 -0.40416546017E+02  0.54656069908E+02  0.47000000000E+01 0. -1.
         -5    1    4    4    0  503 -0.41163532452E+02 -0.33354531139E+02  0.44941390956E+02  0.69633180112E+02  0.47000000000E+01 0. -1.
          5    1    4    4  503    0  0.45918629514E+01  0.40652315280E+02  0.80158786569E+02  0.90117795175E+02  0.47000000000E+01 0.  1.
         -5    1    3    3    0  502  0.17639863902E+02  0.23899740162E+02  0.33076711732E+02  0.44704823423E+02  0.47000000000E+01 0.  1.
<mgrwt>
<rscale>  0 0.99284404E+02</rscale>
<asrwt>0</asrwt>
<pdfrwt beam="1">  1        2 0.10873194E-01 0.99349483E+02</pdfrwt>
<pdfrwt beam="2">  1       -2 0.28990170E-01 0.99349483E+02</pdfrwt>
<totfact> 0.58156520E+03</totfact>
</mgrwt>
</event>
<event>
 7    1  0.3177960E-004  0.1867245E+03  0.7546771E-02  0.1190327E+00
          2   -1    0    0  501    0  0.00000000000E+00  0.00000000000E+00  0.82348545307E+02  0.82348545307E+02  0.00000000000E+00 0. -1.
         -2   -1    0    0    0  501 -0.00000000000E+00 -0.00000000000E+00 -0.44007966672E+03  0.44007966672E+03  0.00000000000E+00 0.  1.
         23    2    1    2    0    0 -0.12114193642E+02 -0.23106454548E+02 -0.31669691225E+03  0.33124803996E+03  0.93528967789E+02 0.  0.
          5    1    1    2  502    0 -0.36627044576E+02 -0.47184775378E+00  0.63445059410E+02  0.73410684497E+02  0.47000000000E+01 0. -1.
         -5    1    3    3    0  503  0.14378441528E+01 -0.46147194752E+02 -0.28813132006E+03  0.29184478508E+03  0.47000000000E+01 0.  1.
          5    1    3    3  503    0 -0.13552037795E+02  0.23040740205E+02 -0.28565592194E+02  0.39403254878E+02  0.47000000000E+01 0. -1.
         -5    1    1    2    0  502  0.48741238218E+02  0.23578302302E+02 -0.10447926857E+03  0.11776948758E+03  0.47000000000E+01 0.  1.
<mgrwt>
<rscale>  0 0.15856429E+03</rscale>
<asrwt>0</asrwt>
<pdfrwt beam="1">  1        2 0.12669007E-01 0.18672453E+03</pdfrwt>
<pdfrwt beam="2">  1       -2 0.67704563E-01 0.18672453E+03</pdfrwt>
<totfact> 0.96916013E+02</totfact>
</mgrwt>
</event>
<event>
 8    1  0.3177960E-004  0.1069450E+03  0.7546771E-02  0.1268717E+00
         -1   -1    0    0    0  501 -0.00000000000E+00  0.00000000000E+00  0.12438370418E+04  0.12438370418E+04  0.00000000000E+00 0.  1.
          1   -1    0    0  501    0  0.00000000000E+00 -0.00000000000E+00 -0.91995134551E+01  0.91995134551E+01  0.00000000000E+00 0. -1.
         23    2    1    2    0    0 -0.30669854720E+02  0.26054620175E+02  0.73679316020E+03  0.74383496798E+03  0.93844634674E+02 0.  0.
         23    2    1    2    0    0  0.30669854720E+02 -0.26054620175E+02  0.49784436814E+03  0.50920158726E+03  0.99084602057E+02 0.  0.
          5    1    4    4  502    0  0.62932040789E+02 -0.36141366255E+02  0.32872769938E+03  0.33667585368E+03  0.47000000000E+01 0. -1.
         -5    1    3    3    0  503 -0.62182922895E+02  0.31366146613E+02  0.50660855467E+03  0.51139502219E+03  0.47000000000E+01 0.  1.
          5    1    3    3  503    0  0.31513068175E+02 -0.53115264376E+01  0.23018460552E+03  0.23243994579E+03  0.47000000000E+01 0. -1.
         -5    1    4    4    0  502 -0.32262186069E+02  0.10086746080E+02  0.16911666876E+03  0.17252573359E+03  0.47000000000E+01 0.  1.
<mgrwt>
<rscale>  0 0.10571503E+03</rscale>
<asrwt>0</asrwt>
<pdfrwt beam="1">  1        1 0.14153107E-02 0.10694504E+03</pdfrwt>
<pdfrwt beam="2">  1       -1 0.19135941E+00 0.10694504E+03</pdfrwt>
<totfact> 0.18097412E+03</totfact>
</mgrwt>
</event>
<event>
 8    1  0.3177960E-004  0.1177879E+03  0.7546771E-02  0.1246809E+00
          1   -1    0    0  501    0  0.00000000000E+00  0.00000000000E+00  0.36947813362E+03  0.36947813362E+03  0.00000000000E+00 0. -1.
         -1   -1    0    0    0  501 -0.00000000000E+00 -0.00000000000E+00 -0.39871507487E+02  0.39871507487E+02  0.00000000000E+00 0.  1.
         23    2    1    2    0    0  0.73569098549E+02 -0.23960938031E+02  0.11530372092E+03  0.16483001086E+03  0.88811292131E+02 0.  0.
         23    2    1    2    0    0 -0.73569098549E+02  0.23960938031E+02  0.21430290522E+03  0.24451963025E+03  0.88755707308E+02 0.  0.
          5    1    4    4  502    0 -0.45007076880E+02 -0.31532297244E+02  0.10119170727E+03  0.11524658068E+03  0.47000000000E+01 0. -1.
         -5    1    4    4    0  502 -0.28562021669E+02  0.55493235275E+02  0.11311119795E+03  0.12927304957E+03  0.47000000000E+01 0.  1.
          5    1    3    3  503    0 -0.99611637990E+01  0.19591125445E+02  0.14320032230E+02  0.26649395931E+02  0.47000000000E+01 0. -1.
         -5    1    3    3    0  503  0.83530262348E+02 -0.43552063476E+02  0.10098368869E+03  0.13818061493E+03  0.47000000000E+01 0.  1.
<mgrwt>
<rscale>  0 0.11777740E+03</rscale>
<asrwt>0</asrwt>
<pdfrwt beam="1">  1        1 0.56842788E-01 0.11778788E+03</pdfrwt>
<pdfrwt beam="2">  1       -1 0.61340783E-02 0.11778788E+03</pdfrwt>
<totfact> 0.81709174E+03</totfact>
</mgrwt>
</event>
<event>
 8    1  0.3177960E-004  0.9361663E+02  0.7546771E-02  0.1294524E+00
         -2   -1    0    0    0  501 -0.00000000000E+00  0.00000000000E+00  0.28740236592E+02  0.28740236592E+02  0.00000000000E+00 0.  1.
          2   -1    0    0  501    0  0.00000000000E+00 -0.00000000000E+00 -0.31931819233E+03  0.31931819233E+03  0.00000000000E+00 0. -1.
         23    2    1    2    0    0  0.39938172269E+01 -0.14595843061E+02 -0.18390863145E+03  0.20636486872E+03  0.92385524341E+02 0.  0.
         23    2    1    2    0    0 -0.39938172269E+01  0.14595843061E+02 -0.10666932429E+03  0.14169356020E+03  0.92031141734E+02 0.  0.
          5    1    4    4  502    0  0.33089181265E+02 -0.14535637358E+02 -0.78538071242E+02  0.86582315195E+02  0.47000000000E+01 0. -1.
         -5    1    4    4    0  502 -0.37082998492E+02  0.29131480419E+02 -0.28131253044E+02  0.55111245008E+02  0.47000000000E+01 0.  1.
          5    1    3    3  503    0  0.18572288314E+02 -0.45087120620E+02 -0.58028531691E+02  0.75941943807E+02  0.47000000000E+01 0. -1.
         -5    1    3    3    0  503 -0.14578471088E+02  0.30491277559E+02 -0.12588009976E+03  0.13042292491E+03  0.47000000000E+01 0.  1.
<mgrwt>
<rscale>  0 0.93529086E+02</rscale>
<asrwt>0</asrwt>
<pdfrwt beam="1">  1        2 0.49125875E-01 0.93616635E+02</pdfrwt>
<pdfrwt beam="2">  1       -2 0.44215749E-02 0.93616635E+02</pdfrwt>
<totfact> 0.21690840E+04</totfact>
</mgrwt>
</event>
<event>
 8    1  0.3177960E-004  0.1236222E+03  0.7546771E-02  0.1237611E+00
          3   -1    0    0  501    0  0.00000000000E+00  0.00000000000E+00  0.82510977174E+03  0.82510977174E+03  0.00000000000E+00 0. -1.
         -3   -1    0    0    0  501 -0.00000000000E+00 -0.00000000000E+00 -0.28082986086E+02  0.28082986086E+02  0.00000000000E+00 0.  1.
         23    2    1    2    0    0 -0.13220005270E+02  0.82395247764E+02  0.14877444146E+03  0.19343286199E+03  0.91206865264E+02 0.  0.
         23    2    1    2    0    0  0.13220005270E+02 -0.82395247764E+02  0.64825234419E+03  0.65975989584E+03  0.89934826478E+02 0.  0.
          5    1    4    4  502    0 -0.44186640083E+01 -0.64175022703E+02  0.61132170758E+03  0.61471479426E+03  0.47000000000E+01 0. -1.
         -5    1    3    3    0  503  0.11453242523E+02  0.88467608039E+02  0.14013670818E+03  0.16618688702E+03  0.47000000000E+01 0.  1.
          5    1    3    3  503    0 -0.24673247793E+02 -0.60723602743E+01  0.86377332813E+01  0.27245974972E+02  0.47000000000E+01 0. -1.
         -5    1    4    4    0  502  0.17638669278E+02 -0.18220225061E+02  0.36930636612E+02  0.45045101573E+02  0.47000000000E+01 0.  1.
<mgrwt>
<rscale>  0 0.12338762E+03</rscale>
<asrwt>0</asrwt>
<pdfrwt beam="1">  1        3 0.12693995E+00 0.12362216E+03</pdfrwt>
<pdfrwt beam="2">  1       -3 0.43204600E-02 0.12362216E+03</pdfrwt>
<totfact> 0.34263620E+02</totfact>
</mgrwt>
</event>
<event>
 8    1  0.3177960E-004  0.9804705E+02  0.7546771E-02  0.1285368E+00
         -2   -1    0    0    0  501 -0.00000000000E+00  0.00000000000E+00  0.17381650659E+03  0.17381650659E+03  0.00000000000E+00 0.  1.
          2   -1    0    0  501    0  0.00000000000E+00 -0.00000000000E+00 -0.55558082778E+02  0.55558082778E+02  0.00000000000E+00 0. -1.
         23    2    1    2    0    0  0.20574323877E+02  0.29130308347E+02  0.42840728284E+02  0.10699791086E+03  0.91330976464E+02 0.  0.
         23    2    1    2    0    0 -0.20574323877E+02 -0.29130308347E+02  0.75417695528E+02  0.12237667851E+03  0.89534043670E+02 0.  0.
          5    1    4    4  502    0 -0.44022143067E+02 -0.36180093413E+02  0.18263987129E+02  0.60021758266E+02  0.47000000000E+01 0. -1.
         -5    1    4    4    0  502  0.23447819190E+02  0.70497850658E+01  0.57153708400E+02  0.62354920239E+02  0.47000000000E+01 0.  1.
          5    1    3    3  503    0 -0.18596701044E+01 -0.25101542001E+02  0.40697186374E+02  0.48082187580E+02  0.47000000000E+01 0. -1.
         -5    1    3    3    0  503  0.22433993982E+02  0.54231850348E+02  0.21435419103E+01  0.58915723284E+02  0.47000000000E+01 0.  1.
<mgrwt>
<rscale>  0 0.97626449E+02</rscale>
<asrwt>0</asrwt>
<pdfrwt beam="1">  1        2 0.85473974E-02 0.98047055E+02</pdfrwt>
<pdfrwt beam="2">  1       -2 0.26741001E-01 0.98047055E+02</pdfrwt>
<totfact> 0.89834212E+03</totfact>
</mgrwt>
</event>
<event>
 8    1  0.3177960E-004  0.3885034E+03  0.7546771E-02  0.1048066E+00
          2   -1    0    0  501    0  0.00000000000E+00  0.00000000000E+00  0.28466332477E+04  0.28466332477E+04  0.00000000000E+00 0. -1.
         -2   -1    0    0    0  501 -0.00000000000E+00 -0.00000000000E+00 -0.57599310914E+02  0.57599310914E+02  0.00000000000E+00 0.  1.
         23    2    1    2    0    0 -0.50927675870E+02  0.37299959773E+03  0.96565142379E+03  0.10399207113E+04  0.85029909016E+02 0.  0.
         23    2    1    2    0    0  0.50927675870E+02 -0.37299959773E+03  0.18233825130E+04  0.18643118474E+04  0.95982015448E+02 0.  0.
          5    1    3    3  502    0 -0.82525745995E+00  0.98240382767E+02  0.35576100341E+03  0.36910680758E+03  0.47000000000E+01 0. -1.
         -5    1    4    4    0  503  0.29923987621E+02 -0.23539867774E+03  0.91334031289E+03  0.94367399015E+03  0.47000000000E+01 0.  1.
          5    1    4    4  503    0  0.21003688248E+02 -0.13760091999E+03  0.91004220013E+03  0.92063785721E+03  0.47000000000E+01 0. -1.
         -5    1    3    3    0  502 -0.50102418410E+02  0.27475921497E+03  0.60989042038E+03  0.67081390371E+03  0.47000000000E+01 0.  1.
<mgrwt>
<rscale>  0 0.38786183E+03</rscale>
<asrwt>0</asrwt>
<pdfrwt beam="1">  1        2 0.43794347E+00 0.38850338E+03</pdfrwt>
<pdfrwt beam="2">  1       -2 0.88614347E-02 0.38850338E+03</pdfrwt>
<totfact> 0.20040526E+02</totfact>
</mgrwt>
</event>
<event>
 8    1  0.3177960E-004  0.1280369E+03  0.7546771E-02  0.1231075E+00
         -1   -1    0    0    0  501 -0.00000000000E+00  0.00000000000E+00  0.57678386926E+02  0.57678386926E+02  0.00000000000E+00 0.  1.
          1   -1    0    0  501    0  0.00000000000E+00 -0.00000000000E+00 -0.34787549373E+03  0.34787549373E+03  0.00000000000E+00 0. -1.
         23    2    1    2    0    0 -0.16787369102E+02 -0.86020421312E+02 -0.54908605927E+02  0.13768427524E+03  0.90888261060E+02 0.  0.
         23    2    1    2    0    0  0.16787369102E+02  0.86020421312E+02 -0.23528850087E+03  0.26786960542E+03  0.93338728391E+02 0.  0.
          5    1    4    4  502    0 -0.96221968841E+01  0.55547634793E+02 -0.21531954696E+03  0.22262687103E+03  0.47000000000E+01 0. -1.
         -5    1    4    4    0  502  0.26409565987E+02  0.30472786519E+02 -0.19968953917E+02  0.45242734382E+02  0.47000000000E+01 0.  1.
          5    1    3    3  503    0  0.28807047862E+02 -0.72623681464E+02 -0.38179787416E+02  0.87085195545E+02  0.47000000000E+01 0. -1.
         -5    1    3    3    0  503 -0.45594416965E+02 -0.13396739848E+02 -0.16728818511E+02  0.50599079692E+02  0.47000000000E+01 0.  1.
<mgrwt>
<rscale>  0 0.12759076E+03</rscale>
<asrwt>0</asrwt>
<pdfrwt beam="1">  1        1 0.53519307E-01 0.12803690E+03</pdfrwt>
<pdfrwt beam="2">  1       -1 0.88735979E-02 0.12803690E+03</pdfrwt>
<totfact> 0.50913046E+03</totfact>
</mgrwt>
</event>
<event>
 8    1  0.3177960E-004  0.1027437E+03  0.7546771E-02  0.1274976E+00
          1   -1    0    0  501    0  0.00000000000E+00  0.00000000000E+00  0.55648621761E+03  0.55648621761E+03  0.00000000000E+00 0. -1.
         -1   -1    0    0    0  501 -0.00000000000E+00 -0.00000000000E+00 -0.37134089173E+02  0.37134089173E+02  0.00000000000E+00 0.  1.
         23    2    1    2    0    0  0.44132451479E+02 -0.22021758406E+02  0.46754198449E+03  0.47855268306E+03  0.89356209000E+02 0.  0.
         23    2    1    2    0    0 -0.44132451479E+02  0.22021758406E+02  0.51810143952E+02  0.11506762373E+03  0.90131214888E+02 0.  0.
          5    1    3    3  502    0  0.44362741104E+02  0.20658573839E+02  0.34955476510E+03  0.35299497627E+03  0.47000000000E+01 0. -1.
         -5    1    3    3    0  502 -0.23028962579E+00 -0.42680332245E+02  0.11798721939E+03  0.12555770679E+03  0.47000000000E+01 0.  1.
          5    1    4    4  503    0 -0.47976572841E+02 -0.95484184974E+01  0.63995265472E+02  0.80687098350E+02  0.47000000000E+01 0. -1.
         -5    1    4    4    0  503  0.38441213620E+01  0.31570176904E+02 -0.12185121520E+02  0.34380525377E+02  0.47000000000E+01 0.  1.
<mgrwt>
<rscale>  0 0.10257348E+03</rscale>
<asrwt>0</asrwt>
<pdfrwt beam="1">  1        1 0.85613258E-01 0.10274370E+03</pdfrwt>
<pdfrwt beam="2">  1       -1 0.57129372E-02 0.10274370E+03</pdfrwt>
<totfact> 0.53356564E+03</totfact>
</mgrwt>
</event>
<event>
 8    1  0.3177960E-004  0.9191770E+02  0.7546771E-02  0.1298317E+00
         -1   -1    0    0    0  501 -0.00000000000E+00  0.00000000000E+00  0.28578783841E+02  0.28578783841E+02  0.00000000000E+00 0.  1.
          1   -1    0    0  501    0  0.00000000000E+00 -0.00000000000E+00 -0.33132895948E+03  0.33132895948E+03  0.00000000000E+00 0. -1.
         23    2    1    2    0    0 -0.41782102419E+01 -0.36862440761E+01 -0.92055791117E+02  0.13003606837E+03  0.91673685219E+02 0.  0.
         23    2    1    2    0    0  0.41782102419E+01  0.36862440761E+01 -0.21069438452E+03  0.22987167496E+03  0.91748664521E+02 0.  0.
          5    1    4    4  502    0  0.58565024953E+01  0.27172907976E+02 -0.20257166262E+03  0.20452392048E+03  0.47000000000E+01 0. -1.
         -5    1    3    3    0  503 -0.21164026253E+02 -0.42437343163E+02 -0.36399109087E+02  0.59965233630E+02  0.47000000000E+01 0.  1.
          5    1    3    3  503    0  0.16985816011E+02  0.38751099087E+02 -0.55656682030E+02  0.70070834736E+02  0.47000000000E+01 0. -1.
         -5    1    4    4    0  502 -0.16782922533E+01 -0.23486663900E+02 -0.81227218991E+01  0.25347754478E+02  0.47000000000E+01 0.  1.
<mgrwt>
<rscale>  0 0.91898982E+02</rscale>
<asrwt>0</asrwt>
<pdfrwt beam="1">  1        1 0.50973687E-01 0.91917698E+02</pdfrwt>
<pdfrwt beam="2">  1       -1 0.43967359E-02 0.91917698E+02</pdfrwt>
<totfact> 0.14943623E+04</totfact>
</mgrwt>
</event>
<event>
 8    1  0.3177960E-004  0.9297043E+02  0.7546771E-02  0.1297236E+00
          4   -1    0    0  501    0  0.00000000000E+00  0.00000000000E+00  0.16706942433E+02  0.16706942433E+02  0.00000000000E+00 0. -1.
         -4   -1    0    0    0  501 -0.00000000000E+00 -0.00000000000E+00 -0.51551783085E+03  0.51551783085E+03  0.00000000000E+00 0.  1.
         23    2    1    2    0    0  0.16169812882E+02 -0.69394600538E+01 -0.20639099628E+03  0.22538133597E+03  0.88825020728E+02 0.  0.
         23    2    1    2    0    0 -0.16169812882E+02  0.69394600538E+01 -0.29241989215E+03  0.30684343731E+03  0.91290102120E+02 0.  0.
          5    1    4    4  502    0  0.31962917695E+02  0.24942002327E+02 -0.11275821195E+03  0.11991762152E+03  0.47000000000E+01 0. -1.
         -5    1    4    4    0  502 -0.48132730576E+02 -0.18002542273E+02 -0.17966168019E+03  0.18692581579E+03  0.47000000000E+01 0.  1.
          5    1    3    3  503    0  0.42587888207E+02 -0.16005103420E+02 -0.55799913144E+02  0.72149926295E+02  0.47000000000E+01 0. -1.
         -5    1    3    3    0  503 -0.26418075325E+02  0.90656433666E+01 -0.15059108313E+03  0.15323140968E+03  0.47000000000E+01 0.  1.
<mgrwt>
<rscale>  0 0.92359610E+02</rscale>
<asrwt>0</asrwt>
<pdfrwt beam="1">  1        4 0.25702985E-02 0.92970435E+02</pdfrwt>
<pdfrwt beam="2">  1       -4 0.79310445E-01 0.92970435E+02</pdfrwt>
<totfact> 0.15035546E+03</totfact>
</mgrwt>
</event>
<event>
 8    1  0.3177960E-004  0.1139422E+03  0.7546771E-02  0.1253475E+00
         -2   -1    0    0    0  501 -0.00000000000E+00  0.00000000000E+00  0.77637202336E+02  0.77637202336E+02  0.00000000000E+00 0.  1.
          2   -1    0    0  501    0  0.00000000000E+00 -0.00000000000E+00 -0.31213134101E+03  0.31213134101E+03  0.00000000000E+00 0. -1.
         23    2    1    2    0    0  0.65643941091E+02 -0.11951650814E+02  0.15571511729E+02  0.11500129512E+03  0.92362638235E+02 0.  0.
         23    2    1    2    0    0 -0.65643941091E+02  0.11951650814E+02 -0.25006565040E+03  0.27476724823E+03  0.92261813496E+02 0.  0.
          5    1    3    3  502    0  0.63073449030E+02  0.23642170443E+02 -0.13346656866E+02  0.68829030542E+02  0.47000000000E+01 0. -1.
         -5    1    3    3    0  502  0.25704920603E+01 -0.35593821257E+02  0.28918168595E+02  0.46172264575E+02  0.47000000000E+01 0.  1.
          5    1    4    4  503    0 -0.84683679663E+02 -0.36552864355E+01 -0.21882678342E+03  0.23471671832E+03  0.47000000000E+01 0. -1.
         -5    1    4    4    0  503  0.19039738572E+02  0.15606937249E+02 -0.31238866986E+02  0.40050529906E+02  0.47000000000E+01 0.  1.
<mgrwt>
<rscale>  0 0.11392177E+03</rscale>
<asrwt>0</asrwt>
<pdfrwt beam="1">  1        2 0.48020206E-01 0.11394220E+03</pdfrwt>
<pdfrwt beam="2">  1       -2 0.11944185E-01 0.11394220E+03</pdfrwt>
<totfact> 0.49520078E+03</totfact>
</mgrwt>
</event>
<event>
 8    1  0.3177960E-004  0.9748953E+02  0.7546771E-02  0.1287054E+00
         -2   -1    0    0    0  501 -0.00000000000E+00  0.00000000000E+00  0.21116181990E+02  0.21116181990E+02  0.00000000000E+00 0.  1.
          2   -1    0    0  501    0  0.00000000000E+00 -0.00000000000E+00 -0.46837635816E+03  0.46837635816E+03  0.00000000000E+00 0. -1.
         23    2    1    2    0    0  0.19676693532E+02  0.19131007523E+02 -0.28265492277E+03  0.29818363253E+03  0.90920325713E+02 0.  0.
         23    2    1    2    0    0 -0.19676693532E+02 -0.19131007523E+02 -0.16460525340E+03  0.19130890762E+03  0.93546998720E+02 0.  0.
          5    1    3    3  502    0 -0.25761403913E+02  0.35580485028E+02 -0.10280398628E+03  0.11189446118E+03  0.47000000000E+01 0. -1.
         -5    1    4    4    0  503 -0.24122537492E+02 -0.46611955665E+02 -0.15107686821E+03  0.16000275415E+03  0.47000000000E+01 0.  1.
          5    1    4    4  503    0  0.44458439607E+01  0.27480948142E+02 -0.13528385189E+02  0.31306153471E+02  0.47000000000E+01 0. -1.
         -5    1    3    3    0  502  0.45438097445E+02 -0.16449477505E+02 -0.17985093648E+03  0.18628917135E+03  0.47000000000E+01 0.  1.
<mgrwt>
<rscale>  0 0.96853950E+02</rscale>
<asrwt>0</asrwt>
<pdfrwt beam="1">  1        2 0.72057900E-01 0.97489531E+02</pdfrwt>
<pdfrwt beam="2">  1       -2 0.32486434E-02 0.97489531E+02</pdfrwt>
<totfact> 0.22865779E+04</totfact>
</mgrwt>
</event>
<event>
 8    1  0.3177960E-004  0.9674451E+02  0.7546771E-02  0.1287961E+00
         -2   -1    0    0    0  501 -0.00000000000E+00  0.00000000000E+00  0.40864211927E+03  0.40864211927E+03  0.00000000000E+00 0.  1.
          2   -1    0    0  501    0  0.00000000000E+00 -0.00000000000E+00 -0.24484309071E+02  0.24484309071E+02  0.00000000000E+00 0. -1.
         23    2    1    2    0    0 -0.94062998199E+01 -0.29749283729E+02  0.25073268356E+03  0.26831815915E+03  0.90300927839E+02 0.  0.
         23    2    1    2    0    0  0.94062998199E+01  0.29749283729E+02  0.13342512665E+03  0.16480826919E+03  0.91575121156E+02 0.  0.
          5    1    3    3  502    0  0.60058921244E+01  0.23086843230E+02  0.16187205462E+03  0.16368788941E+03  0.47000000000E+01 0. -1.
         -5    1    3    3    0  502 -0.15412191944E+02 -0.52836126959E+02  0.88860628933E+02  0.10463026975E+03  0.47000000000E+01 0.  1.
          5    1    4    4  503    0 -0.27301881226E+02  0.47764771890E+02  0.69272257225E+02  0.88586690723E+02  0.47000000000E+01 0. -1.
         -5    1    4    4    0  503  0.36708181045E+02 -0.18015488161E+02  0.64152869420E+02  0.76221578468E+02  0.47000000000E+01 0.  1.
<mgrwt>
<rscale>  0 0.96441791E+02</rscale>
<asrwt>0</asrwt>
<pdfrwt beam="1">  1        2 0.37668171E-02 0.96744515E+02</pdfrwt>
<pdfrwt beam="2">  1       -2 0.62868013E-01 0.96744515E+02</pdfrwt>
<totfact> 0.50647594E+03</totfact>
</mgrwt>
</event>
<event>
 8    1  0.3177960E-004  0.9546698E+02  0.7546771E-02  0.1297354E+00
         -1   -1    0    0    0  501 -0.00000000000E+00  0.00000000000E+00  0.38114831193E+03  0.38114831193E+03  0.00000000000E+00 0.  1.
          1   -1    0    0  501    0  0.00000000000E+00 -0.00000000000E+00 -0.26327577414E+02  0.26327577414E+02  0.00000000000E+00 0. -1.
         23    2    1    2    0    0  0.11154089841E+02  0.19497669547E+01  0.76390293497E+02  0.11313347825E+03  0.82677032172E+02 0.  0.
         23    2    1    2    0    0 -0.11154089841E+02 -0.19497669547E+01  0.27843044102E+03  0.29434241110E+03  0.94793086098E+02 0.  0.
          5    1    3    3  502    0  0.12885022032E+02  0.22039347052E+02  0.86343198255E+02  0.90160936642E+02  0.47000000000E+01 0.  1.
         -5    1    4    4    0  503 -0.48047904618E+02 -0.34368110541E+00  0.88634446020E+02  0.10093004645E+03  0.47000000000E+01 0.  1.
          5    1    4    4  503    0  0.36893814776E+02 -0.16060858493E+01  0.18979599500E+03  0.19341236465E+03  0.47000000000E+01 0. -1.
         -5    1    3    3    0  502 -0.17309321904E+01 -0.20089580098E+02 -0.99529047581E+01  0.22972541607E+02  0.47000000000E+01 0. -1.
<mgrwt>
<rscale>  0 0.92309193E+02</rscale>
<asrwt>0</asrwt>
<pdfrwt beam="1">  1        1 0.40503968E-02 0.95466981E+02</pdfrwt>
<pdfrwt beam="2">  1       -1 0.58638198E-01 0.95466981E+02</pdfrwt>
<totfact> 0.62644070E+03</totfact>
</mgrwt>
</event>
<event>
 8    1  0.3177960E-004  0.9618012E+02  0.7546771E-02  0.1289401E+00
         -2   -1    0    0    0  501 -0.00000000000E+00  0.00000000000E+00  0.28567279448E+02  0.28567279448E+02  0.00000000000E+00 0.  1.
          2   -1    0    0  501    0  0.00000000000E+00 -0.00000000000E+00 -0.44809974716E+03  0.44809974716E+03  0.00000000000E+00 0. -1.
         23    2    1    2    0    0  0.30029690951E+02 -0.13480397045E+02 -0.82874201284E+02  0.12695963118E+03  0.90372071281E+02 0.  0.
         23    2    1    2    0    0 -0.30029690951E+02  0.13480397045E+02 -0.33665826643E+03  0.34970739543E+03  0.88729761747E+02 0.  0.
          5    1    3    3  502    0  0.12950963251E+02  0.38688853125E+02 -0.34220422971E+02  0.53457292801E+02  0.47000000000E+01 0. -1.
         -5    1    4    4    0  503 -0.26175042607E+02  0.39629964447E+02 -0.92585120858E+02  0.10416218864E+03  0.47000000000E+01 0.  1.
          5    1    4    4  503    0 -0.38546483442E+01 -0.26149567402E+02 -0.24407314557E+03  0.24554520679E+03  0.47000000000E+01 0. -1.
         -5    1    3    3    0  502  0.17078727700E+02 -0.52169250169E+02 -0.48653778312E+02  0.73502338379E+02  0.47000000000E+01 0.  1.
<mgrwt>
<rscale>  0 0.95792411E+02</rscale>
<asrwt>0</asrwt>
<pdfrwt beam="1">  1        2 0.68938414E-01 0.96180116E+02</pdfrwt>
<pdfrwt beam="2">  1       -2 0.43949666E-02 0.96180116E+02</pdfrwt>
<totfact> 0.15357368E+04</totfact>
</mgrwt>
</event>
<event>
 8    1  0.3177960E-004  0.1096970E+03  0.7546771E-02  0.1261335E+00
          1   -1    0    0  501    0  0.00000000000E+00  0.00000000000E+00  0.40032972256E+03  0.40032972256E+03  0.00000000000E+00 0. -1.
         -1   -1    0    0    0  501 -0.00000000000E+00 -0.00000000000E+00 -0.36859412262E+02  0.36859412262E+02  0.00000000000E+00 0.  1.
         23    2    1    2    0    0 -0.48591629816E+02  0.33052290019E+02  0.86725888985E+02  0.13949648409E+03  0.92110199705E+02 0.  0.
         23    2    1    2    0    0  0.48591629816E+02 -0.33052290019E+02  0.27674442131E+03  0.29769265073E+03  0.92627421466E+02 0.  0.
          5    1    4    4  502    0 -0.19759908247E+02 -0.65570070116E+01  0.14746078404E+03  0.14899738637E+03  0.47000000000E+01 0. -1.
         -5    1    3    3    0  503 -0.46114861943E+01  0.49466335712E+02  0.12331029733E+02  0.51403584194E+02  0.47000000000E+01 0.  1.
          5    1    3    3  503    0 -0.43980143622E+02 -0.16414045693E+02  0.74394859253E+02  0.88092899897E+02  0.47000000000E+01 0. -1.
         -5    1    4    4    0  502  0.68351538064E+02 -0.26495283007E+02  0.12928363728E+03  0.14869526436E+03  0.47000000000E+01 0.  1.
<mgrwt>
<rscale>  0 0.10958778E+03</rscale>
<asrwt>0</asrwt>
<pdfrwt beam="1">  1        1 0.61589185E-01 0.10969704E+03</pdfrwt>
<pdfrwt beam="2">  1       -1 0.56706791E-02 0.10969704E+03</pdfrwt>
<totfact> 0.82628061E+03</totfact>
</mgrwt>
</event>
<event>
 8    1  0.3177960E-004  0.9606062E+02  0.7546771E-02  0.1293726E+00
         -2   -1    0    0    0  501 -0.00000000000E+00  0.00000000000E+00  0.30126330664E+02  0.30126330664E+02  0.00000000000E+00 0.  1.
          2   -1    0    0  501    0  0.00000000000E+00 -0.00000000000E+00 -0.30742413865E+03  0.30742413865E+03  0.00000000000E+00 0. -1.
         23    2    1    2    0    0  0.64456137318E+01 -0.58064896913E+01 -0.18323311483E+03  0.20310416252E+03  0.87187528952E+02 0.  0.
         23    2    1    2    0    0 -0.64456137318E+01  0.58064896913E+01 -0.94064693159E+02  0.13444630680E+03  0.95668080638E+02 0.  0.
          5    1    4    4  502    0 -0.14310991855E+02 -0.43262521065E+02 -0.50621116360E+02  0.68271792405E+02  0.47000000000E+01 0. -1.
         -5    1    3    3    0  503 -0.29742066143E+02 -0.21862730099E+02 -0.13743890435E+03  0.14238719007E+03  0.47000000000E+01 0. -1.
          5    1    3    3  503    0  0.36187679875E+02  0.16056240408E+02 -0.45794210475E+02  0.60716972453E+02  0.47000000000E+01 0.  1.
         -5    1    4    4    0  502  0.78653781230E+01  0.49069010756E+02 -0.43443576799E+02  0.66174514390E+02  0.47000000000E+01 0.  1.
<mgrwt>
<rscale>  0 0.93876624E+02</rscale>
<asrwt>0</asrwt>
<pdfrwt beam="1">  1        2 0.47296022E-01 0.96060621E+02</pdfrwt>
<pdfrwt beam="2">  1       -2 0.46348200E-02 0.96060621E+02</pdfrwt>
<totfact> 0.21106143E+04</totfact>
</mgrwt>
</event>
<event>
 8    1  0.3177960E-004  0.9274907E+02  0.7546771E-02  0.1297587E+00
         -2   -1    0    0    0  501 -0.00000000000E+00  0.00000000000E+00  0.30141792339E+02  0.30141792339E+02  0.00000000000E+00 0.  1.
          2   -1    0    0  501    0  0.00000000000E+00 -0.00000000000E+00 -0.27907604969E+03  0.27907604969E+03  0.00000000000E+00 0. -1.
         23    2    1    2    0    0 -0.13640926022E+02 -0.10416975320E+02 -0.13027806889E+03  0.15992112419E+03  0.91147147462E+02 0.  0.
         23    2    1    2    0    0  0.13640926022E+02  0.10416975320E+02 -0.11865618846E+03  0.14929671784E+03  0.88969830055E+02 0.  0.
          5    1    4    4  502    0  0.43456686324E+02  0.31262565650E+02 -0.75197564296E+02  0.92426161196E+02  0.47000000000E+01 0. -1.
         -5    1    3    3    0  503 -0.30752872385E+02  0.19406914590E+02 -0.15145190614E+02  0.39671580415E+02  0.47000000000E+01 0.  1.
          5    1    3    3  503    0  0.17111946363E+02 -0.29823889910E+02 -0.11513287828E+03  0.12024954378E+03  0.47000000000E+01 0. -1.
         -5    1    4    4    0  502 -0.29815760302E+02 -0.20845590330E+02 -0.43458624160E+02  0.56870556640E+02  0.47000000000E+01 0.  1.
<mgrwt>
<rscale>  0 0.92209683E+02</rscale>
<asrwt>0</asrwt>
<pdfrwt beam="1">  1        2 0.42934778E-01 0.92749074E+02</pdfrwt>
<pdfrwt beam="2">  1       -2 0.46371987E-02 0.92749074E+02</pdfrwt>
<totfact> 0.23250661E+04</totfact>
</mgrwt>
</event>
<event>
 8    1  0.3177960E-004  0.1153742E+03  0.7546771E-02  0.1252127E+00
          1   -1    0    0  501    0  0.00000000000E+00  0.00000000000E+00  0.63343112351E+03  0.63343112351E+03  0.00000000000E+00 0. -1.
         -1   -1    0    0    0  501 -0.00000000000E+00 -0.00000000000E+00 -0.20573200168E+02  0.20573200168E+02  0.00000000000E+00 0.  1.
         23    2    1    2    0    0 -0.55149582566E+02 -0.42026354473E+02  0.32640335151E+03  0.34619408301E+03  0.92214447388E+02 0.  0.
         23    2    1    2    0    0  0.55149582566E+02  0.42026354473E+02  0.28645457183E+03  0.30781024067E+03  0.88787564495E+02 0.  0.
          5    1    4    4  502    0  0.66253695940E+02  0.21451399618E+02  0.26990130908E+03  0.27878041792E+03  0.47000000000E+01 0. -1.
         -5    1    3    3    0  503 -0.46847259784E+02 -0.24269241619E+01  0.58123792969E+02  0.74839969396E+02  0.47000000000E+01 0.  1.
          5    1    3    3  503    0 -0.83023227826E+01 -0.39599430311E+02  0.26827955854E+03  0.27135411362E+03  0.47000000000E+01 0. -1.
         -5    1    4    4    0  502 -0.11104113374E+02  0.20574954855E+02  0.16553262748E+02  0.29029822746E+02  0.47000000000E+01 0.  1.
<mgrwt>
<rscale>  0 0.11468802E+03</rscale>
<asrwt>0</asrwt>
<pdfrwt beam="1">  1        1 0.97450927E-01 0.11537415E+03</pdfrwt>
<pdfrwt beam="2">  1       -1 0.31651082E-02 0.11537415E+03</pdfrwt>
<totfact> 0.10714836E+04</totfact>
</mgrwt>
</event>
<event>
 8    1  0.3177960E-004  0.1114487E+03  0.7546771E-02  0.1258274E+00
          3   -1    0    0  501    0  0.00000000000E+00  0.00000000000E+00  0.32545622596E+02  0.32545622596E+02  0.00000000000E+00 0. -1.
         -3   -1    0    0    0  501 -0.00000000000E+00 -0.00000000000E+00 -0.37914670303E+03  0.37914670303E+03  0.00000000000E+00 0.  1.
         23    2    1    2    0    0 -0.24323929406E+02  0.62255118580E+02 -0.17772100244E+03  0.20935276871E+03  0.88184316801E+02 0.  0.
         23    2    1    2    0    0  0.24323929406E+02 -0.62255118580E+02 -0.16888007800E+03  0.20233955691E+03  0.89182185532E+02 0.  0.
          5    1    4    4  502    0  0.52383025400E+02 -0.63432407135E+02 -0.13406460797E+03  0.15736283149E+03  0.47000000000E+01 0. -1.
         -5    1    3    3    0  503 -0.17907007297E+02  0.42653214484E+02 -0.18193505731E+03  0.18778288712E+03  0.47000000000E+01 0.  1.
          5    1    3    3  503    0 -0.64169221088E+01  0.19601904096E+02  0.42140548732E+01  0.21569881595E+02  0.47000000000E+01 0. -1.
         -5    1    4    4    0  502 -0.28059095995E+02  0.11772885550E+01 -0.34815470027E+02  0.44976725421E+02  0.47000000000E+01 0.  1.
<mgrwt>
<rscale>  0 0.11124896E+03</rscale>
<asrwt>0</asrwt>
<pdfrwt beam="1">  1        3 0.50070188E-02 0.11144871E+03</pdfrwt>
<pdfrwt beam="2">  1       -3 0.58330263E-01 0.11144871E+03</pdfrwt>
<totfact> 0.14746143E+03</totfact>
</mgrwt>
</event>
<event>
 8    1  0.3177960E-004  0.9660465E+02  0.7546771E-02  0.1287914E+00
          1   -1    0    0  501    0  0.00000000000E+00  0.00000000000E+00  0.11823237609E+03  0.11823237609E+03  0.00000000000E+00 0. -1.
         -1   -1    0    0    0  501 -0.00000000000E+00 -0.00000000000E+00 -0.85715318124E+02  0.85715318124E+02  0.00000000000E+00 0.  1.
         23    2    1    2    0    0  0.30903558870E+02  0.56778971320E+00 -0.13340240235E+02  0.97521386184E+02  0.91526533954E+02 0.  0.
         23    2    1    2    0    0 -0.30903558870E+02 -0.56778971320E+00  0.45857298203E+02  0.10642630803E+03  0.90930274974E+02 0.  0.
          5    1    3    3  502    0 -0.27134682049E+02  0.17613302195E+02 -0.16794239112E+02  0.36751270066E+02  0.47000000000E+01 0. -1.
         -5    1    4    4    0  503  0.23922217551E+02  0.14210410677E+02 -0.65983149728E+01  0.28979924510E+02  0.47000000000E+01 0.  1.
          5    1    4    4  503    0 -0.54825776420E+02 -0.14778200390E+02  0.52455613176E+02  0.77446383521E+02  0.47000000000E+01 0. -1.
         -5    1    3    3    0  502  0.58038240919E+02 -0.17045512482E+02  0.34539988770E+01  0.60770116118E+02  0.47000000000E+01 0.  1.
<mgrwt>
<rscale>  0 0.96463160E+02</rscale>
<asrwt>0</asrwt>
<pdfrwt beam="1">  1        1 0.18189596E-01 0.96604652E+02</pdfrwt>
<pdfrwt beam="2">  1       -1 0.13186972E-01 0.96604652E+02</pdfrwt>
<totfact> 0.10395586E+04</totfact>
</mgrwt>
</event>
<event>
 8    1  0.3177960E-004  0.9362607E+02  0.7546771E-02  0.1294710E+00
         -1   -1    0    0    0  501 -0.00000000000E+00  0.00000000000E+00  0.91580699103E+02  0.91580699103E+02  0.00000000000E+00 0.  1.
          1   -1    0    0  501    0  0.00000000000E+00 -0.00000000000E+00 -0.16312438139E+03  0.16312438139E+03  0.00000000000E+00 0. -1.
         23    2    1    2    0    0  0.12879278358E+01  0.22629662552E+02  0.46452374318E+02  0.10451633223E+03  0.90840961234E+02 0.  0.
         23    2    1    2    0    0 -0.12879278358E+01 -0.22629662552E+02 -0.11799605660E+03  0.15018874826E+03  0.90110101236E+02 0.  0.
          5    1    4    4  502    0  0.20965631985E+02  0.15066858110E+02 -0.98682611030E+02  0.10211226987E+03  0.47000000000E+01 0. -1.
         -5    1    4    4    0  502 -0.22253559821E+02 -0.37696520662E+02 -0.19313445574E+02  0.48076478393E+02  0.47000000000E+01 0.  1.
          5    1    3    3  503    0 -0.25219276853E+02  0.27381414275E+02  0.62440923381E+02  0.72847187216E+02  0.47000000000E+01 0. -1.
         -5    1    3    3    0  503  0.26507204688E+02 -0.47517517227E+01 -0.15988549063E+02  0.31669145015E+02  0.47000000000E+01 0.  1.
<mgrwt>
<rscale>  0 0.93448325E+02</rscale>
<asrwt>0</asrwt>
<pdfrwt beam="1">  1        1 0.25096058E-01 0.93626068E+02</pdfrwt>
<pdfrwt beam="2">  1       -1 0.14089338E-01 0.93626068E+02</pdfrwt>
<totfact> 0.62563580E+03</totfact>
</mgrwt>
</event>
<event>
 8    1  0.3177960E-004  0.9766001E+02  0.7546771E-02  0.1286864E+00
         -3   -1    0    0    0  501 -0.00000000000E+00  0.00000000000E+00  0.34029662466E+02  0.34029662466E+02  0.00000000000E+00 0.  1.
          3   -1    0    0  501    0  0.00000000000E+00 -0.00000000000E+00 -0.27989133295E+03  0.27989133295E+03  0.00000000000E+00 0. -1.
         23    2    1    2    0    0  0.27643463512E+02  0.16931777842E+02 -0.15077934247E+03  0.17964377800E+03  0.92122910736E+02 0.  0.
         23    2    1    2    0    0 -0.27643463512E+02 -0.16931777842E+02 -0.95082328017E+02  0.13427721742E+03  0.89100369475E+02 0.  0.
          5    1    4    4  502    0 -0.53269978730E+02 -0.87263627271E+01 -0.92023859671E+02  0.10679101455E+03  0.47000000000E+01 0. -1.
         -5    1    3    3    0  503  0.50181680047E+02  0.34042409195E+02 -0.64196214504E+02  0.88432633076E+02  0.47000000000E+01 0.  1.
          5    1    3    3  503    0 -0.22538216535E+02 -0.17110631354E+02 -0.86583127966E+02  0.91211144923E+02  0.47000000000E+01 0. -1.
         -5    1    4    4    0  502  0.25626515217E+02 -0.82054151148E+01 -0.30584683458E+01  0.27486202866E+02  0.47000000000E+01 0.  1.
<mgrwt>
<rscale>  0 0.96940631E+02</rscale>
<asrwt>0</asrwt>
<pdfrwt beam="1">  1        3 0.43060205E-01 0.97660006E+02</pdfrwt>
<pdfrwt beam="2">  1       -3 0.52353326E-02 0.97660006E+02</pdfrwt>
<totfact> 0.24493432E+03</totfact>
</mgrwt>
</event>
<event>
 8    1  0.3177960E-004  0.2178516E+03  0.7546771E-02  0.1135848E+00
         -2   -1    0    0    0  501 -0.00000000000E+00  0.00000000000E+00  0.11632682935E+03  0.11632682935E+03  0.00000000000E+00 0. -1.
          2   -1    0    0  501    0  0.00000000000E+00 -0.00000000000E+00 -0.41308785143E+03  0.41308785143E+03  0.00000000000E+00 0.  1.
         23    2    1    2    0    0  0.64478674354E+02 -0.18483449461E+03 -0.18590658048E+03  0.28498059354E+03  0.91276460161E+02 0.  0.
         23    2    1    2    0    0 -0.64478674354E+02  0.18483449461E+03 -0.11085444160E+03  0.24443408724E+03  0.95593022440E+02 0.  0.
          5    1    4    4  502    0 -0.21426823943E+01  0.14189107816E+03 -0.74002550171E+02  0.16011288699E+03  0.47000000000E+01 0. -1.
         -5    1    4    4    0  502 -0.62335991960E+02  0.42943416457E+02 -0.36851891428E+02  0.84321200255E+02  0.47000000000E+01 0.  1.
          5    1    3    3  503    0 -0.20704141055E+02 -0.23829582043E+02 -0.42254490948E+02  0.52953209935E+02  0.47000000000E+01 0. -1.
         -5    1    3    3    0  503  0.85182815409E+02 -0.16100491257E+03 -0.14365208954E+03  0.23202738360E+03  0.47000000000E+01 0.  1.
<mgrwt>
<rscale>  0 0.21738528E+03</rscale>
<asrwt>0</asrwt>
<pdfrwt beam="1">  1        2 0.63551978E-01 0.21785159E+03</pdfrwt>
<pdfrwt beam="2">  1       -2 0.17896435E-01 0.21785159E+03</pdfrwt>
<totfact> 0.19460175E+03</totfact>
</mgrwt>
</event>
<event>
 8    1  0.3177960E-004  0.9739203E+02  0.7546771E-02  0.1286802E+00
         -1   -1    0    0    0  501 -0.00000000000E+00  0.00000000000E+00  0.12392591497E+03  0.12392591497E+03  0.00000000000E+00 0.  1.
          1   -1    0    0  501    0  0.00000000000E+00 -0.00000000000E+00 -0.88619960271E+02  0.88619960271E+02  0.00000000000E+00 0. -1.
         23    2    1    2    0    0 -0.17051132518E+02 -0.24480762124E+02  0.58840149144E+02  0.11235073197E+03  0.90942151883E+02 0.  0.
         23    2    1    2    0    0  0.17051132518E+02  0.24480762124E+02 -0.23534194444E+02  0.10019514327E+03  0.92710083554E+02 0.  0.
          5    1    4    4  502    0 -0.17900117929E+02 -0.11812055019E+02 -0.41126236212E+02  0.46619697238E+02  0.47000000000E+01 0.  1.
         -5    1    4    4    0  502  0.34951250447E+02  0.36292817143E+02  0.17592041768E+02  0.53575446032E+02  0.47000000000E+01 0. -1.
          5    1    3    3  503    0  0.29764290140E+02 -0.13218075118E+02 -0.38873587179E+01  0.33133548484E+02  0.47000000000E+01 0. -1.
         -5    1    3    3    0  503 -0.46815422658E+02 -0.11262687006E+02  0.62727507862E+02  0.79217183488E+02  0.47000000000E+01 0.  1.
<mgrwt>
<rscale>  0 0.96968933E+02</rscale>
<asrwt>0</asrwt>
<pdfrwt beam="1">  1        1 0.13633840E-01 0.97392035E+02</pdfrwt>
<pdfrwt beam="2">  1       -1 0.19065525E-01 0.97392035E+02</pdfrwt>
<totfact> 0.84583834E+03</totfact>
</mgrwt>
</event>
<event>
 8    1  0.3177960E-004  0.1085693E+03  0.7546771E-02  0.1263415E+00
          2   -1    0    0  501    0  0.00000000000E+00  0.00000000000E+00  0.85384939326E+02  0.85384939326E+02  0.00000000000E+00 0. -1.
         -2   -1    0    0    0  501 -0.00000000000E+00 -0.00000000000E+00 -0.17789048229E+03  0.17789048229E+03  0.00000000000E+00 0.  1.
         23    2    1    2    0    0  0.51022773733E+02 -0.24211602212E+02 -0.10885137310E+03  0.15348252253E+03  0.92297010647E+02 0.  0.
         23    2    1    2    0    0 -0.51022773733E+02  0.24211602212E+02  0.16345830136E+02  0.10979289909E+03  0.92724157621E+02 0.  0.
          5    1    4    4  502    0 -0.35341073682E+02  0.38820113721E+02  0.47992795767E+02  0.71283877307E+02  0.47000000000E+01 0. -1.
         -5    1    4    4    0  502 -0.15681700051E+02 -0.14608511509E+02 -0.31646965631E+02  0.38509021783E+02  0.47000000000E+01 0.  1.
          5    1    3    3  503    0  0.59887897396E+01  0.33758355948E+02 -0.36821591048E+02  0.50531294919E+02  0.47000000000E+01 0. -1.
         -5    1    3    3    0  503  0.45033983993E+02 -0.57969958161E+02 -0.72029782054E+02  0.10295122761E+03  0.47000000000E+01 0.  1.
<mgrwt>
<rscale>  0 0.10847805E+03</rscale>
<asrwt>0</asrwt>
<pdfrwt beam="1">  1        2 0.13136145E-01 0.10856931E+03</pdfrwt>
<pdfrwt beam="2">  1       -2 0.27367766E-01 0.10856931E+03</pdfrwt>
<totfact> 0.51752220E+03</totfact>
</mgrwt>
</event>
<event>
 8    1  0.3177960E-004  0.1035509E+03  0.7546771E-02  0.1275972E+00
         -1   -1    0    0    0  501 -0.00000000000E+00  0.00000000000E+00  0.72788579043E+02  0.72788579043E+02  0.00000000000E+00 0.  1.
          1   -1    0    0  501    0  0.00000000000E+00 -0.00000000000E+00 -0.16430790434E+03  0.16430790434E+03  0.00000000000E+00 0. -1.
         23    2    1    2    0    0 -0.52767816969E+01 -0.36398624731E+02 -0.90924443346E+02  0.13354383394E+03  0.90631103257E+02 0.  0.
         23    2    1    2    0    0  0.52767816969E+01  0.36398624731E+02 -0.59488195448E+00  0.10355264945E+03  0.96799240782E+02 0.  0.
          5    1    4    4  502    0 -0.40523234930E+02  0.14821672727E+02 -0.21669191097E+02  0.48512456075E+02  0.47000000000E+01 0. -1.
         -5    1    3    3    0  503  0.30486966343E+02 -0.55311495784E+01 -0.41863742081E+00  0.31341888739E+02  0.47000000000E+01 0.  1.
          5    1    3    3  503    0 -0.35763748040E+02 -0.30867475153E+02 -0.90505805925E+02  0.10220194520E+03  0.47000000000E+01 0. -1.
         -5    1    4    4    0  502  0.45800016627E+02  0.21576952004E+02  0.21074309143E+02  0.55040193374E+02  0.47000000000E+01 0.  1.
<mgrwt>
<rscale>  0 0.10208474E+03</rscale>
<asrwt>0</asrwt>
<pdfrwt beam="1">  1        1 0.25278139E-01 0.10355094E+03</pdfrwt>
<pdfrwt beam="2">  1       -1 0.11198243E-01 0.10355094E+03</pdfrwt>
<totfact> 0.88916859E+03</totfact>
</mgrwt>
</event>
<event>
 8    1  0.3177960E-004  0.1094281E+03  0.7546771E-02  0.1262630E+00
          2   -1    0    0  501    0  0.00000000000E+00  0.00000000000E+00  0.38477187093E+03  0.38477187093E+03  0.00000000000E+00 0. -1.
         -2   -1    0    0    0  501 -0.00000000000E+00 -0.00000000000E+00 -0.39727967378E+02  0.39727967378E+02  0.00000000000E+00 0.  1.
         23    2    1    2    0    0  0.43250481723E+01  0.60666357265E+02  0.69059520134E+02  0.12761283022E+03  0.88412126832E+02 0.  0.
         23    2    1    2    0    0 -0.43250481723E+01 -0.60666357265E+02  0.27598438342E+03  0.29688700808E+03  0.90969240590E+02 0.  0.
          5    1    3    3  502    0 -0.73534847411E+01 -0.21702887081E+02  0.20913828681E+02  0.31377815022E+02  0.47000000000E+01 0. -1.
         -5    1    4    4    0  503 -0.35140448487E+02 -0.12826813069E+02  0.43833735066E+02  0.57817511043E+02  0.47000000000E+01 0.  1.
          5    1    4    4  503    0  0.30815400315E+02 -0.47839544196E+02  0.23215064835E+03  0.23906949704E+03  0.47000000000E+01 0. -1.
         -5    1    3    3    0  502  0.11678532913E+02  0.82369244346E+02  0.48145691453E+02  0.96235015201E+02  0.47000000000E+01 0.  1.
<mgrwt>
<rscale>  0 0.10889516E+03</rscale>
<asrwt>0</asrwt>
<pdfrwt beam="1">  1        2 0.59195670E-01 0.10942813E+03</pdfrwt>
<pdfrwt beam="2">  1       -2 0.61119952E-02 0.10942813E+03</pdfrwt>
<totfact> 0.11155851E+04</totfact>
</mgrwt>
</event>
<event>
 8    1  0.3177960E-004  0.1544514E+03  0.7546771E-02  0.1195313E+00
         -1   -1    0    0    0  501 -0.00000000000E+00  0.00000000000E+00  0.26360407222E+02  0.26360407222E+02  0.00000000000E+00 0.  1.
          1   -1    0    0  501    0  0.00000000000E+00 -0.00000000000E+00 -0.10929648326E+04  0.10929648326E+04  0.00000000000E+00 0. -1.
         23    2    1    2    0    0  0.56512982155E+02 -0.10974019648E+03 -0.76890241108E+03  0.78426153264E+03  0.92836447248E+02 0.  0.
         23    2    1    2    0    0 -0.56512982155E+02  0.10974019648E+03 -0.29770201428E+03  0.33506370717E+03  0.91676445597E+02 0.  0.
          5    1    4    4  502    0 -0.30025412779E+02  0.26120070548E+02 -0.22018367559E+02  0.45723976292E+02  0.47000000000E+01 0. -1.
         -5    1    4    4    0  502 -0.26487569377E+02  0.83620125930E+02 -0.27568364673E+03  0.28933973088E+03  0.47000000000E+01 0.  1.
          5    1    3    3  503    0  0.69663050343E+02 -0.35436683634E+02 -0.42412259045E+03  0.43128964845E+03  0.47000000000E+01 0. -1.
         -5    1    3    3    0  503 -0.13150068188E+02 -0.74303512844E+02 -0.34477982063E+03  0.35297188419E+03  0.47000000000E+01 0.  1.
<mgrwt>
<rscale>  0 0.15427749E+03</rscale>
<asrwt>0</asrwt>
<pdfrwt beam="1">  1        1 0.16814844E+00 0.15445140E+03</pdfrwt>
<pdfrwt beam="2">  1       -1 0.40554472E-02 0.15445140E+03</pdfrwt>
<totfact> 0.32503713E+03</totfact>
</mgrwt>
</event>
<event>
 8    1  0.3177960E-004  0.9459979E+02  0.7546771E-02  0.1293148E+00
          1   -1    0    0  501    0  0.00000000000E+00  0.00000000000E+00  0.25526014327E+03  0.25526014327E+03  0.00000000000E+00 0. -1.
         -1   -1    0    0    0  501 -0.00000000000E+00 -0.00000000000E+00 -0.35369613560E+02  0.35369613560E+02  0.00000000000E+00 0.  1.
         23    2    1    2    0    0  0.47243352742E+01  0.19752370734E+02  0.84463274060E+02  0.12543393041E+03  0.90482875398E+02 0.  0.
         23    2    1    2    0    0 -0.47243352742E+01 -0.19752370734E+02  0.13542725565E+03  0.16519582642E+03  0.92393960841E+02 0.  0.
          5    1    4    4  502    0 -0.72547578519E+01  0.32702415836E+02  0.88003331489E+02  0.94280198696E+02  0.47000000000E+01 0. -1.
         -5    1    4    4    0  502  0.25304225778E+01 -0.52454786569E+02  0.47423924162E+02  0.70915627723E+02  0.47000000000E+01 0.  1.
          5    1    3    3  503    0 -0.27686323534E+02  0.37940875853E+01  0.84371251816E+02  0.89002953572E+02  0.47000000000E+01 0. -1.
         -5    1    3    3    0  503  0.32410658809E+02  0.15958283148E+02  0.92022243543E-01  0.36430976840E+02  0.47000000000E+01 0.  1.
<mgrwt>
<rscale>  0 0.94129892E+02</rscale>
<asrwt>0</asrwt>
<pdfrwt beam="1">  1        1 0.39270790E-01 0.94599786E+02</pdfrwt>
<pdfrwt beam="2">  1       -1 0.54414792E-02 0.94599786E+02</pdfrwt>
<totfact> 0.15087220E+04</totfact>
</mgrwt>
</event>
<event>
 8    1  0.3177960E-004  0.9343831E+02  0.7546771E-02  0.1295481E+00
          1   -1    0    0  501    0  0.00000000000E+00  0.00000000000E+00  0.19643292847E+03  0.19643292847E+03  0.00000000000E+00 0. -1.
         -1   -1    0    0    0  501 -0.00000000000E+00 -0.00000000000E+00 -0.63726918990E+02  0.63726918990E+02  0.00000000000E+00 0.  1.
         23    2    1    2    0    0 -0.19063011597E+02  0.12888756472E+02 -0.66386742406E+01  0.92387208629E+02  0.89228951961E+02 0.  0.
         23    2    1    2    0    0  0.19063011597E+02 -0.12888756472E+02  0.13934468373E+03  0.16777263884E+03  0.90560471536E+02 0.  0.
          5    1    3    3  502    0  0.18406268642E+02 -0.28652088859E+02  0.58583873621E+01  0.34873250835E+02  0.47000000000E+01 0. -1.
         -5    1    3    3    0  502 -0.37469280239E+02  0.41540845331E+02 -0.12497061603E+02  0.57513957794E+02  0.47000000000E+01 0.  1.
          5    1    4    4  503    0 -0.60318321911E+00 -0.41976812643E+02  0.12040843282E+03  0.12760367285E+03  0.47000000000E+01 0. -1.
         -5    1    4    4    0  503  0.19666194816E+02  0.29088056171E+02  0.18936250906E+02  0.40168965990E+02  0.47000000000E+01 0.  1.
<mgrwt>
<rscale>  0 0.93114144E+02</rscale>
<asrwt>0</asrwt>
<pdfrwt beam="1">  1        1 0.30220450E-01 0.93438308E+02</pdfrwt>
<pdfrwt beam="2">  1       -1 0.98041414E-02 0.93438308E+02</pdfrwt>
<totfact> 0.86490446E+03</totfact>
</mgrwt>
</event>
<event>
 8    1  0.3177960E-004  0.1321025E+03  0.7546771E-02  0.1225417E+00
         -1   -1    0    0    0  501 -0.00000000000E+00  0.00000000000E+00  0.21242676692E+02  0.21242676692E+02  0.00000000000E+00 0.  1.
          1   -1    0    0  501    0  0.00000000000E+00 -0.00000000000E+00 -0.10607381639E+04  0.10607381639E+04  0.00000000000E+00 0. -1.
         23    2    1    2    0    0 -0.11864257606E+01 -0.92153242851E+02 -0.24923533305E+03  0.28075541316E+03  0.90618557731E+02 0.  0.
         23    2    1    2    0    0  0.11864257606E+01  0.92153242851E+02 -0.79026015411E+03  0.80122542739E+03  0.94643787620E+02 0.  0.
          5    1    4    4  502    0 -0.31790360754E+02  0.68213638032E+02 -0.66854271371E+03  0.67278167150E+03  0.47000000000E+01 0. -1.
         -5    1    4    4    0  502  0.32976786515E+02  0.23939604819E+02 -0.12171744040E+03  0.12844375589E+03  0.47000000000E+01 0. -1.
          5    1    3    3  503    0  0.26390875951E+02  0.37821986444E+01 -0.34066026056E+02  0.43512842832E+02  0.47000000000E+01 0. -1.
         -5    1    3    3    0  503 -0.27577301712E+02 -0.95935441495E+02 -0.21516930700E+03  0.23724257033E+03  0.47000000000E+01 0.  1.
<mgrwt>
<rscale>  0 0.13138333E+03</rscale>
<asrwt>0</asrwt>
<pdfrwt beam="1">  1        1 0.16319044E+00 0.13210251E+03</pdfrwt>
<pdfrwt beam="2">  1       -1 0.32681051E-02 0.13210251E+03</pdfrwt>
<totfact> 0.46797210E+03</totfact>
</mgrwt>
</event>
<event>
 8    1  0.3177960E-004  0.1276034E+03  0.7546771E-02  0.1239486E+00
          1   -1    0    0  501    0  0.00000000000E+00  0.00000000000E+00  0.25657379229E+03  0.25657379229E+03  0.00000000000E+00 0. -1.
         -1   -1    0    0    0  501 -0.00000000000E+00 -0.00000000000E+00 -0.61835063474E+02  0.61835063474E+02  0.00000000000E+00 0.  1.
         23    2    1    2    0    0 -0.52466346193E+02 -0.13495415701E+02  0.32881247955E+02  0.11230092514E+03  0.92711798567E+02 0.  0.
         23    2    1    2    0    0  0.52466346193E+02  0.13495415701E+02  0.16185748086E+03  0.20610793062E+03  0.11553264139E+03 0.  0.
          5    1    4    4  502    0  0.56597454425E+02  0.57461383328E+02  0.12264933308E+03  0.14686739368E+03  0.47000000000E+01 0. -1.
         -5    1    4    4    0  502 -0.41311082323E+01 -0.43965967627E+02  0.39208147785E+02  0.59240536943E+02  0.47000000000E+01 0.  1.
          5    1    3    3  503    0  0.24800577296E+02  0.80410066476E+00  0.20680126866E+02  0.32641581753E+02  0.47000000000E+01 0. -1.
         -5    1    3    3    0  503 -0.77266923489E+02 -0.14299516366E+02  0.12201121089E+02  0.79659343392E+02  0.47000000000E+01 0.  1.
<mgrwt>
<rscale>  0 0.12221568E+03</rscale>
<asrwt>0</asrwt>
<pdfrwt beam="1">  1        1 0.39472891E-01 0.12760343E+03</pdfrwt>
<pdfrwt beam="2">  1       -1 0.95130868E-02 0.12760343E+03</pdfrwt>
<totfact> 0.66734975E+03</totfact>
</mgrwt>
</event>
<event>
 8    1  0.3177960E-004  0.1255728E+03  0.7546771E-02  0.1235076E+00
         -1   -1    0    0    0  501 -0.00000000000E+00  0.00000000000E+00  0.87303972807E+02  0.87303972807E+02  0.00000000000E+00 0.  1.
          1   -1    0    0  501    0  0.00000000000E+00 -0.00000000000E+00 -0.24853424697E+03  0.24853424697E+03  0.00000000000E+00 0. -1.
         23    2    1    2    0    0 -0.83249395529E+02 -0.22405145172E+02 -0.17102028507E+03  0.21217081580E+03  0.91302052471E+02 0.  0.
         23    2    1    2    0    0  0.83249395529E+02  0.22405145172E+02  0.97900109142E+01  0.12366740397E+03  0.88121110440E+02 0.  0.
          5    1    4    4  502    0  0.45506358308E+02  0.28559283179E+02 -0.35224618804E+02  0.64415254964E+02  0.47000000000E+01 0. -1.
         -5    1    3    3    0  503 -0.27087591723E+02  0.25264241156E+02 -0.11075421178E+03  0.11687859057E+03  0.47000000000E+01 0.  1.
          5    1    3    3  503    0 -0.56161803806E+02 -0.47669386328E+02 -0.60266073295E+02  0.95292225234E+02  0.47000000000E+01 0. -1.
         -5    1    4    4    0  502  0.37743037221E+02 -0.61541380074E+01  0.45014629719E+02  0.59252149008E+02  0.47000000000E+01 0.  1.
<mgrwt>
<rscale>  0 0.12499542E+03</rscale>
<asrwt>0</asrwt>
<pdfrwt beam="1">  1        1 0.38236038E-01 0.12557276E+03</pdfrwt>
<pdfrwt beam="2">  1       -1 0.13431380E-01 0.12557276E+03</pdfrwt>
<totfact> 0.40839396E+03</totfact>
</mgrwt>
</event>
<event>
 8    1  0.3177960E-004  0.1879804E+03  0.7546771E-02  0.1162367E+00
          1   -1    0    0  501    0  0.00000000000E+00  0.00000000000E+00  0.17747084386E+03  0.17747084386E+03  0.00000000000E+00 0. -1.
         -1   -1    0    0    0  501 -0.00000000000E+00 -0.00000000000E+00 -0.19123456961E+03  0.19123456961E+03  0.00000000000E+00 0.  1.
         23    2    1    2    0    0 -0.11585931194E+03  0.10202987876E+03 -0.22623953687E+02  0.18933689318E+03  0.10725269002E+03 0.  0.
         23    2    1    2    0    0  0.11585931194E+03 -0.10202987876E+03  0.88602279408E+01  0.17936852029E+03  0.90890517158E+02 0.  0.
          5    1    4    4  502    0  0.12506661453E+03 -0.65686474504E+02  0.59150799572E+01  0.14146889825E+03  0.47000000000E+01 0. -1.
         -5    1    4    4    0  502 -0.92073025898E+01 -0.36343404253E+02  0.29451479836E+01  0.37899622034E+02  0.47000000000E+01 0.  1.
          5    1    3    3  503    0 -0.73053814808E+02  0.11598707769E+03 -0.36607885282E+02  0.14195805477E+03  0.47000000000E+01 0. -1.
         -5    1    3    3    0  503 -0.42805497132E+02 -0.13957198929E+02  0.13983931595E+02  0.47378838415E+02  0.47000000000E+01 0.  1.
<mgrwt>
<rscale>  0 0.18573267E+03</rscale>
<asrwt>0</asrwt>
<pdfrwt beam="1">  1        1 0.27303207E-01 0.18798036E+03</pdfrwt>
<pdfrwt beam="2">  1       -1 0.29420703E-01 0.18798036E+03</pdfrwt>
<totfact> 0.17839893E+03</totfact>
</mgrwt>
</event>
<event>
 8    1  0.3177960E-004  0.9801318E+02  0.7546771E-02  0.1285631E+00
          3   -1    0    0  501    0  0.00000000000E+00  0.00000000000E+00  0.16701950607E+03  0.16701950607E+03  0.00000000000E+00 0. -1.
         -3   -1    0    0    0  501 -0.00000000000E+00 -0.00000000000E+00 -0.81891909490E+02  0.81891909490E+02  0.00000000000E+00 0.  1.
         23    2    1    2    0    0  0.23331425477E+01 -0.35494081233E+02 -0.26646871862E+02  0.10157086167E+03  0.91330776865E+02 0.  0.
         23    2    1    2    0    0 -0.23331425477E+01  0.35494081233E+02  0.11177446844E+03  0.14734055390E+03  0.89165204366E+02 0.  0.
          5    1    3    3  502    0 -0.12220821049E+02  0.28776482647E+02 -0.12570549534E+02  0.34022685612E+02  0.47000000000E+01 0. -1.
         -5    1    4    4    0  503 -0.27066781185E+02  0.51604758413E+02  0.43687800489E+02  0.72982022760E+02  0.47000000000E+01 0.  1.
          5    1    4    4  503    0  0.24733638638E+02 -0.16110677179E+02  0.68086667955E+02  0.74358531135E+02  0.47000000000E+01 0. -1.
         -5    1    3    3    0  502  0.14553963597E+02 -0.64270563881E+02 -0.14076322328E+02  0.67548176054E+02  0.47000000000E+01 0.  1.
<mgrwt>
<rscale>  0 0.97505576E+02</rscale>
<asrwt>0</asrwt>
<pdfrwt beam="1">  1        3 0.25695309E-01 0.98013184E+02</pdfrwt>
<pdfrwt beam="2">  1       -3 0.12598755E-01 0.98013184E+02</pdfrwt>
<totfact> 0.15486199E+03</totfact>
</mgrwt>
</event>
<event>
 8    1  0.3177960E-004  0.1016046E+03  0.7546771E-02  0.1291203E+00
         -1   -1    0    0    0  501 -0.00000000000E+00  0.00000000000E+00  0.62992367212E+02  0.62992367212E+02  0.00000000000E+00 0.  1.
          1   -1    0    0  501    0  0.00000000000E+00 -0.00000000000E+00 -0.19677959203E+03  0.19677959203E+03  0.00000000000E+00 0. -1.
         23    2    1    2    0    0 -0.43211173702E+02 -0.12586189333E+02  0.15542648584E+02  0.79153816159E+02  0.63230807308E+02 0.  0.
         23    2    1    2    0    0  0.43211173702E+02  0.12586189333E+02 -0.14932987341E+03  0.18061814309E+03  0.91092726527E+02 0.  0.
          5    1    3    3  502    0 -0.31086647806E+02  0.20533868770E+02  0.21204667849E+02  0.43124788430E+02  0.47000000000E+01 0. -1.
         -5    1    4    4    0  503  0.39336731467E+02 -0.35151360840E+02 -0.87290802992E+02  0.10210176736E+03  0.47000000000E+01 0.  1.
          5    1    4    4  503    0  0.38744422347E+01  0.47737550173E+02 -0.62039070413E+02  0.78516375724E+02  0.47000000000E+01 0. -1.
         -5    1    3    3    0  502 -0.12124525896E+02 -0.33120058103E+02 -0.56620192657E+01  0.36029027729E+02  0.47000000000E+01 0.  1.
<mgrwt>
<rscale>  0 0.94987956E+02</rscale>
<asrwt>0</asrwt>
<pdfrwt beam="1">  1        1 0.30273783E-01 0.10160464E+03</pdfrwt>
<pdfrwt beam="2">  1       -1 0.96911335E-02 0.10160464E+03</pdfrwt>
<totfact> 0.88445272E+03</totfact>
</mgrwt>
</event>
<event>
 8    1  0.3177960E-004  0.9767314E+02  0.7546771E-02  0.1291645E+00
          1   -1    0    0  501    0  0.00000000000E+00  0.00000000000E+00  0.16763598939E+03  0.16763598939E+03  0.00000000000E+00 0. -1.
         -1   -1    0    0    0  501 -0.00000000000E+00 -0.00000000000E+00 -0.79839082480E+02  0.79839082480E+02  0.00000000000E+00 0.  1.
         23    2    1    2    0    0  0.41094961604E+01  0.13895722384E+02  0.12027582287E+03  0.15493971518E+03  0.96592249753E+02 0.  0.
         23    2    1    2    0    0 -0.41094961604E+01 -0.13895722384E+02 -0.32478915962E+02  0.92535356692E+02  0.85427941546E+02 0.  0.
          5    1    4    4  502    0 -0.63442895547E+01  0.35661322534E+02 -0.17515664426E+02  0.40507634282E+02  0.47000000000E+01 0. -1.
         -5    1    3    3    0  503 -0.21818568565E+02 -0.35347487847E+02  0.52994695264E+02  0.67498315219E+02  0.47000000000E+01 0.  1.
          5    1    3    3  503    0  0.25928064726E+02  0.49243210231E+02  0.67281127608E+02  0.87441399957E+02  0.47000000000E+01 0. -1.
         -5    1    4    4    0  502  0.22347933943E+01 -0.49557044919E+02 -0.14963251537E+02  0.52027722410E+02  0.47000000000E+01 0.  1.
<mgrwt>
<rscale>  0 0.94791905E+02</rscale>
<asrwt>0</asrwt>
<pdfrwt beam="1">  1        1 0.25790152E-01 0.97673137E+02</pdfrwt>
<pdfrwt beam="2">  1       -1 0.12282936E-01 0.97673137E+02</pdfrwt>
<totfact> 0.74938049E+03</totfact>
</mgrwt>
</event>
<event>
 7    1  0.3177960E-004  0.1538855E+03  0.7546771E-02  0.1218550E+00
         -1   -1    0    0    0  501 -0.00000000000E+00  0.00000000000E+00  0.34621187087E+03  0.34621187087E+03  0.00000000000E+00 0.  1.
          1   -1    0    0  501    0  0.00000000000E+00 -0.00000000000E+00 -0.14229945850E+03  0.14229945850E+03  0.00000000000E+00 0. -1.
         23    2    1    2    0    0 -0.20218324706E+02 -0.14506835886E+02  0.29496669562E+03  0.30970518067E+03  0.91064364423E+02 0.  0.
          5    1    3    3  502    0 -0.17189208529E+02  0.24077771996E+02  0.31879090619E+02  0.43744421506E+02  0.47000000000E+01 0. -1.
         -5    1    1    2    0  503 -0.40022588935E+02 -0.39970083816E+01  0.24335727077E+02  0.47245119466E+02  0.47000000000E+01 0.  1.
          5    1    1    2  503    0  0.60240913641E+02  0.18503844268E+02 -0.11539001033E+03  0.13156102923E+03  0.47000000000E+01 0. -1.
         -5    1    3    3    0  502 -0.30291161765E+01 -0.38584607883E+02  0.26308760500E+03  0.26596075917E+03  0.47000000000E+01 0.  1.
<mgrwt>
<rscale>  0 0.13618990E+03</rscale>
<asrwt>0</asrwt>
<pdfrwt beam="1">  1        1 0.21892224E-01 0.15388553E+03</pdfrwt>
<pdfrwt beam="2">  1       -1 0.53263365E-01 0.15388553E+03</pdfrwt>
<totfact> 0.82453744E+02</totfact>
</mgrwt>
</event>
<event>
 8    1  0.3177960E-004  0.1274642E+03  0.7546771E-02  0.1232353E+00
         -3   -1    0    0    0  501 -0.00000000000E+00  0.00000000000E+00  0.13384220831E+03  0.13384220831E+03  0.00000000000E+00 0.  1.
          3   -1    0    0  501    0  0.00000000000E+00 -0.00000000000E+00 -0.13977825358E+03  0.13977825358E+03  0.00000000000E+00 0. -1.
         23    2    1    2    0    0 -0.78460842038E+02 -0.37498340419E+02  0.50155489470E+02  0.13436030236E+03  0.89302230988E+02 0.  0.
         23    2    1    2    0    0  0.78460842038E+02  0.37498340419E+02 -0.56091534742E+02  0.13926015953E+03  0.93192824275E+02 0.  0.
          5    1    3    3  502    0 -0.24528562531E+02 -0.58476192923E+02  0.11520523745E+02  0.64621420489E+02  0.47000000000E+01 0. -1.
         -5    1    4    4    0  503  0.74240462701E+02  0.17496650355E+02  0.30797827910E+01  0.76481070454E+02  0.47000000000E+01 0.  1.
          5    1    4    4  503    0  0.42203793362E+01  0.20001690064E+02 -0.59171317533E+02  0.62779089080E+02  0.47000000000E+01 0. -1.
         -5    1    3    3    0  502 -0.53932279506E+02  0.20977852504E+02  0.38634965725E+02  0.69738881873E+02  0.47000000000E+01 0.  1.
<mgrwt>
<rscale>  0 0.12675426E+03</rscale>
<asrwt>0</asrwt>
<pdfrwt beam="1">  1        3 0.21504347E-01 0.12746424E+03</pdfrwt>
<pdfrwt beam="2">  1       -3 0.20591109E-01 0.12746424E+03</pdfrwt>
<totfact> 0.95952172E+02</totfact>
</mgrwt>
</event>
<event>
 8    1  0.3177960E-004  0.1083739E+03  0.7546771E-02  0.1266053E+00
          2   -1    0    0  501    0  0.00000000000E+00  0.00000000000E+00  0.67946640721E+03  0.67946640721E+03  0.00000000000E+00 0. -1.
         -2   -1    0    0    0  501 -0.00000000000E+00 -0.00000000000E+00 -0.27323167161E+02  0.27323167161E+02  0.00000000000E+00 0.  1.
         23    2    1    2    0    0  0.16656109095E+02  0.46867352222E+02  0.98912151937E+02  0.14304359297E+03  0.90575278160E+02 0.  0.
         23    2    1    2    0    0 -0.16656109095E+02 -0.46867352222E+02  0.55323108811E+03  0.56374598140E+03  0.96285616895E+02 0.  0.
          5    1    3    3  502    0  0.39840103279E+02  0.93300563907E+01  0.88284334241E+02  0.97419184219E+02  0.47000000000E+01 0. -1.
         -5    1    4    4    0  503 -0.40785774578E+02  0.72779569720E+01  0.33403001940E+03  0.33662232832E+03  0.47000000000E+01 0.  1.
          5    1    4    4  503    0  0.24129665484E+02 -0.54145309194E+02  0.21920106872E+03  0.22712365308E+03  0.47000000000E+01 0. -1.
         -5    1    3    3    0  502 -0.23183994184E+02  0.37537295831E+02  0.10627817696E+02  0.45624408748E+02  0.47000000000E+01 0.  1.
<mgrwt>
<rscale>  0 0.10709124E+03</rscale>
<asrwt>0</asrwt>
<pdfrwt beam="1">  1        2 0.10453328E+00 0.10837387E+03</pdfrwt>
<pdfrwt beam="2">  1       -2 0.42035647E-02 0.10837387E+03</pdfrwt>
<totfact> 0.10441576E+04</totfact>
</mgrwt>
</event>
<event>
 8    1  0.3177960E-004  0.1364396E+03  0.7546771E-02  0.1218825E+00
          4   -1    0    0  501    0  0.00000000000E+00  0.00000000000E+00  0.39285169537E+02  0.39285169537E+02  0.00000000000E+00 0. -1.
         -4   -1    0    0    0  501 -0.00000000000E+00 -0.00000000000E+00 -0.63156963809E+03  0.63156963809E+03  0.00000000000E+00 0.  1.
         23    2    1    2    0    0 -0.93235181339E+02 -0.33369661235E+02 -0.46555537268E+03  0.48463983429E+03  0.91255852516E+02 0.  0.
         23    2    1    2    0    0  0.93235181339E+02  0.33369661235E+02 -0.12672909587E+03  0.18621497334E+03  0.93858506401E+02 0.  0.
          5    1    3    3  502    0 -0.34461050183E+02  0.21075096218E+02 -0.27325863304E+03  0.27626815631E+03  0.47000000000E+01 0. -1.
         -5    1    3    3    0  502 -0.58774131156E+02 -0.54444757454E+02 -0.19229673963E+03  0.20837167797E+03  0.47000000000E+01 0.  1.
          5    1    4    4  503    0  0.60957412208E+02 -0.10660244437E+02 -0.18260802002E+02  0.64691528072E+02  0.47000000000E+01 0. -1.
         -5    1    4    4    0  503  0.32277769131E+02  0.44029905672E+02 -0.10846829387E+03  0.12152344527E+03  0.47000000000E+01 0.  1.
<mgrwt>
<rscale>  0 0.13599308E+03</rscale>
<asrwt>0</asrwt>
<pdfrwt beam="1">  1        4 0.60438729E-02 0.13643956E+03</pdfrwt>
<pdfrwt beam="2">  1       -4 0.97164550E-01 0.13643956E+03</pdfrwt>
<totfact> 0.26793891E+02</totfact>
</mgrwt>
</event>
<event>
 8    1  0.3177960E-004  0.1144089E+03  0.7546771E-02  0.1252635E+00
         -1   -1    0    0    0  501 -0.00000000000E+00  0.00000000000E+00  0.14258240037E+03  0.14258240037E+03  0.00000000000E+00 0.  1.
          1   -1    0    0  501    0  0.00000000000E+00 -0.00000000000E+00 -0.14450990264E+03  0.14450990264E+03  0.00000000000E+00 0. -1.
         23    2    1    2    0    0 -0.61312622657E+02 -0.30728491552E+02  0.85755592458E+02  0.14294753363E+03  0.91523209321E+02 0.  0.
         23    2    1    2    0    0  0.61312622657E+02  0.30728491552E+02 -0.87683094725E+02  0.14414476938E+03  0.91574622842E+02 0.  0.
          5    1    4    4  502    0  0.62548276052E+02  0.55983201559E+02 -0.47869265610E+02  0.96746898059E+02  0.47000000000E+01 0. -1.
         -5    1    4    4    0  502 -0.12356533957E+01 -0.25254710008E+02 -0.39813829116E+02  0.47397871321E+02  0.47000000000E+01 0.  1.
          5    1    3    3  503    0 -0.49695447558E+02 -0.12329960357E+02 -0.29395951382E+01  0.51501423766E+02  0.47000000000E+01 0. -1.
         -5    1    3    3    0  503 -0.11617175099E+02 -0.18398531194E+02  0.88695187596E+02  0.91446109868E+02  0.47000000000E+01 0.  1.
<mgrwt>
<rscale>  0 0.11439858E+03</rscale>
<asrwt>0</asrwt>
<pdfrwt beam="1">  1        1 0.22232293E-01 0.11440887E+03</pdfrwt>
<pdfrwt beam="2">  1       -1 0.21935754E-01 0.11440887E+03</pdfrwt>
<totfact> 0.36707840E+03</totfact>
</mgrwt>
</event>
<event>
 8    1  0.3177960E-004  0.1177001E+03  0.7546771E-02  0.1253482E+00
         -2   -1    0    0    0  501 -0.00000000000E+00  0.00000000000E+00  0.39506089659E+02  0.39506089659E+02  0.00000000000E+00 0.  1.
          2   -1    0    0  501    0  0.00000000000E+00 -0.00000000000E+00 -0.32892864550E+03  0.32892864550E+03  0.00000000000E+00 0. -1.
         23    2    1    2    0    0  0.27664241593E+02  0.43033681861E+02 -0.19879949193E+03  0.23102933013E+03  0.10600049693E+03 0.  0.
         23    2    1    2    0    0 -0.27664241593E+02 -0.43033681861E+02 -0.90623063918E+02  0.13740540504E+03  0.89724565099E+02 0.  0.
          5    1    4    4  502    0  0.14263789674E+02 -0.56241864761E+02 -0.60180703455E+02  0.83728191883E+02  0.47000000000E+01 0. -1.
         -5    1    3    3    0  503 -0.71209388120E+01  0.71804402785E+02 -0.12110509412E+03  0.14105004024E+03  0.47000000000E+01 0.  1.
          5    1    3    3  503    0  0.34785180405E+02 -0.28770720924E+02 -0.77694397806E+02  0.89979289888E+02  0.47000000000E+01 0. -1.
         -5    1    4    4    0  502 -0.41928031267E+02  0.13208182900E+02 -0.30442360463E+02  0.53677213154E+02  0.47000000000E+01 0.  1.
<mgrwt>
<rscale>  0 0.11391778E+03</rscale>
<asrwt>0</asrwt>
<pdfrwt beam="1">  1        2 0.50604406E-01 0.11770010E+03</pdfrwt>
<pdfrwt beam="2">  1       -2 0.60778601E-02 0.11770010E+03</pdfrwt>
<totfact> 0.13356955E+04</totfact>
</mgrwt>
</event>
<event>
 8    1  0.3177960E-004  0.9109941E+02  0.7546771E-02  0.1302159E+00
          2   -1    0    0  501    0  0.00000000000E+00  0.00000000000E+00  0.34323149925E+02  0.34323149925E+02  0.00000000000E+00 0. -1.
         -2   -1    0    0    0  501 -0.00000000000E+00 -0.00000000000E+00 -0.24937318942E+03  0.24937318942E+03  0.00000000000E+00 0.  1.
         23    2    1    2    0    0  0.77677716270E+01  0.18039157199E+02 -0.73380249169E+02  0.11697762031E+03  0.88957030170E+02 0.  0.
         23    2    1    2    0    0 -0.77677716270E+01 -0.18039157199E+02 -0.14166979032E+03  0.16671871903E+03  0.85668269023E+02 0.  0.
          5    1    4    4  502    0 -0.45443019072E+02 -0.31494391111E-01 -0.79169826412E+02  0.91405800628E+02  0.47000000000E+01 0. -1.
         -5    1    3    3    0  503  0.45434950551E+02  0.82856763115E+01 -0.59351119073E+02  0.75350066349E+02  0.47000000000E+01 0.  1.
          5    1    3    3  503    0 -0.37667178924E+02  0.97534808880E+01 -0.14029130097E+02  0.41627553962E+02  0.47000000000E+01 0. -1.
         -5    1    4    4    0  502  0.37675247445E+02 -0.18007662808E+02 -0.62499963910E+02  0.75312918404E+02  0.47000000000E+01 0.  1.
<mgrwt>
<rscale>  0 0.90286454E+02</rscale>
<asrwt>0</asrwt>
<pdfrwt beam="1">  1        2 0.52804843E-02 0.91099411E+02</pdfrwt>
<pdfrwt beam="2">  1       -2 0.38365108E-01 0.91099411E+02</pdfrwt>
<totfact> 0.85349314E+03</totfact>
</mgrwt>
</event>
<event>
 8    1  0.3217650E-004  0.9849054E+02  0.7546771E-02  0.1284565E+00
          1   -1    0    0  501    0  0.00000000000E+00  0.00000000000E+00  0.63489698970E+03  0.63489698970E+03  0.00000000000E+00 0. -1.
         -1   -1    0    0    0  501 -0.00000000000E+00 -0.00000000000E+00 -0.30477423299E+02  0.30477423299E+02  0.00000000000E+00 0.  1.
         23    2    1    2    0    0  0.36955527968E+02 -0.18430434183E+02  0.54095882138E+03  0.54985164697E+03  0.89414737541E+02 0.  0.
         23    2    1    2    0    0 -0.36955527968E+02  0.18430434183E+02  0.63460745020E+02  0.11552276603E+03  0.87251655352E+02 0.  0.
          5    1    4    4  502    0  0.13693741345E+02 -0.23856811169E+02  0.31417532773E+02  0.42021629629E+02  0.47000000000E+01 0. -1.
         -5    1    3    3    0  503  0.27470977703E+01  0.31504140534E+02  0.28518178532E+03  0.28696828761E+03  0.47000000000E+01 0.  1.
          5    1    3    3  503    0  0.34208430197E+02 -0.49934574718E+02  0.25577703607E+03  0.26288335936E+03  0.47000000000E+01 0. -1.
         -5    1    4    4    0  502 -0.50649269313E+02  0.42287245352E+02  0.32043212247E+02  0.73501136403E+02  0.47000000000E+01 0.  1.
<mgrwt>
<rscale>  0 0.97996972E+02</rscale>
<asrwt>0</asrwt>
<pdfrwt beam="1">  1        1 0.97676450E-01 0.98490544E+02</pdfrwt>
<pdfrwt beam="2">  1       -1 0.46888348E-02 0.98490544E+02</pdfrwt>
<totfact> 0.59605879E+03</totfact>
</mgrwt>
</event>
<event>
 8    1  0.3177960E-004  0.9135371E+02  0.7546771E-02  0.1300254E+00
          3   -1    0    0  501    0  0.00000000000E+00  0.00000000000E+00  0.22663672728E+03  0.22663672728E+03  0.00000000000E+00 0. -1.
         -3   -1    0    0    0  501 -0.00000000000E+00 -0.00000000000E+00 -0.63714249617E+02  0.63714249617E+02  0.00000000000E+00 0.  1.
         23    2    1    2    0    0 -0.59037808921E+01 -0.39206219444E+01 -0.13891070055E+02  0.91332054127E+02  0.89990868306E+02 0.  0.
         23    2    1    2    0    0  0.59037808921E+01  0.39206219444E+01  0.17681354771E+03  0.19901892277E+03  0.91078400615E+02 0.  0.
          5    1    3    3  502    0  0.15681256787E+02  0.15163918404E+02  0.30749789013E+02  0.37993233084E+02  0.47000000000E+01 0. -1.
         -5    1    4    4    0  503 -0.26612679106E+02 -0.23551786216E+02  0.32160424033E+02  0.48159154863E+02  0.47000000000E+01 0.  1.
          5    1    4    4  503    0  0.32516459998E+02  0.27472408161E+02  0.14465312368E+03  0.15085976790E+03  0.47000000000E+01 0. -1.
         -5    1    3    3    0  502 -0.21585037680E+02 -0.19084540348E+02 -0.44640859068E+02  0.53338821043E+02  0.47000000000E+01 0.  1.
<mgrwt>
<rscale>  0 0.91081445E+02</rscale>
<asrwt>0</asrwt>
<pdfrwt beam="1">  1        3 0.34867188E-01 0.91353713E+02</pdfrwt>
<pdfrwt beam="2">  1       -3 0.98021924E-02 0.91353713E+02</pdfrwt>
<totfact> 0.13220547E+03</totfact>
</mgrwt>
</event>
<event>
 8    1  0.4126967E-004  0.1052204E+03  0.7546771E-02  0.1270056E+00
         -1   -1    0    0    0  501 -0.00000000000E+00  0.00000000000E+00  0.10622483601E+03  0.10622483601E+03  0.00000000000E+00 0.  1.
          1   -1    0    0  501    0  0.00000000000E+00 -0.00000000000E+00 -0.35223329882E+03  0.35223329882E+03  0.00000000000E+00 0. -1.
         23    2    1    2    0    0 -0.20747247783E+02 -0.49349938330E+02 -0.31550981499E+03  0.33235590866E+03  0.89711437207E+02 0.  0.
         23    2    1    2    0    0  0.20747247783E+02  0.49349938330E+02  0.69501352181E+02  0.12610222617E+03  0.90584042667E+02 0.  0.
          5    1    3    3  502    0 -0.48956070626E+02 -0.55846071390E+02 -0.24304444671E+03  0.25418137937E+03  0.47000000000E+01 0. -1.
         -5    1    3    3    0  502  0.28208822842E+02  0.64961330598E+01 -0.72465368281E+02  0.78174529298E+02  0.47000000000E+01 0.  1.
          5    1    4    4  503    0 -0.18755848979E+02  0.34938446176E+02 -0.51810156578E+01  0.40266733359E+02  0.47000000000E+01 0. -1.
         -5    1    4    4    0  503  0.39503096763E+02  0.14411492154E+02  0.74682367839E+02  0.85835492810E+02  0.47000000000E+01 0.  1.
<mgrwt>
<rscale>  0 0.10503233E+03</rscale>
<asrwt>0</asrwt>
<pdfrwt beam="1">  1        1 0.54189738E-01 0.10522040E+03</pdfrwt>
<pdfrwt beam="2">  1       -1 0.16342282E-01 0.10522040E+03</pdfrwt>
<totfact> 0.19414999E+03</totfact>
</mgrwt>
</event>
<event>
 8    1  0.3177960E-004  0.9271108E+02  0.7546771E-02  0.1297140E+00
         -2   -1    0    0    0  501 -0.00000000000E+00  0.00000000000E+00  0.23036402931E+03  0.23036402931E+03  0.00000000000E+00 0.  1.
          2   -1    0    0  501    0  0.00000000000E+00 -0.00000000000E+00 -0.85694954890E+02  0.85694954890E+02  0.00000000000E+00 0. -1.
         23    2    1    2    0    0  0.68351168471E+01 -0.11188722801E+02  0.19189126445E+03  0.21311405769E+03  0.91779288927E+02 0.  0.
         23    2    1    2    0    0 -0.68351168471E+01  0.11188722801E+02 -0.47222190029E+02  0.10294492650E+03  0.90530747934E+02 0.  0.
          5    1    4    4  502    0  0.30319740209E+02  0.32435996120E+02 -0.38624477328E+02  0.59036605082E+02  0.47000000000E+01 0. -1.
         -5    1    3    3    0  503 -0.32968307751E+02  0.18045512472E+02  0.49503243025E+02  0.62331460005E+02  0.47000000000E+01 0.  1.
          5    1    3    3  503    0  0.39803424598E+02 -0.29234235273E+02  0.14238802142E+03  0.15078259769E+03  0.47000000000E+01 0. -1.
         -5    1    4    4    0  502 -0.37154857056E+02 -0.21247273319E+02 -0.85977127003E+01  0.43908321422E+02  0.47000000000E+01 0.  1.
<mgrwt>
<rscale>  0 0.92400567E+02</rscale>
<asrwt>0</asrwt>
<pdfrwt beam="1">  1        2 0.13183839E-01 0.92711079E+02</pdfrwt>
<pdfrwt beam="2">  1       -2 0.35440620E-01 0.92711079E+02</pdfrwt>
<totfact> 0.32013609E+03</totfact>
</mgrwt>
</event>
<event>
 8    1  0.3177960E-004  0.9259390E+02  0.7546771E-02  0.1297245E+00
         -2   -1    0    0    0  501 -0.00000000000E+00  0.00000000000E+00  0.66714822844E+02  0.66714822844E+02  0.00000000000E+00 0.  1.
          2   -1    0    0  501    0  0.00000000000E+00 -0.00000000000E+00 -0.13136204676E+03  0.13136204676E+03  0.00000000000E+00 0. -1.
         23    2    1    2    0    0 -0.11950821982E+02 -0.48485630210E+01 -0.14853089193E+02  0.93777636380E+02  0.91691330654E+02 0.  0.
         23    2    1    2    0    0  0.11950821982E+02  0.48485630210E+01 -0.49794134725E+02  0.10429923322E+03  0.90733364804E+02 0.  0.
          5    1    4    4  502    0 -0.96748722672E+01  0.24396475722E+02 -0.65597162990E+02  0.70808678659E+02  0.47000000000E+01 0. -1.
         -5    1    3    3    0  503  0.10193181378E+02 -0.35872530705E+02 -0.34161583978E+02  0.50792157128E+02  0.47000000000E+01 0.  1.
          5    1    3    3  503    0 -0.22144003360E+02  0.31023967684E+02  0.19308494786E+02  0.42985479252E+02  0.47000000000E+01 0. -1.
         -5    1    4    4    0  502  0.21625694249E+02 -0.19547912701E+02  0.15803028265E+02  0.33490554565E+02  0.47000000000E+01 0.  1.
<mgrwt>
<rscale>  0 0.92355854E+02</rscale>
<asrwt>0</asrwt>
<pdfrwt beam="1">  1        2 0.20209545E-01 0.92593903E+02</pdfrwt>
<pdfrwt beam="2">  1       -2 0.10263819E-01 0.92593903E+02</pdfrwt>
<totfact> 0.15672319E+04</totfact>
</mgrwt>
</event>
<event>
 8    1  0.3177960E-004  0.1253050E+03  0.7546771E-02  0.1234679E+00
          3   -1    0    0  501    0  0.00000000000E+00  0.00000000000E+00  0.95253777717E+03  0.95253777717E+03  0.00000000000E+00 0. -1.
         -3   -1    0    0    0  501 -0.00000000000E+00 -0.00000000000E+00 -0.23105386055E+02  0.23105386055E+02  0.00000000000E+00 0.  1.
         23    2    1    2    0    0  0.55371254841E+02  0.64160472952E+02  0.20271147498E+03  0.23819849810E+03  0.92000218783E+02 0.  0.
         23    2    1    2    0    0 -0.55371254841E+02 -0.64160472952E+02  0.72672091614E+03  0.73744466513E+03  0.92297356519E+02 0.  0.
          5    1    3    3  502    0 -0.59809030430E+01  0.58900787656E+02  0.69847257881E+02  0.91683168690E+02  0.47000000000E+01 0. -1.
         -5    1    3    3    0  502  0.61352157884E+02  0.52596852962E+01  0.13286421709E+03  0.14651532940E+03  0.47000000000E+01 0.  1.
          5    1    4    4  503    0  0.17058427654E+02 -0.38944789049E+02  0.37480471059E+03  0.37723778659E+03  0.47000000000E+01 0. -1.
         -5    1    4    4    0  503 -0.72429682495E+02 -0.25215683903E+02  0.35191620555E+03  0.36020687854E+03  0.47000000000E+01 0.  1.
<mgrwt>
<rscale>  0 0.12525029E+03</rscale>
<asrwt>0</asrwt>
<pdfrwt beam="1">  1        3 0.14654424E+00 0.12530500E+03</pdfrwt>
<pdfrwt beam="2">  1       -3 0.35546755E-02 0.12530500E+03</pdfrwt>
<totfact> 0.32882117E+02</totfact>
</mgrwt>
</event>
<event>
 8    1  0.3177960E-004  0.9921906E+02  0.7546771E-02  0.1283663E+00
          1   -1    0    0  501    0  0.00000000000E+00  0.00000000000E+00  0.35475681723E+03  0.35475681723E+03  0.00000000000E+00 0. -1.
         -1   -1    0    0    0  501 -0.00000000000E+00 -0.00000000000E+00 -0.29836016240E+02  0.29836016240E+02  0.00000000000E+00 0.  1.
         23    2    1    2    0    0  0.34115360860E+02 -0.15457047093E+02  0.22071506445E+03  0.24070656552E+03  0.88440561156E+02 0.  0.
         23    2    1    2    0    0 -0.34115360860E+02  0.15457047093E+02  0.10420573653E+03  0.14388626795E+03  0.91878421978E+02 0.  0.
          5    1    4    4  502    0 -0.97314828125E+01  0.38837432807E+02  0.10203501325E+03  0.10970998985E+03  0.47000000000E+01 0. -1.
         -5    1    4    4    0  502 -0.24383878048E+02 -0.23380385714E+02  0.21707232868E+01  0.34176278094E+02  0.47000000000E+01 0.  1.
          5    1    3    3  503    0 -0.26352142773E+02  0.12161404736E+02  0.67067976228E+02  0.73229356335E+02  0.47000000000E+01 0. -1.
         -5    1    3    3    0  503  0.60467503634E+02 -0.27618451829E+02  0.15364708822E+03  0.16747720919E+03  0.47000000000E+01 0.  1.
<mgrwt>
<rscale>  0 0.98415672E+02</rscale>
<asrwt>0</asrwt>
<pdfrwt beam="1">  1        1 0.54577969E-01 0.99219064E+02</pdfrwt>
<pdfrwt beam="2">  1       -1 0.45901566E-02 0.99219064E+02</pdfrwt>
<totfact> 0.12993196E+04</totfact>
</mgrwt>
</event>
<event>
 8    1  0.3177960E-004  0.9293574E+02  0.7546771E-02  0.1297071E+00
          4   -1    0    0  501    0  0.00000000000E+00  0.00000000000E+00  0.16068014964E+03  0.16068014964E+03  0.00000000000E+00 0. -1.
         -4   -1    0    0    0  501 -0.00000000000E+00 -0.00000000000E+00 -0.18209412832E+03  0.18209412832E+03  0.00000000000E+00 0.  1.
         23    2    1    2    0    0  0.70781354234E+01 -0.42077667957E+01 -0.15526782087E+03  0.18095620430E+03  0.92570224008E+02 0.  0.
         23    2    1    2    0    0 -0.70781354234E+01  0.42077667957E+01  0.13385384219E+03  0.16181807367E+03  0.90556239952E+02 0.  0.
          5    1    3    3  502    0 -0.40749725620E+02  0.11088612963E+02 -0.69699358072E+02  0.81630802956E+02  0.47000000000E+01 0. -1.
         -5    1    3    3    0  502  0.47827861044E+02 -0.15296379758E+02 -0.85568462800E+02  0.99325401342E+02  0.47000000000E+01 0.  1.
          5    1    4    4  503    0 -0.44045098880E+02  0.21735749487E+02  0.80532122429E+02  0.94445361368E+02  0.47000000000E+01 0. -1.
         -5    1    4    4    0  503  0.36966963456E+02 -0.17527982691E+02  0.53321719763E+02  0.67372712302E+02  0.47000000000E+01 0.  1.
<mgrwt>
<rscale>  0 0.92430157E+02</rscale>
<asrwt>0</asrwt>
<pdfrwt beam="1">  1        4 0.24720023E-01 0.92935739E+02</pdfrwt>
<pdfrwt beam="2">  1       -4 0.28014481E-01 0.92935739E+02</pdfrwt>
<totfact> 0.28581542E+02</totfact>
</mgrwt>
</event>
<event>
 8    1  0.3177960E-004  0.1652576E+03  0.7546771E-02  0.1188163E+00
         -3   -1    0    0    0  501 -0.00000000000E+00  0.00000000000E+00  0.10822863924E+03  0.10822863924E+03  0.00000000000E+00 0.  1.
          3   -1    0    0  501    0  0.00000000000E+00 -0.00000000000E+00 -0.36184412768E+03  0.36184412768E+03  0.00000000000E+00 0. -1.
         23    2    1    2    0    0 -0.98839779264E+02 -0.60938787396E+02  0.12874302144E+02  0.16575827427E+03  0.11758920044E+03 0.  0.
         23    2    1    2    0    0  0.98839779264E+02  0.60938787396E+02 -0.26648979059E+03  0.30431449265E+03  0.90042568659E+02 0.  0.
          5    1    3    3  502    0 -0.33415090879E+02 -0.87927463829E+02  0.38607011471E+01  0.94259228765E+02  0.47000000000E+01 0. -1.
         -5    1    3    3    0  502 -0.65424688385E+02  0.26988676434E+02  0.90136009968E+01  0.71499045510E+02  0.47000000000E+01 0.  1.
          5    1    4    4  503    0  0.58166033471E+02  0.71383705771E+02 -0.23240216383E+03  0.25002355220E+03  0.47000000000E+01 0. -1.
         -5    1    4    4    0  503  0.40673745793E+02 -0.10444918375E+02 -0.34087626758E+02  0.54290940447E+02  0.47000000000E+01 0.  1.
<mgrwt>
<rscale>  0 0.16047368E+03</rscale>
<asrwt>0</asrwt>
<pdfrwt beam="1">  1        3 0.55668327E-01 0.16525755E+03</pdfrwt>
<pdfrwt beam="2">  1       -3 0.16650560E-01 0.16525755E+03</pdfrwt>
<totfact> 0.23804203E+02</totfact>
</mgrwt>
</event>
<event>
 8    1  0.3177960E-004  0.9362616E+02  0.7546771E-02  0.1294891E+00
         -1   -1    0    0    0  501 -0.00000000000E+00  0.00000000000E+00  0.75214858827E+03  0.75214858827E+03  0.00000000000E+00 0.  1.
          1   -1    0    0  501    0  0.00000000000E+00 -0.00000000000E+00 -0.32528799524E+02  0.32528799524E+02  0.00000000000E+00 0. -1.
         23    2    1    2    0    0 -0.98463510298E+00  0.21114829109E+02  0.67575410810E+03  0.68220925803E+03  0.91208835196E+02 0.  0.
         23    2    1    2    0    0  0.98463510298E+00 -0.21114829109E+02  0.43865680640E+02  0.10246812975E+03  0.90159382001E+02 0.  0.
          5    1    3    3  502    0  0.35081223050E+02 -0.18262228127E+02  0.26656433497E+03  0.26952334938E+03  0.47000000000E+01 0. -1.
         -5    1    3    3    0  502 -0.36065858153E+02  0.39377057236E+02  0.40918977313E+03  0.41268590865E+03  0.47000000000E+01 0.  1.
          5    1    4    4  503    0  0.41098587259E+02 -0.23731278477E+02  0.39188079817E+02  0.61725708198E+02  0.47000000000E+01 0. -1.
         -5    1    4    4    0  503 -0.40113952156E+02  0.26164493679E+01  0.46776008237E+01  0.40742421557E+02  0.47000000000E+01 0.  1.
<mgrwt>
<rscale>  0 0.93369590E+02</rscale>
<asrwt>0</asrwt>
<pdfrwt beam="1">  1        1 0.50044313E-02 0.93626156E+02</pdfrwt>
<pdfrwt beam="2">  1       -1 0.11571515E+00 0.93626156E+02</pdfrwt>
<totfact> 0.11586201E+03</totfact>
</mgrwt>
</event>
<event>
 8    1  0.3177960E-004  0.1046674E+03  0.7546771E-02  0.1270995E+00
         -1   -1    0    0    0  501 -0.00000000000E+00  0.00000000000E+00  0.58589954063E+03  0.58589954063E+03  0.00000000000E+00 0.  1.
          1   -1    0    0  501    0  0.00000000000E+00 -0.00000000000E+00 -0.23989135218E+02  0.23989135218E+02  0.00000000000E+00 0. -1.
         23    2    1    2    0    0  0.19905142750E+02  0.45949281504E+02  0.42476840911E+03  0.43736855607E+03  0.91408431121E+02 0.  0.
         23    2    1    2    0    0 -0.19905142750E+02 -0.45949281504E+02  0.13714199630E+03  0.17252011978E+03  0.91911443255E+02 0.  0.
          5    1    3    3  502    0 -0.59249610515E+01 -0.25455912163E+02  0.79511519678E+02  0.83828875627E+02  0.47000000000E+01 0. -1.
         -5    1    4    4    0  503 -0.23254729791E+02 -0.94792790394E+01  0.13292298922E+03  0.13535601299E+03  0.47000000000E+01 0.  1.
          5    1    4    4  503    0  0.33495870404E+01 -0.36470002465E+02  0.42190070836E+01  0.37164106795E+02  0.47000000000E+01 0. -1.
         -5    1    3    3    0  502  0.25830103802E+02  0.71405193668E+02  0.34525688943E+03  0.35353968044E+03  0.47000000000E+01 0.  1.
<mgrwt>
<rscale>  0 0.10455687E+03</rscale>
<asrwt>0</asrwt>
<pdfrwt beam="1">  1        1 0.36906366E-02 0.10466740E+03</pdfrwt>
<pdfrwt beam="2">  1       -1 0.90138380E-01 0.10466740E+03</pdfrwt>
<totfact> 0.30548581E+03</totfact>
</mgrwt>
</event>
<event>
 8    1  0.3177960E-004  0.9559288E+02  0.7546771E-02  0.1292809E+00
         -2   -1    0    0    0  501 -0.00000000000E+00  0.00000000000E+00  0.11734914005E+03  0.11734914005E+03  0.00000000000E+00 0.  1.
          2   -1    0    0  501    0  0.00000000000E+00 -0.00000000000E+00 -0.14704552036E+03  0.14704552036E+03  0.00000000000E+00 0. -1.
         23    2    1    2    0    0  0.27531708847E+02 -0.42993155486E+01  0.78684600324E+02  0.11988017606E+03  0.86043658555E+02 0.  0.
         23    2    1    2    0    0 -0.27531708847E+02  0.42993155486E+01 -0.10838098064E+03  0.14451448435E+03  0.91441347970E+02 0.  0.
          5    1    4    4  502    0 -0.37557360716E+02  0.41797674189E+02 -0.67313391939E+02  0.87811067901E+02  0.47000000000E+01 0. -1.
         -5    1    3    3    0  503 -0.26763678629E+02  0.15098186663E+02  0.38313285528E+02  0.49338094635E+02  0.47000000000E+01 0.  1.
          5    1    3    3  503    0  0.54295387476E+02 -0.19397502212E+02  0.40371314796E+02  0.70542081424E+02  0.47000000000E+01 0. -1.
         -5    1    4    4    0  502  0.10025651870E+02 -0.37498358640E+02 -0.41067588696E+02  0.56703416453E+02  0.47000000000E+01 0.  1.
<mgrwt>
<rscale>  0 0.94278631E+02</rscale>
<asrwt>0</asrwt>
<pdfrwt beam="1">  1        2 0.22622387E-01 0.95592883E+02</pdfrwt>
<pdfrwt beam="2">  1       -2 0.18053714E-01 0.95592883E+02</pdfrwt>
<totfact> 0.56056652E+03</totfact>
</mgrwt>
</event>
<event>
 8    1  0.3177960E-004  0.9936218E+02  0.7546771E-02  0.1283118E+00
          2   -1    0    0  501    0  0.00000000000E+00  0.00000000000E+00  0.58797431186E+03  0.58797431186E+03  0.00000000000E+00 0. -1.
         -2   -1    0    0    0  501 -0.00000000000E+00 -0.00000000000E+00 -0.19359970755E+02  0.19359970755E+02  0.00000000000E+00 0.  1.
         23    2    1    2    0    0  0.34238499153E+02 -0.15585035357E+01  0.16756630205E+03  0.19481095672E+03  0.93263816771E+02 0.  0.
         23    2    1    2    0    0 -0.34238499153E+02  0.15585035357E+01  0.40104803905E+03  0.41252332589E+03  0.90339697912E+02 0.  0.
          5    1    4    4  502    0 -0.50355601553E+02 -0.30653483323E+02  0.27826031674E+03  0.28447533552E+03  0.47000000000E+01 0. -1.
         -5    1    3    3    0  503  0.11026720270E+02  0.24240351284E+02  0.37592279542E+01  0.27302105873E+02  0.47000000000E+01 0.  1.
          5    1    3    3  503    0  0.23211778883E+02 -0.25798854819E+02  0.16380707410E+03  0.16750885085E+03  0.47000000000E+01 0. -1.
         -5    1    4    4    0  502  0.16117102399E+02  0.32211986859E+02  0.12278772231E+03  0.12804799037E+03  0.47000000000E+01 0.  1.
<mgrwt>
<rscale>  0 0.98670139E+02</rscale>
<asrwt>0</asrwt>
<pdfrwt beam="1">  1        2 0.90457573E-01 0.99362182E+02</pdfrwt>
<pdfrwt beam="2">  1       -2 0.29784575E-02 0.99362182E+02</pdfrwt>
<totfact> 0.20276601E+04</totfact>
</mgrwt>
</event>
<event>
 8    1  0.3177960E-004  0.1110431E+03  0.7546771E-02  0.1259050E+00
          2   -1    0    0  501    0  0.00000000000E+00  0.00000000000E+00  0.23225079003E+03  0.23225079003E+03  0.00000000000E+00 0. -1.
         -2   -1    0    0    0  501 -0.00000000000E+00 -0.00000000000E+00 -0.53470821789E+02  0.53470821789E+02  0.00000000000E+00 0.  1.
         23    2    1    2    0    0 -0.36468062345E+02  0.54834387208E+02  0.71631278033E+02  0.13141214245E+03  0.88325430082E+02 0.  0.
         23    2    1    2    0    0  0.36468062345E+02 -0.54834387208E+02  0.10714869021E+03  0.15430946937E+03  0.89408282232E+02 0.  0.
          5    1    3    3  502    0 -0.12942055630E+01  0.43745548981E+02  0.81780128245E+02  0.92873179118E+02  0.47000000000E+01 0. -1.
         -5    1    3    3    0  502 -0.35173856782E+02  0.11088838227E+02 -0.10148850212E+02  0.38538963333E+02  0.47000000000E+01 0.  1.
          5    1    4    4  503    0  0.63160705496E+02 -0.38421042026E+02  0.94781457927E+02  0.12029574371E+03  0.47000000000E+01 0. -1.
         -5    1    4    4    0  503 -0.26692643151E+02 -0.16413345182E+02  0.12367232279E+02  0.34013725652E+02  0.47000000000E+01 0.  1.
<mgrwt>
<rscale>  0 0.11082496E+03</rscale>
<asrwt>0</asrwt>
<pdfrwt beam="1">  1        2 0.35730890E-01 0.11104310E+03</pdfrwt>
<pdfrwt beam="2">  1       -2 0.82262804E-02 0.11104310E+03</pdfrwt>
<totfact> 0.12097712E+04</totfact>
</mgrwt>
</event>
<event>
 8    1  0.3177960E-004  0.9097883E+02  0.7546771E-02  0.1300778E+00
          1   -1    0    0  501    0  0.00000000000E+00  0.00000000000E+00  0.80526480053E+03  0.80526480053E+03  0.00000000000E+00 0. -1.
         -1   -1    0    0    0  501 -0.00000000000E+00 -0.00000000000E+00 -0.12896385670E+02  0.12896385670E+02  0.00000000000E+00 0.  1.
         23    2    1    2    0    0  0.86381901117E+01 -0.54615541706E+01  0.20923371511E+03  0.22797204202E+03  0.89933628315E+02 0.  0.
         23    2    1    2    0    0 -0.86381901117E+01  0.54615541706E+01  0.58313469974E+03  0.59018914417E+03  0.90402991944E+02 0.  0.
          5    1    3    3  502    0  0.40088871600E+02 -0.29915016412E+02  0.12296769314E+03  0.13283512107E+03  0.47000000000E+01 0. -1.
         -5    1    4    4    0  503 -0.44396123223E+02  0.23369452367E+02  0.29927652145E+03  0.30348916513E+03  0.47000000000E+01 0.  1.
          5    1    4    4  503    0  0.35757933111E+02 -0.17907898197E+02  0.28385817829E+03  0.28669997904E+03  0.47000000000E+01 0. -1.
         -5    1    3    3    0  502 -0.31450681488E+02  0.24453462242E+02  0.86266021971E+02  0.95136920953E+02  0.47000000000E+01 0.  1.
<mgrwt>
<rscale>  0 0.90862013E+02</rscale>
<asrwt>0</asrwt>
<pdfrwt beam="1">  1        1 0.12388685E+00 0.90978832E+02</pdfrwt>
<pdfrwt beam="2">  1       -1 0.19840600E-02 0.90978832E+02</pdfrwt>
<totfact> 0.14626414E+04</totfact>
</mgrwt>
</event>
<event>
 8    1  0.3177960E-004  0.9068938E+02  0.7546771E-02  0.1305626E+00
          2   -1    0    0  501    0  0.00000000000E+00  0.00000000000E+00  0.47324344270E+03  0.47324344270E+03  0.00000000000E+00 0. -1.
         -2   -1    0    0    0  501 -0.00000000000E+00 -0.00000000000E+00 -0.50498575301E+02  0.50498575301E+02  0.00000000000E+00 0.  1.
         23    2    1    2    0    0  0.18539884531E+01  0.72086949481E+01 -0.21349540940E+01  0.90714505778E+02  0.90383410942E+02 0.  0.
         23    2    1    2    0    0 -0.18539884531E+01 -0.72086949481E+01  0.42487982149E+03  0.43302751222E+03  0.83274011996E+02 0.  0.
          5    1    3    3  502    0 -0.33490170881E+02  0.11719680801E+02  0.26686925951E+02  0.44645542671E+02  0.47000000000E+01 0. -1.
         -5    1    4    4    0  503 -0.22232021611E+02  0.26398708293E+02  0.10315878109E+03  0.10888057082E+03  0.47000000000E+01 0.  1.
          5    1    4    4  503    0  0.20378033158E+02 -0.33607403241E+02  0.32172104040E+03  0.32414694140E+03  0.47000000000E+01 0. -1.
         -5    1    3    3    0  502  0.35344159334E+02 -0.45109858526E+01 -0.28821880044E+02  0.46068963107E+02  0.47000000000E+01 0.  1.
<mgrwt>
<rscale>  0 0.88864170E+02</rscale>
<asrwt>0</asrwt>
<pdfrwt beam="1">  1        2 0.72806681E-01 0.90689379E+02</pdfrwt>
<pdfrwt beam="2">  1       -2 0.77690119E-02 0.90689379E+02</pdfrwt>
<totfact> 0.61350745E+03</totfact>
</mgrwt>
</event>
<event>
 8    1  0.3177960E-004  0.1152656E+03  0.7546771E-02  0.1251228E+00
          2   -1    0    0  501    0  0.00000000000E+00  0.00000000000E+00  0.71622606693E+03  0.71622606693E+03  0.00000000000E+00 0. -1.
         -2   -1    0    0    0  501 -0.00000000000E+00 -0.00000000000E+00 -0.46941106303E+02  0.46941106303E+02  0.00000000000E+00 0.  1.
         23    2    1    2    0    0  0.71132038574E+02  0.11334400936E+02  0.37817319430E+02  0.12131079519E+03  0.89988464950E+02 0.  0.
         23    2    1    2    0    0 -0.71132038574E+02 -0.11334400936E+02  0.63146764120E+03  0.64185637805E+03  0.89666005827E+02 0.  0.
          5    1    4    4  502    0 -0.90747907198E+02 -0.32877951570E+01  0.55356735582E+03  0.56098565017E+03  0.47000000000E+01 0. -1.
         -5    1    4    4    0  502  0.19615868624E+02 -0.80466057790E+01  0.77900285375E+02  0.80870727880E+02  0.47000000000E+01 0.  1.
          5    1    3    3  503    0  0.69697949498E+01 -0.24127191192E+02  0.40404562588E+02  0.47805000517E+02  0.47000000000E+01 0. -1.
         -5    1    3    3    0  503  0.64162243624E+02  0.35461592128E+02 -0.25872431587E+01  0.73505794671E+02  0.47000000000E+01 0.  1.
<mgrwt>
<rscale>  0 0.11520266E+03</rscale>
<asrwt>0</asrwt>
<pdfrwt beam="1">  1        2 0.11018862E+00 0.11526560E+03</pdfrwt>
<pdfrwt beam="2">  1       -2 0.72217092E-02 0.11526560E+03</pdfrwt>
<totfact> 0.43682904E+03</totfact>
</mgrwt>
</event>
<event>
 8    1  0.3177960E-004  0.9652961E+02  0.7546771E-02  0.1288132E+00
          1   -1    0    0  501    0  0.00000000000E+00  0.00000000000E+00  0.15109897253E+03  0.15109897253E+03  0.00000000000E+00 0. -1.
         -1   -1    0    0    0  501 -0.00000000000E+00 -0.00000000000E+00 -0.69371264895E+02  0.69371264895E+02  0.00000000000E+00 0.  1.
         23    2    1    2    0    0  0.72796392440E+01 -0.31704152360E+02  0.78708605109E+02  0.12455123598E+03  0.90883548793E+02 0.  0.
         23    2    1    2    0    0 -0.72796392440E+01  0.31704152360E+02  0.30191025288E+01  0.95919001449E+02  0.90184219432E+02 0.  0.
          5    1    3    3  502    0 -0.40585595699E+02 -0.90718714670E+01  0.45763224438E+02  0.62014934824E+02  0.47000000000E+01 0. -1.
         -5    1    3    3    0  502  0.47865234943E+02 -0.22632280893E+02  0.32945380670E+02  0.62536301155E+02  0.47000000000E+01 0.  1.
          5    1    4    4  503    0  0.32763219665E+01 -0.29779237577E+02  0.12203336094E+02  0.32688662991E+02  0.47000000000E+01 0. -1.
         -5    1    4    4    0  503 -0.10555961211E+02  0.61483389938E+02 -0.91842335651E+01  0.63230338458E+02  0.47000000000E+01 0.  1.
<mgrwt>
<rscale>  0 0.96364655E+02</rscale>
<asrwt>0</asrwt>
<pdfrwt beam="1">  1        1 0.23245996E-01 0.96529611E+02</pdfrwt>
<pdfrwt beam="2">  1       -1 0.10672502E-01 0.96529611E+02</pdfrwt>
<totfact> 0.10554098E+04</totfact>
</mgrwt>
</event>
<event>
 8    1  0.3177960E-004  0.9437074E+02  0.7546771E-02  0.1292872E+00
          1   -1    0    0  501    0  0.00000000000E+00  0.00000000000E+00  0.23926657174E+03  0.23926657174E+03  0.00000000000E+00 0. -1.
         -1   -1    0    0    0  501 -0.00000000000E+00 -0.00000000000E+00 -0.42621571827E+02  0.42621571827E+02  0.00000000000E+00 0.  1.
         23    2    1    2    0    0  0.18044217589E+02  0.12093108954E+02  0.14914170547E+03  0.17623588162E+03  0.91345501190E+02 0.  0.
         23    2    1    2    0    0 -0.18044217589E+02 -0.12093108954E+02  0.47503294438E+02  0.10565226194E+03  0.91836813960E+02 0.  0.
          5    1    4    4  502    0  0.31872365718E+02 -0.61448202883E+01  0.44221576454E+02  0.55056737435E+02  0.47000000000E+01 0. -1.
         -5    1    4    4    0  502 -0.49916583308E+02 -0.59482886653E+01  0.32817179837E+01  0.50595524507E+02  0.47000000000E+01 0.  1.
          5    1    3    3  503    0  0.54193318249E+02  0.17190315843E+02  0.93033998795E+02  0.10913220255E+03  0.47000000000E+01 0. -1.
         -5    1    3    3    0  503 -0.36149100660E+02 -0.50972068899E+01  0.56107706679E+02  0.67103679074E+02  0.47000000000E+01 0.  1.
<mgrwt>
<rscale>  0 0.94251004E+02</rscale>
<asrwt>0</asrwt>
<pdfrwt beam="1">  1        1 0.36810241E-01 0.94370745E+02</pdfrwt>
<pdfrwt beam="2">  1       -1 0.65571650E-02 0.94370745E+02</pdfrwt>
<totfact> 0.12399381E+04</totfact>
</mgrwt>
</event>
<event>
 8    1  0.3177960E-004  0.1133322E+03  0.7546771E-02  0.1256265E+00
          1   -1    0    0  501    0  0.00000000000E+00  0.00000000000E+00  0.90209021516E+02  0.90209021516E+02  0.00000000000E+00 0. -1.
         -1   -1    0    0    0  501 -0.00000000000E+00 -0.00000000000E+00 -0.18422202315E+03  0.18422202315E+03  0.00000000000E+00 0.  1.
         23    2    1    2    0    0 -0.61561456779E+02  0.31431195516E+02 -0.11664206946E+03  0.16263317609E+03  0.89813387555E+02 0.  0.
         23    2    1    2    0    0  0.61561456779E+02 -0.31431195516E+02  0.22629067823E+02  0.11179786858E+03  0.84905569288E+02 0.  0.
          5    1    4    4  502    0  0.34571108392E+02 -0.55090019817E+02  0.34410224901E+02  0.73730762892E+02  0.47000000000E+01 0. -1.
         -5    1    3    3    0  503 -0.43272253678E+02 -0.97750095931E+01 -0.10750622965E+03  0.11639466553E+03  0.47000000000E+01 0.  1.
          5    1    3    3  503    0 -0.18289203100E+02  0.41206205109E+02 -0.91358398132E+01  0.46238510558E+02  0.47000000000E+01 0. -1.
         -5    1    4    4    0  502  0.26990348387E+02  0.23658824301E+02 -0.11781157078E+02  0.38067105688E+02  0.47000000000E+01 0.  1.
<mgrwt>
<rscale>  0 0.11235755E+03</rscale>
<asrwt>0</asrwt>
<pdfrwt beam="1">  1        1 0.13878311E-01 0.11333216E+03</pdfrwt>
<pdfrwt beam="2">  1       -1 0.28341850E-01 0.11333216E+03</pdfrwt>
<totfact> 0.44000427E+03</totfact>
</mgrwt>
</event>
<event>
 8    1  0.3177960E-004  0.9247788E+02  0.7546771E-02  0.1297654E+00
          2   -1    0    0  501    0  0.00000000000E+00  0.00000000000E+00  0.80593732303E+02  0.80593732303E+02  0.00000000000E+00 0. -1.
         -2   -1    0    0    0  501 -0.00000000000E+00 -0.00000000000E+00 -0.15240817140E+03  0.15240817140E+03  0.00000000000E+00 0.  1.
         23    2    1    2    0    0 -0.13010696754E+02  0.98386732040E+01  0.29388932341E+02  0.95909666239E+02  0.89826928109E+02 0.  0.
         23    2    1    2    0    0  0.13010696754E+02 -0.98386732040E+01 -0.10120337144E+03  0.13709223746E+03  0.91027915838E+02 0.  0.
          5    1    4    4  502    0  0.43027639919E+02 -0.17015364157E+02 -0.21004074978E+02  0.51030986470E+02  0.47000000000E+01 0. -1.
         -5    1    4    4    0  502 -0.30016943165E+02  0.71766909533E+01 -0.80199296457E+02  0.86061250992E+02  0.47000000000E+01 0.  1.
          5    1    3    3  503    0  0.18642779766E+02  0.29550797556E+02  0.43296571335E+02  0.55834451398E+02  0.47000000000E+01 0. -1.
         -5    1    3    3    0  503 -0.31653476519E+02 -0.19712124352E+02 -0.13907638994E+02  0.40075214841E+02  0.47000000000E+01 0.  1.
<mgrwt>
<rscale>  0 0.92180980E+02</rscale>
<asrwt>0</asrwt>
<pdfrwt beam="1">  1        2 0.12399036E-01 0.92477885E+02</pdfrwt>
<pdfrwt beam="2">  1       -2 0.23447410E-01 0.92477885E+02</pdfrwt>
<totfact> 0.71555439E+03</totfact>
</mgrwt>
</event>
<event>
 8    1  0.3177960E-004  0.9918382E+02  0.7546771E-02  0.1283914E+00
         -1   -1    0    0    0  501 -0.00000000000E+00  0.00000000000E+00  0.23960423694E+02  0.23960423694E+02  0.00000000000E+00 0.  1.
          1   -1    0    0  501    0  0.00000000000E+00 -0.00000000000E+00 -0.40727503081E+03  0.40727503081E+03  0.00000000000E+00 0. -1.
         23    2    1    2    0    0  0.46589630331E+02  0.59938585556E+01 -0.15282727376E+03  0.18031347120E+03  0.83368173164E+02 0.  0.
         23    2    1    2    0    0 -0.46589630331E+02 -0.59938585556E+01 -0.23048733336E+03  0.25092198331E+03  0.87355084984E+02 0.  0.
          5    1    3    3  502    0  0.20247309926E+02  0.77942048059E+00 -0.15160412571E+03  0.15302438364E+03  0.47000000000E+01 0. -1.
         -5    1    4    4    0  503 -0.18782198240E+02  0.40330710496E+02 -0.11240700514E+03  0.12098248627E+03  0.47000000000E+01 0.  1.
          5    1    4    4  503    0 -0.27807432091E+02 -0.46324569052E+02 -0.11808032822E+03  0.12993949703E+03  0.47000000000E+01 0. -1.
         -5    1    3    3    0  502  0.26342320406E+02  0.52144380750E+01 -0.12231480488E+01  0.27289087562E+02  0.47000000000E+01 0.  1.
<mgrwt>
<rscale>  0 0.98298850E+02</rscale>
<asrwt>0</asrwt>
<pdfrwt beam="1">  1        1 0.62657699E-01 0.99183824E+02</pdfrwt>
<pdfrwt beam="2">  1       -1 0.36862189E-02 0.99183824E+02</pdfrwt>
<totfact> 0.15068718E+04</totfact>
</mgrwt>
</event>
<event>
 8    1  0.3177960E-004  0.1222860E+03  0.7546771E-02  0.1239745E+00
         -3   -1    0    0    0  501 -0.00000000000E+00  0.00000000000E+00  0.52143239317E+03  0.52143239317E+03  0.00000000000E+00 0.  1.
          3   -1    0    0  501    0  0.00000000000E+00 -0.00000000000E+00 -0.34308110834E+02  0.34308110834E+02  0.00000000000E+00 0. -1.
         23    2    1    2    0    0  0.70490249517E+02  0.43647549209E+02  0.35749269840E+03  0.37753218195E+03  0.88631457007E+02 0.  0.
         23    2    1    2    0    0 -0.70490249517E+02 -0.43647549209E+02  0.12963158393E+03  0.17820832205E+03  0.89888123051E+02 0.  0.
          5    1    3    3  502    0  0.21904125751E+02 -0.18032147966E+02  0.33607131791E+02  0.44232096858E+02  0.47000000000E+01 0. -1.
         -5    1    3    3    0  502  0.48586123765E+02  0.61679697176E+02  0.32388556661E+03  0.33330008510E+03  0.47000000000E+01 0.  1.
          5    1    4    4  503    0 -0.44854892476E+02 -0.58485009641E+02  0.12848164505E+03  0.14819608917E+03  0.47000000000E+01 0. -1.
         -5    1    4    4    0  503 -0.25635357041E+02  0.14837460432E+02  0.11499388829E+01  0.30012232874E+02  0.47000000000E+01 0.  1.
<mgrwt>
<rscale>  0 0.12205513E+03</rscale>
<asrwt>0</asrwt>
<pdfrwt beam="1">  1        3 0.52781713E-02 0.12228597E+03</pdfrwt>
<pdfrwt beam="2">  1       -3 0.80220362E-01 0.12228597E+03</pdfrwt>
<totfact> 0.70528337E+02</totfact>
</mgrwt>
</event>
<event>
 8    1  0.3177960E-004  0.1032994E+03  0.7546771E-02  0.1278413E+00
         -3   -1    0    0    0  501 -0.00000000000E+00  0.00000000000E+00  0.26884183383E+02  0.26884183383E+02  0.00000000000E+00 0.  1.
          3   -1    0    0  501    0  0.00000000000E+00 -0.00000000000E+00 -0.36763691762E+03  0.36763691762E+03  0.00000000000E+00 0. -1.
         23    2    1    2    0    0  0.15321351668E+01 -0.27710353655E+02 -0.18665279181E+03  0.20900141702E+03  0.89844958069E+02 0.  0.
         23    2    1    2    0    0 -0.15321351668E+01  0.27710353655E+02 -0.15409994243E+03  0.18551968398E+03  0.99501506268E+02 0.  0.
          5    1    3    3  502    0 -0.12598951067E+02  0.24998474236E+02 -0.23342188855E+02  0.36750579079E+02  0.47000000000E+01 0. -1.
         -5    1    3    3    0  502  0.14131086234E+02 -0.52708827891E+02 -0.16331060295E+03  0.17225083794E+03  0.47000000000E+01 0.  1.
          5    1    4    4  503    0 -0.19915341942E+02  0.57632569673E+02 -0.12684437614E+03  0.14081803752E+03  0.47000000000E+01 0. -1.
         -5    1    4    4    0  503  0.18383206776E+02 -0.29922216018E+02 -0.27255566289E+02  0.44701646463E+02  0.47000000000E+01 0.  1.
<mgrwt>
<rscale>  0 0.10090068E+03</rscale>
<asrwt>0</asrwt>
<pdfrwt beam="1">  1        3 0.56559523E-01 0.10329938E+03</pdfrwt>
<pdfrwt beam="2">  1       -3 0.41360284E-02 0.10329938E+03</pdfrwt>
<totfact> 0.20890039E+03</totfact>
</mgrwt>
</event>
<event>
 8    1  0.3177960E-004  0.9301321E+02  0.7546771E-02  0.1296604E+00
          1   -1    0    0  501    0  0.00000000000E+00  0.00000000000E+00  0.10041996016E+04  0.10041996016E+04  0.00000000000E+00 0. -1.
         -1   -1    0    0    0  501 -0.00000000000E+00 -0.00000000000E+00 -0.14663119274E+02  0.14663119274E+02  0.00000000000E+00 0.  1.
         23    2    1    2    0    0  0.16048717909E+02  0.11993779314E+02  0.82806674883E+03  0.83327426294E+03  0.90829756547E+02 0.  0.
         23    2    1    2    0    0 -0.16048717909E+02 -0.11993779314E+02  0.16146973351E+03  0.18558845795E+03  0.89270313065E+02 0.  0.
          5    1    4    4  502    0 -0.52743914440E+02 -0.13432489200E+01  0.91426093572E+02  0.10566241249E+03  0.47000000000E+01 0. -1.
         -5    1    4    4    0  502  0.36695196531E+02 -0.10650530394E+02  0.70043639939E+02  0.79926045455E+02  0.47000000000E+01 0.  1.
          5    1    3    3  503    0  0.15757251012E+02 -0.38727340566E+02  0.37341691891E+03  0.37577970035E+03  0.47000000000E+01 0. -1.
         -5    1    3    3    0  503  0.29146689706E+00  0.50721119880E+02  0.45464982991E+03  0.45749456259E+03  0.47000000000E+01 0.  1.
<mgrwt>
<rscale>  0 0.92630295E+02</rscale>
<asrwt>0</asrwt>
<pdfrwt beam="1">  1        1 0.15449219E+00 0.93013207E+02</pdfrwt>
<pdfrwt beam="2">  1       -1 0.22558653E-02 0.93013207E+02</pdfrwt>
<totfact> 0.86233934E+03</totfact>
</mgrwt>
</event>
<event>
 8    1  0.3177960E-004  0.9624577E+02  0.7546771E-02  0.1291476E+00
          2   -1    0    0  501    0  0.00000000000E+00  0.00000000000E+00  0.36126751620E+02  0.36126751620E+02  0.00000000000E+00 0. -1.
         -2   -1    0    0    0  501 -0.00000000000E+00 -0.00000000000E+00 -0.55332632456E+03  0.55332632456E+03  0.00000000000E+00 0.  1.
         23    2    1    2    0    0  0.79299065176E+01  0.35445398815E+00 -0.40914535979E+02  0.10458129663E+03  0.95917877867E+02 0.  0.
         23    2    1    2    0    0 -0.79299065176E+01 -0.35445398815E+00 -0.47628503696E+03  0.48487177956E+03  0.90499707844E+02 0.  0.
          5    1    3    3  502    0 -0.58358485162E+01  0.20770769913E+02  0.25418172586E+02  0.33669801132E+02  0.47000000000E+01 0. -1.
         -5    1    4    4    0  503 -0.27013941572E+02 -0.38869745358E+02 -0.24238018197E+03  0.24700375049E+03  0.47000000000E+01 0.  1.
          5    1    4    4  503    0  0.19084035054E+02  0.38515291370E+02 -0.23390485499E+03  0.23786802907E+03  0.47000000000E+01 0. -1.
         -5    1    3    3    0  502  0.13765755034E+02 -0.20416315925E+02 -0.66332708564E+02  0.70911495493E+02  0.47000000000E+01 0.  1.
<mgrwt>
<rscale>  0 0.94866762E+02</rscale>
<asrwt>0</asrwt>
<pdfrwt beam="1">  1        2 0.55579620E-02 0.96245771E+02</pdfrwt>
<pdfrwt beam="2">  1       -2 0.85127123E-01 0.96245771E+02</pdfrwt>
<totfact> 0.16004435E+03</totfact>
</mgrwt>
</event>
<event>
 8    1  0.3177960E-004  0.1063623E+03  0.7546771E-02  0.1267767E+00
         -1   -1    0    0    0  501 -0.00000000000E+00  0.00000000000E+00  0.11507104457E+03  0.11507104457E+03  0.00000000000E+00 0.  1.
          1   -1    0    0  501    0  0.00000000000E+00 -0.00000000000E+00 -0.12667716802E+03  0.12667716802E+03  0.00000000000E+00 0. -1.
         23    2    1    2    0    0 -0.44625366733E+02  0.31162057506E+02  0.51995262041E+02  0.11782052568E+03  0.90640343180E+02 0.  0.
         23    2    1    2    0    0  0.44625366733E+02 -0.31162057506E+02 -0.63601385491E+02  0.12392768691E+03  0.91380731901E+02 0.  0.
          5    1    3    3  502    0  0.16101744707E+02  0.30756482201E+02  0.44220833434E+02  0.56416305175E+02  0.47000000000E+01 0. -1.
         -5    1    4    4    0  503 -0.75473086127E+01 -0.45903769416E+02 -0.48685634829E+02  0.67501844068E+02  0.47000000000E+01 0.  1.
          5    1    4    4  503    0  0.52172675346E+02  0.14741711910E+02 -0.14915750662E+02  0.56425842843E+02  0.47000000000E+01 0. -1.
         -5    1    3    3    0  502 -0.60727111440E+02  0.40557530541E+00  0.77744286072E+01  0.61404220501E+02  0.47000000000E+01 0.  1.
<mgrwt>
<rscale>  0 0.10620307E+03</rscale>
<asrwt>0</asrwt>
<pdfrwt beam="1">  1        1 0.19488795E-01 0.10636228E+03</pdfrwt>
<pdfrwt beam="2">  1       -1 0.17703238E-01 0.10636228E+03</pdfrwt>
<totfact> 0.60705589E+03</totfact>
</mgrwt>
</event>
<event>
 8    1  0.3177960E-004  0.9862978E+02  0.7546771E-02  0.1283666E+00
         -3   -1    0    0    0  501 -0.00000000000E+00  0.00000000000E+00  0.24873823078E+03  0.24873823078E+03  0.00000000000E+00 0.  1.
          3   -1    0    0  501    0  0.00000000000E+00 -0.00000000000E+00 -0.39663433675E+02  0.39663433675E+02  0.00000000000E+00 0. -1.
         23    2    1    2    0    0  0.34975264081E+02 -0.76617916556E+01  0.12663776981E+03  0.16051466979E+03  0.91901372832E+02 0.  0.
         23    2    1    2    0    0 -0.34975264081E+02  0.76617916556E+01  0.82437027298E+02  0.12788699466E+03  0.90979381099E+02 0.  0.
          5    1    4    4  502    0 -0.23057580089E+02 -0.40019891032E+02  0.52776347967E+02  0.70289946525E+02  0.47000000000E+01 0. -1.
         -5    1    3    3    0  503  0.48154973443E+02  0.78048844977E+01  0.13041386309E+03  0.13931863973E+03  0.47000000000E+01 0.  1.
          5    1    3    3  503    0 -0.13179709362E+02 -0.15466676153E+02 -0.37760932832E+01  0.21196030066E+02  0.47000000000E+01 0. -1.
         -5    1    4    4    0  502 -0.11917683992E+02  0.47681682688E+02  0.29660679331E+02  0.57597048137E+02  0.47000000000E+01 0.  1.
<mgrwt>
<rscale>  0 0.98414450E+02</rscale>
<asrwt>0</asrwt>
<pdfrwt beam="1">  1        3 0.61020669E-02 0.98629785E+02</pdfrwt>
<pdfrwt beam="2">  1       -3 0.38267419E-01 0.98629785E+02</pdfrwt>
<totfact> 0.24145308E+03</totfact>
</mgrwt>
</event>
<event>
 8    1  0.3177960E-004  0.1304076E+03  0.7546771E-02  0.1236328E+00
         -1   -1    0    0    0  501 -0.00000000000E+00  0.00000000000E+00  0.16318671196E+02  0.16318671196E+02  0.00000000000E+00 0.  1.
          1   -1    0    0  501    0  0.00000000000E+00 -0.00000000000E+00 -0.88779860045E+03  0.88779860045E+03  0.00000000000E+00 0. -1.
         23    2    1    2    0    0 -0.33453816882E+01 -0.52802380158E+02 -0.46563214601E+03  0.47783267479E+03  0.93335345764E+02 0.  0.
         23    2    1    2    0    0  0.33453816882E+01  0.52802380158E+02 -0.40584778324E+03  0.42628459686E+03  0.11919249735E+03 0.  0.
          5    1    4    4  502    0  0.32688318987E+02  0.76083086740E+02 -0.34373235314E+03  0.35359748710E+03  0.47000000000E+01 0. -1.
         -5    1    3    3    0  503 -0.27380477056E+02 -0.75926390626E+01 -0.41030098493E+02  0.50128810818E+02  0.47000000000E+01 0.  1.
          5    1    3    3  503    0  0.24035095368E+02 -0.45209741096E+02 -0.42460204752E+03  0.42770386397E+03  0.47000000000E+01 0. -1.
         -5    1    4    4    0  502 -0.29342937299E+02 -0.23280706582E+02 -0.62115430100E+02  0.72687109757E+02  0.47000000000E+01 0.  1.
<mgrwt>
<rscale>  0 0.12419816E+03</rscale>
<asrwt>0</asrwt>
<pdfrwt beam="1">  1        1 0.13658445E+00 0.13040757E+03</pdfrwt>
<pdfrwt beam="2">  1       -1 0.25105640E-02 0.13040757E+03</pdfrwt>
<totfact> 0.92139278E+03</totfact>
</mgrwt>
</event>
<event>
 7    1  0.3177960E-004  0.1027224E+03  0.7546771E-02  0.1297081E+00
         -2   -1    0    0    0  501 -0.00000000000E+00  0.00000000000E+00  0.14326386997E+03  0.14326386997E+03  0.00000000000E+00 0. -1.
          2   -1    0    0  501    0  0.00000000000E+00 -0.00000000000E+00 -0.66254526661E+02  0.66254526661E+02  0.00000000000E+00 0.  1.
         23    2    1    2    0    0  0.47173616799E+02 -0.58425888275E+00  0.94907383651E+02  0.13985454566E+03  0.91247964313E+02 0.  0.
          5    1    1    2  502    0 -0.12139079138E+02 -0.21458561651E+02 -0.11147365422E+02  0.27462353619E+02  0.47000000000E+01 0. -1.
         -5    1    1    2    0  502 -0.35034537661E+02  0.22042820534E+02 -0.67506749223E+01  0.42201497345E+02  0.47000000000E+01 0.  1.
          5    1    3    3  503    0 -0.24108095102E+02 -0.15631610393E+02  0.34143897870E+02  0.44871407987E+02  0.47000000000E+01 0. -1.
         -5    1    3    3    0  503  0.71281711901E+02  0.15047351510E+02  0.60763485780E+02  0.94983137678E+02  0.47000000000E+01 0.  1.
<mgrwt>
<rscale>  0 0.92425860E+02</rscale>
<asrwt>0</asrwt>
<pdfrwt beam="1">  1        2 0.10193004E-01 0.10272236E+03</pdfrwt>
<pdfrwt beam="2">  1       -2 0.22040595E-01 0.10272236E+03</pdfrwt>
<totfact> 0.10155262E+04</totfact>
</mgrwt>
</event>
<event>
 8    1  0.3177960E-004  0.1022544E+03  0.7546771E-02  0.1275846E+00
         -3   -1    0    0    0  501 -0.00000000000E+00  0.00000000000E+00  0.19060841763E+03  0.19060841763E+03  0.00000000000E+00 0.  1.
          3   -1    0    0  501    0  0.00000000000E+00 -0.00000000000E+00 -0.55080228093E+02  0.55080228093E+02  0.00000000000E+00 0. -1.
         23    2    1    2    0    0  0.45100969850E+02 -0.85249429538E+01  0.79080137031E+02  0.12926569949E+03  0.91373852154E+02 0.  0.
         23    2    1    2    0    0 -0.45100969850E+02  0.85249429538E+01  0.56448052504E+02  0.11642294623E+03  0.90890855670E+02 0.  0.
          5    1    3    3  502    0 -0.83207669390E+01 -0.35773376300E+02  0.50625497258E+02  0.62721611801E+02  0.47000000000E+01 0. -1.
         -5    1    3    3    0  502  0.53421736789E+02  0.27248433347E+02  0.28454639773E+02  0.66544087686E+02  0.47000000000E+01 0.  1.
          5    1    4    4  503    0 -0.54415156108E+02 -0.21470601995E+02  0.90662625480E+01  0.59382514942E+02  0.47000000000E+01 0. -1.
         -5    1    4    4    0  503  0.93141862584E+01  0.29995544949E+02  0.47381789956E+02  0.57040431291E+02  0.47000000000E+01 0.  1.
<mgrwt>
<rscale>  0 0.10214634E+03</rscale>
<asrwt>0</asrwt>
<pdfrwt beam="1">  1        3 0.84738813E-02 0.10225435E+03</pdfrwt>
<pdfrwt beam="2">  1       -3 0.29324372E-01 0.10225435E+03</pdfrwt>
<totfact> 0.23591080E+03</totfact>
</mgrwt>
</event>
<event>
 8    1  0.3177960E-004  0.1189540E+03  0.7546771E-02  0.1246066E+00
          1   -1    0    0  501    0  0.00000000000E+00  0.00000000000E+00  0.37867574920E+03  0.37867574920E+03  0.00000000000E+00 0. -1.
         -1   -1    0    0    0  501 -0.00000000000E+00 -0.00000000000E+00 -0.54575235862E+02  0.54575235862E+02  0.00000000000E+00 0.  1.
         23    2    1    2    0    0  0.64431811466E+02  0.30158926374E+02  0.28820313080E+03  0.31178694979E+03  0.95336447826E+02 0.  0.
         23    2    1    2    0    0 -0.64431811466E+02 -0.30158926374E+02  0.35897382533E+02  0.12146403527E+03  0.91672627447E+02 0.  0.
          5    1    3    3  502    0  0.20345065913E+02  0.33033607492E+02  0.25045836712E+03  0.25348890427E+03  0.47000000000E+01 0. -1.
         -5    1    3    3    0  502  0.44086745553E+02 -0.28746811178E+01  0.37744763686E+02  0.58298045514E+02  0.47000000000E+01 0.  1.
          5    1    4    4  503    0  0.45669406113E+01 -0.44306789292E+02  0.20279719526E+02  0.49166101614E+02  0.47000000000E+01 0. -1.
         -5    1    4    4    0  503 -0.68998752078E+02  0.14147862918E+02  0.15617663007E+02  0.72297933658E+02  0.47000000000E+01 0.  1.
<mgrwt>
<rscale>  0 0.11821829E+03</rscale>
<asrwt>0</asrwt>
<pdfrwt beam="1">  1        1 0.58257806E-01 0.11895401E+03</pdfrwt>
<pdfrwt beam="2">  1       -1 0.83961904E-02 0.11895401E+03</pdfrwt>
<totfact> 0.49580457E+03</totfact>
</mgrwt>
</event>
<event>
 8    1  0.3177960E-004  0.1170082E+03  0.7546771E-02  0.1248690E+00
          1   -1    0    0  501    0  0.00000000000E+00  0.00000000000E+00  0.82784159918E+03  0.82784159918E+03  0.00000000000E+00 0. -1.
         -1   -1    0    0    0  501 -0.00000000000E+00 -0.00000000000E+00 -0.27086205766E+02  0.27086205766E+02  0.00000000000E+00 0.  1.
         23    2    1    2    0    0 -0.73812976374E+01  0.72342966735E+02  0.12985814566E+03  0.17390354378E+03  0.89951743464E+02 0.  0.
         23    2    1    2    0    0  0.73812976374E+01 -0.72342966735E+02  0.67089724775E+03  0.68102426117E+03  0.91667545343E+02 0.  0.
          5    1    3    3  502    0 -0.19835335081E+02  0.28023019298E+02  0.12217494901E+03  0.12699424512E+03  0.47000000000E+01 0. -1.
         -5    1    4    4    0  503  0.33598660330E+02 -0.79915042147E+02  0.56174809710E+03  0.56841736298E+03  0.47000000000E+01 0.  1.
          5    1    4    4  503    0 -0.26217362693E+02  0.75720754126E+01  0.10914915066E+03  0.11260689820E+03  0.47000000000E+01 0. -1.
         -5    1    3    3    0  502  0.12454037443E+02  0.44319947437E+02  0.76831966514E+01  0.46909298654E+02  0.47000000000E+01 0.  1.
<mgrwt>
<rscale>  0 0.11667197E+03</rscale>
<asrwt>0</asrwt>
<pdfrwt beam="1">  1        1 0.12736023E+00 0.11700824E+03</pdfrwt>
<pdfrwt beam="2">  1       -1 0.41671092E-02 0.11700824E+03</pdfrwt>
<totfact> 0.48825029E+03</totfact>
</mgrwt>
</event>
<event>
 8    1  0.3177960E-004  0.9106426E+02  0.7546771E-02  0.1301200E+00
         -2   -1    0    0    0  501 -0.00000000000E+00  0.00000000000E+00  0.35053352874E+03  0.35053352874E+03  0.00000000000E+00 0.  1.
          2   -1    0    0  501    0  0.00000000000E+00 -0.00000000000E+00 -0.48384083785E+02  0.48384083785E+02  0.00000000000E+00 0. -1.
         23    2    1    2    0    0 -0.98061034132E+01  0.10297732974E+02  0.29417438187E+03  0.30750480987E+03  0.88421932655E+02 0.  0.
         23    2    1    2    0    0  0.98061034132E+01 -0.10297732974E+02  0.79750630837E+01  0.91412802655E+02  0.89947183889E+02 0.  0.
          5    1    4    4  502    0 -0.27377423520E+02 -0.25179297466E+02 -0.19846957112E+02  0.42420655890E+02  0.47000000000E+01 0. -1.
         -5    1    3    3    0  503 -0.21761320808E+02  0.46256860304E+02  0.16426499708E+03  0.17209977186E+03  0.47000000000E+01 0.  1.
          5    1    3    3  503    0  0.11955217395E+02 -0.35959127330E+02  0.12990938479E+03  0.13540503801E+03  0.47000000000E+01 0. -1.
         -5    1    4    4    0  502  0.37183526934E+02  0.14881564493E+02  0.27822020195E+02  0.48992146766E+02  0.47000000000E+01 0.  1.
<mgrwt>
<rscale>  0 0.90685342E+02</rscale>
<asrwt>0</asrwt>
<pdfrwt beam="1">  1        2 0.74437054E-02 0.91064257E+02</pdfrwt>
<pdfrwt beam="2">  1       -2 0.53928234E-01 0.91064257E+02</pdfrwt>
<totfact> 0.28673971E+03</totfact>
</mgrwt>
</event>
<event>
 8    1  0.3177960E-004  0.9375096E+02  0.7546771E-02  0.1294086E+00
          1   -1    0    0  501    0  0.00000000000E+00  0.00000000000E+00  0.40857455581E+03  0.40857455581E+03  0.00000000000E+00 0. -1.
         -1   -1    0    0    0  501 -0.00000000000E+00 -0.00000000000E+00 -0.24893007909E+02  0.24893007909E+02  0.00000000000E+00 0.  1.
         23    2    1    2    0    0  0.63624113110E+01  0.22432261611E+02  0.11151890392E+03  0.14561039974E+03  0.90676545715E+02 0.  0.
         23    2    1    2    0    0 -0.63624113110E+01 -0.22432261611E+02  0.27216264397E+03  0.28785716397E+03  0.90805040804E+02 0.  0.
          5    1    4    4  502    0 -0.41915128319E+02 -0.56742876854E+00  0.19965867458E+03  0.20406586263E+03  0.47000000000E+01 0. -1.
         -5    1    4    4    0  502  0.35552717008E+02 -0.21864832842E+02  0.72503969398E+02  0.83791301340E+02  0.47000000000E+01 0.  1.
          5    1    3    3  503    0 -0.11913592156E+02 -0.32167601589E+02  0.30740004186E+02  0.46300390143E+02  0.47000000000E+01 0. -1.
         -5    1    3    3    0  503  0.18276003467E+02  0.54599863200E+02  0.80778899737E+02  0.99310009601E+02  0.47000000000E+01 0.  1.
<mgrwt>
<rscale>  0 0.93719829E+02</rscale>
<asrwt>0</asrwt>
<pdfrwt beam="1">  1        1 0.62857619E-01 0.93750958E+02</pdfrwt>
<pdfrwt beam="2">  1       -1 0.38296938E-02 0.93750958E+02</pdfrwt>
<totfact> 0.14126046E+04</totfact>
</mgrwt>
</event>
<event>
 8    1  0.3177960E-004  0.9589486E+02  0.7546771E-02  0.1290419E+00
          2   -1    0    0  501    0  0.00000000000E+00  0.00000000000E+00  0.28483492759E+02  0.28483492759E+02  0.00000000000E+00 0. -1.
         -2   -1    0    0    0  501 -0.00000000000E+00 -0.00000000000E+00 -0.38439397907E+03  0.38439397907E+03  0.00000000000E+00 0.  1.
         23    2    1    2    0    0  0.16534110494E+02  0.20298501527E+02 -0.26367804706E+03  0.27982618061E+03  0.89950947066E+02 0.  0.
         23    2    1    2    0    0 -0.16534110494E+02 -0.20298501527E+02 -0.92232439249E+02  0.13305129122E+03  0.92251922857E+02 0.  0.
          5    1    4    4  502    0  0.34145058811E+02 -0.11928851263E+02 -0.65464112326E+02  0.74938791932E+02  0.47000000000E+01 0.  1.
         -5    1    4    4    0  502 -0.50679169305E+02 -0.83696502642E+01 -0.26768326923E+02  0.58112499286E+02  0.47000000000E+01 0. -1.
          5    1    3    3  503    0 -0.25568101021E+02 -0.21454816475E+02 -0.10957641224E+03  0.11464343444E+03  0.47000000000E+01 0. -1.
         -5    1    3    3    0  503  0.42102211515E+02  0.41753318003E+02 -0.15410163481E+03  0.16518274617E+03  0.47000000000E+01 0.  1.
<mgrwt>
<rscale>  0 0.95337144E+02</rscale>
<asrwt>0</asrwt>
<pdfrwt beam="1">  1        2 0.43820756E-02 0.95894855E+02</pdfrwt>
<pdfrwt beam="2">  1       -2 0.59137537E-01 0.95894855E+02</pdfrwt>
<totfact> 0.47051694E+03</totfact>
</mgrwt>
</event>
<event>
 8    1  0.3177960E-004  0.9480684E+02  0.7546771E-02  0.1292228E+00
          1   -1    0    0  501    0  0.00000000000E+00  0.00000000000E+00  0.13604299986E+03  0.13604299986E+03  0.00000000000E+00 0. -1.
         -1   -1    0    0    0  501 -0.00000000000E+00 -0.00000000000E+00 -0.65948662373E+02  0.65948662373E+02  0.00000000000E+00 0.  1.
         23    2    1    2    0    0 -0.19625076145E+02  0.12142074697E+02  0.25353733797E+02  0.98138412612E+02  0.91955220737E+02 0.  0.
         23    2    1    2    0    0  0.19625076145E+02 -0.12142074697E+02  0.44740603691E+02  0.10385324962E+03  0.90836128533E+02 0.  0.
          5    1    3    3  502    0  0.15406168827E+02 -0.30104040309E+02  0.26221816282E+02  0.43049703018E+02  0.47000000000E+01 0. -1.
         -5    1    3    3    0  502 -0.35031244972E+02  0.42246115006E+02 -0.86808248451E+00  0.55088709593E+02  0.47000000000E+01 0.  1.
          5    1    4    4  503    0  0.52790413445E+02 -0.19850638837E+02  0.39659515402E+02  0.69107472649E+02  0.47000000000E+01 0. -1.
         -5    1    4    4    0  503 -0.33165337300E+02  0.77085641400E+01  0.50810882894E+01  0.34745776974E+02  0.47000000000E+01 0.  1.
<mgrwt>
<rscale>  0 0.94534405E+02</rscale>
<asrwt>0</asrwt>
<pdfrwt beam="1">  1        1 0.20929692E-01 0.94806836E+02</pdfrwt>
<pdfrwt beam="2">  1       -1 0.10145948E-01 0.94806836E+02</pdfrwt>
<totfact> 0.12971173E+04</totfact>
</mgrwt>
</event>
<event>
 8    1  0.3177960E-004  0.1310001E+03  0.7546771E-02  0.1231780E+00
          2   -1    0    0  501    0  0.00000000000E+00  0.00000000000E+00  0.29690760269E+03  0.29690760269E+03  0.00000000000E+00 0. -1.
         -2   -1    0    0    0  501 -0.00000000000E+00 -0.00000000000E+00 -0.66296884446E+02  0.66296884446E+02  0.00000000000E+00 0.  1.
         23    2    1    2    0    0  0.11664919367E+02  0.71694140894E+02  0.19576840713E+03  0.22765006880E+03  0.90681665255E+02 0.  0.
         23    2    1    2    0    0 -0.11664919367E+02 -0.71694140894E+02  0.34842311108E+02  0.13555441833E+03  0.10901785864E+03 0.  0.
          5    1    3    3  502    0 -0.11054054303E+02  0.80093469530E+02  0.18243537235E+03  0.19960438638E+03  0.47000000000E+01 0. -1.
         -5    1    3    3    0  502  0.22718973670E+02 -0.83993286359E+01  0.13333034782E+02  0.28045682424E+02  0.47000000000E+01 0.  1.
          5    1    4    4  503    0 -0.29038401252E+02 -0.51387352911E+02  0.69651657423E+02  0.91418445449E+02  0.47000000000E+01 0. -1.
         -5    1    4    4    0  503  0.17373481885E+02 -0.20306787983E+02 -0.34809346315E+02  0.44135972878E+02  0.47000000000E+01 0.  1.
<mgrwt>
<rscale>  0 0.12712836E+03</rscale>
<asrwt>0</asrwt>
<pdfrwt beam="1">  1        2 0.45678092E-01 0.13100005E+03</pdfrwt>
<pdfrwt beam="2">  1       -2 0.10199521E-01 0.13100005E+03</pdfrwt>
<totfact> 0.67600787E+03</totfact>
</mgrwt>
</event>
<event>
 8    1  0.3177960E-004  0.1078950E+03  0.7546771E-02  0.1265880E+00
          4   -1    0    0  501    0  0.00000000000E+00  0.00000000000E+00  0.54638114505E+02  0.54638114505E+02  0.00000000000E+00 0. -1.
         -4   -1    0    0    0  501 -0.00000000000E+00 -0.00000000000E+00 -0.46974446110E+03  0.46974446110E+03  0.00000000000E+00 0.  1.
         23    2    1    2    0    0  0.38982313276E+02  0.39092740046E+02 -0.12881728560E+02  0.10866131015E+03  0.92701015740E+02 0.  0.
         23    2    1    2    0    0 -0.38982313276E+02 -0.39092740046E+02 -0.40222461803E+03  0.41572126546E+03  0.89396108018E+02 0.  0.
          5    1    4    4  502    0 -0.29232918251E+02  0.17551792783E+02 -0.25970662975E+03  0.26197758010E+03  0.47000000000E+01 0.  1.
         -5    1    3    3    0  503  0.30610213576E+02  0.22346380802E+01 -0.47793521447E+02  0.56993766983E+02  0.47000000000E+01 0.  1.
          5    1    3    3  503    0  0.83720996997E+01  0.36858101966E+02  0.34911792887E+02  0.51667543163E+02  0.47000000000E+01 0. -1.
         -5    1    4    4    0  502 -0.97493950248E+01 -0.56644532829E+02 -0.14251798828E+03  0.15374368536E+03  0.47000000000E+01 0. -1.
<mgrwt>
<rscale>  0 0.10718153E+03</rscale>
<asrwt>0</asrwt>
<pdfrwt beam="1">  1        4 0.84058639E-02 0.10789505E+03</pdfrwt>
<pdfrwt beam="2">  1       -4 0.72268377E-01 0.10789505E+03</pdfrwt>
<totfact> 0.28819994E+02</totfact>
</mgrwt>
</event>
<event>
 8    1  0.3177960E-004  0.1017832E+03  0.7546771E-02  0.1277360E+00
         -1   -1    0    0    0  501 -0.00000000000E+00  0.00000000000E+00  0.95071288330E+02  0.95071288330E+02  0.00000000000E+00 0.  1.
          1   -1    0    0  501    0  0.00000000000E+00 -0.00000000000E+00 -0.13321747429E+03  0.13321747429E+03  0.00000000000E+00 0. -1.
         23    2    1    2    0    0 -0.25117936987E+02  0.32074585593E+02  0.31078248328E+02  0.10642214878E+03  0.93274468279E+02 0.  0.
         23    2    1    2    0    0  0.25117936987E+02 -0.32074585593E+02 -0.69224434285E+02  0.12186661384E+03  0.91650201671E+02 0.  0.
          5    1    3    3  502    0  0.31289127629E+02 -0.77447059148E+01  0.95468615400E+01  0.33944403703E+02  0.47000000000E+01 0. -1.
         -5    1    4    4    0  503 -0.15750833567E+02  0.24996699272E+02 -0.21967443041E+02  0.37115795644E+02  0.47000000000E+01 0.  1.
          5    1    4    4  503    0  0.40868770554E+02 -0.57071284865E+02 -0.47256991244E+02  0.84750818191E+02  0.47000000000E+01 0. -1.
         -5    1    3    3    0  502 -0.56407064615E+02  0.39819291507E+02  0.21531386788E+02  0.72477745079E+02  0.47000000000E+01 0.  1.
<mgrwt>
<rscale>  0 0.10140954E+03</rscale>
<asrwt>0</asrwt>
<pdfrwt beam="1">  1        1 0.20494996E-01 0.10178318E+03</pdfrwt>
<pdfrwt beam="2">  1       -1 0.14626352E-01 0.10178318E+03</pdfrwt>
<totfact> 0.76541019E+03</totfact>
</mgrwt>
</event>
<event>
 8    1  0.3177960E-004  0.1070497E+03  0.7546771E-02  0.1270042E+00
         -3   -1    0    0    0  501 -0.00000000000E+00  0.00000000000E+00  0.11249486736E+03  0.11249486736E+03  0.00000000000E+00 0.  1.
          3   -1    0    0  501    0  0.00000000000E+00 -0.00000000000E+00 -0.31535616986E+03  0.31535616986E+03  0.00000000000E+00 0. -1.
         23    2    1    2    0    0 -0.45976780795E+02  0.13905434234E+02  0.76378083877E+02  0.13150379027E+03  0.95668227149E+02 0.  0.
         23    2    1    2    0    0  0.45976780795E+02 -0.13905434234E+02 -0.27923938638E+03  0.29634724695E+03  0.86832196776E+02 0.  0.
          5    1    4    4  502    0  0.70979905009E+02 -0.18211032879E+02 -0.20683391197E+03  0.21948153857E+03  0.47000000000E+01 0. -1.
         -5    1    4    4    0  502 -0.25003124214E+02  0.43055986453E+01 -0.72405474411E+02  0.76865708380E+02  0.47000000000E+01 0.  1.
          5    1    3    3  503    0 -0.27300460537E+02  0.28458997396E+02 -0.10708301976E+02  0.41133774560E+02  0.47000000000E+01 0. -1.
         -5    1    3    3    0  503 -0.18676320258E+02 -0.14553563162E+02  0.87086385853E+02  0.90370015713E+02  0.47000000000E+01 0.  1.
<mgrwt>
<rscale>  0 0.10503943E+03</rscale>
<asrwt>0</asrwt>
<pdfrwt beam="1">  1        3 0.48516334E-01 0.10704969E+03</pdfrwt>
<pdfrwt beam="2">  1       -3 0.17306903E-01 0.10704969E+03</pdfrwt>
<totfact> 0.27737589E+02</totfact>
</mgrwt>
</event>
<event>
 8    1  0.3177960E-004  0.1240950E+03  0.7546771E-02  0.1241499E+00
          1   -1    0    0  501    0  0.00000000000E+00  0.00000000000E+00  0.71571417370E+03  0.71571417370E+03  0.00000000000E+00 0. -1.
         -1   -1    0    0    0  501 -0.00000000000E+00 -0.00000000000E+00 -0.22882618177E+02  0.22882618177E+02  0.00000000000E+00 0.  1.
         23    2    1    2    0    0 -0.81190717364E+02  0.31604345814E+02  0.21923086884E+03  0.25191615147E+03  0.88367450205E+02 0.  0.
         23    2    1    2    0    0  0.81190717364E+02 -0.31604345814E+02  0.47360068668E+03  0.48668064041E+03  0.70495872691E+02 0.  0.
          5    1    4    4  502    0  0.60926860881E+02 -0.51887149013E+02  0.39061065417E+03  0.39875196772E+03  0.47000000000E+01 0. -1.
         -5    1    3    3    0  503 -0.22736574274E+02  0.54149648473E+02  0.81839107487E+02  0.10084079410E+03  0.47000000000E+01 0.  1.
          5    1    3    3  503    0 -0.58454143090E+02 -0.22545302659E+02  0.13739176136E+03  0.15107535737E+03  0.47000000000E+01 0. -1.
         -5    1    4    4    0  502  0.20263856483E+02  0.20282803198E+02  0.82990032508E+02  0.87928672689E+02  0.47000000000E+01 0.  1.
<mgrwt>
<rscale>  0 0.12097381E+03</rscale>
<asrwt>0</asrwt>
<pdfrwt beam="1">  1        1 0.11010986E+00 0.12409502E+03</pdfrwt>
<pdfrwt beam="2">  1       -1 0.35204033E-02 0.12409502E+03</pdfrwt>
<totfact> 0.77689453E+03</totfact>
</mgrwt>
</event>
<event>
 8    1  0.3177960E-004  0.1184198E+03  0.7546771E-02  0.1250481E+00
         -1   -1    0    0    0  501 -0.00000000000E+00  0.00000000000E+00  0.17335867469E+02  0.17335867469E+02  0.00000000000E+00 0.  1.
          1   -1    0    0  501    0  0.00000000000E+00 -0.00000000000E+00 -0.74126504255E+03  0.74126504255E+03  0.00000000000E+00 0. -1.
         23    2    1    2    0    0 -0.30952874469E+02 -0.42862285748E+02 -0.37333550211E+03  0.38854797070E+03  0.93780981120E+02 0.  0.
         23    2    1    2    0    0  0.30952874469E+02  0.42862285748E+02 -0.35059367297E+03  0.37005293932E+03  0.10596224986E+03 0.  0.
          5    1    3    3  502    0 -0.59433968672E+02 -0.95273387589E+01 -0.26042798296E+03  0.26733497924E+03  0.47000000000E+01 0. -1.
         -5    1    4    4    0  503  0.67132706285E+02  0.46193549626E+02 -0.25066258759E+03  0.26361803257E+03  0.47000000000E+01 0.  1.
          5    1    4    4  503    0 -0.36179831817E+02 -0.33312638779E+01 -0.99931085383E+02  0.10643490675E+03  0.47000000000E+01 0. -1.
         -5    1    3    3    0  502  0.28481094203E+02 -0.33334946989E+02 -0.11290751915E+03  0.12121299146E+03  0.47000000000E+01 0.  1.
<mgrwt>
<rscale>  0 0.11563235E+03</rscale>
<asrwt>0</asrwt>
<pdfrwt beam="1">  1        1 0.11404077E+00 0.11841982E+03</pdfrwt>
<pdfrwt beam="2">  1       -1 0.26670566E-02 0.11841982E+03</pdfrwt>
<totfact> 0.11020192E+04</totfact>
</mgrwt>
</event>
<event>
 8    1  0.3177960E-004  0.1639998E+03  0.7546771E-02  0.1193219E+00
          2   -1    0    0  501    0  0.00000000000E+00  0.00000000000E+00  0.19283673598E+03  0.19283673598E+03  0.00000000000E+00 0. -1.
         -2   -1    0    0    0  501 -0.00000000000E+00 -0.00000000000E+00 -0.13315637383E+03  0.13315637383E+03  0.00000000000E+00 0.  1.
         23    2    1    2    0    0 -0.31586255906E+01 -0.10533259080E+03  0.86392828428E+02  0.15983204412E+03  0.83532208898E+02 0.  0.
         23    2    1    2    0    0  0.31586255906E+01  0.10533259080E+03 -0.26712466271E+02  0.16616106569E+03  0.12566229466E+03 0.  0.
          5    1    4    4  502    0  0.41455082518E+02  0.11287636515E+03 -0.32622184310E+01  0.12038409257E+03  0.47000000000E+01 0. -1.
         -5    1    4    4    0  502 -0.38296456927E+02 -0.75437743466E+01 -0.23450247840E+02  0.45776973123E+02  0.47000000000E+01 0. -1.
          5    1    3    3  503    0  0.26719702260E+02 -0.26040485039E+01  0.20383761823E+02  0.34033972785E+02  0.47000000000E+01 0. -1.
         -5    1    3    3    0  503 -0.29878327851E+02 -0.10272854230E+03  0.66009066605E+02  0.12579807133E+03  0.47000000000E+01 0.  1.
<mgrwt>
<rscale>  0 0.15605944E+03</rscale>
<asrwt>0</asrwt>
<pdfrwt beam="1">  1        2 0.29667190E-01 0.16399983E+03</pdfrwt>
<pdfrwt beam="2">  1       -2 0.20485596E-01 0.16399983E+03</pdfrwt>
<totfact> 0.34818042E+03</totfact>
</mgrwt>
</event>
<event>
 8    1  0.3177960E-004  0.1153610E+03  0.7546771E-02  0.1253149E+00
         -2   -1    0    0    0  501 -0.00000000000E+00  0.00000000000E+00  0.18259040106E+03  0.18259040106E+03  0.00000000000E+00 0.  1.
          2   -1    0    0  501    0  0.00000000000E+00 -0.00000000000E+00 -0.86980065904E+02  0.86980065904E+02  0.00000000000E+00 0. -1.
         23    2    1    2    0    0 -0.34020163993E+02  0.63859907557E+02  0.10685913793E+03  0.15366237317E+03  0.83413369534E+02 0.  0.
         23    2    1    2    0    0  0.34020163993E+02 -0.63859907557E+02 -0.11248802776E+02  0.11590809380E+03  0.89848156866E+02 0.  0.
          5    1    4    4  502    0  0.61397845213E+02 -0.59649893479E+02 -0.16556862159E+02  0.87315662246E+02  0.47000000000E+01 0. -1.
         -5    1    4    4    0  502 -0.27377681220E+02 -0.42100140785E+01  0.53080593832E+01  0.28592431550E+02  0.47000000000E+01 0.  1.
          5    1    3    3  503    0 -0.18048823941E+02  0.26685396235E+02 -0.65068580151E+01  0.33200897866E+02  0.47000000000E+01 0. -1.
         -5    1    3    3    0  503 -0.15971340052E+02  0.37174511323E+02  0.11336599595E+03  0.12046147531E+03  0.47000000000E+01 0.  1.
<mgrwt>
<rscale>  0 0.11410616E+03</rscale>
<asrwt>0</asrwt>
<pdfrwt beam="1">  1        2 0.13381549E-01 0.11536096E+03</pdfrwt>
<pdfrwt beam="2">  1       -2 0.28090831E-01 0.11536096E+03</pdfrwt>
<totfact> 0.48563499E+03</totfact>
</mgrwt>
</event>
<event>
 8    1  0.3177960E-004  0.9900372E+02  0.7546771E-02  0.1283210E+00
          3   -1    0    0  501    0  0.00000000000E+00  0.00000000000E+00  0.60782453092E+02  0.60782453092E+02  0.00000000000E+00 0. -1.
         -3   -1    0    0    0  501 -0.00000000000E+00 -0.00000000000E+00 -0.17628954560E+03  0.17628954560E+03  0.00000000000E+00 0.  1.
         23    2    1    2    0    0 -0.32661925193E+02 -0.78563956524E+01 -0.95456595136E+02  0.13752708492E+03  0.93130087630E+02 0.  0.
         23    2    1    2    0    0  0.32661925193E+02  0.78563956524E+01 -0.20050497370E+02  0.99544913770E+02  0.91534928321E+02 0.  0.
          5    1    4    4  502    0  0.42803475271E+02 -0.25581289984E+02  0.12432023326E+02  0.51606056781E+02  0.47000000000E+01 0. -1.
         -5    1    3    3    0  503 -0.48200410663E+02 -0.22816968119E+02 -0.10140040621E+03  0.11466484205E+03  0.47000000000E+01 0.  1.
          5    1    3    3  503    0  0.15538485470E+02  0.14960572467E+02  0.59438110718E+01  0.22862242876E+02  0.47000000000E+01 0. -1.
         -5    1    4    4    0  502 -0.10141550078E+02  0.33437685636E+02 -0.32482520696E+02  0.47938856989E+02  0.47000000000E+01 0.  1.
<mgrwt>
<rscale>  0 0.98626823E+02</rscale>
<asrwt>0</asrwt>
<pdfrwt beam="1">  1        3 0.93511467E-02 0.99003725E+02</pdfrwt>
<pdfrwt beam="2">  1       -3 0.27121468E-01 0.99003725E+02</pdfrwt>
<totfact> 0.23021984E+03</totfact>
</mgrwt>
</event>
<event>
 8    1  0.3177960E-004  0.9917176E+02  0.7546771E-02  0.1284072E+00
         -1   -1    0    0    0  501 -0.00000000000E+00  0.00000000000E+00  0.21901349617E+02  0.21901349617E+02  0.00000000000E+00 0.  1.
          1   -1    0    0  501    0  0.00000000000E+00 -0.00000000000E+00 -0.48560322450E+03  0.48560322450E+03  0.00000000000E+00 0. -1.
         23    2    1    2    0    0  0.19728821701E+02 -0.34969731554E+02 -0.14386190870E+03  0.17264245145E+03  0.86585557333E+02 0.  0.
         23    2    1    2    0    0 -0.19728821701E+02  0.34969731554E+02 -0.31983996619E+03  0.33486212267E+03  0.90680365543E+02 0.  0.
          5    1    3    3  502    0  0.34170914524E+02 -0.15509509791E+01 -0.12813834827E+03  0.13270864005E+03  0.47000000000E+01 0.  1.
         -5    1    4    4    0  503 -0.21887700118E+02 -0.25004217240E+02 -0.66756061772E+02  0.74717762812E+02  0.47000000000E+01 0.  1.
          5    1    4    4  503    0  0.21588784177E+01  0.59973948794E+02 -0.25308390442E+03  0.26014435986E+03  0.47000000000E+01 0. -1.
         -5    1    3    3    0  502 -0.14442092824E+02 -0.33418780575E+02 -0.15723560432E+02  0.39933811399E+02  0.47000000000E+01 0.  1.
<mgrwt>
<rscale>  0 0.98225859E+02</rscale>
<asrwt>0</asrwt>
<pdfrwt beam="1">  1        1 0.74708187E-01 0.99171756E+02</pdfrwt>
<pdfrwt beam="2">  1       -1 0.33694384E-02 0.99171756E+02</pdfrwt>
<totfact> 0.13743290E+04</totfact>
</mgrwt>
</event>
<event>
 8    1  0.3177960E-004  0.1056267E+03  0.7546771E-02  0.1270871E+00
         -2   -1    0    0    0  501 -0.00000000000E+00  0.00000000000E+00  0.17812426701E+03  0.17812426701E+03  0.00000000000E+00 0.  1.
          2   -1    0    0  501    0  0.00000000000E+00 -0.00000000000E+00 -0.29129599077E+03  0.29129599077E+03  0.00000000000E+00 0. -1.
         23    2    1    2    0    0  0.19077350057E+02 -0.53313515071E+02  0.15263902650E+03  0.18339167751E+03  0.84424870706E+02 0.  0.
         23    2    1    2    0    0 -0.19077350057E+02  0.53313515071E+02 -0.26581075027E+03  0.28602858028E+03  0.89166796526E+02 0.  0.
          5    1    3    3  502    0  0.24365578965E+02  0.15971578620E+02  0.65496216663E+02  0.71837435638E+02  0.47000000000E+01 0. -1.
         -5    1    4    4    0  503 -0.38370970289E+02  0.68391779680E+02 -0.22364991744E+03  0.23704670945E+03  0.47000000000E+01 0.  1.
          5    1    4    4  503    0  0.19293620232E+02 -0.15078264609E+02 -0.42160832828E+02  0.48981870830E+02  0.47000000000E+01 0. -1.
         -5    1    3    3    0  502 -0.52882289079E+01 -0.69285093691E+02  0.87142809839E+02  0.11155424187E+03  0.47000000000E+01 0.  1.
<mgrwt>
<rscale>  0 0.10461956E+03</rscale>
<asrwt>0</asrwt>
<pdfrwt beam="1">  1        2 0.44814767E-01 0.10562667E+03</pdfrwt>
<pdfrwt beam="2">  1       -2 0.27403734E-01 0.10562667E+03</pdfrwt>
<totfact> 0.13299556E+03</totfact>
</mgrwt>
</event>
<event>
 8    1  0.3177960E-004  0.9593887E+02  0.7546771E-02  0.1289282E+00
         -2   -1    0    0    0  501 -0.00000000000E+00  0.00000000000E+00  0.13569982853E+02  0.13569982853E+02  0.00000000000E+00 0.  1.
          2   -1    0    0  501    0  0.00000000000E+00 -0.00000000000E+00 -0.84326478673E+03  0.84326478673E+03  0.00000000000E+00 0. -1.
         23    2    1    2    0    0  0.70139560855E+01 -0.27324572541E+02 -0.60648673644E+03  0.61402803597E+03  0.91697544330E+02 0.  0.
         23    2    1    2    0    0 -0.70139560855E+01  0.27324572541E+02 -0.22320806744E+03  0.24280673361E+03  0.91309586978E+02 0.  0.
          5    1    3    3  502    0 -0.37709493515E+02 -0.21314901153E+01 -0.37203377806E+03  0.37397562911E+03  0.47000000000E+01 0. -1.
         -5    1    3    3    0  502  0.44723449600E+02 -0.25193082426E+02 -0.23445295838E+03  0.24005240686E+03  0.47000000000E+01 0.  1.
          5    1    4    4  503    0 -0.34221131802E+02  0.34328308054E+02 -0.20063969178E+03  0.20646523803E+03  0.47000000000E+01 0. -1.
         -5    1    4    4    0  503  0.27207175717E+02 -0.70037355134E+01 -0.22568375655E+02  0.36341495585E+02  0.47000000000E+01 0.  1.
<mgrwt>
<rscale>  0 0.95846055E+02</rscale>
<asrwt>0</asrwt>
<pdfrwt beam="1">  1        2 0.12973310E+00 0.95938874E+02</pdfrwt>
<pdfrwt beam="2">  1       -2 0.20876888E-02 0.95938874E+02</pdfrwt>
<totfact> 0.22124366E+04</totfact>
</mgrwt>
</event>
<event>
 8    1  0.3177960E-004  0.1470900E+03  0.7546771E-02  0.1204483E+00
          2   -1    0    0  501    0  0.00000000000E+00  0.00000000000E+00  0.14306021205E+03  0.14306021205E+03  0.00000000000E+00 0. -1.
         -2   -1    0    0    0  501 -0.00000000000E+00 -0.00000000000E+00 -0.18568597538E+03  0.18568597538E+03  0.00000000000E+00 0.  1.
         23    2    1    2    0    0  0.97087088579E+02  0.61508524706E+02 -0.93466701434E+02  0.17427416864E+03  0.91794663233E+02 0.  0.
         23    2    1    2    0    0 -0.97087088579E+02 -0.61508524706E+02  0.50840938103E+02  0.15447201878E+03  0.89819831992E+02 0.  0.
          5    1    4    4  502    0 -0.61901602912E+02 -0.44157342070E+02 -0.15038198439E+02  0.77652538361E+02  0.47000000000E+01 0. -1.
         -5    1    4    4    0  502 -0.35185485667E+02 -0.17351182636E+02  0.65879136542E+02  0.76819480420E+02  0.47000000000E+01 0.  1.
          5    1    3    3  503    0  0.43094882849E+02  0.30145874773E+02  0.96095348797E+01  0.53669133160E+02  0.47000000000E+01 0. -1.
         -5    1    3    3    0  503  0.53992205730E+02  0.31362649933E+02 -0.10307623631E+03  0.12060503548E+03  0.47000000000E+01 0.  1.
<mgrwt>
<rscale>  0 0.14678295E+03</rscale>
<asrwt>0</asrwt>
<pdfrwt beam="1">  1        2 0.22009263E-01 0.14708998E+03</pdfrwt>
<pdfrwt beam="2">  1       -2 0.28567073E-01 0.14708998E+03</pdfrwt>
<totfact> 0.26974029E+03</totfact>
</mgrwt>
</event>
<event>
 8    1  0.3177960E-004  0.1007212E+03  0.7546771E-02  0.1280566E+00
         -2   -1    0    0    0  501 -0.00000000000E+00  0.00000000000E+00  0.33738323514E+02  0.33738323514E+02  0.00000000000E+00 0. -1.
          2   -1    0    0  501    0  0.00000000000E+00 -0.00000000000E+00 -0.29669481189E+03  0.29669481189E+03  0.00000000000E+00 0.  1.
         23    2    1    2    0    0  0.36556658782E+02  0.15445225338E+02 -0.11028588813E+03  0.14935774494E+03  0.92573292935E+02 0.  0.
         23    2    1    2    0    0 -0.36556658782E+02 -0.15445225338E+02 -0.15267060025E+03  0.18107539047E+03  0.88910295054E+02 0.  0.
          5    1    3    3  502    0 -0.71513499877E+01 -0.18743796511E+02 -0.86293590951E+02  0.88719476743E+02  0.47000000000E+01 0. -1.
         -5    1    4    4    0  503  0.19924403666E+01 -0.33335928306E+02 -0.14985579901E+02  0.36904085676E+02  0.47000000000E+01 0.  1.
          5    1    4    4  503    0 -0.38549099149E+02  0.17890702968E+02 -0.13768502035E+03  0.14417130479E+03  0.47000000000E+01 0. -1.
         -5    1    3    3    0  502  0.43708008770E+02  0.34189021849E+02 -0.23992297180E+02  0.60638268195E+02  0.47000000000E+01 0.  1.
<mgrwt>
<rscale>  0 0.99871507E+02</rscale>
<asrwt>0</asrwt>
<pdfrwt beam="1">  1        2 0.45645355E-01 0.10072119E+03</pdfrwt>
<pdfrwt beam="2">  1       -2 0.51905114E-02 0.10072119E+03</pdfrwt>
<totfact> 0.18600037E+04</totfact>
</mgrwt>
</event>
<event>
 8    1  0.3177960E-004  0.1102950E+03  0.7546771E-02  0.1267670E+00
          1   -1    0    0  501    0  0.00000000000E+00  0.00000000000E+00  0.67897129019E+03  0.67897129019E+03  0.00000000000E+00 0. -1.
         -1   -1    0    0    0  501 -0.00000000000E+00 -0.00000000000E+00 -0.20483417886E+02  0.20483417886E+02  0.00000000000E+00 0.  1.
         23    2    1    2    0    0 -0.21345331954E+01  0.15500494319E+02  0.51966547983E+03  0.53124118989E+03  0.10917952805E+03 0.  0.
         23    2    1    2    0    0  0.21345331954E+01 -0.15500494319E+02  0.13882239247E+03  0.16821351819E+03  0.93697969534E+02 0.  0.
          5    1    3    3  502    0  0.48495704538E+02  0.19409936715E+02  0.35517705844E+03  0.35902842762E+03  0.47000000000E+01 0. -1.
         -5    1    4    4    0  503  0.29378760197E+02 -0.39202378355E+02  0.41757541199E+02  0.64542391236E+02  0.47000000000E+01 0.  1.
          5    1    4    4  503    0 -0.27244227002E+02  0.23701884036E+02  0.97064851275E+02  0.10367112696E+03  0.47000000000E+01 0. -1.
         -5    1    3    3    0  502 -0.50630237733E+02 -0.39094423969E+01  0.16448842140E+03  0.17221276226E+03  0.47000000000E+01 0.  1.
<mgrwt>
<rscale>  0 0.10625334E+03</rscale>
<asrwt>0</asrwt>
<pdfrwt beam="1">  1        1 0.10445710E+00 0.11029502E+03</pdfrwt>
<pdfrwt beam="2">  1       -1 0.31512956E-02 0.11029502E+03</pdfrwt>
<totfact> 0.97611115E+03</totfact>
</mgrwt>
</event>
<event>
 7    1  0.3691324E-004  0.1873377E+03  0.7546771E-02  0.1178213E+00
          1   -1    0    0  501    0  0.00000000000E+00  0.00000000000E+00  0.80457074953E+03  0.80457074953E+03  0.00000000000E+00 0. -1.
         -1   -1    0    0    0  501 -0.00000000000E+00 -0.00000000000E+00 -0.31261367157E+02  0.31261367157E+02  0.00000000000E+00 0.  1.
         23    2    1    2    0    0  0.93391848074E+02 -0.35581816193E+02  0.24902731634E+03  0.27908521782E+03  0.76719303908E+02 0.  0.
          5    1    1    2  502    0  0.20134935157E+02  0.63666416683E+02  0.14275245208E+03  0.15766794475E+03  0.47000000000E+01 0. -1.
         -5    1    3    3    0  503  0.22698829856E+02 -0.32101052529E+02  0.32470475071E+02  0.51206798393E+02  0.47000000000E+01 0.  1.
          5    1    3    3  503    0  0.70693018218E+02 -0.34807636634E+01  0.21655684127E+03  0.22787841943E+03  0.47000000000E+01 0. -1.
         -5    1    1    2    0  502 -0.11352678323E+03 -0.28084600491E+02  0.38152961395E+03  0.39907895412E+03  0.47000000000E+01 0.  1.
<mgrwt>
<rscale>  0 0.16965028E+03</rscale>
<asrwt>0</asrwt>
<pdfrwt beam="1">  1        1 0.12378010E+00 0.18733773E+03</pdfrwt>
<pdfrwt beam="2">  1       -1 0.48094417E-02 0.18733773E+03</pdfrwt>
<totfact> 0.42043547E+03</totfact>
</mgrwt>
</event>
<event>
 8    1  0.3177960E-004  0.9566253E+02  0.7546771E-02  0.1290006E+00
          1   -1    0    0  501    0  0.00000000000E+00  0.00000000000E+00  0.65838748057E+03  0.65838748057E+03  0.00000000000E+00 0. -1.
         -1   -1    0    0    0  501 -0.00000000000E+00 -0.00000000000E+00 -0.16629213775E+02  0.16629213775E+02  0.00000000000E+00 0.  1.
         23    2    1    2    0    0  0.24789732611E+02 -0.37261313422E+01  0.18289527500E+03  0.20640252080E+03  0.92319575822E+02 0.  0.
         23    2    1    2    0    0 -0.24789732611E+02  0.37261313422E+01  0.45886299180E+03  0.46861417354E+03  0.91736489496E+02 0.  0.
          5    1    4    4  502    0  0.49615122262E+01  0.43331669844E+02  0.25646889748E+03  0.26019345800E+03  0.47000000000E+01 0. -1.
         -5    1    4    4    0  502 -0.29751244837E+02 -0.39605538502E+02  0.20239409432E+03  0.20842071554E+03  0.47000000000E+01 0.  1.
          5    1    3    3  503    0 -0.64661112414E+01  0.35583322821E+02  0.12197534520E+03  0.12731087265E+03  0.47000000000E+01 0. -1.
         -5    1    3    3    0  503  0.31255843853E+02 -0.39309454163E+02  0.60919929797E+02  0.79091648156E+02  0.47000000000E+01 0.  1.
<mgrwt>
<rscale>  0 0.95521568E+02</rscale>
<asrwt>0</asrwt>
<pdfrwt beam="1">  1        1 0.10129036E+00 0.95662527E+02</pdfrwt>
<pdfrwt beam="2">  1       -1 0.25583411E-02 0.95662527E+02</pdfrwt>
<totfact> 0.13613892E+04</totfact>
</mgrwt>
</event>
<event>
 8    1  0.3177960E-004  0.9565554E+02  0.7546771E-02  0.1289832E+00
          1   -1    0    0  501    0  0.00000000000E+00  0.00000000000E+00  0.17110919018E+03  0.17110919018E+03  0.00000000000E+00 0. -1.
         -1   -1    0    0    0  501 -0.00000000000E+00 -0.00000000000E+00 -0.11063982561E+03  0.11063982561E+03  0.00000000000E+00 0.  1.
         23    2    1    2    0    0 -0.20859705769E+02 -0.22504765868E+01  0.13158980480E+03  0.16255128330E+03  0.93095923687E+02 0.  0.
         23    2    1    2    0    0  0.20859705769E+02  0.22504765868E+01 -0.71120440227E+02  0.11919773249E+03  0.93326258052E+02 0.  0.
          5    1    3    3  502    0  0.36513527966E+02 -0.71268143532E+01  0.47229863018E+02  0.60305714224E+02  0.47000000000E+01 0. -1.
         -5    1    3    3    0  502 -0.57373233735E+02  0.48763377664E+01  0.84359941777E+02  0.10224556908E+03  0.47000000000E+01 0.  1.
          5    1    4    4  503    0 -0.12811084525E+02 -0.30111766203E+02 -0.63575997700E+02  0.71657796743E+02  0.47000000000E+01 0. -1.
         -5    1    4    4    0  503  0.33670790294E+02  0.32362242789E+02 -0.75444425276E+01  0.47539935743E+02  0.47000000000E+01 0.  1.
<mgrwt>
<rscale>  0 0.95599313E+02</rscale>
<asrwt>0</asrwt>
<pdfrwt beam="1">  1        1 0.26324491E-01 0.95655540E+02</pdfrwt>
<pdfrwt beam="2">  1       -1 0.17021512E-01 0.95655540E+02</pdfrwt>
<totfact> 0.44004970E+03</totfact>
</mgrwt>
</event>
<event>
 8    1  0.3177960E-004  0.9203744E+02  0.7546771E-02  0.1300537E+00
         -2   -1    0    0    0  501 -0.00000000000E+00  0.00000000000E+00  0.75189318250E+02  0.75189318250E+02  0.00000000000E+00 0.  1.
          2   -1    0    0  501    0  0.00000000000E+00 -0.00000000000E+00 -0.14869014184E+03  0.14869014184E+03  0.00000000000E+00 0. -1.
         23    2    1    2    0    0 -0.65486951360E+01 -0.26476423487E+02  0.21494667727E+02  0.94514076395E+02  0.87903375859E+02 0.  0.
         23    2    1    2    0    0  0.65486951360E+01  0.26476423487E+02 -0.94995491314E+02  0.12936538369E+03  0.83470789616E+02 0.  0.
          5    1    3    3  502    0 -0.41289498666E+02 -0.25104133248E+02 -0.73389130622E+01  0.49101831444E+02  0.47000000000E+01 0. -1.
         -5    1    4    4    0  503  0.36227529418E+02  0.14610135505E+02 -0.13328990799E+02  0.41540846681E+02  0.47000000000E+01 0.  1.
          5    1    4    4  503    0 -0.29678834282E+02  0.11866287983E+02 -0.81666500515E+02  0.87824537011E+02  0.47000000000E+01 0. -1.
         -5    1    3    3    0  502  0.34740803530E+02 -0.13722902393E+01  0.28833580790E+02  0.45412244952E+02  0.47000000000E+01 0.  1.
<mgrwt>
<rscale>  0 0.90962848E+02</rscale>
<asrwt>0</asrwt>
<pdfrwt beam="1">  1        2 0.22875406E-01 0.92037437E+02</pdfrwt>
<pdfrwt beam="2">  1       -2 0.11567588E-01 0.92037437E+02</pdfrwt>
<totfact> 0.11320276E+04</totfact>
</mgrwt>
</event>
<event>
 8    1  0.3177960E-004  0.1051841E+03  0.7546771E-02  0.1270664E+00
         -2   -1    0    0    0  501 -0.00000000000E+00  0.00000000000E+00  0.89380415822E+02  0.89380415822E+02  0.00000000000E+00 0.  1.
          2   -1    0    0  501    0  0.00000000000E+00 -0.00000000000E+00 -0.20981175541E+03  0.20981175541E+03  0.00000000000E+00 0. -1.
         23    2    1    2    0    0 -0.45948259950E+01  0.49386730894E+02  0.37064857624E+02  0.10980168309E+03  0.90677694746E+02 0.  0.
         23    2    1    2    0    0  0.45948259950E+01 -0.49386730894E+02 -0.15749619722E+03  0.18939048815E+03  0.92755286902E+02 0.  0.
          5    1    3    3  502    0  0.91948437144E+01 -0.22162743901E+02 -0.58040798907E+01  0.25129856974E+02  0.47000000000E+01 0. -1.
         -5    1    3    3    0  502 -0.13789669709E+02  0.71549474796E+02  0.42868937515E+02  0.84671826117E+02  0.47000000000E+01 0.  1.
          5    1    4    4  503    0  0.32688683319E+02 -0.44068274011E+02 -0.14951598918E+03  0.15933513050E+03  0.47000000000E+01 0. -1.
         -5    1    4    4    0  503 -0.28093857324E+02 -0.53184568838E+01 -0.79802080393E+01  0.30055357647E+02  0.47000000000E+01 0.  1.
<mgrwt>
<rscale>  0 0.10472428E+03</rscale>
<asrwt>0</asrwt>
<pdfrwt beam="1">  1        2 0.32278731E-01 0.10518415E+03</pdfrwt>
<pdfrwt beam="2">  1       -2 0.13750833E-01 0.10518415E+03</pdfrwt>
<totfact> 0.59862754E+03</totfact>
</mgrwt>
</event>
<event>
 8    1  0.3177960E-004  0.1710004E+03  0.7546771E-02  0.1177873E+00
         -1   -1    0    0    0  501 -0.00000000000E+00  0.00000000000E+00  0.18024050633E+02  0.18024050633E+02  0.00000000000E+00 0.  1.
          1   -1    0    0  501    0  0.00000000000E+00 -0.00000000000E+00 -0.17176924246E+04  0.17176924246E+04  0.00000000000E+00 0. -1.
         23    2    1    2    0    0 -0.45428725602E+02 -0.13627729687E+03 -0.61718133418E+03  0.64043261949E+03  0.92767828966E+02 0.  0.
         23    2    1    2    0    0  0.45428725602E+02  0.13627729687E+03 -0.10824870398E+04  0.10952838558E+04  0.85048589619E+02 0.  0.
          5    1    4    4  502    0  0.29132052236E+02  0.15232107454E+02 -0.10351985616E+03  0.10871588746E+03  0.47000000000E+01 0. -1.
         -5    1    3    3    0  503  0.27017820880E+02 -0.20892456074E+02 -0.11253986335E+03  0.11770203146E+03  0.47000000000E+01 0.  1.
          5    1    3    3  503    0 -0.72446546482E+02 -0.11538484080E+03 -0.50464147083E+03  0.52273058803E+03  0.47000000000E+01 0. -1.
         -5    1    4    4    0  502  0.16296673366E+02  0.12104518942E+03 -0.97896718366E+03  0.98656796832E+03  0.47000000000E+01 0.  1.
<mgrwt>
<rscale>  0 0.16997581E+03</rscale>
<asrwt>0</asrwt>
<pdfrwt beam="1">  1        1 0.26426038E+00 0.17100041E+03</pdfrwt>
<pdfrwt beam="2">  1       -1 0.27729308E-02 0.17100041E+03</pdfrwt>
<totfact> 0.21820593E+03</totfact>
</mgrwt>
</event>
<event>
 8    1  0.3177960E-004  0.1568486E+03  0.7546771E-02  0.1192442E+00
          1   -1    0    0  501    0  0.00000000000E+00  0.00000000000E+00  0.67393393029E+02  0.67393393029E+02  0.00000000000E+00 0. -1.
         -1   -1    0    0    0  501 -0.00000000000E+00 -0.00000000000E+00 -0.38812092240E+03  0.38812092240E+03  0.00000000000E+00 0.  1.
         23    2    1    2    0    0 -0.54872532631E+02 -0.11414658790E+03 -0.10325055560E+03  0.18737681766E+03  0.91700360947E+02 0.  0.
         23    2    1    2    0    0  0.54872532631E+02  0.11414658790E+03 -0.21747697377E+03  0.26813749777E+03  0.92525916484E+02 0.  0.
          5    1    3    3  502    0 -0.56453208501E+02 -0.82426568980E+02 -0.25436621981E+02  0.10319988257E+03  0.47000000000E+01 0. -1.
         -5    1    4    4    0  503  0.28916155829E+02  0.84235660135E+02 -0.20918557969E+03  0.22740379781E+03  0.47000000000E+01 0.  1.
          5    1    4    4  503    0  0.25956376802E+02  0.29910927768E+02 -0.82913940788E+01  0.40733699960E+02  0.47000000000E+01 0. -1.
         -5    1    3    3    0  502  0.15806758696E+01 -0.31720018924E+02 -0.77813933620E+02  0.84176935096E+02  0.47000000000E+01 0.  1.
<mgrwt>
<rscale>  0 0.15672706E+03</rscale>
<asrwt>0</asrwt>
<pdfrwt beam="1">  1        1 0.10368214E-01 0.15684860E+03</pdfrwt>
<pdfrwt beam="2">  1       -1 0.59710911E-01 0.15684860E+03</pdfrwt>
<totfact> 0.17571190E+03</totfact>
</mgrwt>
</event>
<event>
 8    1  0.3177960E-004  0.9206527E+02  0.7546771E-02  0.1298453E+00
          2   -1    0    0  501    0  0.00000000000E+00  0.00000000000E+00  0.34870940319E+03  0.34870940319E+03  0.00000000000E+00 0. -1.
         -2   -1    0    0    0  501 -0.00000000000E+00 -0.00000000000E+00 -0.48767586036E+02  0.48767586036E+02  0.00000000000E+00 0.  1.
         23    2    1    2    0    0 -0.70399799262E+01 -0.10186476614E+02  0.89068303348E+01  0.92495113716E+02  0.91228771841E+02 0.  0.
         23    2    1    2    0    0  0.70399799262E+01  0.10186476614E+02  0.29103498682E+03  0.30498187551E+03  0.90328595770E+02 0.  0.
          5    1    3    3  502    0  0.41612483321E+02 -0.52435120520E+01 -0.16864582578E+01  0.42237747670E+02  0.47000000000E+01 0. -1.
         -5    1    3    3    0  502 -0.48652463247E+02 -0.49429645618E+01  0.10593288593E+02  0.50257366046E+02  0.47000000000E+01 0.  1.
          5    1    4    4  503    0  0.88330006401E+01 -0.27468879796E+02  0.23775153904E+03  0.23954215823E+03  0.47000000000E+01 0. -1.
         -5    1    4    4    0  503 -0.17930207139E+01  0.37655356410E+02  0.53283447788E+02  0.65439717281E+02  0.47000000000E+01 0.  1.
<mgrwt>
<rscale>  0 0.91841479E+02</rscale>
<asrwt>0</asrwt>
<pdfrwt beam="1">  1        2 0.53647599E-01 0.92065273E+02</pdfrwt>
<pdfrwt beam="2">  1       -2 0.75027058E-02 0.92065273E+02</pdfrwt>
<totfact> 0.89426934E+03</totfact>
</mgrwt>
</event>
<event>
 8    1  0.3177960E-004  0.1195991E+03  0.7546771E-02  0.1249502E+00
          2   -1    0    0  501    0  0.00000000000E+00  0.00000000000E+00  0.93596243798E+03  0.93596243798E+03  0.00000000000E+00 0. -1.
         -2   -1    0    0    0  501 -0.00000000000E+00 -0.00000000000E+00 -0.16269919904E+02  0.16269919904E+02  0.00000000000E+00 0.  1.
         23    2    1    2    0    0  0.34833011329E+02  0.44236001652E+02  0.62791700477E+03  0.63689618249E+03  0.90481047034E+02 0.  0.
         23    2    1    2    0    0 -0.34833011329E+02 -0.44236001652E+02  0.29177551330E+03  0.31533617539E+03  0.10551677983E+03 0.  0.
          5    1    3    3  502    0  0.19746307958E+02 -0.23314623746E+02  0.30778985731E+03  0.30933828509E+03  0.47000000000E+01 0. -1.
         -5    1    4    4    0  503  0.59717415897E+01 -0.55789757101E+02  0.71715118364E+02  0.91177337628E+02  0.47000000000E+01 0.  1.
          5    1    4    4  503    0 -0.40804752919E+02  0.11553755449E+02  0.22006039494E+03  0.22415883776E+03  0.47000000000E+01 0. -1.
         -5    1    3    3    0  502  0.15086703372E+02  0.67550625398E+02  0.32012714746E+03  0.32755789740E+03  0.47000000000E+01 0.  1.
<mgrwt>
<rscale>  0 0.11619940E+03</rscale>
<asrwt>0</asrwt>
<pdfrwt beam="1">  1        2 0.14399418E+00 0.11959914E+03</pdfrwt>
<pdfrwt beam="2">  1       -2 0.25030653E-02 0.11959914E+03</pdfrwt>
<totfact> 0.15142879E+04</totfact>
</mgrwt>
</event>
<event>
 8    1  0.3177960E-004  0.1036930E+03  0.7546771E-02  0.1275252E+00
          1   -1    0    0  501    0  0.00000000000E+00  0.00000000000E+00  0.16344513714E+03  0.16344513714E+03  0.00000000000E+00 0. -1.
         -1   -1    0    0    0  501 -0.00000000000E+00 -0.00000000000E+00 -0.72134687392E+02  0.72134687392E+02  0.00000000000E+00 0.  1.
         23    2    1    2    0    0  0.39775318676E+02  0.26000829759E+02  0.20858712821E+01  0.98783424970E+02  0.86577682262E+02 0.  0.
         23    2    1    2    0    0 -0.39775318676E+02 -0.26000829759E+02  0.89224578465E+02  0.13679639956E+03  0.92163498233E+02 0.  0.
          5    1    4    4  502    0 -0.65092873855E+02 -0.13832046864E+02  0.84923114668E+02  0.10799274583E+03  0.47000000000E+01 0. -1.
         -5    1    4    4    0  502  0.25317555179E+02 -0.12168782895E+02  0.43014637968E+01  0.28803653730E+02  0.47000000000E+01 0.  1.
          5    1    3    3  503    0  0.22405737334E+02  0.12645452610E+02  0.44039563634E+02  0.51220090806E+02  0.47000000000E+01 0. -1.
         -5    1    3    3    0  503  0.17369581343E+02  0.13355377149E+02 -0.41953692352E+02  0.47563334163E+02  0.47000000000E+01 0.  1.
<mgrwt>
<rscale>  0 0.10243745E+03</rscale>
<asrwt>0</asrwt>
<pdfrwt beam="1">  1        1 0.25145406E-01 0.10369296E+03</pdfrwt>
<pdfrwt beam="2">  1       -1 0.11097644E-01 0.10369296E+03</pdfrwt>
<totfact> 0.90751915E+03</totfact>
</mgrwt>
</event>
<event>
 8    1  0.3177960E-004  0.9517420E+02  0.7546771E-02  0.1291389E+00
          3   -1    0    0  501    0  0.00000000000E+00  0.00000000000E+00  0.14407641236E+03  0.14407641236E+03  0.00000000000E+00 0. -1.
         -3   -1    0    0    0  501 -0.00000000000E+00 -0.00000000000E+00 -0.62319138171E+02  0.62319138171E+02  0.00000000000E+00 0.  1.
         23    2    1    2    0    0 -0.73369787289E+01 -0.11599876058E+02  0.35531004841E+02  0.10058913733E+03  0.93098516971E+02 0.  0.
         23    2    1    2    0    0  0.73369787289E+01  0.11599876058E+02  0.46226269346E+02  0.10580641320E+03  0.94179300885E+02 0.  0.
          5    1    4    4  502    0 -0.26927322649E+02  0.13306753806E+02  0.61002523957E+02  0.68158259449E+02  0.47000000000E+01 0. -1.
         -5    1    3    3    0  503 -0.17494882512E+02  0.38576326894E+02  0.18138599280E+02  0.46317412434E+02  0.47000000000E+01 0.  1.
          5    1    3    3  503    0  0.10157903783E+02 -0.50176202952E+02  0.17392405561E+02  0.54271724896E+02  0.47000000000E+01 0. -1.
         -5    1    4    4    0  502  0.34264301378E+02 -0.17068777478E+01 -0.14776254611E+02  0.37648153752E+02  0.47000000000E+01 0.  1.
<mgrwt>
<rscale>  0 0.94905731E+02</rscale>
<asrwt>0</asrwt>
<pdfrwt beam="1">  1        3 0.22165602E-01 0.95174204E+02</pdfrwt>
<pdfrwt beam="2">  1       -3 0.95875597E-02 0.95174204E+02</pdfrwt>
<totfact> 0.31457640E+03</totfact>
</mgrwt>
</event>
<event>
 8    1  0.3177960E-004  0.1014556E+03  0.7546771E-02  0.1278988E+00
         -2   -1    0    0    0  501 -0.00000000000E+00  0.00000000000E+00  0.41917198490E+02  0.41917198490E+02  0.00000000000E+00 0.  1.
          2   -1    0    0  501    0  0.00000000000E+00 -0.00000000000E+00 -0.25776645564E+03  0.25776645564E+03  0.00000000000E+00 0. -1.
         23    2    1    2    0    0  0.30818387299E+02  0.12575459682E+02 -0.64464544696E+02  0.11744597225E+03  0.92357802557E+02 0.  0.
         23    2    1    2    0    0 -0.30818387299E+02 -0.12575459682E+02 -0.15138471245E+03  0.18223768188E+03  0.95840108253E+02 0.  0.
          5    1    3    3  502    0 -0.29878210397E+02  0.16358194621E+02 -0.10361524813E+02  0.35913078178E+02  0.47000000000E+01 0. -1.
         -5    1    3    3    0  502  0.60696597696E+02 -0.37827349392E+01 -0.54103019883E+02  0.81532894073E+02  0.47000000000E+01 0.  1.
          5    1    4    4  503    0 -0.11379702930E+02  0.41745272667E+02 -0.67738820274E+02  0.80515856830E+02  0.47000000000E+01 0. -1.
         -5    1    4    4    0  503 -0.19438684368E+02 -0.54320732349E+02 -0.83645892179E+02  0.10172182505E+03  0.47000000000E+01 0.  1.
<mgrwt>
<rscale>  0 0.10062473E+03</rscale>
<asrwt>0</asrwt>
<pdfrwt beam="1">  1        2 0.39656378E-01 0.10145561E+03</pdfrwt>
<pdfrwt beam="2">  1       -2 0.64487997E-02 0.10145561E+03</pdfrwt>
<totfact> 0.15574146E+04</totfact>
</mgrwt>
</event>
<event>
 8    1  0.3177960E-004  0.9401529E+02  0.7546771E-02  0.1295398E+00
         -2   -1    0    0    0  501 -0.00000000000E+00  0.00000000000E+00  0.91890513880E+01  0.91890513880E+01  0.00000000000E+00 0.  1.
          2   -1    0    0  501    0  0.00000000000E+00 -0.00000000000E+00 -0.98422517288E+03  0.98422517288E+03  0.00000000000E+00 0. -1.
         23    2    1    2    0    0 -0.17222057508E+02 -0.16734298061E+02 -0.61547155720E+03  0.62261072342E+03  0.90896860240E+02 0.  0.
         23    2    1    2    0    0  0.17222057508E+02  0.16734298061E+02 -0.35956456430E+03  0.37080350085E+03  0.87360885692E+02 0.  0.
          5    1    3    3  502    0 -0.70575245474E+01 -0.54226603900E+02 -0.35811007683E+03  0.36229166475E+03  0.47000000000E+01 0. -1.
         -5    1    3    3    0  502 -0.10164532961E+02  0.37492305839E+02 -0.25736148037E+03  0.26031905867E+03  0.47000000000E+01 0.  1.
          5    1    4    4  503    0  0.55723435104E+01 -0.26240159424E+02 -0.26251643063E+03  0.26392529876E+03  0.47000000000E+01 0. -1.
         -5    1    4    4    0  503  0.11649713998E+02  0.42974457485E+02 -0.97048133669E+02  0.10687820209E+03  0.47000000000E+01 0.  1.
<mgrwt>
<rscale>  0 0.93149869E+02</rscale>
<asrwt>0</asrwt>
<pdfrwt beam="1">  1        2 0.15141913E+00 0.94015292E+02</pdfrwt>
<pdfrwt beam="2">  1       -2 0.14137014E-02 0.94015292E+02</pdfrwt>
<totfact> 0.31607523E+04</totfact>
</mgrwt>
</event>
<event>
 8    1  0.4000574E-004  0.1278868E+03  0.7546771E-02  0.1233574E+00
         -1   -1    0    0    0  501 -0.00000000000E+00  0.00000000000E+00  0.84775282472E+02  0.84775282472E+02  0.00000000000E+00 0.  1.
          1   -1    0    0  501    0  0.00000000000E+00 -0.00000000000E+00 -0.48958228920E+03  0.48958228920E+03  0.00000000000E+00 0. -1.
         23    2    1    2    0    0  0.12671039338E+02  0.79372500758E+02 -0.43236722059E+03  0.45088407986E+03  0.99471055681E+02 0.  0.
         23    2    1    2    0    0 -0.12671039338E+02 -0.79372500758E+02  0.27560213858E+02  0.12347349181E+03  0.89585649957E+02 0.  0.
          5    1    4    4  502    0  0.15620431891E+02  0.14717763801E+02  0.59867188459E+01  0.22771501187E+02  0.47000000000E+01 0. -1.
         -5    1    4    4    0  502 -0.28291471229E+02 -0.94090264559E+02  0.21573495012E+02  0.10070199063E+03  0.47000000000E+01 0.  1.
          5    1    3    3  503    0 -0.27802196028E+02  0.80375245133E+02 -0.25333471584E+03  0.26727085585E+03  0.47000000000E+01 0. -1.
         -5    1    3    3    0  503  0.40473235367E+02 -0.10027443742E+01 -0.17903250474E+03  0.18361322401E+03  0.47000000000E+01 0.  1.
<mgrwt>
<rscale>  0 0.12596168E+03</rscale>
<asrwt>0</asrwt>
<pdfrwt beam="1">  1        1 0.75320350E-01 0.12788683E+03</pdfrwt>
<pdfrwt beam="2">  1       -1 0.13042351E-01 0.12788683E+03</pdfrwt>
<totfact> 0.18324269E+03</totfact>
</mgrwt>
</event>
<event>
 8    1  0.3177960E-004  0.2807918E+03  0.7546771E-02  0.1095452E+00
          2   -1    0    0  501    0  0.00000000000E+00  0.00000000000E+00  0.16472289208E+03  0.16472289208E+03  0.00000000000E+00 0. -1.
         -2   -1    0    0    0  501 -0.00000000000E+00 -0.00000000000E+00 -0.62009102183E+03  0.62009102183E+03  0.00000000000E+00 0.  1.
         23    2    1    2    0    0 -0.12514749551E+03 -0.23404763298E+03 -0.39113859610E+02  0.28350294455E+03  0.91672435431E+02 0.  0.
         23    2    1    2    0    0  0.12514749551E+03  0.23404763298E+03 -0.41625427015E+03  0.50131096936E+03  0.87205965676E+02 0.  0.
          5    1    4    4  502    0  0.90230651849E+02  0.20333766626E+03 -0.28236966421E+03  0.35950312143E+03  0.47000000000E+01 0. -1.
         -5    1    4    4    0  502  0.34916843661E+02  0.30709966719E+02 -0.13388460594E+03  0.14180784793E+03  0.47000000000E+01 0.  1.
          5    1    3    3  503    0 -0.40272765576E+02 -0.89494174524E+02 -0.59045433028E+02  0.11462790272E+03  0.47000000000E+01 0.  1.
         -5    1    3    3    0  503 -0.84874729934E+02 -0.14455345846E+03  0.19931573418E+02  0.16887504183E+03  0.47000000000E+01 0. -1.
<mgrwt>
<rscale>  0 0.28043453E+03</rscale>
<asrwt>0</asrwt>
<pdfrwt beam="1">  1        2 0.25341983E-01 0.28079178E+03</pdfrwt>
<pdfrwt beam="2">  1       -2 0.95398620E-01 0.28079178E+03</pdfrwt>
<totfact> 0.20359818E+02</totfact>
</mgrwt>
</event>
<event>
 8    1  0.3177960E-004  0.1638116E+03  0.7546771E-02  0.1191141E+00
         -2   -1    0    0    0  501 -0.00000000000E+00  0.00000000000E+00  0.30478353469E+02  0.30478353469E+02  0.00000000000E+00 0.  1.
          2   -1    0    0  501    0  0.00000000000E+00 -0.00000000000E+00 -0.98539950633E+03  0.98539950633E+03  0.00000000000E+00 0. -1.
         23    2    1    2    0    0  0.10739359574E+03  0.90931549955E+01 -0.26420842252E+03  0.31087026796E+03  0.12336191916E+03 0.  0.
         23    2    1    2    0    0 -0.10739359574E+03 -0.90931549955E+01 -0.69071273035E+03  0.70500759184E+03  0.91299281551E+02 0.  0.
          5    1    3    3  502    0  0.89819579477E+02  0.21436348107E+02 -0.27220285883E+03  0.28747792999E+03  0.47000000000E+01 0. -1.
         -5    1    3    3    0  502  0.17574016268E+02 -0.12343193112E+02  0.79944363099E+01  0.23392337974E+02  0.47000000000E+01 0.  1.
          5    1    4    4  503    0 -0.86973959940E+02 -0.44957186791E+02 -0.43189816771E+03  0.44288117551E+03  0.47000000000E+01 0. -1.
         -5    1    4    4    0  503 -0.20419635805E+02  0.35864031795E+02 -0.25881456264E+03  0.26212641633E+03  0.47000000000E+01 0.  1.
<mgrwt>
<rscale>  0 0.15785405E+03</rscale>
<asrwt>0</asrwt>
<pdfrwt beam="1">  1        2 0.15159992E+00 0.16381158E+03</pdfrwt>
<pdfrwt beam="2">  1       -2 0.46889776E-02 0.16381158E+03</pdfrwt>
<totfact> 0.56795973E+03</totfact>
</mgrwt>
</event>
<event>
 8    1  0.3177960E-004  0.1049640E+03  0.7546771E-02  0.1275828E+00
          1   -1    0    0  501    0  0.00000000000E+00  0.00000000000E+00  0.59236052783E+02  0.59236052783E+02  0.00000000000E+00 0. -1.
         -1   -1    0    0    0  501 -0.00000000000E+00 -0.00000000000E+00 -0.18564463146E+03  0.18564463146E+03  0.00000000000E+00 0.  1.
         23    2    1    2    0    0 -0.13941705306E+02  0.36924431180E+01 -0.10466644674E+03  0.14823124482E+03  0.10396841628E+03 0.  0.
         23    2    1    2    0    0  0.13941705306E+02 -0.36924431180E+01 -0.21742131937E+02  0.96649439422E+02  0.93061208656E+02 0.  0.
          5    1    3    3  502    0  0.79629216603E+01 -0.26612118464E+02 -0.10683036477E+03  0.11048271271E+03  0.47000000000E+01 0. -1.
         -5    1    4    4    0  503 -0.35846266468E+02  0.13295790941E+02 -0.20903639642E+02  0.43826761536E+02  0.47000000000E+01 0.  1.
          5    1    4    4  503    0  0.49787971773E+02 -0.16988234059E+02 -0.83849229419E+00  0.52822677886E+02  0.47000000000E+01 0. -1.
         -5    1    3    3    0  502 -0.21904626966E+02  0.30304561582E+02  0.21639180321E+01  0.37748532110E+02  0.47000000000E+01 0.  1.
<mgrwt>
<rscale>  0 0.10215528E+03</rscale>
<asrwt>0</asrwt>
<pdfrwt beam="1">  1        1 0.91132389E-02 0.10496398E+03</pdfrwt>
<pdfrwt beam="2">  1       -1 0.28560713E-01 0.10496398E+03</pdfrwt>
<totfact> 0.74886330E+03</totfact>
</mgrwt>
</event>
<event>
 8    1  0.3177960E-004  0.9339890E+02  0.7546771E-02  0.1295246E+00
         -1   -1    0    0    0  501 -0.00000000000E+00  0.00000000000E+00  0.13928250295E+02  0.13928250295E+02  0.00000000000E+00 0.  1.
          1   -1    0    0  501    0  0.00000000000E+00 -0.00000000000E+00 -0.63262905975E+03  0.63262905975E+03  0.00000000000E+00 0. -1.
         23    2    1    2    0    0 -0.20791439906E+02  0.65334390573E+01 -0.35119546433E+03  0.36321570700E+03  0.90069006033E+02 0.  0.
         23    2    1    2    0    0  0.20791439906E+02 -0.65334390573E+01 -0.26750534513E+03  0.28334160305E+03  0.90820617403E+02 0.  0.
          5    1    4    4  502    0  0.43147178477E+02 -0.33426640054E+02 -0.19734502479E+03  0.20480763678E+03  0.47000000000E+01 0. -1.
         -5    1    3    3    0  503  0.16953828906E+00 -0.38574859999E+02 -0.20683553901E+03  0.21045445770E+03  0.47000000000E+01 0. -1.
          5    1    3    3  503    0 -0.20960978195E+02  0.45108299057E+02 -0.14435992532E+03  0.15276124930E+03  0.47000000000E+01 0.  1.
         -5    1    4    4    0  502 -0.22355738572E+02  0.26893200997E+02 -0.70160320344E+02  0.78533966268E+02  0.47000000000E+01 0.  1.
<mgrwt>
<rscale>  0 0.93215686E+02</rscale>
<asrwt>0</asrwt>
<pdfrwt beam="1">  1        1 0.97327538E-01 0.93398899E+02</pdfrwt>
<pdfrwt beam="2">  1       -1 0.21428080E-02 0.93398899E+02</pdfrwt>
<totfact> 0.18499400E+04</totfact>
</mgrwt>
</event>
<event>
 8    1  0.3177960E-004  0.9285000E+02  0.7546771E-02  0.1296920E+00
          2   -1    0    0  501    0  0.00000000000E+00  0.00000000000E+00  0.11518390397E+03  0.11518390397E+03  0.00000000000E+00 0. -1.
         -2   -1    0    0    0  501 -0.00000000000E+00 -0.00000000000E+00 -0.84597164518E+02  0.84597164518E+02  0.00000000000E+00 0.  1.
         23    2    1    2    0    0  0.20441856111E+02  0.47785422014E+00  0.51225909270E+02  0.10604346600E+03  0.90570553018E+02 0.  0.
         23    2    1    2    0    0 -0.20441856111E+02 -0.47785422014E+00 -0.20639169818E+02  0.93737602494E+02  0.89121630173E+02 0.  0.
          5    1    3    3  502    0  0.40473949512E+02  0.34207031928E+02  0.26515032723E+02  0.59442397182E+02  0.47000000000E+01 0. -1.
         -5    1    3    3    0  502 -0.20032093401E+02 -0.33729177708E+02  0.24710876547E+02  0.46601068814E+02  0.47000000000E+01 0.  1.
          5    1    4    4  503    0  0.16824004972E+02 -0.33535302060E+02  0.38911918637E+01  0.38011774513E+02  0.47000000000E+01 0. -1.
         -5    1    4    4    0  503 -0.37265861083E+02  0.33057447840E+02 -0.24530361681E+02  0.55725827981E+02  0.47000000000E+01 0.  1.
<mgrwt>
<rscale>  0 0.92494770E+02</rscale>
<asrwt>0</asrwt>
<pdfrwt beam="1">  1        2 0.17720601E-01 0.92850002E+02</pdfrwt>
<pdfrwt beam="2">  1       -2 0.13014948E-01 0.92850002E+02</pdfrwt>
<totfact> 0.12500000E+04</totfact>
</mgrwt>
</event>
<event>
 8    1  0.3177960E-004  0.1502197E+03  0.7546771E-02  0.1200343E+00
          1   -1    0    0  501    0  0.00000000000E+00  0.00000000000E+00  0.36565918412E+03  0.36565918412E+03  0.00000000000E+00 0. -1.
         -1   -1    0    0    0  501 -0.00000000000E+00 -0.00000000000E+00 -0.71071677073E+02  0.71071677073E+02  0.00000000000E+00 0.  1.
         23    2    1    2    0    0 -0.63269245406E+02  0.10146413540E+03  0.22751591980E+03  0.27263427775E+03  0.90928474388E+02 0.  0.
         23    2    1    2    0    0  0.63269245406E+02 -0.10146413540E+03  0.67071587247E+02  0.16409658344E+03  0.90172738099E+02 0.  0.
          5    1    4    4  502    0  0.83927542630E+02 -0.79403522496E+02  0.66735622068E+02  0.13350837071E+03  0.47000000000E+01 0. -1.
         -5    1    4    4    0  502 -0.20658297224E+02 -0.22060612901E+02  0.33596517878E+00  0.30588212736E+02  0.47000000000E+01 0.  1.
          5    1    3    3  503    0 -0.12272332175E+02  0.91337381817E+02  0.17890651481E+03  0.20130265397E+03  0.47000000000E+01 0. -1.
         -5    1    3    3    0  503 -0.50996913231E+02  0.10126753580E+02  0.48609404988E+02  0.71331623776E+02  0.47000000000E+01 0.  1.
<mgrwt>
<rscale>  0 0.15010550E+03</rscale>
<asrwt>0</asrwt>
<pdfrwt beam="1">  1        1 0.56255258E-01 0.15021969E+03</pdfrwt>
<pdfrwt beam="2">  1       -1 0.10934104E-01 0.15021969E+03</pdfrwt>
<totfact> 0.35069451E+03</totfact>
</mgrwt>
</event>
<event>
 8    1  0.3177960E-004  0.1275471E+03  0.7546771E-02  0.1231337E+00
          2   -1    0    0  501    0  0.00000000000E+00  0.00000000000E+00  0.26919576805E+03  0.26919576805E+03  0.00000000000E+00 0. -1.
         -2   -1    0    0    0  501 -0.00000000000E+00 -0.00000000000E+00 -0.67786287758E+02  0.67786287758E+02  0.00000000000E+00 0.  1.
         23    2    1    2    0    0 -0.86491635419E+02 -0.19311883606E+02  0.44480885187E+02  0.13508072236E+03  0.91730586829E+02 0.  0.
         23    2    1    2    0    0  0.86491635419E+02  0.19311883606E+02  0.15692859511E+03  0.20190133345E+03  0.91015452762E+02 0.  0.
          5    1    3    3  502    0 -0.27850129704E+02 -0.41754786171E+02 -0.10496995640E+02  0.51491444048E+02  0.47000000000E+01 0.  1.
         -5    1    4    4    0  503  0.28598600986E+02  0.15160053423E+02 -0.18713973542E+01  0.32761247324E+02  0.47000000000E+01 0.  1.
          5    1    4    4  503    0  0.57893034433E+02  0.41518301829E+01  0.15879999246E+03  0.16914008613E+03  0.47000000000E+01 0. -1.
         -5    1    3    3    0  502 -0.58641505716E+02  0.22442902566E+02  0.54977880827E+02  0.83589278310E+02  0.47000000000E+01 0.  1.
<mgrwt>
<rscale>  0 0.12741853E+03</rscale>
<asrwt>0</asrwt>
<pdfrwt beam="1">  1        2 0.41414733E-01 0.12754706E+03</pdfrwt>
<pdfrwt beam="2">  1       -2 0.10428660E-01 0.12754706E+03</pdfrwt>
<totfact> 0.72277792E+03</totfact>
</mgrwt>
</event>
<event>
 8    1  0.3177960E-004  0.9721486E+02  0.7546771E-02  0.1290909E+00
          1   -1    0    0  501    0  0.00000000000E+00  0.00000000000E+00  0.79015592065E+03  0.79015592065E+03  0.00000000000E+00 0. -1.
         -1   -1    0    0    0  501 -0.00000000000E+00 -0.00000000000E+00 -0.16562437915E+02  0.16562437915E+02  0.00000000000E+00 0.  1.
         23    2    1    2    0    0  0.30513626604E+02  0.64936861024E+01  0.63194111559E+03  0.63937493117E+03  0.92073229961E+02 0.  0.
         23    2    1    2    0    0 -0.30513626604E+02 -0.64936861024E+01  0.14165236715E+03  0.16734342739E+03  0.83457655160E+02 0.  0.
          5    1    3    3  502    0  0.44886081946E+02  0.39984741514E+02  0.37392728406E+03  0.37875749982E+03  0.47000000000E+01 0. -1.
         -5    1    4    4    0  503 -0.56402273467E+02 -0.24788170933E+00  0.65682580762E+02  0.86703917519E+02  0.47000000000E+01 0.  1.
          5    1    4    4  503    0  0.25888646863E+02 -0.62458043931E+01  0.75969786388E+02  0.80639509874E+02  0.47000000000E+01 0. -1.
         -5    1    3    3    0  502 -0.14372455342E+02 -0.33491055411E+02  0.25801383153E+03  0.26061743135E+03  0.47000000000E+01 0.  1.
<mgrwt>
<rscale>  0 0.95118790E+02</rscale>
<asrwt>0</asrwt>
<pdfrwt beam="1">  1        1 0.12156242E+00 0.97214860E+02</pdfrwt>
<pdfrwt beam="2">  1       -1 0.25480680E-02 0.97214860E+02</pdfrwt>
<totfact> 0.10568243E+04</totfact>
</mgrwt>
</event>
<event>
 8    1  0.3177960E-004  0.1035066E+03  0.7546771E-02  0.1277185E+00
          2   -1    0    0  501    0  0.00000000000E+00  0.00000000000E+00  0.10698208376E+03  0.10698208376E+03  0.00000000000E+00 0. -1.
         -2   -1    0    0    0  501 -0.00000000000E+00 -0.00000000000E+00 -0.94234062568E+02  0.94234062568E+02  0.00000000000E+00 0.  1.
         23    2    1    2    0    0 -0.39110126240E+00 -0.25686652036E+02 -0.61120451557E+01  0.10368694273E+03  0.10026798065E+03 0.  0.
         23    2    1    2    0    0  0.39110126240E+00  0.25686652036E+02  0.18860066346E+02  0.97529203599E+02  0.92175302543E+02 0.  0.
          5    1    4    4  502    0 -0.19767957737E+02 -0.13639421416E+02  0.41099737634E+02  0.47833925233E+02  0.47000000000E+01 0. -1.
         -5    1    3    3    0  503  0.32297056718E+02  0.19665010053E+01 -0.37973501069E+02  0.50110316126E+02  0.47000000000E+01 0.  1.
          5    1    3    3  503    0 -0.32688157980E+02 -0.27653153041E+02  0.31861455913E+02  0.53576626603E+02  0.47000000000E+01 0. -1.
         -5    1    4    4    0  502  0.20159058999E+02  0.39326073452E+02 -0.22239671288E+02  0.49695278366E+02  0.47000000000E+01 0.  1.
<mgrwt>
<rscale>  0 0.10149411E+03</rscale>
<asrwt>0</asrwt>
<pdfrwt beam="1">  1        2 0.16458782E-01 0.10350664E+03</pdfrwt>
<pdfrwt beam="2">  1       -2 0.14497548E-01 0.10350664E+03</pdfrwt>
<totfact> 0.11555530E+04</totfact>
</mgrwt>
</event>
<event>
 8    1  0.3177960E-004  0.1093354E+03  0.7546771E-02  0.1263303E+00
          1   -1    0    0  501    0  0.00000000000E+00  0.00000000000E+00  0.42375538176E+02  0.42375538176E+02  0.00000000000E+00 0. -1.
         -1   -1    0    0    0  501 -0.00000000000E+00 -0.00000000000E+00 -0.28539715437E+03  0.28539715437E+03  0.00000000000E+00 0.  1.
         23    2    1    2    0    0  0.55263645587E+02  0.85881821705E+01 -0.15253254052E+03  0.18584840840E+03  0.90253130638E+02 0.  0.
         23    2    1    2    0    0 -0.55263645587E+02 -0.85881821705E+01 -0.90489075676E+02  0.14192428415E+03  0.93948934098E+02 0.  0.
          5    1    3    3  502    0  0.25028056965E+02 -0.20609833295E+02 -0.59633366586E+01  0.33298952656E+02  0.47000000000E+01 0. -1.
         -5    1    3    3    0  502  0.30235588622E+02  0.29198015465E+02 -0.14656920386E+03  0.15254945574E+03  0.47000000000E+01 0.  1.
          5    1    4    4  503    0 -0.16766319918E+02 -0.19112909533E+02  0.14403919039E+02  0.29596886290E+02  0.47000000000E+01 0. -1.
         -5    1    4    4    0  503 -0.38497325669E+02  0.10524727362E+02 -0.10489299471E+03  0.11232739786E+03  0.47000000000E+01 0.  1.
<mgrwt>
<rscale>  0 0.10853698E+03</rscale>
<asrwt>0</asrwt>
<pdfrwt beam="1">  1        1 0.65193136E-02 0.10933540E+03</pdfrwt>
<pdfrwt beam="2">  1       -1 0.43907254E-01 0.10933540E+03</pdfrwt>
<totfact> 0.56285765E+03</totfact>
</mgrwt>
</event>
<event>
 8    1  0.3177960E-004  0.1385559E+03  0.7546771E-02  0.1216346E+00
         -2   -1    0    0    0  501 -0.00000000000E+00  0.00000000000E+00  0.44059638268E+02  0.44059638268E+02  0.00000000000E+00 0.  1.
          2   -1    0    0  501    0  0.00000000000E+00 -0.00000000000E+00 -0.42679515404E+03  0.42679515404E+03  0.00000000000E+00 0. -1.
         23    2    1    2    0    0 -0.65957654562E+02  0.74311446459E+02 -0.19865625615E+03  0.24045749612E+03  0.92102638746E+02 0.  0.
         23    2    1    2    0    0  0.65957654562E+02 -0.74311446459E+02 -0.18407925963E+03  0.23039729619E+03  0.96566748919E+02 0.  0.
          5    1    4    4  502    0  0.83928028850E+01 -0.43506548348E+02 -0.15024364922E+03  0.15671152804E+03  0.47000000000E+01 0. -1.
         -5    1    3    3    0  503  0.21643795776E+02  0.29832380922E+01 -0.35696191417E+02  0.42114863016E+02  0.47000000000E+01 0.  1.
          5    1    3    3  503    0 -0.87601450338E+02  0.71328208367E+02 -0.16296006473E+03  0.19834263311E+03  0.47000000000E+01 0. -1.
         -5    1    4    4    0  502  0.57564851677E+02 -0.30804898111E+02 -0.33835610405E+02  0.73685768149E+02  0.47000000000E+01 0.  1.
<mgrwt>
<rscale>  0 0.13778107E+03</rscale>
<asrwt>0</asrwt>
<pdfrwt beam="1">  1        2 0.65660796E-01 0.13855591E+03</pdfrwt>
<pdfrwt beam="2">  1       -2 0.67784056E-02 0.13855591E+03</pdfrwt>
<totfact> 0.86850003E+03</totfact>
</mgrwt>
</event>
<event>
 8    1  0.3177960E-004  0.9142389E+02  0.7546771E-02  0.1299973E+00
          3   -1    0    0  501    0  0.00000000000E+00  0.00000000000E+00  0.11006777608E+03  0.11006777608E+03  0.00000000000E+00 0. -1.
         -3   -1    0    0    0  501 -0.00000000000E+00 -0.00000000000E+00 -0.75276265971E+02  0.75276265971E+02  0.00000000000E+00 0.  1.
         23    2    1    2    0    0 -0.63339131306E+01 -0.72472672542E+01  0.14458250910E+02  0.92560083849E+02  0.90915822410E+02 0.  0.
         23    2    1    2    0    0  0.63339131306E+01  0.72472672542E+01  0.20333259199E+02  0.92783958201E+02  0.90015443851E+02 0.  0.
          5    1    3    3  502    0  0.40404635141E+02  0.30757276872E+01 -0.41214829640E+01  0.41000869058E+02  0.47000000000E+01 0. -1.
         -5    1    4    4    0  503 -0.28824836665E+02  0.31960962819E+02 -0.34670597878E+01  0.43433683434E+02  0.47000000000E+01 0.  1.
          5    1    4    4  503    0  0.35158749796E+02 -0.24713695565E+02  0.23800318987E+02  0.49350274767E+02  0.47000000000E+01 0. -1.
         -5    1    3    3    0  502 -0.46738548271E+02 -0.10322994941E+02  0.18579733874E+02  0.51559214791E+02  0.47000000000E+01 0.  1.
<mgrwt>
<rscale>  0 0.91199234E+02</rscale>
<asrwt>0</asrwt>
<pdfrwt beam="1">  1        3 0.16933504E-01 0.91423892E+02</pdfrwt>
<pdfrwt beam="2">  1       -3 0.11580964E-01 0.91423892E+02</pdfrwt>
<totfact> 0.36522432E+03</totfact>
</mgrwt>
</event>
<event>
 8    1  0.3177960E-004  0.9889250E+02  0.7546771E-02  0.1282728E+00
         -2   -1    0    0    0  501 -0.00000000000E+00  0.00000000000E+00  0.29889106276E+03  0.29889106276E+03  0.00000000000E+00 0.  1.
          2   -1    0    0  501    0  0.00000000000E+00 -0.00000000000E+00 -0.33931328569E+02  0.33931328569E+02  0.00000000000E+00 0. -1.
         23    2    1    2    0    0  0.22737352801E+02 -0.34900629872E+02  0.10025633897E+03  0.14071061270E+03  0.89515930673E+02 0.  0.
         23    2    1    2    0    0 -0.22737352801E+02  0.34900629872E+02  0.16470339522E+03  0.19211177863E+03  0.89692173090E+02 0.  0.
          5    1    3    3  502    0  0.11238480347E+02 -0.63762313164E+02  0.52230153710E+02  0.83318755254E+02  0.47000000000E+01 0. -1.
         -5    1    3    3    0  502  0.11498872455E+02  0.28861683292E+02  0.48026185265E+02  0.57391857447E+02  0.47000000000E+01 0.  1.
          5    1    4    4  503    0  0.12766144186E+02  0.29457693372E+02  0.14923709268E+03  0.15272370467E+03  0.47000000000E+01 0.  1.
         -5    1    4    4    0  503 -0.35503496988E+02  0.54429365002E+01  0.15466302538E+02  0.39388073960E+02  0.47000000000E+01 0. -1.
<mgrwt>
<rscale>  0 0.98852524E+02</rscale>
<asrwt>0</asrwt>
<pdfrwt beam="1">  1        2 0.52202046E-02 0.98892503E+02</pdfrwt>
<pdfrwt beam="2">  1       -2 0.45983239E-01 0.98892503E+02</pdfrwt>
<totfact> 0.61920642E+03</totfact>
</mgrwt>
</event>
<event>
 8    1  0.3177960E-004  0.1774742E+03  0.7546771E-02  0.1170294E+00
         -1   -1    0    0    0  501 -0.00000000000E+00  0.00000000000E+00  0.98823241360E+02  0.98823241360E+02  0.00000000000E+00 0.  1.
          1   -1    0    0  501    0  0.00000000000E+00 -0.00000000000E+00 -0.38439946797E+03  0.38439946797E+03  0.00000000000E+00 0. -1.
         23    2    1    2    0    0  0.46037173921E+02  0.14485261784E+03 -0.42751476053E+02  0.18245546100E+03  0.91436339973E+02 0.  0.
         23    2    1    2    0    0 -0.46037173921E+02 -0.14485261784E+03 -0.24282475056E+03  0.30076724833E+03  0.91626283933E+02 0.  0.
          5    1    3    3  502    0  0.47316587129E+02  0.91985707146E+02 -0.67781184225E+02  0.12376028713E+03  0.47000000000E+01 0. -1.
         -5    1    3    3    0  502 -0.12794132076E+01  0.52866910692E+02  0.25029708171E+02  0.58695173868E+02  0.47000000000E+01 0.  1.
          5    1    4    4  503    0 -0.49938490828E+02 -0.29567629346E+02 -0.53796951113E+02  0.79273573910E+02  0.47000000000E+01 0. -1.
         -5    1    4    4    0  503  0.39013169070E+01 -0.11528498849E+03 -0.18902779945E+03  0.22149367442E+03  0.47000000000E+01 0.  1.
<mgrwt>
<rscale>  0 0.17744966E+03</rscale>
<asrwt>0</asrwt>
<pdfrwt beam="1">  1        1 0.59138380E-01 0.17747416E+03</pdfrwt>
<pdfrwt beam="2">  1       -1 0.15203575E-01 0.17747416E+03</pdfrwt>
<totfact> 0.19820374E+03</totfact>
</mgrwt>
</event>
<event>
 8    1  0.3177960E-004  0.2817238E+03  0.7546771E-02  0.1094868E+00
         -2   -1    0    0    0  501 -0.00000000000E+00  0.00000000000E+00  0.23359735034E+03  0.23359735034E+03  0.00000000000E+00 0.  1.
          2   -1    0    0  501    0  0.00000000000E+00 -0.00000000000E+00 -0.35783984107E+03  0.35783984107E+03  0.00000000000E+00 0. -1.
         23    2    1    2    0    0  0.26420039667E+03 -0.36278932161E+02 -0.13038097183E+03  0.30964651423E+03  0.88112175318E+02 0.  0.
         23    2    1    2    0    0 -0.26420039667E+03  0.36278932161E+02  0.61384811030E+01  0.28179067718E+03  0.90831130555E+02 0.  0.
          5    1    4    4  502    0 -0.14618452281E+03 -0.23287666214E+02 -0.10470121661E+02  0.14847202953E+03  0.47000000000E+01 0. -1.
         -5    1    3    3    0  503  0.62637396437E+02  0.12281780578E+02  0.12506732186E+01  0.64015152503E+02  0.47000000000E+01 0.  1.
          5    1    3    3  503    0  0.20156300023E+03 -0.48560712739E+02 -0.13163164505E+03  0.24563136173E+03  0.47000000000E+01 0. -1.
         -5    1    4    4    0  502 -0.11801587387E+03  0.59566598375E+02  0.16608602764E+02  0.13331864765E+03  0.47000000000E+01 0.  1.
<mgrwt>
<rscale>  0 0.28150735E+03</rscale>
<asrwt>0</asrwt>
<pdfrwt beam="1">  1        2 0.55052283E-01 0.28172381E+03</pdfrwt>
<pdfrwt beam="2">  1       -2 0.35938054E-01 0.28172381E+03</pdfrwt>
<totfact> 0.66154739E+02</totfact>
</mgrwt>
</event>
<event>
 8    1  0.3177960E-004  0.9180070E+02  0.7546771E-02  0.1299143E+00
         -2   -1    0    0    0  501 -0.00000000000E+00  0.00000000000E+00  0.86007597269E+02  0.86007597269E+02  0.00000000000E+00 0.  1.
          2   -1    0    0  501    0  0.00000000000E+00 -0.00000000000E+00 -0.18850575965E+03  0.18850575965E+03  0.00000000000E+00 0. -1.
         23    2    1    2    0    0 -0.65815550149E+01 -0.25827222246E+01 -0.14706635941E+03  0.17336632734E+03  0.91528039763E+02 0.  0.
         23    2    1    2    0    0  0.65815550149E+01  0.25827222246E+01  0.44568197036E+02  0.10114702958E+03  0.90522980978E+02 0.  0.
          5    1    4    4  502    0  0.11030398664E+02 -0.24253796709E+02 -0.18178937350E+02  0.32595706967E+02  0.47000000000E+01 0. -1.
         -5    1    4    4    0  502 -0.44488436488E+01  0.26836518934E+02  0.62747134385E+02  0.68551322612E+02  0.47000000000E+01 0.  1.
          5    1    3    3  503    0  0.40428426320E+02  0.11795398804E+02 -0.65324641187E+02  0.77865190130E+02  0.47000000000E+01 0. -1.
         -5    1    3    3    0  503 -0.47009981335E+02 -0.14378121028E+02 -0.81741718228E+02  0.95501137209E+02  0.47000000000E+01 0.  1.
<mgrwt>
<rscale>  0 0.91549163E+02</rscale>
<asrwt>0</asrwt>
<pdfrwt beam="1">  1        2 0.29000886E-01 0.91800705E+02</pdfrwt>
<pdfrwt beam="2">  1       -2 0.13231938E-01 0.91800705E+02</pdfrwt>
<totfact> 0.70671339E+03</totfact>
</mgrwt>
</event>
<event>
 8    1  0.3177960E-004  0.1127032E+03  0.7546771E-02  0.1263338E+00
          2   -1    0    0  501    0  0.00000000000E+00  0.00000000000E+00  0.36230353811E+03  0.36230353811E+03  0.00000000000E+00 0. -1.
         -2   -1    0    0    0  501 -0.00000000000E+00 -0.00000000000E+00 -0.38556843781E+02  0.38556843781E+02  0.00000000000E+00 0.  1.
         23    2    1    2    0    0 -0.11827464462E+02 -0.19139043356E+02  0.59763167142E+02  0.11382499806E+03  0.94224742716E+02 0.  0.
         23    2    1    2    0    0  0.11827464462E+02  0.19139043356E+02  0.26398352719E+03  0.28703538384E+03  0.11043467322E+03 0.  0.
          5    1    3    3  502    0  0.20793629886E+02  0.11888399068E+02  0.63868762601E+02  0.68374102645E+02  0.47000000000E+01 0. -1.
         -5    1    3    3    0  502 -0.32621094349E+02 -0.31027442423E+02 -0.41055954589E+01  0.45450895414E+02  0.47000000000E+01 0.  1.
          5    1    4    4  503    0 -0.44715490920E+02  0.46418418116E+01  0.17321521229E+03  0.17901570208E+03  0.47000000000E+01 0. -1.
         -5    1    4    4    0  503  0.56542955383E+02  0.14497201544E+02  0.90768314901E+02  0.10801968175E+03  0.47000000000E+01 0.  1.
<mgrwt>
<rscale>  0 0.10851843E+03</rscale>
<asrwt>0</asrwt>
<pdfrwt beam="1">  1        2 0.55739003E-01 0.11270319E+03</pdfrwt>
<pdfrwt beam="2">  1       -2 0.59318224E-02 0.11270319E+03</pdfrwt>
<totfact> 0.12467085E+04</totfact>
</mgrwt>
</event>
<event>
 8    1  0.3177960E-004  0.1189869E+03  0.7546771E-02  0.1258151E+00
          4   -1    0    0  501    0  0.00000000000E+00  0.00000000000E+00  0.21100310448E+03  0.21100310448E+03  0.00000000000E+00 0. -1.
         -4   -1    0    0    0  501 -0.00000000000E+00 -0.00000000000E+00 -0.82815778549E+02  0.82815778549E+02  0.00000000000E+00 0.  1.
         23    2    1    2    0    0  0.23041144393E+02  0.32858678629E+01 -0.19198684716E+02  0.12052585635E+03  0.11668847968E+03 0.  0.
         23    2    1    2    0    0 -0.23041144393E+02 -0.32858678629E+01  0.14738601065E+03  0.17329302668E+03  0.88125738014E+02 0.  0.
          5    1    4    4  502    0 -0.32499705061E+02  0.14785386199E+02  0.14803402670E+03  0.15235157215E+03  0.47000000000E+01 0. -1.
         -5    1    4    4    0  502  0.94585606678E+01 -0.18071254062E+02 -0.64801605672E+00  0.20941454536E+02  0.47000000000E+01 0.  1.
          5    1    3    3  503    0 -0.26881777706E+02 -0.21887502815E+02 -0.46450431273E+02  0.58150024226E+02  0.47000000000E+01 0. -1.
         -5    1    3    3    0  503  0.49922922098E+02  0.25173370678E+02  0.27251746557E+02  0.62375832119E+02  0.47000000000E+01 0.  1.
<mgrwt>
<rscale>  0 0.11131674E+03</rscale>
<asrwt>0</asrwt>
<pdfrwt beam="1">  1        4 0.32462016E-01 0.11898694E+03</pdfrwt>
<pdfrwt beam="2">  1       -4 0.12740889E-01 0.11898694E+03</pdfrwt>
<totfact> 0.73723260E+02</totfact>
</mgrwt>
</event>
<event>
 8    1  0.3177960E-004  0.1491533E+03  0.7546771E-02  0.1202832E+00
          3   -1    0    0  501    0  0.00000000000E+00  0.00000000000E+00  0.12727905926E+03  0.12727905926E+03  0.00000000000E+00 0. -1.
         -3   -1    0    0    0  501 -0.00000000000E+00 -0.00000000000E+00 -0.70633279005E+03  0.70633279005E+03  0.00000000000E+00 0.  1.
         23    2    1    2    0    0  0.41786623425E+02  0.99349985358E+02  0.72701719530E+02  0.16592843616E+03  0.10310268869E+03 0.  0.
         23    2    1    2    0    0 -0.41786623425E+02 -0.99349985358E+02 -0.65175545032E+03  0.66768341315E+03  0.96950666255E+02 0.  0.
          5    1    3    3  502    0  0.28412151042E+02  0.41369772687E+02  0.90545205942E+02  0.10363026941E+03  0.47000000000E+01 0. -1.
         -5    1    4    4    0  503 -0.35592111186E+02 -0.57279943988E+01 -0.75228269275E+02  0.83552323705E+02  0.47000000000E+01 0. -1.
          5    1    4    4  503    0 -0.61945122394E+01 -0.93621990960E+02 -0.57652718104E+03  0.58413108944E+03  0.47000000000E+01 0.  1.
         -5    1    3    3    0  502  0.13374472383E+02  0.57980212672E+02 -0.17843486412E+02  0.62298166749E+02  0.47000000000E+01 0.  1.
<mgrwt>
<rscale>  0 0.14809600E+03</rscale>
<asrwt>0</asrwt>
<pdfrwt beam="1">  1        3 0.19581394E-01 0.14915330E+03</pdfrwt>
<pdfrwt beam="2">  1       -3 0.10866658E+00 0.14915330E+03</pdfrwt>
<totfact> 0.41538595E+01</totfact>
</mgrwt>
</event>
<event>
 8    1  0.3177960E-004  0.1457522E+03  0.7546771E-02  0.1206134E+00
         -2   -1    0    0    0  501 -0.00000000000E+00  0.00000000000E+00  0.32905258536E+02  0.32905258536E+02  0.00000000000E+00 0.  1.
          2   -1    0    0  501    0  0.00000000000E+00 -0.00000000000E+00 -0.64312037067E+03  0.64312037067E+03  0.00000000000E+00 0. -1.
         23    2    1    2    0    0 -0.16431345376E+02  0.11189310704E+03 -0.28629344327E+03  0.32125944540E+03  0.91943673409E+02 0.  0.
         23    2    1    2    0    0  0.16431345376E+02 -0.11189310704E+03 -0.32392166886E+03  0.35476618381E+03  0.90242678959E+02 0.  0.
          5    1    4    4  502    0 -0.25668632317E+02 -0.31537824260E+02 -0.42327140337E+02  0.58882848549E+02  0.47000000000E+01 0.  1.
         -5    1    3    3    0  503  0.28669690387E+02  0.70957091579E+02 -0.10546723325E+03  0.13039281914E+03  0.47000000000E+01 0.  1.
          5    1    3    3  503    0 -0.45101035763E+02  0.40936015459E+02 -0.18082621002E+03  0.19086662626E+03  0.47000000000E+01 0. -1.
         -5    1    4    4    0  502  0.42099977694E+02 -0.80355282779E+02 -0.28159452853E+03  0.29588333527E+03  0.47000000000E+01 0. -1.
<mgrwt>
<rscale>  0 0.14548469E+03</rscale>
<asrwt>0</asrwt>
<pdfrwt beam="1">  1        2 0.98941587E-01 0.14575217E+03</pdfrwt>
<pdfrwt beam="2">  1       -2 0.50623479E-02 0.14575217E+03</pdfrwt>
<totfact> 0.85973159E+03</totfact>
</mgrwt>
</event>
<event>
 8    1  0.3177960E-004  0.1947796E+03  0.7546771E-02  0.1158550E+00
          2   -1    0    0  501    0  0.00000000000E+00  0.00000000000E+00  0.15911174046E+03  0.15911174046E+03  0.00000000000E+00 0. -1.
         -2   -1    0    0    0  501 -0.00000000000E+00 -0.00000000000E+00 -0.21813666142E+03  0.21813666142E+03  0.00000000000E+00 0.  1.
         23    2    1    2    0    0 -0.13865713519E+03 -0.56156570444E+02 -0.49665348407E+02  0.20101177087E+03  0.12473862133E+03 0.  0.
         23    2    1    2    0    0  0.13865713519E+03  0.56156570444E+02 -0.93595725533E+01  0.17623663101E+03  0.92695129138E+02 0.  0.
          5    1    4    4  502    0  0.66835119453E+02  0.25856117841E+02  0.41592672099E+02  0.82991038038E+02  0.47000000000E+01 0. -1.
         -5    1    3    3    0  503 -0.83000157511E+02 -0.70946888627E+02 -0.80293624206E+02  0.13561579274E+03  0.47000000000E+01 0.  1.
          5    1    3    3  503    0 -0.55656977684E+02  0.14790318183E+02  0.30628275799E+02  0.65395978128E+02  0.47000000000E+01 0.  1.
         -5    1    4    4    0  502  0.71822015741E+02  0.30300452603E+02 -0.50952244653E+02  0.93245592969E+02  0.47000000000E+01 0.  1.
<mgrwt>
<rscale>  0 0.18990145E+03</rscale>
<asrwt>0</asrwt>
<pdfrwt beam="1">  1        2 0.24478729E-01 0.19477958E+03</pdfrwt>
<pdfrwt beam="2">  1       -2 0.33559486E-01 0.19477958E+03</pdfrwt>
<totfact> 0.18081256E+03</totfact>
</mgrwt>
</event>
<event>
 7    1  0.3177960E-004  0.1812397E+03  0.7546771E-02  0.1190234E+00
         -1   -1    0    0    0  501 -0.00000000000E+00  0.00000000000E+00  0.21263849058E+03  0.21263849058E+03  0.00000000000E+00 0.  1.
          1   -1    0    0  501    0  0.00000000000E+00 -0.00000000000E+00 -0.13191882999E+03  0.13191882999E+03  0.00000000000E+00 0. -1.
         23    2    1    2    0    0  0.25386778177E+02 -0.43879465943E+02  0.11867024387E+03  0.15938688327E+03  0.93550284552E+02 0.  0.
          5    1    3    3  502    0  0.54582677574E+02 -0.21350197459E+02  0.36519883727E+02  0.69216266369E+02  0.47000000000E+01 0. -1.
         -5    1    1    2    0  503 -0.47763275694E+02 -0.35859214538E+01  0.58205982885E+02  0.75526258886E+02  0.47000000000E+01 0.  1.
          5    1    1    2  503    0  0.22376497517E+02  0.47465387397E+02 -0.96156566172E+02  0.10964417841E+03  0.47000000000E+01 0. -1.
         -5    1    3    3    0  502 -0.29195899397E+02 -0.22529268484E+02  0.82150360147E+02  0.90170616901E+02  0.47000000000E+01 0.  1.
<mgrwt>
<rscale>  0 0.15864571E+03</rscale>
<asrwt>0</asrwt>
<pdfrwt beam="1">  1        1 0.20295205E-01 0.18123974E+03</pdfrwt>
<pdfrwt beam="2">  1       -1 0.32713614E-01 0.18123974E+03</pdfrwt>
<totfact> 0.21687023E+03</totfact>
</mgrwt>
</event>
<event>
 8    1  0.3177960E-004  0.1753359E+03  0.7546771E-02  0.1172471E+00
         -2   -1    0    0    0  501 -0.00000000000E+00  0.00000000000E+00  0.15052199871E+03  0.15052199871E+03  0.00000000000E+00 0.  1.
          2   -1    0    0  501    0  0.00000000000E+00 -0.00000000000E+00 -0.24488257287E+03  0.24488257287E+03  0.00000000000E+00 0. -1.
         23    2    1    2    0    0 -0.72058340062E+02  0.13113515578E+03  0.33742756728E+02  0.17825685156E+03  0.90819040088E+02 0.  0.
         23    2    1    2    0    0  0.72058340062E+02 -0.13113515578E+03 -0.12810333089E+03  0.21714772002E+03  0.91399318765E+02 0.  0.
          5    1    3    3  502    0  0.20024672167E+02  0.11693008283E+02  0.93429015591E-01  0.23660360671E+02  0.47000000000E+01 0. -1.
         -5    1    3    3    0  502 -0.92083012228E+02  0.11944214750E+03  0.33649327712E+02  0.15459649089E+03  0.47000000000E+01 0.  1.
          5    1    4    4  503    0  0.62880162212E+02 -0.53929933456E+02 -0.10893087715E+03  0.13693202152E+03  0.47000000000E+01 0. -1.
         -5    1    4    4    0  503  0.91781778497E+01 -0.77205222325E+02 -0.19172453742E+02  0.80215698497E+02  0.47000000000E+01 0.  1.
<mgrwt>
<rscale>  0 0.17526038E+03</rscale>
<asrwt>0</asrwt>
<pdfrwt beam="1">  1        2 0.37674242E-01 0.17533587E+03</pdfrwt>
<pdfrwt beam="2">  1       -2 0.23157230E-01 0.17533587E+03</pdfrwt>
<totfact> 0.21834662E+03</totfact>
</mgrwt>
</event>
<event>
 8    1  0.3177960E-004  0.9621645E+02  0.7546771E-02  0.1290675E+00
         -1   -1    0    0    0  501 -0.00000000000E+00  0.00000000000E+00  0.71766597494E+02  0.71766597494E+02  0.00000000000E+00 0.  1.
          1   -1    0    0  501    0  0.00000000000E+00 -0.00000000000E+00 -0.56996094345E+03  0.56996094345E+03  0.00000000000E+00 0. -1.
         23    2    1    2    0    0 -0.12223250679E+02 -0.10706454147E+02  0.33651421107E+02  0.10193146493E+03  0.94834431415E+02 0.  0.
         23    2    1    2    0    0  0.12223250679E+02  0.10706454147E+02 -0.53184576706E+03  0.53979607602E+03  0.90861695594E+02 0.  0.
          5    1    3    3  502    0  0.15949216201E+02 -0.31650592313E+02 -0.17428137267E+02  0.39773954540E+02  0.47000000000E+01 0. -1.
         -5    1    4    4    0  503 -0.35125661646E+02 -0.13450224866E+02 -0.26163477685E+03  0.26436635019E+03  0.47000000000E+01 0.  1.
          5    1    4    4  503    0  0.47348912325E+02  0.24156679013E+02 -0.27021099021E+03  0.27542972583E+03  0.47000000000E+01 0. -1.
         -5    1    3    3    0  502 -0.28172466880E+02  0.20944138166E+02  0.51079558373E+02  0.62157510385E+02  0.47000000000E+01 0.  1.
<mgrwt>
<rscale>  0 0.95222857E+02</rscale>
<asrwt>0</asrwt>
<pdfrwt beam="1">  1        1 0.87686295E-01 0.96216451E+02</pdfrwt>
<pdfrwt beam="2">  1       -1 0.11041015E-01 0.96216451E+02</pdfrwt>
<totfact> 0.19228210E+03</totfact>
</mgrwt>
</event>
<event>
 8    1  0.3177960E-004  0.1057672E+03  0.7546771E-02  0.1271476E+00
         -2   -1    0    0    0  501 -0.00000000000E+00  0.00000000000E+00  0.65641565570E+02  0.65641565570E+02  0.00000000000E+00 0.  1.
          2   -1    0    0  501    0  0.00000000000E+00 -0.00000000000E+00 -0.21896715887E+03  0.21896715887E+03  0.00000000000E+00 0. -1.
         23    2    1    2    0    0  0.42983572730E+02  0.25875645801E+02 -0.15118569233E+03  0.18450966962E+03  0.93110515241E+02 0.  0.
         23    2    1    2    0    0 -0.42983572730E+02 -0.25875645801E+02 -0.21399009704E+01  0.10009905482E+03  0.86591599066E+02 0.  0.
          5    1    4    4  502    0 -0.28108150441E+02 -0.44711817375E+02  0.29054072359E+02  0.60460266744E+02  0.47000000000E+01 0.  1.
         -5    1    3    3    0  503 -0.17568279363E+02  0.27424602657E+02 -0.16621111171E+02  0.36866035957E+02  0.47000000000E+01 0.  1.
          5    1    3    3  503    0  0.60551852093E+02 -0.15489568555E+01 -0.13456458116E+03  0.14764363366E+03  0.47000000000E+01 0. -1.
         -5    1    4    4    0  502 -0.14875422289E+02  0.18836171573E+02 -0.31193973330E+02  0.39638788073E+02  0.47000000000E+01 0. -1.
<mgrwt>
<rscale>  0 0.10431482E+03</rscale>
<asrwt>0</asrwt>
<pdfrwt beam="1">  1        2 0.33687255E-01 0.10576722E+03</pdfrwt>
<pdfrwt beam="2">  1       -2 0.10098702E-01 0.10576722E+03</pdfrwt>
<totfact> 0.93323825E+03</totfact>
</mgrwt>
</event>
<event>
 8    1  0.3177960E-004  0.9529588E+02  0.7546771E-02  0.1292427E+00
         -1   -1    0    0    0  501 -0.00000000000E+00  0.00000000000E+00  0.96050001023E+02  0.96050001023E+02  0.00000000000E+00 0.  1.
          1   -1    0    0  501    0  0.00000000000E+00 -0.00000000000E+00 -0.91265243395E+02  0.91265243395E+02  0.00000000000E+00 0. -1.
         23    2    1    2    0    0  0.18899842773E+02  0.16271594612E+02  0.11922774593E+01  0.91951676571E+02  0.88497008145E+02 0.  0.
         23    2    1    2    0    0 -0.18899842773E+02 -0.16271594612E+02  0.35924801689E+01  0.95363567847E+02  0.91974644933E+02 0.  0.
          5    1    4    4  502    0 -0.43618281026E+02 -0.57106183899E+01 -0.28967623155E+02  0.52880797964E+02  0.47000000000E+01 0. -1.
         -5    1    3    3    0  503  0.44900182606E+01  0.34593645537E+02  0.35641401037E+02  0.50092714474E+02  0.47000000000E+01 0.  1.
          5    1    3    3  503    0  0.14409824512E+02 -0.18322050925E+02 -0.34449123578E+02  0.41858962097E+02  0.47000000000E+01 0. -1.
         -5    1    4    4    0  502  0.24718438253E+02 -0.10560976222E+02  0.32560103324E+02  0.42482769883E+02  0.47000000000E+01 0.  1.
<mgrwt>
<rscale>  0 0.94446609E+02</rscale>
<asrwt>0</asrwt>
<pdfrwt beam="1">  1        1 0.14040807E-01 0.95295877E+02</pdfrwt>
<pdfrwt beam="2">  1       -1 0.14776923E-01 0.95295877E+02</pdfrwt>
<totfact> 0.12116207E+04</totfact>
</mgrwt>
</event>
<event>
 8    1  0.3177960E-004  0.1642955E+03  0.7546771E-02  0.1183955E+00
          2   -1    0    0  501    0  0.00000000000E+00  0.00000000000E+00  0.25877202310E+03  0.25877202310E+03  0.00000000000E+00 0. -1.
         -2   -1    0    0    0  501 -0.00000000000E+00 -0.00000000000E+00 -0.10576826299E+03  0.10576826299E+03  0.00000000000E+00 0.  1.
         23    2    1    2    0    0  0.63128523274E+02 -0.12199473467E+03  0.54691399284E+02  0.17307659443E+03  0.89980179175E+02 0.  0.
         23    2    1    2    0    0 -0.63128523274E+02  0.12199473467E+03  0.98312360819E+02  0.19146369166E+03  0.90139332134E+02 0.  0.
          5    1    4    4  502    0 -0.84471984952E+02  0.11172766011E+03  0.83388667712E+02  0.16307773048E+03  0.47000000000E+01 0. -1.
         -5    1    4    4    0  502  0.21343461678E+02  0.10267074559E+02  0.14923693107E+02  0.28385961184E+02  0.47000000000E+01 0.  1.
          5    1    3    3  503    0  0.54719939907E+02 -0.68329065200E+02  0.74521132864E+02  0.11505921179E+03  0.47000000000E+01 0. -1.
         -5    1    3    3    0  503  0.84085833674E+01 -0.53665669471E+02 -0.19829733581E+02  0.58017382636E+02  0.47000000000E+01 0.  1.
<mgrwt>
<rscale>  0 0.16427372E+03</rscale>
<asrwt>0</asrwt>
<pdfrwt beam="1">  1        2 0.39811080E-01 0.16429554E+03</pdfrwt>
<pdfrwt beam="2">  1       -2 0.16272041E-01 0.16429554E+03</pdfrwt>
<totfact> 0.37323500E+03</totfact>
</mgrwt>
</event>
<event>
 8    1  0.3177960E-004  0.1403604E+03  0.7546771E-02  0.1215193E+00
         -1   -1    0    0    0  501 -0.00000000000E+00  0.00000000000E+00  0.43022487766E+02  0.43022487766E+02  0.00000000000E+00 0.  1.
          1   -1    0    0  501    0  0.00000000000E+00 -0.00000000000E+00 -0.59864679526E+03  0.59864679526E+03  0.00000000000E+00 0. -1.
         23    2    1    2    0    0 -0.39489354045E+02 -0.87825312890E+02 -0.45007045515E+03  0.47144931940E+03  0.10211930035E+03 0.  0.
         23    2    1    2    0    0  0.39489354045E+02  0.87825312890E+02 -0.10555385235E+03  0.17021996362E+03  0.92523108481E+02 0.  0.
          5    1    3    3  502    0 -0.68446800956E+02 -0.29258260431E+02 -0.22496914675E+03  0.23701100682E+03  0.47000000000E+01 0. -1.
         -5    1    3    3    0  502  0.28957446912E+02 -0.58567052459E+02 -0.22510130840E+03  0.23443831259E+03  0.47000000000E+01 0.  1.
          5    1    4    4  503    0  0.17907994159E+02  0.96904756201E+01 -0.83508975971E+02  0.86083916269E+02  0.47000000000E+01 0. -1.
         -5    1    4    4    0  503  0.21581359886E+02  0.78134837270E+02 -0.22044876377E+02  0.84136047353E+02  0.47000000000E+01 0.  1.
<mgrwt>
<rscale>  0 0.13862361E+03</rscale>
<asrwt>0</asrwt>
<pdfrwt beam="1">  1        1 0.92099506E-01 0.14036042E+03</pdfrwt>
<pdfrwt beam="2">  1       -1 0.66188444E-02 0.14036042E+03</pdfrwt>
<totfact> 0.39491337E+03</totfact>
</mgrwt>
</event>
<event>
 8    1  0.3177960E-004  0.1761867E+03  0.7546771E-02  0.1172008E+00
          1   -1    0    0  501    0  0.00000000000E+00  0.00000000000E+00  0.10364907566E+04  0.10364907566E+04  0.00000000000E+00 0. -1.
         -1   -1    0    0    0  501 -0.00000000000E+00 -0.00000000000E+00 -0.43039297134E+02  0.43039297134E+02  0.00000000000E+00 0.  1.
         23    2    1    2    0    0  0.14905672880E+03 -0.18462504993E+02  0.19730993362E+03  0.26452401988E+03  0.92103065605E+02 0.  0.
         23    2    1    2    0    0 -0.14905672880E+03  0.18462504993E+02  0.79614152580E+03  0.81500603381E+03  0.88514030267E+02 0.  0.
          5    1    4    4  502    0 -0.11241259351E+03 -0.18435368474E+02  0.64748773208E+03  0.65744878674E+03  0.47000000000E+01 0. -1.
         -5    1    3    3    0  503  0.20580269631E+02  0.76405175575E+01 -0.53790183905E+01  0.23085684861E+02  0.47000000000E+01 0.  1.
          5    1    3    3  503    0  0.12847645917E+03 -0.26103022550E+02  0.20268895201E+03  0.24143833502E+03  0.47000000000E+01 0. -1.
         -5    1    4    4    0  502 -0.36644135297E+02  0.36897873466E+02  0.14865379372E+03  0.15755724708E+03  0.47000000000E+01 0.  1.
<mgrwt>
<rscale>  0 0.17572251E+03</rscale>
<asrwt>0</asrwt>
<pdfrwt beam="1">  1        1 0.15946010E+00 0.17618668E+03</pdfrwt>
<pdfrwt beam="2">  1       -1 0.66214311E-02 0.17618668E+03</pdfrwt>
<totfact> 0.17235200E+03</totfact>
</mgrwt>
</event>
<event>
 8    1  0.3177960E-004  0.1052783E+03  0.7546771E-02  0.1270436E+00
         -2   -1    0    0    0  501 -0.00000000000E+00  0.00000000000E+00  0.22650745120E+02  0.22650745120E+02  0.00000000000E+00 0.  1.
          2   -1    0    0  501    0  0.00000000000E+00 -0.00000000000E+00 -0.48638986804E+03  0.48638986804E+03  0.00000000000E+00 0. -1.
         23    2    1    2    0    0 -0.44672624220E+02 -0.16529721115E+02 -0.20761956119E+03  0.23278616724E+03  0.93886327196E+02 0.  0.
         23    2    1    2    0    0  0.44672624220E+02  0.16529721115E+02 -0.25611956172E+03  0.27625444591E+03  0.91926133145E+02 0.  0.
          5    1    3    3  502    0 -0.27011523831E+02 -0.49927126810E+02 -0.16989918434E+03  0.17919308929E+03  0.47000000000E+01 0. -1.
         -5    1    3    3    0  502 -0.17661100390E+02  0.33397405695E+02 -0.37720376857E+02  0.53593077952E+02  0.47000000000E+01 0.  1.
          5    1    4    4  503    0  0.37589973044E+02 -0.32359852388E+02 -0.89862461671E+02  0.10274978412E+03  0.47000000000E+01 0. -1.
         -5    1    4    4    0  503  0.70826511767E+01  0.48889573503E+02 -0.16625710005E+03  0.17350466179E+03  0.47000000000E+01 0.  1.
<mgrwt>
<rscale>  0 0.10483948E+03</rscale>
<asrwt>0</asrwt>
<pdfrwt beam="1">  1        2 0.74829207E-01 0.10527829E+03</pdfrwt>
<pdfrwt beam="2">  1       -2 0.34847302E-02 0.10527829E+03</pdfrwt>
<totfact> 0.19960771E+04</totfact>
</mgrwt>
</event>
<event>
 8    1  0.3177960E-004  0.9168142E+02  0.7546771E-02  0.1299449E+00
          1   -1    0    0  501    0  0.00000000000E+00  0.00000000000E+00  0.13972551093E+03  0.13972551093E+03  0.00000000000E+00 0. -1.
         -1   -1    0    0    0  501 -0.00000000000E+00 -0.00000000000E+00 -0.60131556329E+02  0.60131556329E+02  0.00000000000E+00 0.  1.
         23    2    1    2    0    0 -0.56476020956E+01 -0.93058966888E+01  0.29582897180E+02  0.96336030913E+02  0.91032894735E+02 0.  0.
         23    2    1    2    0    0  0.56476020956E+01  0.93058966888E+01  0.50011057419E+02  0.10352103634E+03  0.89983353900E+02 0.  0.
          5    1    4    4  502    0  0.42488161219E+02  0.51198524164E+01  0.50217190350E+02  0.66146148332E+02  0.47000000000E+01 0. -1.
         -5    1    4    4    0  502 -0.36840559123E+02  0.41860442725E+01 -0.20613293165E+00  0.37374888012E+02  0.47000000000E+01 0.  1.
          5    1    3    3  503    0  0.36222143967E+02  0.17067992094E+02  0.22374937620E+02  0.46109520722E+02  0.47000000000E+01 0. -1.
         -5    1    3    3    0  503 -0.41869746063E+02 -0.26373888783E+02  0.72079595602E+01  0.50226510191E+02  0.47000000000E+01 0.  1.
<mgrwt>
<rscale>  0 0.91419796E+02</rscale>
<asrwt>0</asrwt>
<pdfrwt beam="1">  1        1 0.21496232E-01 0.91681421E+02</pdfrwt>
<pdfrwt beam="2">  1       -1 0.92510087E-02 0.91681421E+02</pdfrwt>
<totfact> 0.14371900E+04</totfact>
</mgrwt>
</event>
<event>
 8    1  0.3177960E-004  0.1132050E+03  0.7546771E-02  0.1255055E+00
         -2   -1    0    0    0  501 -0.00000000000E+00  0.00000000000E+00  0.33065321568E+02  0.33065321568E+02  0.00000000000E+00 0.  1.
          2   -1    0    0  501    0  0.00000000000E+00 -0.00000000000E+00 -0.40257788697E+03  0.40257788697E+03  0.00000000000E+00 0. -1.
         23    2    1    2    0    0 -0.53024760960E+02 -0.41126773402E+02 -0.13899591237E+03  0.17882945342E+03  0.90316515601E+02 0.  0.
         23    2    1    2    0    0  0.53024760960E+02  0.41126773402E+02 -0.23051665303E+03  0.25681375512E+03  0.91172039167E+02 0.  0.
          5    1    3    3  502    0 -0.17109909239E+01 -0.32601643515E+02 -0.11802584649E+03  0.12254788896E+03  0.47000000000E+01 0. -1.
         -5    1    3    3    0  502 -0.51313770036E+02 -0.85251298866E+01 -0.20970065880E+02  0.56281564458E+02  0.47000000000E+01 0.  1.
          5    1    4    4  503    0  0.26877977812E+02  0.49154211203E+02 -0.22010719279E+03  0.22717356468E+03  0.47000000000E+01 0. -1.
         -5    1    4    4    0  503  0.26146783148E+02 -0.80274378011E+01 -0.10409460241E+02  0.29640190437E+02  0.47000000000E+01 0.  1.
<mgrwt>
<rscale>  0 0.11303266E+03</rscale>
<asrwt>0</asrwt>
<pdfrwt beam="1">  1        2 0.61935064E-01 0.11320502E+03</pdfrwt>
<pdfrwt beam="2">  1       -2 0.50869722E-02 0.11320502E+03</pdfrwt>
<totfact> 0.14049502E+04</totfact>
</mgrwt>
</event>
<event>
 8    1  0.3177960E-004  0.1131247E+03  0.7546771E-02  0.1258136E+00
         -2   -1    0    0    0  501 -0.00000000000E+00  0.00000000000E+00  0.11758802423E+03  0.11758802423E+03  0.00000000000E+00 0.  1.
          2   -1    0    0  501    0  0.00000000000E+00 -0.00000000000E+00 -0.10320131153E+03  0.10320131153E+03  0.00000000000E+00 0. -1.
         23    2    1    2    0    0 -0.17217827979E+02 -0.65285321647E+02  0.17974443559E+02  0.10760779298E+03  0.81839658275E+02 0.  0.
         23    2    1    2    0    0  0.17217827979E+02  0.65285321647E+02 -0.35877308530E+01  0.11318154277E+03  0.90766530116E+02 0.  0.
          5    1    3    3  502    0  0.19327951847E+02 -0.42865252362E+02 -0.18867830195E+02  0.50883048248E+02  0.47000000000E+01 0. -1.
         -5    1    4    4    0  503 -0.36905134090E+02  0.33686962811E+02  0.62886800100E+00  0.50192488089E+02  0.47000000000E+01 0.  1.
          5    1    4    4  503    0  0.54122962069E+02  0.31598358835E+02 -0.42165988540E+01  0.62989054685E+02  0.47000000000E+01 0. -1.
         -5    1    3    3    0  502 -0.36545779827E+02 -0.22420069284E+02  0.36842273754E+02  0.56724744735E+02  0.47000000000E+01 0.  1.
<mgrwt>
<rscale>  0 0.11132500E+03</rscale>
<asrwt>0</asrwt>
<pdfrwt beam="1">  1        2 0.15877125E-01 0.11312466E+03</pdfrwt>
<pdfrwt beam="2">  1       -2 0.18090465E-01 0.11312466E+03</pdfrwt>
<totfact> 0.84448447E+03</totfact>
</mgrwt>
</event>
<event>
 8    1  0.3177960E-004  0.1058074E+03  0.7546771E-02  0.1270679E+00
         -2   -1    0    0    0  501 -0.00000000000E+00  0.00000000000E+00  0.10283761474E+03  0.10283761474E+03  0.00000000000E+00 0.  1.
          2   -1    0    0  501    0  0.00000000000E+00 -0.00000000000E+00 -0.10662477230E+03  0.10662477230E+03  0.00000000000E+00 0. -1.
         23    2    1    2    0    0 -0.44757203214E+02  0.16610937153E+02  0.12967119051E+02  0.10233675057E+03  0.89585344050E+02 0.  0.
         23    2    1    2    0    0  0.44757203214E+02 -0.16610937153E+02 -0.16754276615E+02  0.10712563646E+03  0.94424921129E+02 0.  0.
          5    1    3    3  502    0 -0.16048775314E+01  0.37724153143E+02  0.32718254703E+02  0.50182283258E+02  0.47000000000E+01 0. -1.
         -5    1    3    3    0  502 -0.43152325683E+02 -0.21113215989E+02 -0.19751135653E+02  0.52154467314E+02  0.47000000000E+01 0.  1.
          5    1    4    4  503    0  0.39979775672E+02  0.30525829662E+02 -0.28612804114E+02  0.58060238533E+02  0.47000000000E+01 0. -1.
         -5    1    4    4    0  503  0.47774275423E+01 -0.47136766815E+02  0.11858527498E+02  0.49065397931E+02  0.47000000000E+01 0.  1.
<mgrwt>
<rscale>  0 0.10471674E+03</rscale>
<asrwt>0</asrwt>
<pdfrwt beam="1">  1        2 0.16403811E-01 0.10580735E+03</pdfrwt>
<pdfrwt beam="2">  1       -2 0.15821172E-01 0.10580735E+03</pdfrwt>
<totfact> 0.10084864E+04</totfact>
</mgrwt>
</event>
<event>
 8    1  0.3177960E-004  0.9966884E+02  0.7546771E-02  0.1282413E+00
         -1   -1    0    0    0  501 -0.00000000000E+00  0.00000000000E+00  0.18696736864E+02  0.18696736864E+02  0.00000000000E+00 0.  1.
          1   -1    0    0  501    0  0.00000000000E+00 -0.00000000000E+00 -0.57842280219E+03  0.57842280219E+03  0.00000000000E+00 0. -1.
         23    2    1    2    0    0  0.35419242080E+02 -0.53733912199E+01 -0.17943951887E+03  0.20398885534E+03  0.90163829365E+02 0.  0.
         23    2    1    2    0    0 -0.35419242080E+02  0.53733912199E+01 -0.38028654646E+03  0.39313068372E+03  0.93007962154E+02 0.  0.
          5    1    3    3  502    0 -0.11664348170E+02  0.27677671504E+02 -0.10772737068E+03  0.11193474398E+03  0.47000000000E+01 0. -1.
         -5    1    3    3    0  502  0.47083590250E+02 -0.33051062724E+02 -0.71712148199E+02  0.92054111355E+02  0.47000000000E+01 0.  1.
          5    1    4    4  503    0 -0.37828730440E+02  0.32318737346E+02 -0.34407734018E+03  0.34768781925E+03  0.47000000000E+01 0. -1.
         -5    1    4    4    0  503  0.24094883603E+01 -0.26945346126E+02 -0.36209206276E+02  0.45442864469E+02  0.47000000000E+01 0.  1.
<mgrwt>
<rscale>  0 0.98999966E+02</rscale>
<asrwt>0</asrwt>
<pdfrwt beam="1">  1        1 0.88988106E-01 0.99668837E+02</pdfrwt>
<pdfrwt beam="2">  1       -1 0.28764216E-02 0.99668837E+02</pdfrwt>
<totfact> 0.13754188E+04</totfact>
</mgrwt>
</event>
<event>
 8    1  0.3177960E-004  0.9801411E+02  0.7546771E-02  0.1284850E+00
         -2   -1    0    0    0  501 -0.00000000000E+00  0.00000000000E+00  0.95281106159E+02  0.95281106159E+02  0.00000000000E+00 0.  1.
          2   -1    0    0  501    0  0.00000000000E+00 -0.00000000000E+00 -0.10028868025E+03  0.10028868025E+03  0.00000000000E+00 0. -1.
         23    2    1    2    0    0 -0.27679408834E+02  0.22201725936E+02 -0.51339369037E+01  0.98148475449E+02  0.91365746409E+02 0.  0.
         23    2    1    2    0    0  0.27679408834E+02 -0.22201725936E+02  0.12636281008E+00  0.97421310964E+02  0.90729430475E+02 0.  0.
          5    1    3    3  502    0  0.13528305700E+02  0.37370253706E+02  0.22638610401E+02  0.45979860788E+02  0.47000000000E+01 0. -1.
         -5    1    4    4    0  503  0.19729404698E+02 -0.56471547545E+02  0.94058479843E+01  0.60735863114E+02  0.47000000000E+01 0.  1.
          5    1    4    4  503    0  0.79500041356E+01  0.34269821609E+02 -0.92794851743E+01  0.36685447850E+02  0.47000000000E+01 0. -1.
         -5    1    3    3    0  502 -0.41207714534E+02 -0.15168527770E+02 -0.27772547305E+02  0.52168614661E+02  0.47000000000E+01 0.  1.
<mgrwt>
<rscale>  0 0.97865553E+02</rscale>
<asrwt>0</asrwt>
<pdfrwt beam="1">  1        2 0.15429028E-01 0.98014111E+02</pdfrwt>
<pdfrwt beam="2">  1       -2 0.14658632E-01 0.98014111E+02</pdfrwt>
<totfact> 0.12164425E+04</totfact>
</mgrwt>
</event>
<event>
 8    1  0.3177960E-004  0.9671596E+02  0.7546771E-02  0.1288007E+00
          1   -1    0    0  501    0  0.00000000000E+00  0.00000000000E+00  0.18468978340E+03  0.18468978340E+03  0.00000000000E+00 0. -1.
         -1   -1    0    0    0  501 -0.00000000000E+00 -0.00000000000E+00 -0.57286051699E+02  0.57286051699E+02  0.00000000000E+00 0.  1.
         23    2    1    2    0    0 -0.16736797625E+02  0.27261043276E+02  0.20994730345E+02  0.98968453181E+02  0.91272619923E+02 0.  0.
         23    2    1    2    0    0  0.16736797625E+02 -0.27261043276E+02  0.10640900136E+03  0.14300738192E+03  0.90027500454E+02 0.  0.
          5    1    3    3  502    0 -0.18597166544E+01 -0.23093310167E+02  0.36972636912E+02  0.43884227243E+02  0.47000000000E+01 0. -1.
         -5    1    3    3    0  502 -0.14877080971E+02  0.50354353443E+02 -0.15977906567E+02  0.55084225938E+02  0.47000000000E+01 0.  1.
          5    1    4    4  503    0  0.34823937324E+02 -0.11206142528E+02  0.11185182180E+03  0.11777607686E+03  0.47000000000E+01 0. -1.
         -5    1    4    4    0  503 -0.18087139699E+02 -0.16054900748E+02 -0.54428204412E+01  0.25231305057E+02  0.47000000000E+01 0.  1.
<mgrwt>
<rscale>  0 0.96421071E+02</rscale>
<asrwt>0</asrwt>
<pdfrwt beam="1">  1        1 0.28413813E-01 0.96715955E+02</pdfrwt>
<pdfrwt beam="2">  1       -1 0.88132388E-02 0.96715955E+02</pdfrwt>
<totfact> 0.10987588E+04</totfact>
</mgrwt>
</event>
<event>
 8    1  0.3177960E-004  0.1152363E+03  0.7546771E-02  0.1253903E+00
         -2   -1    0    0    0  501 -0.00000000000E+00  0.00000000000E+00  0.37492942054E+02  0.37492942054E+02  0.00000000000E+00 0.  1.
          2   -1    0    0  501    0  0.00000000000E+00 -0.00000000000E+00 -0.60514763471E+03  0.60514763471E+03  0.00000000000E+00 0. -1.
         23    2    1    2    0    0 -0.57742040102E+02 -0.14360052319E+02 -0.65174876623E+02  0.12711621049E+03  0.91489956431E+02 0.  0.
         23    2    1    2    0    0  0.57742040102E+02  0.14360052319E+02 -0.50247981603E+03  0.51552436628E+03  0.98686637439E+02 0.  0.
          5    1    3    3  502    0 -0.30250523917E+02 -0.66688826189E+01 -0.85960349342E+02  0.91492293946E+02  0.47000000000E+01 0. -1.
         -5    1    4    4    0  503 -0.71099688839E+01  0.41459203458E+02 -0.13980477770E+03  0.14607149987E+03  0.47000000000E+01 0.  1.
          5    1    4    4  503    0  0.64852008986E+02 -0.27099151139E+02 -0.36267503834E+03  0.36945286641E+03  0.47000000000E+01 0. -1.
         -5    1    3    3    0  502 -0.27491516185E+02 -0.76911696999E+01  0.20785472719E+02  0.35623916540E+02  0.47000000000E+01 0.  1.
<mgrwt>
<rscale>  0 0.11368010E+03</rscale>
<asrwt>0</asrwt>
<pdfrwt beam="1">  1        2 0.93099632E-01 0.11523631E+03</pdfrwt>
<pdfrwt beam="2">  1       -2 0.57681452E-02 0.11523631E+03</pdfrwt>
<totfact> 0.74666573E+03</totfact>
</mgrwt>
</event>
<event>
 8    1  0.3177960E-004  0.1197348E+03  0.7546771E-02  0.1245820E+00
          1   -1    0    0  501    0  0.00000000000E+00  0.00000000000E+00  0.15669989453E+03  0.15669989453E+03  0.00000000000E+00 0. -1.
         -1   -1    0    0    0  501 -0.00000000000E+00 -0.00000000000E+00 -0.87504311968E+02  0.87504311968E+02  0.00000000000E+00 0.  1.
         23    2    1    2    0    0 -0.38632689043E+02 -0.57623251121E+02  0.29981867234E+02  0.11821161371E+03  0.90896366922E+02 0.  0.
         23    2    1    2    0    0  0.38632689043E+02  0.57623251121E+02  0.39213715333E+02  0.12599259280E+03  0.97588391918E+02 0.  0.
          5    1    3    3  502    0 -0.53409910024E+02 -0.43274738325E+01  0.32144965398E+02  0.62663660274E+02  0.47000000000E+01 0. -1.
         -5    1    3    3    0  502  0.14777220981E+02 -0.53295777289E+02 -0.21630981642E+01  0.55547953431E+02  0.47000000000E+01 0.  1.
          5    1    4    4  503    0  0.67246292693E+02  0.42687355186E+02  0.46803353178E+02  0.92503610970E+02  0.47000000000E+01 0. -1.
         -5    1    4    4    0  503 -0.28613603650E+02  0.14935895935E+02 -0.75896378445E+01  0.33488981827E+02  0.47000000000E+01 0.  1.
<mgrwt>
<rscale>  0 0.11836431E+03</rscale>
<asrwt>0</asrwt>
<pdfrwt beam="1">  1        1 0.24107676E-01 0.11973478E+03</pdfrwt>
<pdfrwt beam="2">  1       -1 0.13462202E-01 0.11973478E+03</pdfrwt>
<totfact> 0.71901947E+03</totfact>
</mgrwt>
</event>
<event>
 8    1  0.3177960E-004  0.2035927E+03  0.7546771E-02  0.1146817E+00
         -1   -1    0    0    0  501 -0.00000000000E+00  0.00000000000E+00  0.23903873498E+03  0.23903873498E+03  0.00000000000E+00 0.  1.
          1   -1    0    0  501    0  0.00000000000E+00 -0.00000000000E+00 -0.60322997379E+03  0.60322997379E+03  0.00000000000E+00 0. -1.
         23    2    1    2    0    0  0.15098744126E+03 -0.10204525540E+03  0.17356729265E+03  0.26726068696E+03  0.89956812690E+02 0.  0.
         23    2    1    2    0    0 -0.15098744126E+03  0.10204525540E+03 -0.53775853146E+03  0.57500802182E+03  0.90771941855E+02 0.  0.
          5    1    3    3  502    0  0.46449726205E+02  0.12197771279E+02  0.43811114780E+02  0.65175658547E+02  0.47000000000E+01 0. -1.
         -5    1    4    4    0  503 -0.52435153237E+01  0.44309490921E+02 -0.15505391391E+03  0.16141447165E+03  0.47000000000E+01 0.  1.
          5    1    4    4  503    0 -0.14574392594E+03  0.57735764482E+02 -0.38270461755E+03  0.41359355017E+03  0.47000000000E+01 0. -1.
         -5    1    3    3    0  502  0.10453771506E+03 -0.11424302668E+03  0.12975617787E+03  0.20208502841E+03  0.47000000000E+01 0.  1.
<mgrwt>
<rscale>  0 0.20350211E+03</rscale>
<asrwt>0</asrwt>
<pdfrwt beam="1">  1        1 0.92804610E-01 0.20359270E+03</pdfrwt>
<pdfrwt beam="2">  1       -1 0.36775191E-01 0.20359270E+03</pdfrwt>
<totfact> 0.25472259E+02</totfact>
</mgrwt>
</event>
<event>
 8    1  0.3177960E-004  0.2342977E+03  0.7546771E-02  0.1123672E+00
          1   -1    0    0  501    0  0.00000000000E+00  0.00000000000E+00  0.87503596577E+03  0.87503596577E+03  0.00000000000E+00 0. -1.
         -1   -1    0    0    0  501 -0.00000000000E+00 -0.00000000000E+00 -0.72569641895E+02  0.72569641895E+02  0.00000000000E+00 0.  1.
         23    2    1    2    0    0 -0.45340131312E+02 -0.21050382763E+03  0.57585286965E+03  0.62164687829E+03  0.92036540902E+02 0.  0.
         23    2    1    2    0    0  0.45340131312E+02  0.21050382763E+03  0.22661345423E+03  0.32595872937E+03  0.92346340818E+02 0.  0.
          5    1    3    3  502    0 -0.44031701252E+02 -0.16424007652E+03  0.52877180169E+03  0.55545954102E+03  0.47000000000E+01 0. -1.
         -5    1    3    3    0  502 -0.13084300600E+01 -0.46263751102E+02  0.47081067960E+02  0.66187337275E+02  0.47000000000E+01 0.  1.
          5    1    4    4  503    0 -0.14752125694E+02  0.21586214499E+02  0.64739906681E+02  0.69978106476E+02  0.47000000000E+01 0. -1.
         -5    1    4    4    0  503  0.60092257006E+02  0.18891761313E+03  0.16187354755E+03  0.25598062290E+03  0.47000000000E+01 0.  1.
<mgrwt>
<rscale>  0 0.23426726E+03</rscale>
<asrwt>0</asrwt>
<pdfrwt beam="1">  1        1 0.13462091E+00 0.23429775E+03</pdfrwt>
<pdfrwt beam="2">  1       -1 0.11164561E-01 0.23429775E+03</pdfrwt>
<totfact> 0.10282725E+03</totfact>
</mgrwt>
</event>
<event>
 8    1  0.3177960E-004  0.2376694E+03  0.7546771E-02  0.1121733E+00
          3   -1    0    0  501    0  0.00000000000E+00  0.00000000000E+00  0.13737955046E+03  0.13737955046E+03  0.00000000000E+00 0. -1.
         -3   -1    0    0    0  501 -0.00000000000E+00 -0.00000000000E+00 -0.49714385947E+03  0.49714385947E+03  0.00000000000E+00 0.  1.
         23    2    1    2    0    0 -0.21131773098E+03 -0.49044867930E+02 -0.45724526417E+02  0.24202780117E+03  0.97088319209E+02 0.  0.
         23    2    1    2    0    0  0.21131773098E+03  0.49044867930E+02 -0.31403978259E+03  0.39249560876E+03  0.91494455285E+02 0.  0.
          5    1    4    4  502    0  0.10655161488E+02  0.30707677388E+02 -0.32122962021E+02  0.45939836807E+02  0.47000000000E+01 0. -1.
         -5    1    3    3    0  503 -0.25535617742E+02  0.10636615320E+02  0.21753428753E+02  0.35503619836E+02  0.47000000000E+01 0.  1.
          5    1    3    3  503    0 -0.18578211323E+03 -0.59681483250E+02 -0.67477955171E+02  0.20652418133E+03  0.47000000000E+01 0. -1.
         -5    1    4    4    0  502  0.20066256949E+03  0.18337190542E+02 -0.28191682057E+03  0.34655577195E+03  0.47000000000E+01 0.  1.
<mgrwt>
<rscale>  0 0.23710995E+03</rscale>
<asrwt>0</asrwt>
<pdfrwt beam="1">  1        3 0.21135316E-01 0.23766936E+03</pdfrwt>
<pdfrwt beam="2">  1       -3 0.76483670E-01 0.23766936E+03</pdfrwt>
<totfact> 0.82843646E+01</totfact>
</mgrwt>
</event>
<event>
 8    1  0.3177960E-004  0.1652823E+03  0.7546771E-02  0.1183121E+00
         -4   -1    0    0    0  501 -0.00000000000E+00  0.00000000000E+00  0.10960755093E+03  0.10960755093E+03  0.00000000000E+00 0.  1.
          4   -1    0    0  501    0  0.00000000000E+00 -0.00000000000E+00 -0.38110155694E+03  0.38110155694E+03  0.00000000000E+00 0. -1.
         23    2    1    2    0    0  0.13430138004E+03  0.26735724962E+02 -0.28060598445E+03  0.32517586713E+03  0.90818315237E+02 0.  0.
         23    2    1    2    0    0 -0.13430138004E+03 -0.26735724962E+02  0.91119784331E+01  0.16553324074E+03  0.92555745202E+02 0.  0.
          5    1    3    3  502    0  0.84237760462E+02 -0.21553550648E+02 -0.10609413900E+03  0.13725382386E+03  0.47000000000E+01 0. -1.
         -5    1    4    4    0  503 -0.58335136443E+02  0.10063359777E+01  0.47977172451E+02  0.75682890618E+02  0.47000000000E+01 0.  1.
          5    1    4    4  503    0 -0.75966243598E+02 -0.27742060940E+02 -0.38865194018E+02  0.89850350125E+02  0.47000000000E+01 0. -1.
         -5    1    3    3    0  502  0.50063619578E+02  0.48289275610E+02 -0.17451184545E+03  0.18792204327E+03  0.47000000000E+01 0.  1.
<mgrwt>
<rscale>  0 0.16504007E+03</rscale>
<asrwt>0</asrwt>
<pdfrwt beam="1">  1        4 0.58631009E-01 0.16528226E+03</pdfrwt>
<pdfrwt beam="2">  1       -4 0.16862700E-01 0.16528226E+03</pdfrwt>
<totfact> 0.14750449E+02</totfact>
</mgrwt>
</event>
<event>
 8    1  0.3177960E-004  0.1156390E+03  0.7546771E-02  0.1251986E+00
          1   -1    0    0  501    0  0.00000000000E+00  0.00000000000E+00  0.39937349955E+03  0.39937349955E+03  0.00000000000E+00 0. -1.
         -1   -1    0    0    0  501 -0.00000000000E+00 -0.00000000000E+00 -0.48189259832E+02  0.48189259832E+02  0.00000000000E+00 0.  1.
         23    2    1    2    0    0  0.52798890519E+02  0.53929158130E+02  0.30508381187E+03  0.32626448252E+03  0.87614515638E+02 0.  0.
         23    2    1    2    0    0 -0.52798890519E+02 -0.53929158130E+02  0.46100427844E+02  0.12129827686E+03  0.83017742594E+02 0.  0.
          5    1    4    4  502    0 -0.37675132693E+02 -0.11547301311E+02  0.61768488210E+02  0.73417926467E+02  0.47000000000E+01 0. -1.
         -5    1    4    4    0  502 -0.15123757826E+02 -0.42381856819E+02 -0.15668060366E+02  0.47880350394E+02  0.47000000000E+01 0.  1.
          5    1    3    3  503    0  0.31883662910E+02  0.72514907053E+01  0.24784827531E+02  0.41298059928E+02  0.47000000000E+01 0. -1.
         -5    1    3    3    0  503  0.20915227608E+02  0.46677667425E+02  0.28029898434E+03  0.28496642259E+03  0.47000000000E+01 0.  1.
<mgrwt>
<rscale>  0 0.11476857E+03</rscale>
<asrwt>0</asrwt>
<pdfrwt beam="1">  1        1 0.61442075E-01 0.11563901E+03</pdfrwt>
<pdfrwt beam="2">  1       -1 0.74137325E-02 0.11563901E+03</pdfrwt>
<totfact> 0.55826726E+03</totfact>
</mgrwt>
</event>
<event>
 8    1  0.3177960E-004  0.9783528E+02  0.7546771E-02  0.1285265E+00
         -3   -1    0    0    0  501 -0.00000000000E+00  0.00000000000E+00  0.65074645622E+02  0.65074645622E+02  0.00000000000E+00 0.  1.
          3   -1    0    0  501    0  0.00000000000E+00 -0.00000000000E+00 -0.19390776967E+03  0.19390776967E+03  0.00000000000E+00 0. -1.
         23    2    1    2    0    0  0.19004818907E+02  0.34810087404E+02 -0.12853866871E+03  0.16114669271E+03  0.88730726866E+02 0.  0.
         23    2    1    2    0    0 -0.19004818907E+02 -0.34810087404E+02 -0.29445533547E+00  0.97835722581E+02  0.89436103349E+02 0.  0.
          5    1    3    3  502    0  0.23852176681E+02  0.56380349192E+02 -0.49282669345E+02  0.78730817379E+02  0.47000000000E+01 0. -1.
         -5    1    3    3    0  502 -0.48473577739E+01 -0.21570261787E+02 -0.79255999363E+02  0.82415875327E+02  0.47000000000E+01 0.  1.
          5    1    4    4  503    0 -0.25247083456E+02  0.24324394993E+02 -0.11396920426E+02  0.37162766447E+02  0.47000000000E+01 0. -1.
         -5    1    4    4    0  503  0.62422645483E+01 -0.59134482397E+02  0.11102465091E+02  0.60672956135E+02  0.47000000000E+01 0.  1.
<mgrwt>
<rscale>  0 0.97673780E+02</rscale>
<asrwt>0</asrwt>
<pdfrwt beam="1">  1        3 0.29831964E-01 0.97835279E+02</pdfrwt>
<pdfrwt beam="2">  1       -3 0.10011484E-01 0.97835279E+02</pdfrwt>
<totfact> 0.17269831E+03</totfact>
</mgrwt>
</event>
<event>
 8    1  0.3177960E-004  0.9706200E+02  0.7546771E-02  0.1287444E+00
          1   -1    0    0  501    0  0.00000000000E+00  0.00000000000E+00  0.14663074667E+03  0.14663074667E+03  0.00000000000E+00 0. -1.
         -1   -1    0    0    0  501 -0.00000000000E+00 -0.00000000000E+00 -0.15103730665E+03  0.15103730665E+03  0.00000000000E+00 0.  1.
         23    2    1    2    0    0 -0.20242239994E+01  0.32956944027E+02 -0.11568469106E+03  0.15100986896E+03  0.91273080017E+02 0.  0.
         23    2    1    2    0    0  0.20242239994E+01 -0.32956944027E+02  0.11127813107E+03  0.14665818436E+03  0.89641189992E+02 0.  0.
          5    1    4    4  502    0  0.44193776236E+01  0.28311304023E+02  0.59737009297E+02  0.66420336598E+02  0.47000000000E+01 0. -1.
         -5    1    4    4    0  502 -0.23951536241E+01 -0.61268248050E+02  0.51541121774E+02  0.80237847764E+02  0.47000000000E+01 0.  1.
          5    1    3    3  503    0  0.23337609685E+02  0.38529211444E+02 -0.16225178595E+02  0.48109152775E+02  0.47000000000E+01 0. -1.
         -5    1    3    3    0  503 -0.25361833685E+02 -0.55722674170E+01 -0.99459512463E+02  0.10290071618E+03  0.47000000000E+01 0.  1.
<mgrwt>
<rscale>  0 0.96676477E+02</rscale>
<asrwt>0</asrwt>
<pdfrwt beam="1">  1        1 0.22558576E-01 0.97062005E+02</pdfrwt>
<pdfrwt beam="2">  1       -1 0.23236509E-01 0.97062005E+02</pdfrwt>
<totfact> 0.32528563E+03</totfact>
</mgrwt>
</event>
<event>
 8    1  0.3177960E-004  0.1125743E+03  0.7546771E-02  0.1256326E+00
         -2   -1    0    0    0  501 -0.00000000000E+00  0.00000000000E+00  0.47211394845E+02  0.47211394845E+02  0.00000000000E+00 0.  1.
          2   -1    0    0  501    0  0.00000000000E+00 -0.00000000000E+00 -0.44474081794E+03  0.44474081794E+03  0.00000000000E+00 0. -1.
         23    2    1    2    0    0 -0.56878328367E+02  0.36088947626E+02 -0.35414763846E+03  0.37130832346E+03  0.88948102110E+02 0.  0.
         23    2    1    2    0    0  0.56878328367E+02 -0.36088947626E+02 -0.43381784637E+02  0.12064388932E+03  0.90196521074E+02 0.  0.
          5    1    4    4  502    0  0.33101004641E+02  0.11930382970E+02 -0.55145603019E+02  0.65583062435E+02  0.47000000000E+01 0. -1.
         -5    1    4    4    0  502  0.23777323726E+02 -0.48019330596E+02  0.11763818382E+02  0.55060826886E+02  0.47000000000E+01 0.  1.
          5    1    3    3  503    0 -0.19038186851E+02  0.62009711389E+02 -0.22310301581E+03  0.23238911878E+03  0.47000000000E+01 0. -1.
         -5    1    3    3    0  503 -0.37840141516E+02 -0.25920763763E+02 -0.13104462265E+03  0.13891920468E+03  0.47000000000E+01 0.  1.
<mgrwt>
<rscale>  0 0.11232401E+03</rscale>
<asrwt>0</asrwt>
<pdfrwt beam="1">  1        2 0.68421665E-01 0.11257428E+03</pdfrwt>
<pdfrwt beam="2">  1       -2 0.72632914E-02 0.11257428E+03</pdfrwt>
<totfact> 0.73734723E+03</totfact>
</mgrwt>
</event>
<event>
 8    1  0.3177960E-004  0.1083506E+03  0.7546771E-02  0.1268349E+00
         -1   -1    0    0    0  501 -0.00000000000E+00  0.00000000000E+00  0.10484018977E+03  0.10484018977E+03  0.00000000000E+00 0.  1.
          1   -1    0    0  501    0  0.00000000000E+00 -0.00000000000E+00 -0.11195619379E+03  0.11195619379E+03  0.00000000000E+00 0. -1.
         23    2    1    2    0    0 -0.31645109566E+02  0.20185609147E+02  0.27907247040E+02  0.11188683183E+03  0.10164141342E+03 0.  0.
         23    2    1    2    0    0  0.31645109566E+02 -0.20185609147E+02 -0.35023251053E+02  0.10490955173E+03  0.91490514012E+02 0.  0.
          5    1    4    4  502    0 -0.17419539520E+02 -0.32366378399E+02 -0.39229499770E+02  0.53963566042E+02  0.47000000000E+01 0. -1.
         -5    1    4    4    0  502  0.49064649086E+02  0.12180769253E+02  0.42062487171E+01  0.50945985689E+02  0.47000000000E+01 0.  1.
          5    1    3    3  503    0 -0.50796791005E+02 -0.24113031389E+02  0.10053038608E+01  0.56434500928E+02  0.47000000000E+01 0. -1.
         -5    1    3    3    0  503  0.19151681439E+02  0.44298640536E+02  0.26901943179E+02  0.55452330898E+02  0.47000000000E+01 0.  1.
<mgrwt>
<rscale>  0 0.10590401E+03</rscale>
<asrwt>0</asrwt>
<pdfrwt beam="1">  1        1 0.17224030E-01 0.10835058E+03</pdfrwt>
<pdfrwt beam="2">  1       -1 0.16129260E-01 0.10835058E+03</pdfrwt>
<totfact> 0.82325945E+03</totfact>
</mgrwt>
</event>
<event>
 8    1  0.3177960E-004  0.1210284E+03  0.7546771E-02  0.1242706E+00
          1   -1    0    0  501    0  0.00000000000E+00  0.00000000000E+00  0.76163908024E+03  0.76163908024E+03  0.00000000000E+00 0. -1.
         -1   -1    0    0    0  501 -0.00000000000E+00 -0.00000000000E+00 -0.18957330646E+02  0.18957330646E+02  0.00000000000E+00 0.  1.
         23    2    1    2    0    0  0.35430231686E+02  0.66306881884E+02  0.40855943621E+03  0.42522956089E+03  0.90815541782E+02 0.  0.
         23    2    1    2    0    0 -0.35430231686E+02 -0.66306881884E+02  0.33412231338E+03  0.35536685000E+03  0.94847107904E+02 0.  0.
          5    1    4    4  502    0 -0.21877797153E+02  0.88824750332E+01  0.17869546557E+02  0.29982445950E+02  0.47000000000E+01 0. -1.
         -5    1    4    4    0  502 -0.13552434533E+02 -0.75189356917E+02  0.31625276682E+03  0.32538440405E+03  0.47000000000E+01 0.  1.
          5    1    3    3  503    0  0.18858551497E+02  0.86743484026E+02  0.34522849153E+03  0.35648966093E+03  0.47000000000E+01 0. -1.
         -5    1    3    3    0  503  0.16571680190E+02 -0.20436602142E+02  0.63330944681E+02  0.68739899954E+02  0.47000000000E+01 0.  1.
<mgrwt>
<rscale>  0 0.12023749E+03</rscale>
<asrwt>0</asrwt>
<pdfrwt beam="1">  1        1 0.11717522E+00 0.12102842E+03</pdfrwt>
<pdfrwt beam="2">  1       -1 0.29165130E-02 0.12102842E+03</pdfrwt>
<totfact> 0.93192916E+03</totfact>
</mgrwt>
</event>
<event>
 8    1  0.3177960E-004  0.1898423E+03  0.7546771E-02  0.1158647E+00
         -1   -1    0    0    0  501 -0.00000000000E+00  0.00000000000E+00  0.69340762822E+02  0.69340762822E+02  0.00000000000E+00 0.  1.
          1   -1    0    0  501    0  0.00000000000E+00 -0.00000000000E+00 -0.11680216278E+04  0.11680216278E+04  0.00000000000E+00 0. -1.
         23    2    1    2    0    0 -0.29632288131E+02  0.16358902734E+03 -0.88364641029E+02  0.20940007855E+03  0.91655009394E+02 0.  0.
         23    2    1    2    0    0  0.29632288131E+02 -0.16358902734E+03 -0.10103162239E+04  0.10279623120E+04  0.91258973806E+02 0.  0.
          5    1    4    4  502    0  0.59254247642E+02 -0.11798311912E+03 -0.62593442213E+03  0.63972421641E+03  0.47000000000E+01 0. -1.
         -5    1    4    4    0  502 -0.29621959511E+02 -0.45605908220E+02 -0.38438180178E+03  0.38823809562E+03  0.47000000000E+01 0.  1.
          5    1    3    3  503    0 -0.50335648145E+02  0.79414924623E+02 -0.77451542535E+02  0.12190668221E+03  0.47000000000E+01 0. -1.
         -5    1    3    3    0  503  0.20703360014E+02  0.84174102714E+02 -0.10913098493E+02  0.87493396335E+02  0.47000000000E+01 0.  1.
<mgrwt>
<rscale>  0 0.18979452E+03</rscale>
<asrwt>0</asrwt>
<pdfrwt beam="1">  1        1 0.17969563E+00 0.18984226E+03</pdfrwt>
<pdfrwt beam="2">  1       -1 0.10667810E-01 0.18984226E+03</pdfrwt>
<totfact> 0.67120453E+02</totfact>
</mgrwt>
</event>
<event>
 8    1  0.3177960E-004  0.9359864E+02  0.7546771E-02  0.1295168E+00
         -1   -1    0    0    0  501 -0.00000000000E+00  0.00000000000E+00  0.35270347558E+02  0.35270347558E+02  0.00000000000E+00 0.  1.
          1   -1    0    0  501    0  0.00000000000E+00 -0.00000000000E+00 -0.31314059098E+03  0.31314059098E+03  0.00000000000E+00 0. -1.
         23    2    1    2    0    0  0.13149145618E+02  0.13650216592E+02 -0.56691362195E+02  0.10824265661E+03  0.90240421759E+02 0.  0.
         23    2    1    2    0    0 -0.13149145618E+02 -0.13650216592E+02 -0.22117888122E+03  0.24016828192E+03  0.91659575056E+02 0.  0.
          5    1    4    4  502    0 -0.21952634556E+02 -0.37703848959E+02 -0.20470024380E+03  0.20935084954E+03  0.47000000000E+01 0. -1.
         -5    1    3    3    0  503  0.37495410790E+02  0.28930774730E+02 -0.36513145499E+01  0.47731725872E+02  0.47000000000E+01 0.  1.
          5    1    3    3  503    0 -0.24346265171E+02 -0.15280558138E+02 -0.53040047645E+02  0.60510930740E+02  0.47000000000E+01 0. -1.
         -5    1    4    4    0  502  0.88034889372E+01  0.24053632367E+02 -0.16478637421E+02  0.30817432384E+02  0.47000000000E+01 0.  1.
<mgrwt>
<rscale>  0 0.93249367E+02</rscale>
<asrwt>0</asrwt>
<pdfrwt beam="1">  1        1 0.48175477E-01 0.93598644E+02</pdfrwt>
<pdfrwt beam="2">  1       -1 0.54262071E-02 0.93598644E+02</pdfrwt>
<totfact> 0.11791186E+04</totfact>
</mgrwt>
</event>
<event>
 8    1  0.3177960E-004  0.1939953E+03  0.7546771E-02  0.1155693E+00
          1   -1    0    0  501    0  0.00000000000E+00  0.00000000000E+00  0.17878006848E+03  0.17878006848E+03  0.00000000000E+00 0. -1.
         -1   -1    0    0    0  501 -0.00000000000E+00 -0.00000000000E+00 -0.20906178601E+03  0.20906178601E+03  0.00000000000E+00 0.  1.
         23    2    1    2    0    0  0.88995558755E+02  0.14570035867E+03  0.57226302399E+01  0.19053371379E+03  0.84389238642E+02 0.  0.
         23    2    1    2    0    0 -0.88995558755E+02 -0.14570035867E+03 -0.36004347767E+02  0.19730814070E+03  0.92116151323E+02 0.  0.
          5    1    3    3  502    0  0.65616095696E+02  0.14587265489E+03  0.22192273357E+02  0.16155151022E+03  0.47000000000E+01 0. -1.
         -5    1    3    3    0  502  0.23379463059E+02 -0.17229622304E+00 -0.16469643117E+02  0.28982203562E+02  0.47000000000E+01 0.  1.
          5    1    4    4  503    0  0.18603176391E+02 -0.17103858513E+02  0.20299054598E+00  0.25705084187E+02  0.47000000000E+01 0. -1.
         -5    1    4    4    0  503 -0.10759873515E+03 -0.12859650015E+03 -0.36207338313E+02  0.17160305651E+03  0.47000000000E+01 0.  1.
<mgrwt>
<rscale>  0 0.19310229E+03</rscale>
<asrwt>0</asrwt>
<pdfrwt beam="1">  1        1 0.27504626E-01 0.19399533E+03</pdfrwt>
<pdfrwt beam="2">  1       -1 0.32163351E-01 0.19399533E+03</pdfrwt>
<totfact> 0.15203872E+03</totfact>
</mgrwt>
</event>
<event>
 8    1  0.3177960E-004  0.1359514E+03  0.7546771E-02  0.1219121E+00
         -2   -1    0    0    0  501 -0.00000000000E+00  0.00000000000E+00  0.22560889423E+02  0.22560889423E+02  0.00000000000E+00 0.  1.
          2   -1    0    0  501    0  0.00000000000E+00 -0.00000000000E+00 -0.88497423442E+03  0.88497423442E+03  0.00000000000E+00 0. -1.
         23    2    1    2    0    0 -0.54698826873E+02  0.84071247479E+02 -0.55766546008E+03  0.57383755183E+03  0.90768024144E+02 0.  0.
         23    2    1    2    0    0  0.54698826873E+02 -0.84071247479E+02 -0.30474788492E+03  0.33369757201E+03  0.91776140111E+02 0.  0.
          5    1    4    4  502    0  0.48905178882E+02 -0.10378756943E+03 -0.25440948353E+03  0.27912336233E+03  0.47000000000E+01 0. -1.
         -5    1    4    4    0  502  0.57936479908E+01  0.19716321951E+02 -0.50338401388E+02  0.54574209684E+02  0.47000000000E+01 0.  1.
          5    1    3    3  503    0  0.66810236194E+01  0.40806028038E+02 -0.35894292178E+03  0.36134731090E+03  0.47000000000E+01 0. -1.
         -5    1    3    3    0  503 -0.61379850492E+02  0.43265219441E+02 -0.19872253830E+03  0.21249024093E+03  0.47000000000E+01 0.  1.
<mgrwt>
<rscale>  0 0.13578150E+03</rscale>
<asrwt>0</asrwt>
<pdfrwt beam="1">  1        2 0.13614986E+00 0.13595145E+03</pdfrwt>
<pdfrwt beam="2">  1       -2 0.34709066E-02 0.13595145E+03</pdfrwt>
<totfact> 0.10173417E+04</totfact>
</mgrwt>
</event>
<event>
 8    1  0.3177960E-004  0.1013921E+03  0.7546771E-02  0.1277834E+00
         -1   -1    0    0    0  501 -0.00000000000E+00  0.00000000000E+00  0.10780377085E+03  0.10780377085E+03  0.00000000000E+00 0.  1.
          1   -1    0    0  501    0  0.00000000000E+00 -0.00000000000E+00 -0.94984357040E+02  0.94984357040E+02  0.00000000000E+00 0. -1.
         23    2    1    2    0    0 -0.30586076014E+02 -0.32762609506E+02 -0.32486988479E+00  0.10054754405E+03  0.90004480147E+02 0.  0.
         23    2    1    2    0    0  0.30586076014E+02  0.32762609506E+02  0.13144283698E+02  0.10224058384E+03  0.90947612189E+02 0.  0.
          5    1    4    4  502    0  0.48696944356E+02 -0.37488983031E+01 -0.16342628964E+02  0.51716710545E+02  0.47000000000E+01 0. -1.
         -5    1    3    3    0  503 -0.40784452876E+02  0.20389636173E+02 -0.45152939999E+01  0.46060685400E+02  0.47000000000E+01 0.  1.
          5    1    3    3  503    0  0.10198376861E+02 -0.53152245679E+02  0.41904241151E+01  0.54486858651E+02  0.47000000000E+01 0. -1.
         -5    1    4    4    0  502 -0.18110868342E+02  0.36511507809E+02  0.29486912663E+02  0.50523873298E+02  0.47000000000E+01 0.  1.
<mgrwt>
<rscale>  0 0.10118019E+03</rscale>
<asrwt>0</asrwt>
<pdfrwt beam="1">  1        1 0.14612978E-01 0.10139213E+03</pdfrwt>
<pdfrwt beam="2">  1       -1 0.16585195E-01 0.10139213E+03</pdfrwt>
<totfact> 0.96701395E+03</totfact>
</mgrwt>
</event>
<event>
 7    1  0.3177960E-004  0.1514495E+03  0.7546771E-02  0.1209050E+00
         -1   -1    0    0    0  501 -0.00000000000E+00  0.00000000000E+00  0.84750465187E+02  0.84750465187E+02  0.00000000000E+00 0.  1.
          1   -1    0    0  501    0  0.00000000000E+00 -0.00000000000E+00 -0.22084018562E+03  0.22084018562E+03  0.00000000000E+00 0. -1.
         23    2    1    2    0    0  0.61323860886E+02  0.47765150632E+02 -0.47434127114E+02  0.13010057496E+03  0.92919522493E+02 0.  0.
          5    1    3    3  502    0  0.31171709894E+02  0.45384121505E+02 -0.72064894519E+02  0.90812075213E+02  0.47000000000E+01 0. -1.
         -5    1    3    3    0  502  0.30152150992E+02  0.23810291261E+01  0.24630767405E+02  0.39288499743E+02  0.47000000000E+01 0.  1.
          5    1    1    2  503    0 -0.55347167109E+02  0.32326795574E+02 -0.14085039481E+02  0.65793684775E+02  0.47000000000E+01 0. -1.
         -5    1    1    2    0  503 -0.59766937774E+01 -0.80091946205E+02 -0.74570553842E+02  0.10969639108E+03  0.47000000000E+01 0.  1.
<mgrwt>
<rscale>  0 0.14322785E+03</rscale>
<asrwt>0</asrwt>
<pdfrwt beam="1">  1        1 0.33975413E-01 0.15144950E+03</pdfrwt>
<pdfrwt beam="2">  1       -1 0.13038533E-01 0.15144950E+03</pdfrwt>
<totfact> 0.50029849E+03</totfact>
</mgrwt>
</event>
<event>
 8    1  0.3177960E-004  0.9750846E+02  0.7546771E-02  0.1288087E+00
          2   -1    0    0  501    0  0.00000000000E+00  0.00000000000E+00  0.42402372123E+03  0.42402372123E+03  0.00000000000E+00 0. -1.
         -2   -1    0    0    0  501 -0.00000000000E+00 -0.00000000000E+00 -0.56025253063E+02  0.56025253063E+02  0.00000000000E+00 0.  1.
         23    2    1    2    0    0 -0.23980653732E+01 -0.25969139077E+02 -0.29949621627E+01  0.97554444093E+02  0.93956122004E+02 0.  0.
         23    2    1    2    0    0  0.23980653732E+01  0.25969139077E+02  0.37099343033E+03  0.38249453020E+03  0.89363266406E+02 0.  0.
          5    1    3    3  502    0 -0.18253977743E+02  0.27048605924E+02 -0.21097805546E+02  0.39141310463E+02  0.47000000000E+01 0. -1.
         -5    1    3    3    0  502  0.15855912370E+02 -0.53017745001E+02  0.18102843383E+02  0.58413133631E+02  0.47000000000E+01 0.  1.
          5    1    4    4  503    0  0.25603492112E+02  0.37234252414E+02  0.33442872959E+03  0.33750050895E+03  0.47000000000E+01 0. -1.
         -5    1    4    4    0  503 -0.23205426739E+02 -0.11265113338E+02  0.36564700736E+02  0.44994021253E+02  0.47000000000E+01 0.  1.
<mgrwt>
<rscale>  0 0.96384830E+02</rscale>
<asrwt>0</asrwt>
<pdfrwt beam="1">  1        2 0.65234416E-01 0.97508460E+02</pdfrwt>
<pdfrwt beam="2">  1       -2 0.86192700E-02 0.97508460E+02</pdfrwt>
<totfact> 0.59106390E+03</totfact>
</mgrwt>
</event>
<event>
 8    1  0.3177960E-004  0.1001188E+03  0.7546771E-02  0.1280558E+00
          2   -1    0    0  501    0  0.00000000000E+00  0.00000000000E+00  0.11945222361E+02  0.11945222361E+02  0.00000000000E+00 0. -1.
         -2   -1    0    0    0  501 -0.00000000000E+00 -0.00000000000E+00 -0.10530141815E+04  0.10530141815E+04  0.00000000000E+00 0.  1.
         23    2    1    2    0    0  0.32433065893E+02 -0.22175051543E+02 -0.76301099656E+03  0.76942599668E+03  0.91032668924E+02 0.  0.
         23    2    1    2    0    0 -0.32433065893E+02  0.22175051543E+02 -0.27805796259E+03  0.29553340720E+03  0.92087607942E+02 0.  0.
          5    1    4    4  502    0 -0.53669117247E+02  0.38005426117E+02 -0.13831888021E+03  0.15322855212E+03  0.47000000000E+01 0. -1.
         -5    1    4    4    0  502  0.21236051355E+02 -0.15830374574E+02 -0.13973908238E+03  0.14230485508E+03  0.47000000000E+01 0.  1.
          5    1    3    3  503    0 -0.25484045500E+02 -0.30608801859E+02 -0.34083068947E+03  0.34318214436E+03  0.47000000000E+01 0. -1.
         -5    1    3    3    0  503  0.57917111392E+02  0.84337503154E+01 -0.42218030710E+03  0.42624385231E+03  0.47000000000E+01 0.  1.
<mgrwt>
<rscale>  0 0.99875503E+02</rscale>
<asrwt>0</asrwt>
<pdfrwt beam="1">  1        2 0.18377265E-02 0.10011875E+03</pdfrwt>
<pdfrwt beam="2">  1       -2 0.16200218E+00 0.10011875E+03</pdfrwt>
<totfact> 0.14994660E+03</totfact>
</mgrwt>
</event>
<event>
 8    1  0.3177960E-004  0.1138344E+03  0.7546771E-02  0.1254202E+00
         -2   -1    0    0    0  501 -0.00000000000E+00  0.00000000000E+00  0.21219253409E+02  0.21219253409E+02  0.00000000000E+00 0.  1.
          2   -1    0    0  501    0  0.00000000000E+00 -0.00000000000E+00 -0.64841624775E+03  0.64841624775E+03  0.00000000000E+00 0. -1.
         23    2    1    2    0    0  0.48209882007E+01  0.66263102654E+02 -0.22411572162E+03  0.25078851926E+03  0.90845935617E+02 0.  0.
         23    2    1    2    0    0 -0.48209882007E+01 -0.66263102654E+02 -0.40308127272E+03  0.41884698189E+03  0.92435064353E+02 0.  0.
          5    1    4    4  502    0 -0.45876843809E+02 -0.49440183838E+02 -0.27602060780E+03  0.28418036968E+03  0.47000000000E+01 0. -1.
         -5    1    4    4    0  502  0.41055855609E+02 -0.16822918816E+02 -0.12706066492E+03  0.13466661222E+03  0.47000000000E+01 0.  1.
          5    1    3    3  503    0 -0.18815844712E+02  0.41611248838E+02 -0.20750124730E+03  0.21251915131E+03  0.47000000000E+01 0. -1.
         -5    1    3    3    0  503  0.23636832913E+02  0.24651853816E+02 -0.16614474314E+02  0.38269367952E+02  0.47000000000E+01 0.  1.
<mgrwt>
<rscale>  0 0.11351143E+03</rscale>
<asrwt>0</asrwt>
<pdfrwt beam="1">  1        2 0.99756335E-01 0.11383445E+03</pdfrwt>
<pdfrwt beam="2">  1       -2 0.32645009E-02 0.11383445E+03</pdfrwt>
<totfact> 0.16059672E+04</totfact>
</mgrwt>
</event>
<event>
 8    1  0.3177960E-004  0.1041306E+03  0.7546771E-02  0.1274222E+00
          1   -1    0    0  501    0  0.00000000000E+00  0.00000000000E+00  0.27964467000E+03  0.27964467000E+03  0.00000000000E+00 0. -1.
         -1   -1    0    0    0  501 -0.00000000000E+00 -0.00000000000E+00 -0.46857695595E+02  0.46857695595E+02  0.00000000000E+00 0.  1.
         23    2    1    2    0    0  0.26001052086E+02  0.31158383133E+02  0.39646936865E+02  0.10707983553E+03  0.90814712606E+02 0.  0.
         23    2    1    2    0    0 -0.26001052086E+02 -0.31158383133E+02  0.19314003754E+03  0.21942253006E+03  0.95897200424E+02 0.  0.
          5    1    4    4  502    0  0.99908036897E+01 -0.56828296683E+02  0.88772090130E+02  0.10598040125E+03  0.47000000000E+01 0. -1.
         -5    1    3    3    0  503  0.55538149222E+02  0.31631019957E+02  0.42704560067E+02  0.77011537403E+02  0.47000000000E+01 0.  1.
          5    1    3    3  503    0 -0.29537097136E+02 -0.47263682400E+00 -0.30576232021E+01  0.30068298130E+02  0.47000000000E+01 0. -1.
         -5    1    4    4    0  502 -0.35991855776E+02  0.25669913550E+02  0.10436794741E+03  0.11344212882E+03  0.47000000000E+01 0.  1.
<mgrwt>
<rscale>  0 0.10294524E+03</rscale>
<asrwt>0</asrwt>
<pdfrwt beam="1">  1        1 0.43022256E-01 0.10413056E+03</pdfrwt>
<pdfrwt beam="2">  1       -1 0.72088764E-02 0.10413056E+03</pdfrwt>
<totfact> 0.89767975E+03</totfact>
</mgrwt>
</event>
<event>
 8    1  0.3177960E-004  0.1059692E+03  0.7546771E-02  0.1272250E+00
         -2   -1    0    0    0  501 -0.00000000000E+00  0.00000000000E+00  0.83941262764E+03  0.83941262764E+03  0.00000000000E+00 0.  1.
          2   -1    0    0  501    0  0.00000000000E+00 -0.00000000000E+00 -0.12397959378E+02  0.12397959378E+02  0.00000000000E+00 0. -1.
         23    2    1    2    0    0  0.28948352820E+02  0.14365614526E+02  0.40468532689E+03  0.41638947212E+03  0.92550530428E+02 0.  0.
         23    2    1    2    0    0 -0.28948352820E+02 -0.14365614526E+02  0.42232934137E+03  0.43542111489E+03  0.10092124009E+03 0.  0.
          5    1    4    4  502    0 -0.62803539014E+02 -0.50148886232E+01  0.33952433966E+03  0.34535242991E+03  0.47000000000E+01 0. -1.
         -5    1    3    3    0  503  0.22316964702E+02  0.42933352665E+02  0.35639989898E+03  0.35970028868E+03  0.47000000000E+01 0.  1.
          5    1    3    3  503    0  0.66313881180E+01 -0.28567738139E+02  0.48285427913E+02  0.56689183444E+02  0.47000000000E+01 0. -1.
         -5    1    4    4    0  502  0.33855186195E+02 -0.93507259028E+01  0.82805001710E+02  0.90068684987E+02  0.47000000000E+01 0.  1.
<mgrwt>
<rscale>  0 0.10392621E+03</rscale>
<asrwt>0</asrwt>
<pdfrwt beam="1">  1        2 0.19073790E-02 0.10596922E+03</pdfrwt>
<pdfrwt beam="2">  1       -2 0.12914036E+00 0.10596922E+03</pdfrwt>
<totfact> 0.25323956E+03</totfact>
</mgrwt>
</event>
<event>
 8    1  0.3177960E-004  0.2908497E+03  0.7546771E-02  0.1090142E+00
         -2   -1    0    0    0  501 -0.00000000000E+00  0.00000000000E+00  0.12233460513E+03  0.12233460513E+03  0.00000000000E+00 0.  1.
          2   -1    0    0  501    0  0.00000000000E+00 -0.00000000000E+00 -0.10874359109E+04  0.10874359109E+04  0.00000000000E+00 0. -1.
         23    2    1    2    0    0 -0.27321676608E+03 -0.33442150566E+02 -0.11653546207E+03  0.31332736712E+03  0.93956087454E+02 0.  0.
         23    2    1    2    0    0  0.27321676608E+03  0.33442150566E+02 -0.84856584372E+03  0.89644314893E+03  0.88207422720E+02 0.  0.
          5    1    3    3  502    0 -0.19561386476E+03 -0.48479203660E+02 -0.11902432571E+03  0.23410232247E+03  0.47000000000E+01 0. -1.
         -5    1    3    3    0  502 -0.77602901319E+02  0.15037053094E+02  0.24888636429E+01  0.79225044658E+02  0.47000000000E+01 0.  1.
          5    1    4    4  503    0  0.14068802613E+02  0.25133474668E+02 -0.10359802862E+03  0.10763022016E+03  0.47000000000E+01 0. -1.
         -5    1    4    4    0  503  0.25914796346E+03  0.83086758977E+01 -0.74496781510E+03  0.78881292877E+03  0.47000000000E+01 0.  1.
<mgrwt>
<rscale>  0 0.29039714E+03</rscale>
<asrwt>0</asrwt>
<pdfrwt beam="1">  1        2 0.16729783E+00 0.29084966E+03</pdfrwt>
<pdfrwt beam="2">  1       -2 0.18820708E-01 0.29084966E+03</pdfrwt>
<totfact> 0.54393907E+02</totfact>
</mgrwt>
</event>
<event>
 8    1  0.3177960E-004  0.9292297E+02  0.7546771E-02  0.1297678E+00
         -1   -1    0    0    0  501 -0.00000000000E+00  0.00000000000E+00  0.22807463621E+02  0.22807463621E+02  0.00000000000E+00 0.  1.
          1   -1    0    0  501    0  0.00000000000E+00 -0.00000000000E+00 -0.37958825016E+03  0.37958825016E+03  0.00000000000E+00 0. -1.
         23    2    1    2    0    0 -0.37049686500E+00  0.40252360898E+01 -0.21843385213E+03  0.23737739113E+03  0.92835005641E+02 0.  0.
         23    2    1    2    0    0  0.37049686500E+00 -0.40252360898E+01 -0.13834693441E+03  0.16501832264E+03  0.89860073194E+02 0.  0.
          5    1    3    3  502    0  0.23258536292E+02 -0.10691255982E+01 -0.73526826366E+01  0.24864723645E+02  0.47000000000E+01 0.  1.
         -5    1    3    3    0  502 -0.23629033157E+02  0.50943616880E+01 -0.21108116949E+03  0.21251266749E+03  0.47000000000E+01 0. -1.
          5    1    4    4  503    0 -0.28497473554E+02  0.26446089082E+02 -0.31938321241E+02  0.50533632270E+02  0.47000000000E+01 0. -1.
         -5    1    4    4    0  503  0.28867970419E+02 -0.30471325171E+02 -0.10640861317E+03  0.11448469037E+03  0.47000000000E+01 0.  1.
<mgrwt>
<rscale>  0 0.92170881E+02</rscale>
<asrwt>0</asrwt>
<pdfrwt beam="1">  1        1 0.58398193E-01 0.92922968E+02</pdfrwt>
<pdfrwt beam="2">  1       -1 0.35088405E-02 0.92922968E+02</pdfrwt>
<totfact> 0.17556057E+04</totfact>
</mgrwt>
</event>
<event>
 8    1  0.3177960E-004  0.1318868E+03  0.7546771E-02  0.1225185E+00
         -1   -1    0    0    0  501 -0.00000000000E+00  0.00000000000E+00  0.23926909238E+02  0.23926909238E+02  0.00000000000E+00 0.  1.
          1   -1    0    0  501    0  0.00000000000E+00 -0.00000000000E+00 -0.11193513849E+04  0.11193513849E+04  0.00000000000E+00 0. -1.
         23    2    1    2    0    0 -0.92661424090E+02 -0.20448882640E+02 -0.20786740158E+03  0.24617671814E+03  0.91595980259E+02 0.  0.
         23    2    1    2    0    0  0.92661424090E+02  0.20448882640E+02 -0.88755707404E+03  0.89710157596E+03  0.89606816620E+02 0.  0.
          5    1    4    4  502    0  0.88141514466E+02 -0.16466855452E+02 -0.70815997146E+03  0.71382961488E+03  0.47000000000E+01 0. -1.
         -5    1    4    4    0  502  0.45199096236E+01  0.36915738092E+02 -0.17939710259E+03  0.18327196108E+03  0.47000000000E+01 0. -1.
          5    1    3    3  503    0 -0.34368380549E+02  0.34153090231E+02 -0.53674487536E+02  0.72461436407E+02  0.47000000000E+01 0. -1.
         -5    1    3    3    0  503 -0.58293043541E+02 -0.54601972871E+02 -0.15419291404E+03  0.17371528173E+03  0.47000000000E+01 0.  1.
<mgrwt>
<rscale>  0 0.13154201E+03</rscale>
<asrwt>0</asrwt>
<pdfrwt beam="1">  1        1 0.17220791E+00 0.13188677E+03</pdfrwt>
<pdfrwt beam="2">  1       -1 0.36810630E-02 0.13188677E+03</pdfrwt>
<totfact> 0.35752029E+03</totfact>
</mgrwt>
</event>
<event>
 8    1  0.3177960E-004  0.2682113E+03  0.7546771E-02  0.1102393E+00
          2   -1    0    0  501    0  0.00000000000E+00  0.00000000000E+00  0.13787086605E+04  0.13787086605E+04  0.00000000000E+00 0. -1.
         -2   -1    0    0    0  501 -0.00000000000E+00 -0.00000000000E+00 -0.52216390593E+02  0.52216390593E+02  0.00000000000E+00 0.  1.
         23    2    1    2    0    0 -0.17605159688E+03 -0.18012414835E+03  0.70135235240E+03  0.75067712494E+03  0.90455238145E+02 0.  0.
         23    2    1    2    0    0  0.17605159688E+03  0.18012414835E+03  0.62513991750E+03  0.68024792614E+03  0.92187043517E+02 0.  0.
          5    1    4    4  502    0  0.15383707181E+03  0.17763904160E+03  0.60751434834E+03  0.65139638256E+03  0.47000000000E+01 0. -1.
         -5    1    3    3    0  503 -0.65035203691E+02 -0.12625391515E+03  0.32876050067E+03  0.35815525350E+03  0.47000000000E+01 0.  1.
          5    1    3    3  503    0 -0.11101639319E+03 -0.53870233199E+02  0.37259185173E+03  0.39252187144E+03  0.47000000000E+01 0. -1.
         -5    1    4    4    0  502  0.22214525065E+02  0.24851067549E+01  0.17625569153E+02  0.28851543588E+02  0.47000000000E+01 0.  1.
<mgrwt>
<rscale>  0 0.26806365E+03</rscale>
<asrwt>0</asrwt>
<pdfrwt beam="1">  1        2 0.21210900E+00 0.26821134E+03</pdfrwt>
<pdfrwt beam="2">  1       -2 0.80332919E-02 0.26821134E+03</pdfrwt>
<totfact> 0.14924420E+03</totfact>
</mgrwt>
</event>
<event>
 8    1  0.3177960E-004  0.1046035E+03  0.7546771E-02  0.1275385E+00
          1   -1    0    0  501    0  0.00000000000E+00  0.00000000000E+00  0.15128665721E+03  0.15128665721E+03  0.00000000000E+00 0. -1.
         -1   -1    0    0    0  501 -0.00000000000E+00 -0.00000000000E+00 -0.68327551305E+02  0.68327551305E+02  0.00000000000E+00 0.  1.
         23    2    1    2    0    0  0.11908549191E+02 -0.21484074161E+02  0.25141972140E+02  0.10758261373E+03  0.10167851802E+03 0.  0.
         23    2    1    2    0    0 -0.11908549191E+02  0.21484074161E+02  0.57817133762E+02  0.11203159478E+03  0.92762483186E+02 0.  0.
          5    1    3    3  502    0  0.40478908979E+02 -0.19452448012E+02  0.51417228576E+02  0.68430703636E+02  0.47000000000E+01 0. -1.
         -5    1    4    4    0  503 -0.21682373844E+02  0.52776048028E+02  0.53991828309E+02  0.78693354898E+02  0.47000000000E+01 0.  1.
          5    1    4    4  503    0  0.97738246533E+01 -0.31291973867E+02  0.38253054530E+01  0.33338239885E+02  0.47000000000E+01 0. -1.
         -5    1    3    3    0  502 -0.28570359788E+02 -0.20316261495E+01 -0.26275256435E+02  0.39151910094E+02  0.47000000000E+01 0.  1.
<mgrwt>
<rscale>  0 0.10237218E+03</rscale>
<asrwt>0</asrwt>
<pdfrwt beam="1">  1        1 0.23274870E-01 0.10460354E+03</pdfrwt>
<pdfrwt beam="2">  1       -1 0.10511931E-01 0.10460354E+03</pdfrwt>
<totfact> 0.10861876E+04</totfact>
</mgrwt>
</event>
<event>
 8    1  0.3177960E-004  0.9632279E+02  0.7546771E-02  0.1293749E+00
         -1   -1    0    0    0  501 -0.00000000000E+00  0.00000000000E+00  0.57920512717E+02  0.57920512717E+02  0.00000000000E+00 0.  1.
          1   -1    0    0  501    0  0.00000000000E+00 -0.00000000000E+00 -0.23293556057E+03  0.23293556057E+03  0.00000000000E+00 0. -1.
         23    2    1    2    0    0 -0.17670301718E+02 -0.31173762161E+01 -0.95957081520E+00  0.96327572210E+02  0.94636794083E+02 0.  0.
         23    2    1    2    0    0  0.17670301718E+02  0.31173762161E+01 -0.17405547704E+03  0.19452850108E+03  0.84994535397E+02 0.  0.
          5    1    4    4  502    0  0.10041289005E+02 -0.40679730637E+02 -0.84604558711E+02  0.94528775112E+02  0.47000000000E+01 0. -1.
         -5    1    4    4    0  502  0.76290127136E+01  0.43797106853E+02 -0.89450918326E+02  0.99999725965E+02  0.47000000000E+01 0.  1.
          5    1    3    3  503    0  0.28436456518E+02 -0.45489612532E+01 -0.29812438409E+02  0.41715663625E+02  0.47000000000E+01 0. -1.
         -5    1    3    3    0  503 -0.46106758237E+02  0.14315850370E+01  0.28852867594E+02  0.54611908584E+02  0.47000000000E+01 0.  1.
<mgrwt>
<rscale>  0 0.93866712E+02</rscale>
<asrwt>0</asrwt>
<pdfrwt beam="1">  1        1 0.35836241E-01 0.96322793E+02</pdfrwt>
<pdfrwt beam="2">  1       -1 0.89108480E-02 0.96322793E+02</pdfrwt>
<totfact> 0.81241591E+03</totfact>
</mgrwt>
</event>
<event>
 8    1  0.3177960E-004  0.1048552E+03  0.7546771E-02  0.1270799E+00
          1   -1    0    0  501    0  0.00000000000E+00  0.00000000000E+00  0.71471895484E+02  0.71471895484E+02  0.00000000000E+00 0. -1.
         -1   -1    0    0    0  501 -0.00000000000E+00 -0.00000000000E+00 -0.16379631775E+03  0.16379631775E+03  0.00000000000E+00 0.  1.
         23    2    1    2    0    0  0.13017220542E+02  0.49094753622E+02 -0.76661048517E+02  0.12924954234E+03  0.90822821870E+02 0.  0.
         23    2    1    2    0    0 -0.13017220542E+02 -0.49094753622E+02 -0.15663373745E+02  0.10601867089E+03  0.91732624708E+02 0.  0.
          5    1    4    4  502    0 -0.13786115315E+02 -0.70627204898E+02  0.92987402848E+01  0.72710491802E+02  0.47000000000E+01 0. -1.
         -5    1    3    3    0  503 -0.30479136154E+02  0.41639080468E+02 -0.65444582441E+02  0.83473793096E+02  0.47000000000E+01 0.  1.
          5    1    3    3  503    0  0.43496356696E+02  0.74556731539E+01 -0.11216466076E+02  0.45775749248E+02  0.47000000000E+01 0. -1.
         -5    1    4    4    0  502  0.76889477300E+00  0.21532451276E+02 -0.24962114030E+02  0.33308179085E+02  0.47000000000E+01 0.  1.
<mgrwt>
<rscale>  0 0.10465590E+03</rscale>
<asrwt>0</asrwt>
<pdfrwt beam="1">  1        1 0.10995676E-01 0.10485522E+03</pdfrwt>
<pdfrwt beam="2">  1       -1 0.25199433E-01 0.10485522E+03</pdfrwt>
<totfact> 0.71870973E+03</totfact>
</mgrwt>
</event>
<event>
 8    1  0.3177960E-004  0.1090870E+03  0.7546771E-02  0.1262637E+00
          2   -1    0    0  501    0  0.00000000000E+00  0.00000000000E+00  0.71323813963E+03  0.71323813963E+03  0.00000000000E+00 0. -1.
         -2   -1    0    0    0  501 -0.00000000000E+00 -0.00000000000E+00 -0.27504726848E+02  0.27504726848E+02  0.00000000000E+00 0.  1.
         23    2    1    2    0    0  0.59366777887E+02  0.13682524863E+02  0.11003019580E+03  0.15494068168E+03  0.90489474780E+02 0.  0.
         23    2    1    2    0    0 -0.59366777887E+02 -0.13682524863E+02  0.57570321697E+03  0.58580218480E+03  0.89545406790E+02 0.  0.
          5    1    4    4  502    0 -0.42898498604E+02  0.30356129752E+02  0.41362719356E+03  0.41697880168E+03  0.47000000000E+01 0. -1.
         -5    1    4    4    0  502 -0.16468279283E+02 -0.44038654614E+02  0.16207602341E+03  0.16882338312E+03  0.47000000000E+01 0.  1.
          5    1    3    3  503    0  0.20855465438E+02 -0.24231276329E+02  0.92421787587E+02  0.97908028332E+02  0.47000000000E+01 0. -1.
         -5    1    3    3    0  503  0.38511312449E+02  0.37913801192E+02  0.17608408217E+02  0.57032653343E+02  0.47000000000E+01 0.  1.
<mgrwt>
<rscale>  0 0.10889100E+03</rscale>
<asrwt>0</asrwt>
<pdfrwt beam="1">  1        2 0.10972893E+00 0.10908699E+03</pdfrwt>
<pdfrwt beam="2">  1       -2 0.42314970E-02 0.10908699E+03</pdfrwt>
<totfact> 0.97717918E+03</totfact>
</mgrwt>
</event>
<event>
 8    1  0.3177960E-004  0.1267311E+03  0.7546771E-02  0.1232815E+00
         -4   -1    0    0    0  501 -0.00000000000E+00  0.00000000000E+00  0.87170869932E+02  0.87170869932E+02  0.00000000000E+00 0.  1.
          4   -1    0    0  501    0  0.00000000000E+00 -0.00000000000E+00 -0.58818493750E+03  0.58818493750E+03  0.00000000000E+00 0. -1.
         23    2    1    2    0    0  0.70518692241E+02 -0.48067573240E+02 -0.53124023367E+03  0.54614738680E+03  0.93687804339E+02 0.  0.
         23    2    1    2    0    0 -0.70518692241E+02  0.48067573240E+02  0.30226166108E+02  0.12920842063E+03  0.92183606416E+02 0.  0.
          5    1    3    3  502    0  0.31822592741E+02 -0.56910337436E+02 -0.45860189795E+03  0.46323779500E+03  0.47000000000E+01 0. -1.
         -5    1    3    3    0  502  0.38696099501E+02  0.88427641966E+01 -0.72638335724E+02  0.82909591797E+02  0.47000000000E+01 0.  1.
          5    1    4    4  503    0 -0.61108938131E+02  0.13458583021E+02 -0.21288539565E+02  0.66262566304E+02  0.47000000000E+01 0. -1.
         -5    1    4    4    0  503 -0.94097541100E+01  0.34608990219E+02  0.51514705672E+02  0.62945854326E+02  0.47000000000E+01 0.  1.
<mgrwt>
<rscale>  0 0.12645325E+03</rscale>
<asrwt>0</asrwt>
<pdfrwt beam="1">  1        4 0.90489993E-01 0.12673114E+03</pdfrwt>
<pdfrwt beam="2">  1       -4 0.13410903E-01 0.12673114E+03</pdfrwt>
<totfact> 0.82072955E+01</totfact>
</mgrwt>
</event>
<event>
 8    1  0.3177960E-004  0.1637956E+03  0.7546771E-02  0.1184692E+00
          2   -1    0    0  501    0  0.00000000000E+00  0.00000000000E+00  0.96947050277E+03  0.96947050277E+03  0.00000000000E+00 0. -1.
         -2   -1    0    0    0  501 -0.00000000000E+00 -0.00000000000E+00 -0.44356939945E+02  0.44356939945E+02  0.00000000000E+00 0.  1.
         23    2    1    2    0    0 -0.32804417961E+02 -0.12840677802E+03  0.77397605741E+03  0.79095631343E+03  0.94913233213E+02 0.  0.
         23    2    1    2    0    0  0.32804417961E+02  0.12840677802E+03  0.15113750541E+03  0.22287112928E+03  0.96252606434E+02 0.  0.
          5    1    4    4  502    0  0.42885554303E+02  0.17742447163E+02  0.19558339108E+02  0.50582445847E+02  0.47000000000E+01 0. -1.
         -5    1    3    3    0  503  0.20705054270E+02 -0.71119698940E+02  0.23936284154E+03  0.25060600703E+03  0.47000000000E+01 0.  1.
          5    1    3    3  503    0 -0.53509472232E+02 -0.57287079078E+02  0.53461321587E+03  0.54035030640E+03  0.47000000000E+01 0. -1.
         -5    1    4    4    0  502 -0.10081136341E+02  0.11066433085E+03  0.13157916631E+03  0.17228868343E+03  0.47000000000E+01 0.  1.
<mgrwt>
<rscale>  0 0.16359937E+03</rscale>
<asrwt>0</asrwt>
<pdfrwt beam="1">  1        2 0.14914929E+00 0.16379559E+03</pdfrwt>
<pdfrwt beam="2">  1       -2 0.68241454E-02 0.16379559E+03</pdfrwt>
<totfact> 0.32848973E+03</totfact>
</mgrwt>
</event>
<event>
 8    1  0.3177960E-004  0.9590947E+02  0.7546771E-02  0.1292433E+00
         -1   -1    0    0    0  501 -0.00000000000E+00  0.00000000000E+00  0.19054859078E+03  0.19054859078E+03  0.00000000000E+00 0.  1.
          1   -1    0    0  501    0  0.00000000000E+00 -0.00000000000E+00 -0.52412673910E+02  0.52412673910E+02  0.00000000000E+00 0. -1.
         23    2    1    2    0    0 -0.30731782207E+02  0.11106770201E+01  0.11521990104E+03  0.14991414778E+03  0.90845748770E+02 0.  0.
         23    2    1    2    0    0  0.30731782207E+02 -0.11106770201E+01  0.22916015836E+02  0.93047116909E+02  0.84775858251E+02 0.  0.
          5    1    3    3  502    0 -0.10301056568E+02  0.25151888604E+02 -0.27388558313E+01  0.27718596610E+02  0.47000000000E+01 0. -1.
         -5    1    3    3    0  502 -0.20430725639E+02 -0.24041211584E+02  0.11795875687E+03  0.12219555117E+03  0.47000000000E+01 0.  1.
          5    1    4    4  503    0  0.50791870943E+02 -0.15985148852E+02 -0.68695273820E+01  0.53894522395E+02  0.47000000000E+01 0. -1.
         -5    1    4    4    0  503 -0.20060088736E+02  0.14874471832E+02  0.29785543218E+02  0.39152594514E+02  0.47000000000E+01 0.  1.
<mgrwt>
<rscale>  0 0.94444123E+02</rscale>
<asrwt>0</asrwt>
<pdfrwt beam="1">  1        1 0.80634884E-02 0.95909468E+02</pdfrwt>
<pdfrwt beam="2">  1       -1 0.29315167E-01 0.95909468E+02</pdfrwt>
<totfact> 0.83674439E+03</totfact>
</mgrwt>
</event>
<event>
 8    1  0.3177960E-004  0.9737457E+02  0.7546771E-02  0.1291503E+00
          2   -1    0    0  501    0  0.00000000000E+00  0.00000000000E+00  0.15480142981E+03  0.15480142981E+03  0.00000000000E+00 0. -1.
         -2   -1    0    0    0  501 -0.00000000000E+00 -0.00000000000E+00 -0.68759894215E+02  0.68759894215E+02  0.00000000000E+00 0.  1.
         23    2    1    2    0    0 -0.15433823760E+02 -0.32257267245E+02 -0.81835801397E+01  0.88061584917E+02  0.80057089306E+02 0.  0.
         23    2    1    2    0    0  0.15433823760E+02  0.32257267245E+02  0.94225115738E+02  0.13549973911E+03  0.90570815705E+02 0.  0.
          5    1    3    3  502    0 -0.29961853090E+02  0.17872129657E+02 -0.50712816205E+01  0.35565904408E+02  0.47000000000E+01 0. -1.
         -5    1    4    4    0  503 -0.19386870898E+02 -0.23383121845E+02  0.22043079831E+02  0.37823385872E+02  0.47000000000E+01 0.  1.
          5    1    4    4  503    0  0.34820694657E+02  0.55640389090E+02  0.72182035907E+02  0.97676353240E+02  0.47000000000E+01 0. -1.
         -5    1    3    3    0  502  0.14528029330E+02 -0.50129396902E+02 -0.31122985193E+01  0.52495680509E+02  0.47000000000E+01 0.  1.
<mgrwt>
<rscale>  0 0.94854935E+02</rscale>
<asrwt>0</asrwt>
<pdfrwt beam="1">  1        2 0.23815604E-01 0.97374570E+02</pdfrwt>
<pdfrwt beam="2">  1       -2 0.10578445E-01 0.97374570E+02</pdfrwt>
<totfact> 0.12528203E+04</totfact>
</mgrwt>
</event>
<event>
 8    1  0.3177960E-004  0.9992672E+02  0.7546771E-02  0.1285513E+00
         -1   -1    0    0    0  501 -0.00000000000E+00  0.00000000000E+00  0.49450662299E+03  0.49450662299E+03  0.00000000000E+00 0.  1.
          1   -1    0    0  501    0  0.00000000000E+00 -0.00000000000E+00 -0.18799547960E+02  0.18799547960E+02  0.00000000000E+00 0. -1.
         23    2    1    2    0    0 -0.18339180422E+02 -0.74809875208E-01  0.26462156688E+03  0.27976293778E+03  0.88917920380E+02 0.  0.
         23    2    1    2    0    0  0.18339180422E+02  0.74809875208E-01  0.21108550815E+03  0.23354323317E+03  0.98229419584E+02 0.  0.
          5    1    3    3  502    0 -0.47388662515E+02 -0.13429636077E+02  0.95233870088E+02  0.10732017738E+03  0.47000000000E+01 0. -1.
         -5    1    4    4    0  503  0.41679479114E+02 -0.36034464441E+02  0.98906266716E+02  0.11331461160E+03  0.47000000000E+01 0.  1.
          5    1    4    4  503    0 -0.23340298692E+02  0.36109274316E+02  0.11217924144E+03  0.12022862157E+03  0.47000000000E+01 0. -1.
         -5    1    3    3    0  502  0.29049482093E+02  0.13354826202E+02  0.16938769679E+03  0.17244276041E+03  0.47000000000E+01 0.  1.
<mgrwt>
<rscale>  0 0.97559621E+02</rscale>
<asrwt>0</asrwt>
<pdfrwt beam="1">  1        1 0.28922385E-02 0.99926723E+02</pdfrwt>
<pdfrwt beam="2">  1       -1 0.76077932E-01 0.99926723E+02</pdfrwt>
<totfact> 0.60245194E+03</totfact>
</mgrwt>
</event>
<event>
 8    1  0.3177960E-004  0.9636227E+02  0.7546771E-02  0.1289404E+00
         -1   -1    0    0    0  501 -0.00000000000E+00  0.00000000000E+00  0.70334043764E+02  0.70334043764E+02  0.00000000000E+00 0.  1.
          1   -1    0    0  501    0  0.00000000000E+00 -0.00000000000E+00 -0.12894033568E+03  0.12894033568E+03  0.00000000000E+00 0. -1.
         23    2    1    2    0    0 -0.37112220528E+01  0.30869956007E+02 -0.29382688608E+02  0.10074238771E+03  0.91208327136E+02 0.  0.
         23    2    1    2    0    0  0.37112220528E+01 -0.30869956007E+02 -0.29223603311E+02  0.98531991736E+02  0.88813326995E+02 0.  0.
          5    1    3    3  502    0 -0.46298760789E+01 -0.29796285267E+02  0.48790320700E+01  0.30905490162E+02  0.47000000000E+01 0. -1.
         -5    1    4    4    0  503  0.22411640315E+02  0.25633767027E+02 -0.11728057206E+02  0.36318162941E+02  0.47000000000E+01 0.  1.
          5    1    4    4  503    0 -0.18700418262E+02 -0.56503723034E+02 -0.17495546105E+02  0.62213828795E+02  0.47000000000E+01 0. -1.
         -5    1    3    3    0  502  0.91865402604E+00  0.60666241274E+02 -0.34261720679E+02  0.69836897549E+02  0.47000000000E+01 0.  1.
<mgrwt>
<rscale>  0 0.95791278E+02</rscale>
<asrwt>0</asrwt>
<pdfrwt beam="1">  1        1 0.19836975E-01 0.96362266E+02</pdfrwt>
<pdfrwt beam="2">  1       -1 0.10820622E-01 0.96362266E+02</pdfrwt>
<totfact> 0.12604436E+04</totfact>
</mgrwt>
</event>
<event>
 8    1  0.3177960E-004  0.9777532E+02  0.7546771E-02  0.1285467E+00
         -1   -1    0    0    0  501 -0.00000000000E+00  0.00000000000E+00  0.20963191471E+02  0.20963191471E+02  0.00000000000E+00 0.  1.
          1   -1    0    0  501    0  0.00000000000E+00 -0.00000000000E+00 -0.51059623413E+03  0.51059623413E+03  0.00000000000E+00 0. -1.
         23    2    1    2    0    0  0.28832191450E+02 -0.21623309228E+02 -0.33365964838E+03  0.34747326889E+03  0.90055809743E+02 0.  0.
         23    2    1    2    0    0 -0.28832191450E+02  0.21623309228E+02 -0.15597339428E+03  0.18408615672E+03  0.90890871957E+02 0.  0.
          5    1    4    4  502    0  0.31845548565E+02  0.10962818477E+01 -0.38458628486E+02  0.50164697770E+02  0.47000000000E+01 0. -1.
         -5    1    3    3    0  503  0.43236877382E+02 -0.45402478301E+02 -0.27868917348E+03  0.28569311860E+03  0.47000000000E+01 0. -1.
          5    1    3    3  503    0 -0.14404685932E+02  0.23779169073E+02 -0.54970474901E+02  0.61780150287E+02  0.47000000000E+01 0.  1.
         -5    1    4    4    0  502 -0.60677740015E+02  0.20527027381E+02 -0.11751476579E+03  0.13392145894E+03  0.47000000000E+01 0.  1.
<mgrwt>
<rscale>  0 0.97580797E+02</rscale>
<asrwt>0</asrwt>
<pdfrwt beam="1">  1        1 0.78553266E-01 0.97775321E+02</pdfrwt>
<pdfrwt beam="2">  1       -1 0.32251064E-02 0.97775321E+02</pdfrwt>
<totfact> 0.13708992E+04</totfact>
</mgrwt>
</event>
<event>
 8    1  0.3177960E-004  0.1079898E+03  0.7546771E-02  0.1264360E+00
         -1   -1    0    0    0  501 -0.00000000000E+00  0.00000000000E+00  0.21577619493E+02  0.21577619493E+02  0.00000000000E+00 0.  1.
          1   -1    0    0  501    0  0.00000000000E+00 -0.00000000000E+00 -0.72469380863E+03  0.72469380863E+03  0.00000000000E+00 0. -1.
         23    2    1    2    0    0  0.55445494312E+02 -0.16377833148E+02 -0.16335792792E+03  0.19582544051E+03  0.91210494351E+02 0.  0.
         23    2    1    2    0    0 -0.55445494312E+02  0.16377833148E+02 -0.53975826122E+03  0.55044598761E+03  0.91155737430E+02 0.  0.
          5    1    3    3  502    0  0.76151574199E+02 -0.19288636943E+02 -0.15293233821E+03  0.17199274357E+03  0.47000000000E+01 0.  1.
         -5    1    4    4    0  503 -0.17360225586E+02 -0.32687043055E+02 -0.10901621908E+03  0.11522346219E+03  0.47000000000E+01 0.  1.
          5    1    4    4  503    0 -0.38085268726E+02  0.49064876203E+02 -0.43074204214E+03  0.43522252542E+03  0.47000000000E+01 0. -1.
         -5    1    3    3    0  502 -0.20706079887E+02  0.29108037947E+01 -0.10425589705E+02  0.23832696946E+02  0.47000000000E+01 0. -1.
<mgrwt>
<rscale>  0 0.10797821E+03</rscale>
<asrwt>0</asrwt>
<pdfrwt beam="1">  1        1 0.11149136E+00 0.10798977E+03</pdfrwt>
<pdfrwt beam="2">  1       -1 0.33196336E-02 0.10798977E+03</pdfrwt>
<totfact> 0.82403266E+03</totfact>
</mgrwt>
</event>
<event>
 8    1  0.3177960E-004  0.9620082E+02  0.7546771E-02  0.1289702E+00
          1   -1    0    0  501    0  0.00000000000E+00  0.00000000000E+00  0.15527818973E+03  0.15527818973E+03  0.00000000000E+00 0. -1.
         -1   -1    0    0    0  501 -0.00000000000E+00 -0.00000000000E+00 -0.58312660890E+02  0.58312660890E+02  0.00000000000E+00 0.  1.
         23    2    1    2    0    0  0.28717478148E+02  0.13584617805E+02  0.50729438399E+02  0.10685578986E+03  0.88518068855E+02 0.  0.
         23    2    1    2    0    0 -0.28717478148E+02 -0.13584617805E+02  0.46236090446E+02  0.10673506077E+03  0.90803974280E+02 0.  0.
          5    1    3    3  502    0  0.14625220416E+02 -0.27471211080E+02  0.54601527518E+02  0.63023656810E+02  0.47000000000E+01 0. -1.
         -5    1    3    3    0  502  0.14092257732E+02  0.41055828885E+02 -0.38720891191E+01  0.43832133048E+02  0.47000000000E+01 0.  1.
          5    1    4    4  503    0 -0.26453966571E+02 -0.45683912883E+02  0.51373146823E+02  0.73811397887E+02  0.47000000000E+01 0. -1.
         -5    1    4    4    0  503 -0.22635115773E+01  0.32099295078E+02 -0.51370563768E+01  0.32923662879E+02  0.47000000000E+01 0.  1.
<mgrwt>
<rscale>  0 0.95657573E+02</rscale>
<asrwt>0</asrwt>
<pdfrwt beam="1">  1        1 0.23888952E-01 0.96200817E+02</pdfrwt>
<pdfrwt beam="2">  1       -1 0.89711787E-02 0.96200817E+02</pdfrwt>
<totfact> 0.13256890E+04</totfact>
</mgrwt>
</event>
<event>
 8    1  0.3177960E-004  0.9150734E+02  0.7546771E-02  0.1301635E+00
         -1   -1    0    0    0  501 -0.00000000000E+00  0.00000000000E+00  0.62514375827E+02  0.62514375827E+02  0.00000000000E+00 0.  1.
          1   -1    0    0  501    0  0.00000000000E+00 -0.00000000000E+00 -0.13235356411E+03  0.13235356411E+03  0.00000000000E+00 0. -1.
         23    2    1    2    0    0  0.34528056505E+01 -0.44123857371E+01 -0.52853357939E+02  0.10567436531E+03  0.91335661285E+02 0.  0.
         23    2    1    2    0    0 -0.34528056505E+01  0.44123857371E+01 -0.16985830339E+02  0.89193574627E+02  0.87381830535E+02 0.  0.
          5    1    3    3  502    0  0.46064911243E+02 -0.52523604541E+00 -0.38735400994E+02  0.60371957156E+02  0.47000000000E+01 0. -1.
         -5    1    4    4    0  503 -0.30623382574E+02 -0.22178821310E+02  0.13304053595E+02  0.40358140654E+02  0.47000000000E+01 0.  1.
          5    1    4    4  503    0  0.27170576924E+02  0.26591207047E+02 -0.30289883934E+02  0.48835433973E+02  0.47000000000E+01 0. -1.
         -5    1    3    3    0  502 -0.42612105593E+02 -0.38871496917E+01 -0.14117956946E+02  0.45302408149E+02  0.47000000000E+01 0.  1.
<mgrwt>
<rscale>  0 0.90504458E+02</rscale>
<asrwt>0</asrwt>
<pdfrwt beam="1">  1        1 0.20362087E-01 0.91507344E+02</pdfrwt>
<pdfrwt beam="2">  1       -1 0.96175962E-02 0.91507344E+02</pdfrwt>
<totfact> 0.14504569E+04</totfact>
</mgrwt>
</event>
<event>
 7    1  0.3177960E-004  0.2966643E+03  0.7546771E-02  0.1128628E+00
         -1   -1    0    0    0  501 -0.00000000000E+00  0.00000000000E+00  0.67956988417E+02  0.67956988417E+02  0.00000000000E+00 0.  1.
          1   -1    0    0  501    0  0.00000000000E+00 -0.00000000000E+00 -0.68032201785E+03  0.68032201785E+03  0.00000000000E+00 0. -1.
         23    2    1    2    0    0 -0.41233177648E+02  0.15636084316E+02 -0.30270532799E+03  0.31944474143E+03  0.92031327077E+02 0.  0.
          5    1    3    3  502    0 -0.29702455600E+02  0.53325022156E+02 -0.20618030821E+03  0.21507720323E+03  0.47000000000E+01 0. -1.
         -5    1    1    2    0  503  0.16770000085E+03 -0.64963849952E+01 -0.20002180372E+03  0.26114422311E+03  0.47000000000E+01 0.  1.
          5    1    1    2  503    0 -0.12646682320E+03 -0.91396993210E+01 -0.10963789772E+03  0.16769004172E+03  0.47000000000E+01 0. -1.
         -5    1    3    3    0  502 -0.11530722048E+02 -0.37688937840E+02 -0.96525019783E+02  0.10436753820E+03  0.47000000000E+01 0.  1.
<mgrwt>
<rscale>  0 0.22719741E+03</rscale>
<asrwt>0</asrwt>
<pdfrwt beam="1">  1        1 0.10466492E+00 0.29666428E+03</pdfrwt>
<pdfrwt beam="2">  1       -1 0.10454921E-01 0.29666428E+03</pdfrwt>
<totfact> 0.16718211E+03</totfact>
</mgrwt>
</event>
<event>
 7    1  0.3177960E-004  0.1616974E+03  0.7546771E-02  0.1196311E+00
         -2   -1    0    0    0  501 -0.00000000000E+00  0.00000000000E+00  0.36751279635E+02  0.36751279635E+02  0.00000000000E+00 0.  1.
          2   -1    0    0  501    0  0.00000000000E+00 -0.00000000000E+00 -0.58358044213E+03  0.58358044213E+03  0.00000000000E+00 0. -1.
         23    2    1    2    0    0 -0.58978688410E+02  0.71355581584E+02 -0.23696564237E+03  0.27081570001E+03  0.92834923374E+02 0.  0.
          5    1    3    3  502    0 -0.11009322548E+02  0.68253195849E+02 -0.76405690138E+02  0.10314855022E+03  0.47000000000E+01 0. -1.
         -5    1    3    3    0  502 -0.47969365862E+02  0.31023857355E+01 -0.16055995223E+03  0.16766714979E+03  0.47000000000E+01 0.  1.
          5    1    1    2  503    0  0.28059552939E+02 -0.45180923132E+02 -0.30359566474E+03  0.30825488151E+03  0.47000000000E+01 0. -1.
         -5    1    1    2    0  503  0.30919135471E+02 -0.26174658452E+02 -0.62678553872E+01  0.41261140247E+02  0.47000000000E+01 0.  1.
<mgrwt>
<rscale>  0 0.15343760E+03</rscale>
<asrwt>0</asrwt>
<pdfrwt beam="1">  1        2 0.89781603E-01 0.16169740E+03</pdfrwt>
<pdfrwt beam="2">  1       -2 0.56540433E-02 0.16169740E+03</pdfrwt>
<totfact> 0.81839141E+03</totfact>
</mgrwt>
</event>
<event>
 8    1  0.3177960E-004  0.1117668E+03  0.7546771E-02  0.1258856E+00
          2   -1    0    0  501    0  0.00000000000E+00  0.00000000000E+00  0.10443810802E+03  0.10443810802E+03  0.00000000000E+00 0. -1.
         -2   -1    0    0    0  501 -0.00000000000E+00 -0.00000000000E+00 -0.35264590809E+03  0.35264590809E+03  0.00000000000E+00 0.  1.
         23    2    1    2    0    0  0.43499944489E+02  0.45485742132E+02 -0.31189018533E+03  0.33131150477E+03  0.92361396592E+02 0.  0.
         23    2    1    2    0    0 -0.43499944489E+02 -0.45485742132E+02  0.63682385256E+02  0.12577251134E+03  0.88329386443E+02 0.  0.
          5    1    3    3  502    0  0.13452859250E+02 -0.23761003604E+02 -0.37104563538E+02  0.46307702919E+02  0.47000000000E+01 0. -1.
         -5    1    4    4    0  503 -0.43257641195E+02  0.64717355179E+01  0.58714776807E+02  0.73366353990E+02  0.47000000000E+01 0. -1.
          5    1    4    4  503    0 -0.24230329394E+00 -0.51957477650E+02  0.49676084491E+01  0.52406157351E+02  0.47000000000E+01 0.  1.
         -5    1    3    3    0  502  0.30047085239E+02  0.69246745736E+02 -0.27478562179E+03  0.28500380185E+03  0.47000000000E+01 0.  1.
<mgrwt>
<rscale>  0 0.11093045E+03</rscale>
<asrwt>0</asrwt>
<pdfrwt beam="1">  1        2 0.16067401E-01 0.11176684E+03</pdfrwt>
<pdfrwt beam="2">  1       -2 0.54253216E-01 0.11176684E+03</pdfrwt>
<totfact> 0.11355918E+03</totfact>
</mgrwt>
</event>
<event>
 8    1  0.3177960E-004  0.9660735E+02  0.7546771E-02  0.1290170E+00
         -2   -1    0    0    0  501 -0.00000000000E+00  0.00000000000E+00  0.22909122433E+02  0.22909122433E+02  0.00000000000E+00 0.  1.
          2   -1    0    0  501    0  0.00000000000E+00 -0.00000000000E+00 -0.46874102709E+03  0.46874102709E+03  0.00000000000E+00 0. -1.
         23    2    1    2    0    0 -0.17960913328E+02 -0.47571260549E+01 -0.12563434703E+03  0.15848334328E+03  0.94803777810E+02 0.  0.
         23    2    1    2    0    0  0.17960913328E+02  0.47571260549E+01 -0.32019755762E+03  0.33316680624E+03  0.90157751845E+02 0.  0.
          5    1    3    3  502    0 -0.33066881227E+02  0.29452898339E+02 -0.10810130606E+03  0.11691396079E+03  0.47000000000E+01 0. -1.
         -5    1    4    4    0  503  0.43312996233E+02 -0.16609180162E+02 -0.98777993844E+02  0.10922940344E+03  0.47000000000E+01 0.  1.
          5    1    4    4  503    0 -0.25352082905E+02  0.21366306217E+02 -0.22141956378E+03  0.22393740280E+03  0.47000000000E+01 0. -1.
         -5    1    3    3    0  502  0.15105967899E+02 -0.34210024394E+02 -0.17533040972E+02  0.41569382494E+02  0.47000000000E+01 0.  1.
<mgrwt>
<rscale>  0 0.95447910E+02</rscale>
<asrwt>0</asrwt>
<pdfrwt beam="1">  1        2 0.72113994E-01 0.96607354E+02</pdfrwt>
<pdfrwt beam="2">  1       -2 0.35244809E-02 0.96607354E+02</pdfrwt>
<totfact> 0.20260391E+04</totfact>
</mgrwt>
</event>
<event>
 8    1  0.3177960E-004  0.1487213E+03  0.7546771E-02  0.1202955E+00
         -2   -1    0    0    0  501 -0.00000000000E+00  0.00000000000E+00  0.64146614251E+02  0.64146614251E+02  0.00000000000E+00 0.  1.
          2   -1    0    0  501    0  0.00000000000E+00 -0.00000000000E+00 -0.10487140203E+04  0.10487140203E+04  0.00000000000E+00 0. -1.
         23    2    1    2    0    0  0.64227252493E+02  0.95290744442E+02 -0.35827806966E+02  0.15297595821E+03  0.94406282093E+02 0.  0.
         23    2    1    2    0    0 -0.64227252493E+02 -0.95290744442E+02 -0.94873959905E+03  0.95988467631E+03  0.89812577454E+02 0.  0.
          5    1    3    3  502    0  0.86913243798E+01 -0.18509375657E+02  0.10364079448E+01  0.21007147548E+02  0.47000000000E+01 0. -1.
         -5    1    3    3    0  502  0.55535928113E+02  0.11380012010E+03 -0.36864214911E+02  0.13196881066E+03  0.47000000000E+01 0.  1.
          5    1    4    4  503    0 -0.79697842361E+02 -0.43938145414E+02 -0.64587609463E+03  0.65227319914E+03  0.47000000000E+01 0. -1.
         -5    1    4    4    0  503  0.15470589869E+02 -0.51352599028E+02 -0.30286350441E+03  0.30761147717E+03  0.47000000000E+01 0.  1.
<mgrwt>
<rscale>  0 0.14799779E+03</rscale>
<asrwt>0</asrwt>
<pdfrwt beam="1">  1        2 0.16134061E+00 0.14872126E+03</pdfrwt>
<pdfrwt beam="2">  1       -2 0.98687106E-02 0.14872126E+03</pdfrwt>
<totfact> 0.16580585E+03</totfact>
</mgrwt>
</event>
<event>
 8    1  0.3177960E-004  0.9882084E+02  0.7546771E-02  0.1287030E+00
          2   -1    0    0  501    0  0.00000000000E+00  0.00000000000E+00  0.10017848610E+03  0.10017848610E+03  0.00000000000E+00 0.  1.
         -2   -1    0    0    0  501 -0.00000000000E+00 -0.00000000000E+00 -0.10063681192E+03  0.10063681192E+03  0.00000000000E+00 0. -1.
         23    2    1    2    0    0 -0.65425340573E+01 -0.38991577006E+02  0.32193145786E+02  0.96739959620E+02  0.82213583564E+02 0.  0.
         23    2    1    2    0    0  0.65425340573E+01  0.38991577006E+02 -0.32651471603E+02  0.10407533840E+03  0.90567155398E+02 0.  0.
          5    1    4    4  502    0  0.18617663218E+02  0.19790967941E+02 -0.61310131319E+02  0.67225902731E+02  0.47000000000E+01 0. -1.
         -5    1    3    3    0  503 -0.19903257644E+02  0.21015392837E+02  0.13731730297E+02  0.32379574084E+02  0.47000000000E+01 0.  1.
          5    1    3    3  503    0  0.13360723587E+02 -0.60006969843E+02  0.18461415489E+02  0.64360385536E+02  0.47000000000E+01 0. -1.
         -5    1    4    4    0  502 -0.12075129161E+02  0.19200609066E+02  0.28658659715E+02  0.36849435673E+02  0.47000000000E+01 0.  1.
<mgrwt>
<rscale>  0 0.96864869E+02</rscale>
<asrwt>0</asrwt>
<pdfrwt beam="1">  1        2 0.15412075E-01 0.98820835E+02</pdfrwt>
<pdfrwt beam="2">  1       -2 0.15482586E-01 0.98820835E+02</pdfrwt>
<totfact> 0.11154834E+04</totfact>
</mgrwt>
</event>
<event>
 8    1  0.3177960E-004  0.9329318E+02  0.7546771E-02  0.1296965E+00
         -2   -1    0    0    0  501 -0.00000000000E+00  0.00000000000E+00  0.92251703004E+01  0.92251703004E+01  0.00000000000E+00 0.  1.
          2   -1    0    0  501    0  0.00000000000E+00 -0.00000000000E+00 -0.91111297252E+03  0.91111297252E+03  0.00000000000E+00 0. -1.
         23    2    1    2    0    0  0.88193523138E+01  0.62880698776E+01 -0.44426593874E+03  0.45330346781E+03  0.89411905283E+02 0.  0.
         23    2    1    2    0    0 -0.88193523138E+01 -0.62880698776E+01 -0.45762186348E+03  0.46703467501E+03  0.92662273495E+02 0.  0.
          5    1    4    4  502    0 -0.18593148760E+02  0.40349955607E+02 -0.19176778910E+03  0.19690301936E+03  0.47000000000E+01 0. -1.
         -5    1    4    4    0  502  0.97737964460E+01 -0.46638025484E+02 -0.26585407438E+03  0.27013165565E+03  0.47000000000E+01 0.  1.
          5    1    3    3  503    0  0.42183862061E+02 -0.10500349979E+02 -0.33262485898E+03  0.33548639672E+03  0.47000000000E+01 0. -1.
         -5    1    3    3    0  503 -0.33364509747E+02  0.16788419857E+02 -0.11164107976E+03  0.11781707110E+03  0.47000000000E+01 0.  1.
<mgrwt>
<rscale>  0 0.92475598E+02</rscale>
<asrwt>0</asrwt>
<pdfrwt beam="1">  1        2 0.14017116E+00 0.93293182E+02</pdfrwt>
<pdfrwt beam="2">  1       -2 0.14192576E-02 0.93293182E+02</pdfrwt>
<totfact> 0.34764787E+04</totfact>
</mgrwt>
</event>
<event>
 8    1  0.3177960E-004  0.1984149E+03  0.7546771E-02  0.1151512E+00
         -4   -1    0    0    0  501 -0.00000000000E+00  0.00000000000E+00  0.46083745680E+02  0.46083745680E+02  0.00000000000E+00 0.  1.
          4   -1    0    0  501    0  0.00000000000E+00 -0.00000000000E+00 -0.85255384044E+03  0.85255384044E+03  0.00000000000E+00 0. -1.
         23    2    1    2    0    0 -0.79350062761E+02 -0.15722020803E+03 -0.36089975896E+03  0.41088620433E+03  0.86972470467E+02 0.  0.
         23    2    1    2    0    0  0.79350062761E+02  0.15722020803E+03 -0.44557033580E+03  0.48775138179E+03  0.91399453072E+02 0.  0.
          5    1    4    4  502    0  0.76687016802E+02  0.10424871820E+03 -0.21396002605E+03  0.25009933335E+03  0.47000000000E+01 0. -1.
         -5    1    4    4    0  502  0.26630459585E+01  0.52971489829E+02 -0.23161030975E+03  0.23765204845E+03  0.47000000000E+01 0.  1.
          5    1    3    3  503    0  0.71441091508E+01 -0.72865973078E+02 -0.16659181770E+03  0.18203134910E+03  0.47000000000E+01 0. -1.
         -5    1    3    3    0  503 -0.86494171911E+02 -0.84354234949E+02 -0.19430794126E+03  0.22885485523E+03  0.47000000000E+01 0.  1.
<mgrwt>
<rscale>  0 0.19791304E+03</rscale>
<asrwt>0</asrwt>
<pdfrwt beam="1">  1        4 0.13116213E+00 0.19841493E+03</pdfrwt>
<pdfrwt beam="2">  1       -4 0.70898071E-02 0.19841493E+03</pdfrwt>
<totfact> 0.10685384E+02</totfact>
</mgrwt>
</event>
<event>
 8    1  0.3177960E-004  0.1272025E+03  0.7546771E-02  0.1231866E+00
         -1   -1    0    0    0  501 -0.00000000000E+00  0.00000000000E+00  0.11482714518E+03  0.11482714518E+03  0.00000000000E+00 0.  1.
          1   -1    0    0  501    0  0.00000000000E+00 -0.00000000000E+00 -0.14189523401E+03  0.14189523401E+03  0.00000000000E+00 0. -1.
         23    2    1    2    0    0 -0.19838913153E+02 -0.86715410021E+02 -0.46824719878E-01  0.12668147580E+03  0.90194508194E+02 0.  0.
         23    2    1    2    0    0  0.19838913153E+02  0.86715410021E+02 -0.27021264110E+02  0.13004090339E+03  0.90924930739E+02 0.  0.
          5    1    3    3  502    0  0.26800408819E+02 -0.64758773590E+02  0.16840656356E+02  0.72233360549E+02  0.47000000000E+01 0. -1.
         -5    1    3    3    0  502 -0.46639321972E+02 -0.21956636431E+02 -0.16887481076E+02  0.54448115252E+02  0.47000000000E+01 0.  1.
          5    1    4    4  503    0  0.50582965809E+02  0.80916533274E+02 -0.19212836252E+02  0.97454321936E+02  0.47000000000E+01 0. -1.
         -5    1    4    4    0  503 -0.30744052656E+02  0.57988767477E+01 -0.78084278581E+01  0.32586581454E+02  0.47000000000E+01 0.  1.
<mgrwt>
<rscale>  0 0.12707208E+03</rscale>
<asrwt>0</asrwt>
<pdfrwt beam="1">  1        1 0.21830036E-01 0.12720255E+03</pdfrwt>
<pdfrwt beam="2">  1       -1 0.17665715E-01 0.12720255E+03</pdfrwt>
<totfact> 0.53441860E+03</totfact>
</mgrwt>
</event>
<event>
 8    1  0.3177960E-004  0.1154288E+03  0.7546771E-02  0.1251883E+00
          3   -1    0    0  501    0  0.00000000000E+00  0.00000000000E+00  0.82944032056E+02  0.82944032056E+02  0.00000000000E+00 0. -1.
         -3   -1    0    0    0  501 -0.00000000000E+00 -0.00000000000E+00 -0.16157585746E+03  0.16157585746E+03  0.00000000000E+00 0.  1.
         23    2    1    2    0    0 -0.62631021116E+02  0.36210341703E+02 -0.19103140305E+02  0.11464505192E+03  0.86860372490E+02 0.  0.
         23    2    1    2    0    0  0.62631021116E+02 -0.36210341703E+02 -0.59528685100E+02  0.12987483759E+03  0.89944290745E+02 0.  0.
          5    1    3    3  502    0 -0.42948619261E+02  0.64115857775E+02 -0.52411107355E+01  0.77491847032E+02  0.47000000000E+01 0. -1.
         -5    1    4    4    0  503 -0.84211227214E+01 -0.40743573125E+02 -0.34528396494E+02  0.54270196456E+02  0.47000000000E+01 0.  1.
          5    1    4    4  503    0  0.71052143837E+02  0.45332314222E+01 -0.25000288607E+02  0.75604641137E+02  0.47000000000E+01 0. -1.
         -5    1    3    3    0  502 -0.19682401855E+02 -0.27905516072E+02 -0.13862029570E+02  0.37153204893E+02  0.47000000000E+01 0.  1.
<mgrwt>
<rscale>  0 0.11482749E+03</rscale>
<asrwt>0</asrwt>
<pdfrwt beam="1">  1        3 0.12760621E-01 0.11542881E+03</pdfrwt>
<pdfrwt beam="2">  1       -3 0.24857824E-01 0.11542881E+03</pdfrwt>
<totfact> 0.16582894E+03</totfact>
</mgrwt>
</event>
<event>
 8    1  0.3177960E-004  0.1086009E+03  0.7546771E-02  0.1267468E+00
         -4   -1    0    0    0  501 -0.00000000000E+00  0.00000000000E+00  0.44349214597E+02  0.44349214597E+02  0.00000000000E+00 0.  1.
          4   -1    0    0  501    0  0.00000000000E+00 -0.00000000000E+00 -0.33125811768E+03  0.33125811768E+03  0.00000000000E+00 0. -1.
         23    2    1    2    0    0  0.29342612931E+02 -0.28906368698E+02 -0.43287485931E+02  0.10887611060E+03  0.91014471025E+02 0.  0.
         23    2    1    2    0    0 -0.29342612931E+02  0.28906368698E+02 -0.24362141715E+03  0.26673122168E+03  0.10048672866E+03 0.  0.
          5    1    3    3  502    0 -0.11605433293E+02  0.25783827525E+02 -0.24899428045E+02  0.37967925421E+02  0.47000000000E+01 0. -1.
         -5    1    3    3    0  502  0.40948046224E+02 -0.54690196223E+02 -0.18388057886E+02  0.70908185178E+02  0.47000000000E+01 0.  1.
          5    1    4    4  503    0 -0.59566260713E+02  0.57685016162E+01 -0.88494074062E+02  0.10693318554E+03  0.47000000000E+01 0. -1.
         -5    1    4    4    0  503  0.30223647782E+02  0.23137867082E+02 -0.15512734309E+03  0.15979803614E+03  0.47000000000E+01 0.  1.
<mgrwt>
<rscale>  0 0.10635732E+03</rscale>
<asrwt>0</asrwt>
<pdfrwt beam="1">  1        4 0.50962787E-01 0.10860087E+03</pdfrwt>
<pdfrwt beam="2">  1       -4 0.68229561E-02 0.10860087E+03</pdfrwt>
<totfact> 0.84496529E+02</totfact>
</mgrwt>
</event>
<event>
 8    1  0.3177960E-004  0.1116401E+03  0.7546771E-02  0.1259098E+00
          2   -1    0    0  501    0  0.00000000000E+00  0.00000000000E+00  0.26052777456E+03  0.26052777456E+03  0.00000000000E+00 0. -1.
         -2   -1    0    0    0  501 -0.00000000000E+00 -0.00000000000E+00 -0.52230324823E+02  0.52230324823E+02  0.00000000000E+00 0.  1.
         23    2    1    2    0    0  0.52718292247E+02  0.25106350711E+02  0.50616415503E+02  0.11955661759E+03  0.91226181040E+02 0.  0.
         23    2    1    2    0    0 -0.52718292247E+02 -0.25106350711E+02  0.15768103423E+03  0.19320148180E+03  0.95152282304E+02 0.  0.
          5    1    3    3  502    0  0.39229131918E+02  0.80065927502E+01  0.75847889289E+02  0.85895416805E+02  0.47000000000E+01 0. -1.
         -5    1    3    3    0  502  0.13489160329E+02  0.17099757961E+02 -0.25231473786E+02  0.33661200783E+02  0.47000000000E+01 0.  1.
          5    1    4    4  503    0 -0.55060390990E+02 -0.56893287629E+02  0.11593804672E+03  0.14047139748E+03  0.47000000000E+01 0. -1.
         -5    1    4    4    0  503  0.23420987435E+01  0.31786936918E+02  0.41742987512E+02  0.52730084313E+02  0.47000000000E+01 0.  1.
<mgrwt>
<rscale>  0 0.11079891E+03</rscale>
<asrwt>0</asrwt>
<pdfrwt beam="1">  1        2 0.40081195E-01 0.11164006E+03</pdfrwt>
<pdfrwt beam="2">  1       -2 0.80354348E-02 0.11164006E+03</pdfrwt>
<totfact> 0.11109814E+04</totfact>
</mgrwt>
</event>
<event>
 8    1  0.3177960E-004  0.9456437E+02  0.7546771E-02  0.1292883E+00
         -1   -1    0    0    0  501 -0.00000000000E+00  0.00000000000E+00  0.19483563035E+02  0.19483563035E+02  0.00000000000E+00 0.  1.
          1   -1    0    0  501    0  0.00000000000E+00 -0.00000000000E+00 -0.46278198483E+03  0.46278198483E+03  0.00000000000E+00 0. -1.
         23    2    1    2    0    0  0.63031606550E+01 -0.19833211444E+02 -0.25552321906E+03  0.27202295604E+03  0.90946616335E+02 0.  0.
         23    2    1    2    0    0 -0.63031606550E+01  0.19833211444E+02 -0.18777520274E+03  0.21024259183E+03  0.92246054365E+02 0.  0.
          5    1    4    4  502    0  0.20591253333E+02 -0.29107588635E+02 -0.50751563401E+02  0.62201789505E+02  0.47000000000E+01 0. -1.
         -5    1    3    3    0  503 -0.15023793799E+02 -0.49947585189E+02 -0.18526352066E+03  0.19252308364E+03  0.47000000000E+01 0.  1.
          5    1    3    3  503    0  0.21326954454E+02  0.30114373745E+02 -0.70259698392E+02  0.79499872393E+02  0.47000000000E+01 0. -1.
         -5    1    4    4    0  502 -0.26894413988E+02  0.48940800079E+02 -0.13702363934E+03  0.14804080233E+03  0.47000000000E+01 0.  1.
<mgrwt>
<rscale>  0 0.94245983E+02</rscale>
<asrwt>0</asrwt>
<pdfrwt beam="1">  1        1 0.71197237E-01 0.94564373E+02</pdfrwt>
<pdfrwt beam="2">  1       -1 0.29974709E-02 0.94564373E+02</pdfrwt>
<totfact> 0.17229727E+04</totfact>
</mgrwt>
</event>
<event>
 8    1  0.3177960E-004  0.9224272E+02  0.7546771E-02  0.1298410E+00
          1   -1    0    0  501    0  0.00000000000E+00  0.00000000000E+00  0.23640441049E+03  0.23640441049E+03  0.00000000000E+00 0. -1.
         -1   -1    0    0    0  501 -0.00000000000E+00 -0.00000000000E+00 -0.50171689804E+02  0.50171689804E+02  0.00000000000E+00 0.  1.
         23    2    1    2    0    0 -0.18039435888E+02  0.83651604455E+00  0.15916471377E+02  0.93605841466E+02  0.90457716582E+02 0.  0.
         23    2    1    2    0    0  0.18039435888E+02 -0.83651604455E+00  0.17031624931E+03  0.19297025883E+03  0.88903177711E+02 0.  0.
          5    1    4    4  502    0 -0.67444077871E+01 -0.35984345364E+02  0.12492542244E+03  0.13026439007E+03  0.47000000000E+01 0. -1.
         -5    1    3    3    0  503 -0.50988875506E+02  0.12136004180E+02  0.23525775672E+02  0.57642867241E+02  0.47000000000E+01 0.  1.
          5    1    3    3  503    0  0.32949439618E+02 -0.11299488135E+02 -0.76093042952E+01  0.35962974225E+02  0.47000000000E+01 0. -1.
         -5    1    4    4    0  502  0.24783843675E+02  0.35147829319E+02  0.45390826868E+02  0.62705868760E+02  0.47000000000E+01 0.  1.
<mgrwt>
<rscale>  0 0.91859351E+02</rscale>
<asrwt>0</asrwt>
<pdfrwt beam="1">  1        1 0.36369909E-01 0.92242721E+02</pdfrwt>
<pdfrwt beam="2">  1       -1 0.77187217E-02 0.92242721E+02</pdfrwt>
<totfact> 0.98559446E+03</totfact>
</mgrwt>
</event>
<event>
 8    1  0.3177960E-004  0.9304462E+02  0.7546771E-02  0.1296369E+00
          2   -1    0    0  501    0  0.00000000000E+00  0.00000000000E+00  0.16692044398E+03  0.16692044398E+03  0.00000000000E+00 0. -1.
         -2   -1    0    0    0  501 -0.00000000000E+00 -0.00000000000E+00 -0.62349151174E+02  0.62349151174E+02  0.00000000000E+00 0.  1.
         23    2    1    2    0    0  0.15244163586E+02  0.93283200276E+01  0.40403173697E+01  0.93132296476E+02  0.91312093418E+02 0.  0.
         23    2    1    2    0    0 -0.15244163586E+02 -0.93283200276E+01  0.10053097544E+03  0.13613729868E+03  0.90041573683E+02 0.  0.
          5    1    4    4  502    0 -0.45329468155E+02 -0.23405092373E+02  0.84826306172E+02  0.99096676286E+02  0.47000000000E+01 0. -1.
         -5    1    3    3    0  503  0.46033361014E+02  0.26270510009E+02 -0.11470581283E+02  0.54432290576E+02  0.47000000000E+01 0.  1.
          5    1    3    3  503    0 -0.30789197428E+02 -0.16942189982E+02  0.15510898653E+02  0.38700005900E+02  0.47000000000E+01 0. -1.
         -5    1    4    4    0  502  0.30085304568E+02  0.14076772346E+02  0.15704669269E+02  0.37040622396E+02  0.47000000000E+01 0.  1.
<mgrwt>
<rscale>  0 0.92731403E+02</rscale>
<asrwt>0</asrwt>
<pdfrwt beam="1">  1        2 0.25680068E-01 0.93044616E+02</pdfrwt>
<pdfrwt beam="2">  1       -2 0.95921772E-02 0.93044616E+02</pdfrwt>
<totfact> 0.13380790E+04</totfact>
</mgrwt>
</event>
<event>
 8    1  0.3177960E-004  0.1193003E+03  0.7546771E-02  0.1244550E+00
         -2   -1    0    0    0  501 -0.00000000000E+00  0.00000000000E+00  0.18951846321E+03  0.18951846321E+03  0.00000000000E+00 0.  1.
          2   -1    0    0  501    0  0.00000000000E+00 -0.00000000000E+00 -0.12714993451E+03  0.12714993451E+03  0.00000000000E+00 0. -1.
         23    2    1    2    0    0  0.78187995771E+02  0.12931652547E+02  0.13286587153E+03  0.17809556920E+03  0.88227555950E+02 0.  0.
         23    2    1    2    0    0 -0.78187995771E+02 -0.12931652547E+02 -0.70497342834E+02  0.13857282852E+03  0.89173780546E+02 0.  0.
          5    1    3    3  502    0  0.23137329481E+02 -0.11562900494E+02 -0.57202523645E+01  0.26904422880E+02  0.47000000000E+01 0. -1.
         -5    1    4    4    0  503 -0.11008116146E+02  0.32840137488E+02 -0.78210124345E+01  0.35817753794E+02  0.47000000000E+01 0.  1.
          5    1    4    4  503    0 -0.67179879625E+02 -0.45771790035E+02 -0.62676330399E+02  0.10275507472E+03  0.47000000000E+01 0. -1.
         -5    1    3    3    0  502  0.55050666290E+02  0.24494553041E+02  0.13858612390E+03  0.15119114632E+03  0.47000000000E+01 0.  1.
<mgrwt>
<rscale>  0 0.11912347E+03</rscale>
<asrwt>0</asrwt>
<pdfrwt beam="1">  1        2 0.19561528E-01 0.11930027E+03</pdfrwt>
<pdfrwt beam="2">  1       -2 0.29156687E-01 0.11930027E+03</pdfrwt>
<totfact> 0.29375708E+03</totfact>
</mgrwt>
</event>
<event>
 8    1  0.3177960E-004  0.1033626E+03  0.7546771E-02  0.1273708E+00
         -2   -1    0    0    0  501 -0.00000000000E+00  0.00000000000E+00  0.77660736449E+02  0.77660736449E+02  0.00000000000E+00 0.  1.
          2   -1    0    0  501    0  0.00000000000E+00 -0.00000000000E+00 -0.14208802752E+03  0.14208802752E+03  0.00000000000E+00 0. -1.
         23    2    1    2    0    0  0.10087175662E+02  0.44671675705E+02 -0.10731868621E+02  0.10327122451E+03  0.91937277989E+02 0.  0.
         23    2    1    2    0    0 -0.10087175662E+02 -0.44671675705E+02 -0.53695422453E+02  0.11647753946E+03  0.92663418263E+02 0.  0.
          5    1    4    4  502    0 -0.47469343811E+02 -0.44859629391E+02 -0.37579654505E+02  0.75498644913E+02  0.47000000000E+01 0. -1.
         -5    1    4    4    0  502  0.37382168149E+02  0.18795368642E+00 -0.16115767948E+02  0.40978894552E+02  0.47000000000E+01 0.  1.
          5    1    3    3  503    0 -0.13171445785E+02  0.26989743928E+02 -0.47302379730E+02  0.56227558985E+02  0.47000000000E+01 0. -1.
         -5    1    3    3    0  503  0.23258621447E+02  0.17681931777E+02  0.36570511109E+02  0.47043665522E+02  0.47000000000E+01 0.  1.
<mgrwt>
<rscale>  0 0.10319956E+03</rscale>
<asrwt>0</asrwt>
<pdfrwt beam="1">  1        2 0.21859697E-01 0.10336256E+03</pdfrwt>
<pdfrwt beam="2">  1       -2 0.11947806E-01 0.10336256E+03</pdfrwt>
<totfact> 0.11431444E+04</totfact>
</mgrwt>
</event>
<event>
 8    1  0.3177960E-004  0.9816772E+02  0.7546771E-02  0.1284938E+00
         -3   -1    0    0    0  501 -0.00000000000E+00  0.00000000000E+00  0.26523846255E+03  0.26523846255E+03  0.00000000000E+00 0.  1.
          3   -1    0    0  501    0  0.00000000000E+00 -0.00000000000E+00 -0.42483369263E+02  0.42483369263E+02  0.00000000000E+00 0. -1.
         23    2    1    2    0    0 -0.38695721537E+02 -0.20408098587E+01  0.51145581212E+02  0.11069223652E+03  0.90196324633E+02 0.  0.
         23    2    1    2    0    0  0.38695721537E+02  0.20408098587E+01  0.17160951207E+03  0.19702959529E+03  0.88709148445E+02 0.  0.
          5    1    3    3  502    0 -0.28618749557E+01 -0.39656111140E+02  0.37481199270E+01  0.40211141267E+02  0.47000000000E+01 0. -1.
         -5    1    3    3    0  502 -0.35833846582E+02  0.37615301281E+02  0.47397461285E+02  0.70481095249E+02  0.47000000000E+01 0.  1.
          5    1    4    4  503    0 -0.18862969173E+02 -0.22308775221E+02  0.29837255298E+02  0.42021956899E+02  0.47000000000E+01 0. -1.
         -5    1    4    4    0  503  0.57558690710E+02  0.24349585080E+02  0.14177225678E+03  0.15500763840E+03  0.47000000000E+01 0.  1.
<mgrwt>
<rscale>  0 0.97824766E+02</rscale>
<asrwt>0</asrwt>
<pdfrwt beam="1">  1        3 0.65359032E-02 0.98167717E+02</pdfrwt>
<pdfrwt beam="2">  1       -3 0.40805916E-01 0.98167717E+02</pdfrwt>
<totfact> 0.19130791E+03</totfact>
</mgrwt>
</event>
<event>
 8    1  0.3177960E-004  0.1158491E+03  0.7546771E-02  0.1250549E+00
          2   -1    0    0  501    0  0.00000000000E+00  0.00000000000E+00  0.88492951150E+03  0.88492951150E+03  0.00000000000E+00 0. -1.
         -2   -1    0    0    0  501 -0.00000000000E+00 -0.00000000000E+00 -0.23275831794E+03  0.23275831794E+03  0.00000000000E+00 0.  1.
         23    2    1    2    0    0 -0.45038802073E+02  0.56298593466E+02 -0.21431692959E+03  0.24362421658E+03  0.90680688578E+02 0.  0.
         23    2    1    2    0    0  0.45038802073E+02 -0.56298593466E+02  0.86648812314E+03  0.87406361285E+03  0.89372850732E+02 0.  0.
          5    1    4    4  502    0  0.71951944724E+02 -0.39194381958E+02  0.65805796161E+03  0.66315582842E+03  0.47000000000E+01 0. -1.
         -5    1    4    4    0  502 -0.26913142652E+02 -0.17104211508E+02  0.20843016153E+03  0.21090778444E+03  0.47000000000E+01 0.  1.
          5    1    3    3  503    0 -0.31067138495E+02 -0.14140327307E+02 -0.29745206846E+02  0.45519043058E+02  0.47000000000E+01 0. -1.
         -5    1    3    3    0  503 -0.13971663578E+02  0.70438920773E+02 -0.18457172274E+03  0.19810517353E+03  0.47000000000E+01 0.  1.
<mgrwt>
<rscale>  0 0.11559304E+03</rscale>
<asrwt>0</asrwt>
<pdfrwt beam="1">  1        2 0.13614300E+00 0.11584909E+03</pdfrwt>
<pdfrwt beam="2">  1       -2 0.35808972E-01 0.11584909E+03</pdfrwt>
<totfact> 0.23732748E+02</totfact>
</mgrwt>
</event>
<event>
 8    1  0.3177960E-004  0.9913938E+02  0.7546771E-02  0.1282280E+00
         -1   -1    0    0    0  501 -0.00000000000E+00  0.00000000000E+00  0.53303189449E+02  0.53303189449E+02  0.00000000000E+00 0.  1.
          1   -1    0    0  501    0  0.00000000000E+00 -0.00000000000E+00 -0.18865460453E+03  0.18865460453E+03  0.00000000000E+00 0. -1.
         23    2    1    2    0    0  0.84589127547E+00 -0.42145003051E+02 -0.86942445263E+02  0.13163080365E+03  0.89391067044E+02 0.  0.
         23    2    1    2    0    0 -0.84589127547E+00  0.42145003051E+02 -0.48408969816E+02  0.11032699033E+03  0.89731263345E+02 0.  0.
          5    1    4    4  502    0 -0.41848733261E+02  0.38865516340E+02 -0.22991082002E+02  0.61745645090E+02  0.47000000000E+01 0. -1.
         -5    1    4    4    0  502  0.41002841986E+02  0.32794867109E+01 -0.25417887813E+02  0.48581345235E+02  0.47000000000E+01 0.  1.
          5    1    3    3  503    0  0.25847590384E+02 -0.80953491564E+01 -0.84720718164E+02  0.89069201707E+02  0.47000000000E+01 0. -1.
         -5    1    3    3    0  503 -0.25001699108E+02 -0.34049653895E+02 -0.22217270991E+01  0.42561601943E+02  0.47000000000E+01 0.  1.
<mgrwt>
<rscale>  0 0.99062337E+02</rscale>
<asrwt>0</asrwt>
<pdfrwt beam="1">  1        1 0.29023785E-01 0.99139379E+02</pdfrwt>
<pdfrwt beam="2">  1       -1 0.82004908E-02 0.99139379E+02</pdfrwt>
<totfact> 0.11952185E+04</totfact>
</mgrwt>
</event>
<event>
 8    1  0.3177960E-004  0.1108128E+03  0.7546771E-02  0.1260207E+00
         -1   -1    0    0    0  501 -0.00000000000E+00  0.00000000000E+00  0.32744474714E+03  0.32744474714E+03  0.00000000000E+00 0.  1.
          1   -1    0    0  501    0  0.00000000000E+00 -0.00000000000E+00 -0.78755801096E+02  0.78755801096E+02  0.00000000000E+00 0. -1.
         23    2    1    2    0    0 -0.58533096429E+02  0.16186164605E+02  0.27344240172E+03  0.29504276325E+03  0.92689642262E+02 0.  0.
         23    2    1    2    0    0  0.58533096429E+02 -0.16186164605E+02 -0.24753455675E+02  0.11115778499E+03  0.89750789937E+02 0.  0.
          5    1    4    4  502    0  0.33887990826E+02 -0.47628541235E+02 -0.36719450689E+02  0.69190186597E+02  0.47000000000E+01 0. -1.
         -5    1    4    4    0  502  0.24645105603E+02  0.31442376630E+02  0.11965995014E+02  0.41967598395E+02  0.47000000000E+01 0.  1.
          5    1    3    3  503    0 -0.41801368715E+02  0.48844986237E+02  0.11027121503E+03  0.12773025472E+03  0.47000000000E+01 0. -1.
         -5    1    3    3    0  503 -0.16731727715E+02 -0.32658821632E+02  0.16317118669E+03  0.16731250853E+03  0.47000000000E+01 0.  1.
<mgrwt>
<rscale>  0 0.11019615E+03</rscale>
<asrwt>0</asrwt>
<pdfrwt beam="1">  1        1 0.12116277E-01 0.11081284E+03</pdfrwt>
<pdfrwt beam="2">  1       -1 0.50376114E-01 0.11081284E+03</pdfrwt>
<totfact> 0.19360954E+03</totfact>
</mgrwt>
</event>
<event>
 8    1  0.3177960E-004  0.9308454E+02  0.7546771E-02  0.1296033E+00
         -1   -1    0    0    0  501 -0.00000000000E+00  0.00000000000E+00  0.13690541663E+03  0.13690541663E+03  0.00000000000E+00 0.  1.
          1   -1    0    0  501    0  0.00000000000E+00 -0.00000000000E+00 -0.64312339942E+02  0.64312339942E+02  0.00000000000E+00 0. -1.
         23    2    1    2    0    0  0.21919928923E+01  0.11565381331E+02  0.20654632656E+02  0.95348545721E+02  0.92337253819E+02 0.  0.
         23    2    1    2    0    0 -0.21919928923E+01 -0.11565381331E+02  0.51938444030E+02  0.10586921085E+03  0.91499316716E+02 0.  0.
          5    1    3    3  502    0  0.32923075043E+02 -0.27421472547E+02  0.11951931431E+02  0.44730355374E+02  0.47000000000E+01 0. -1.
         -5    1    4    4    0  503 -0.26812677435E+02 -0.73166460336E+01  0.69481212550E+02  0.74981210165E+02  0.47000000000E+01 0.  1.
          5    1    4    4  503    0  0.24620684542E+02 -0.42487352972E+01 -0.17542768520E+02  0.30888000685E+02  0.47000000000E+01 0. -1.
         -5    1    3    3    0  502 -0.30731082151E+02  0.38986853878E+02  0.87027012251E+01  0.50618190348E+02  0.47000000000E+01 0.  1.
<mgrwt>
<rscale>  0 0.92876052E+02</rscale>
<asrwt>0</asrwt>
<pdfrwt beam="1">  1        1 0.98942062E-02 0.93084539E+02</pdfrwt>
<pdfrwt beam="2">  1       -1 0.21062372E-01 0.93084539E+02</pdfrwt>
<totfact> 0.10908174E+04</totfact>
</mgrwt>
</event>
<event>
 8    1  0.3177960E-004  0.9352486E+02  0.7546771E-02  0.1296378E+00
         -1   -1    0    0    0  501 -0.00000000000E+00  0.00000000000E+00  0.27803685880E+03  0.27803685880E+03  0.00000000000E+00 0.  1.
          1   -1    0    0  501    0  0.00000000000E+00 -0.00000000000E+00 -0.34643149455E+02  0.34643149455E+02  0.00000000000E+00 0. -1.
         23    2    1    2    0    0  0.24386756802E+02  0.51790920671E+01  0.17817619904E+03  0.20123035700E+03  0.90140788614E+02 0.  0.
         23    2    1    2    0    0 -0.24386756802E+02 -0.51790920671E+01  0.65217510302E+02  0.11144965125E+03  0.86868660704E+02 0.  0.
          5    1    4    4  502    0 -0.51762740691E+02 -0.14228993008E+02  0.19724845950E+02  0.57384711497E+02  0.47000000000E+01 0. -1.
         -5    1    4    4    0  502  0.27375983890E+02  0.90499009410E+01  0.45492664352E+02  0.54064939756E+02  0.47000000000E+01 0.  1.
          5    1    3    3  503    0  0.36057803650E+01  0.33638278309E+02  0.21025327692E+02  0.40108475715E+02  0.47000000000E+01 0. -1.
         -5    1    3    3    0  503  0.20780976437E+02 -0.28459186241E+02  0.15715087135E+03  0.16112188129E+03  0.47000000000E+01 0.  1.
<mgrwt>
<rscale>  0 0.92727332E+02</rscale>
<asrwt>0</asrwt>
<pdfrwt beam="1">  1        1 0.53297155E-02 0.93524856E+02</pdfrwt>
<pdfrwt beam="2">  1       -1 0.42774900E-01 0.93524856E+02</pdfrwt>
<totfact> 0.76306135E+03</totfact>
</mgrwt>
</event>
<event>
 8    1  0.3177960E-004  0.9724080E+02  0.7546771E-02  0.1287332E+00
         -1   -1    0    0    0  501 -0.00000000000E+00  0.00000000000E+00  0.17782946453E+02  0.17782946453E+02  0.00000000000E+00 0.  1.
          1   -1    0    0  501    0  0.00000000000E+00 -0.00000000000E+00 -0.85135560023E+03  0.85135560023E+03  0.00000000000E+00 0. -1.
         23    2    1    2    0    0  0.70619133048E+01 -0.25115499698E+02 -0.14864746986E+03  0.17762838649E+03  0.93675580854E+02 0.  0.
         23    2    1    2    0    0 -0.70619133048E+01  0.25115499698E+02 -0.68492518392E+03  0.69151016019E+03  0.91559462277E+02 0.  0.
          5    1    4    4  502    0 -0.29386297459E+02  0.52000146764E+02 -0.43955812908E+03  0.44362259701E+03  0.47000000000E+01 0. -1.
         -5    1    4    4    0  502  0.22324384154E+02 -0.26884647066E+02 -0.24536705484E+03  0.24788756318E+03  0.47000000000E+01 0.  1.
          5    1    3    3  503    0 -0.45835239508E+00  0.34718955051E+02 -0.71238577704E+02  0.79389173569E+02  0.47000000000E+01 0. -1.
         -5    1    3    3    0  503  0.75202656999E+01 -0.59834454750E+02 -0.77408892152E+02  0.98239212922E+02  0.47000000000E+01 0.  1.
<mgrwt>
<rscale>  0 0.96727542E+02</rscale>
<asrwt>0</asrwt>
<pdfrwt beam="1">  1        1 0.13097777E+00 0.97240801E+02</pdfrwt>
<pdfrwt beam="2">  1       -1 0.27358383E-02 0.97240801E+02</pdfrwt>
<totfact> 0.85288373E+03</totfact>
</mgrwt>
</event>
<event>
 8    1  0.3177960E-004  0.9646158E+02  0.7546771E-02  0.1290312E+00
         -1   -1    0    0    0  501 -0.00000000000E+00  0.00000000000E+00  0.14723831086E+02  0.14723831086E+02  0.00000000000E+00 0.  1.
          1   -1    0    0  501    0  0.00000000000E+00 -0.00000000000E+00 -0.67661179909E+03  0.67661179909E+03  0.00000000000E+00 0. -1.
         23    2    1    2    0    0 -0.28055683560E+02 -0.12670071250E+02 -0.45039726745E+03  0.46061104510E+03  0.91417636485E+02 0.  0.
         23    2    1    2    0    0  0.28055683560E+02  0.12670071250E+02 -0.21149070056E+03  0.23072458507E+03  0.86935985935E+02 0.  0.
          5    1    4    4  502    0  0.79346232451E+01 -0.20314337788E+02 -0.17795479057E+03  0.17934778519E+03  0.47000000000E+01 0. -1.
         -5    1    3    3    0  503 -0.37926719626E+02 -0.46576057810E+02 -0.30688796363E+03  0.31274602706E+03  0.47000000000E+01 0.  1.
          5    1    3    3  503    0  0.98710360656E+01  0.33905986560E+02 -0.14350930382E+03  0.14786501804E+03  0.47000000000E+01 0. -1.
         -5    1    4    4    0  502  0.20121060315E+02  0.32984409038E+02 -0.33535909989E+02  0.51376799887E+02  0.47000000000E+01 0.  1.
<mgrwt>
<rscale>  0 0.95384624E+02</rscale>
<asrwt>0</asrwt>
<pdfrwt beam="1">  1        1 0.10409411E+00 0.96461580E+02</pdfrwt>
<pdfrwt beam="2">  1       -1 0.22652051E-02 0.96461580E+02</pdfrwt>
<totfact> 0.15619636E+04</totfact>
</mgrwt>
</event>
<event>
 8    1  0.3177960E-004  0.9668355E+02  0.7546771E-02  0.1292333E+00
          3   -1    0    0  501    0  0.00000000000E+00  0.00000000000E+00  0.13153873525E+03  0.13153873525E+03  0.00000000000E+00 0. -1.
         -3   -1    0    0    0  501 -0.00000000000E+00 -0.00000000000E+00 -0.64973256478E+02  0.64973256478E+02  0.00000000000E+00 0.  1.
         23    2    1    2    0    0 -0.53994495647E+01 -0.25044426513E+02  0.33556185047E+02  0.10234122152E+03  0.93227306687E+02 0.  0.
         23    2    1    2    0    0  0.53994495647E+01  0.25044426513E+02  0.33009293720E+02  0.94170770204E+02  0.84392790770E+02 0.  0.
          5    1    4    4  502    0  0.40121890649E+02  0.16276265568E+01  0.32744971624E+02  0.52026324530E+02  0.47000000000E+01 0. -1.
         -5    1    3    3    0  503  0.86962267249E+01  0.29537769379E+02  0.33540251265E+02  0.45772728060E+02  0.47000000000E+01 0.  1.
          5    1    3    3  503    0 -0.14095676290E+02 -0.54582195892E+02  0.15933782407E-01  0.56568493460E+02  0.47000000000E+01 0. -1.
         -5    1    4    4    0  502 -0.34722441084E+02  0.23416799956E+02  0.26432209532E+00  0.42144445674E+02  0.47000000000E+01 0.  1.
<mgrwt>
<rscale>  0 0.94487977E+02</rscale>
<asrwt>0</asrwt>
<pdfrwt beam="1">  1        3 0.20236729E-01 0.96683546E+02</pdfrwt>
<pdfrwt beam="2">  1       -3 0.99958856E-02 0.96683546E+02</pdfrwt>
<totfact> 0.34593819E+03</totfact>
</mgrwt>
</event>
<event>
 8    1  0.3177960E-004  0.9264542E+02  0.7546771E-02  0.1298060E+00
         -1   -1    0    0    0  501 -0.00000000000E+00  0.00000000000E+00  0.38810419418E+03  0.38810419418E+03  0.00000000000E+00 0.  1.
          1   -1    0    0  501    0  0.00000000000E+00 -0.00000000000E+00 -0.92156871681E+02  0.92156871681E+02  0.00000000000E+00 0. -1.
         23    2    1    2    0    0 -0.13502431067E+01  0.16289472820E+02  0.35772781128E+03  0.36890576412E+03  0.88629034526E+02 0.  0.
         23    2    1    2    0    0  0.13502431067E+01 -0.16289472820E+02 -0.61780488773E+02  0.11135530174E+03  0.91192128784E+02 0.  0.
          5    1    3    3  502    0  0.43299005885E+02  0.81588212944E+01  0.18811762669E+03  0.19326588356E+03  0.47000000000E+01 0. -1.
         -5    1    3    3    0  502 -0.44649248991E+02  0.81306515253E+01  0.16961018459E+03  0.17563988057E+03  0.47000000000E+01 0.  1.
          5    1    4    4  503    0 -0.27366417424E+02 -0.13445145011E+02 -0.73611383283E+02  0.79814901339E+02  0.47000000000E+01 0. -1.
         -5    1    4    4    0  503  0.28716660531E+02 -0.28443278087E+01  0.11830894510E+02  0.31540400404E+02  0.47000000000E+01 0.  1.
<mgrwt>
<rscale>  0 0.92008446E+02</rscale>
<asrwt>0</asrwt>
<pdfrwt beam="1">  1        1 0.14177980E-01 0.92645423E+02</pdfrwt>
<pdfrwt beam="2">  1       -1 0.59708337E-01 0.92645423E+02</pdfrwt>
<totfact> 0.11460065E+03</totfact>
</mgrwt>
</event>
<event>
 8    1  0.3177960E-004  0.9289752E+02  0.7546771E-02  0.1298692E+00
          4   -1    0    0  501    0  0.00000000000E+00  0.00000000000E+00  0.22862726529E+02  0.22862726529E+02  0.00000000000E+00 0. -1.
         -4   -1    0    0    0  501 -0.00000000000E+00 -0.00000000000E+00 -0.44407757183E+03  0.44407757183E+03  0.00000000000E+00 0.  1.
         23    2    1    2    0    0  0.90932903894E+01  0.25648907715E+02 -0.11285203413E+03  0.14616952935E+03  0.88822268066E+02 0.  0.
         23    2    1    2    0    0 -0.90932903894E+01 -0.25648907715E+02 -0.30836281117E+03  0.32077076901E+03  0.84057769093E+02 0.  0.
          5    1    3    3  502    0  0.36561434147E+02 -0.10608614349E+02 -0.21406657221E+02  0.43927396220E+02  0.47000000000E+01 0. -1.
         -5    1    3    3    0  502 -0.27468143758E+02  0.36257522064E+02 -0.91445376911E+02  0.10224213313E+03  0.47000000000E+01 0.  1.
          5    1    4    4  503    0  0.28663868262E+02  0.97937179922E+01 -0.64335622966E+02  0.71264974835E+02  0.47000000000E+01 0. -1.
         -5    1    4    4    0  503 -0.37757158652E+02 -0.35442625707E+02 -0.24402718820E+03  0.24950579418E+03  0.47000000000E+01 0.  1.
<mgrwt>
<rscale>  0 0.91739949E+02</rscale>
<asrwt>0</asrwt>
<pdfrwt beam="1">  1        4 0.35173428E-02 0.92897523E+02</pdfrwt>
<pdfrwt beam="2">  1       -4 0.68319622E-01 0.92897523E+02</pdfrwt>
<totfact> 0.12740478E+03</totfact>
</mgrwt>
</event>
<event>
 8    1  0.3177960E-004  0.1006516E+03  0.7546771E-02  0.1280260E+00
         -1   -1    0    0    0  501 -0.00000000000E+00  0.00000000000E+00  0.41350263680E+02  0.41350263680E+02  0.00000000000E+00 0.  1.
          1   -1    0    0  501    0  0.00000000000E+00 -0.00000000000E+00 -0.70633741971E+03  0.70633741971E+03  0.00000000000E+00 0. -1.
         23    2    1    2    0    0  0.15453893114E+02  0.34295533436E+02 -0.29809069384E+02  0.10497300929E+03  0.93358157845E+02 0.  0.
         23    2    1    2    0    0 -0.15453893114E+02 -0.34295533436E+02 -0.63517808665E+03  0.64271467410E+03  0.90641845292E+02 0.  0.
          5    1    3    3  502    0 -0.35625166247E+02  0.27684353007E+02 -0.16742736321E+00  0.45361811069E+02  0.47000000000E+01 0. -1.
         -5    1    4    4    0  503  0.26892213486E+01  0.26780032481E+02 -0.97546853211E+02  0.10130094088E+03  0.47000000000E+01 0.  1.
          5    1    4    4  503    0 -0.18143114463E+02 -0.61075565917E+02 -0.53763123344E+03  0.54141373322E+03  0.47000000000E+01 0. -1.
         -5    1    3    3    0  502  0.51079059361E+02  0.66111804283E+01 -0.29641642020E+02  0.59611198223E+02  0.47000000000E+01 0.  1.
<mgrwt>
<rscale>  0 0.10001710E+03</rscale>
<asrwt>0</asrwt>
<pdfrwt beam="1">  1        1 0.10866730E+00 0.10065164E+03</pdfrwt>
<pdfrwt beam="2">  1       -1 0.63615789E-02 0.10065164E+03</pdfrwt>
<totfact> 0.32833611E+03</totfact>
</mgrwt>
</event>
<event>
 8    1  0.3177960E-004  0.1139466E+03  0.7546771E-02  0.1254212E+00
          1   -1    0    0  501    0  0.00000000000E+00  0.00000000000E+00  0.24271454628E+03  0.24271454628E+03  0.00000000000E+00 0. -1.
         -1   -1    0    0    0  501 -0.00000000000E+00 -0.00000000000E+00 -0.10281498945E+03  0.10281498945E+03  0.00000000000E+00 0.  1.
         23    2    1    2    0    0  0.18562907329E+02  0.65011586119E+02  0.19087334773E+03  0.22229814059E+03  0.91720993110E+02 0.  0.
         23    2    1    2    0    0 -0.18562907329E+02 -0.65011586119E+02 -0.50973790896E+02  0.12323139514E+03  0.89535253010E+02 0.  0.
          5    1    4    4  502    0  0.31542667445E+02 -0.88974216047E+01 -0.16457670720E+01  0.33149698792E+02  0.47000000000E+01 0. -1.
         -5    1    3    3    0  503  0.40604215867E+02  0.29666249125E+02  0.36447707729E+02  0.62284139892E+02  0.47000000000E+01 0.  1.
          5    1    3    3  503    0 -0.22041308539E+02  0.35345336995E+02  0.15442564000E+03  0.16001400070E+03  0.47000000000E+01 0. -1.
         -5    1    4    4    0  502 -0.50105574773E+02 -0.56114164515E+02 -0.49328023824E+02  0.90081696348E+02  0.47000000000E+01 0.  1.
<mgrwt>
<rscale>  0 0.11350608E+03</rscale>
<asrwt>0</asrwt>
<pdfrwt beam="1">  1        1 0.37340699E-01 0.11394660E+03</pdfrwt>
<pdfrwt beam="2">  1       -1 0.15817691E-01 0.11394660E+03</pdfrwt>
<totfact> 0.32419318E+03</totfact>
</mgrwt>
</event>
<event>
 8    1  0.3177960E-004  0.9269217E+02  0.7546771E-02  0.1305196E+00
         -1   -1    0    0    0  501 -0.00000000000E+00  0.00000000000E+00  0.30743476943E+02  0.30743476943E+02  0.00000000000E+00 0.  1.
          1   -1    0    0  501    0  0.00000000000E+00 -0.00000000000E+00 -0.31895244460E+03  0.31895244460E+03  0.00000000000E+00 0. -1.
         23    2    1    2    0    0 -0.14606438875E+02  0.15516024909E+02 -0.23984886622E+03  0.25713676857E+03  0.90209445377E+02 0.  0.
         23    2    1    2    0    0  0.14606438875E+02 -0.15516024909E+02 -0.48360101434E+02  0.92559152976E+02  0.75989488111E+02 0.  0.
          5    1    4    4  502    0  0.66062725056E+01 -0.39516882835E+02 -0.30537734385E+01  0.40455437182E+02  0.47000000000E+01 0. -1.
         -5    1    4    4    0  502  0.80001663696E+01  0.24000857926E+02 -0.45306327996E+02  0.52103715794E+02  0.47000000000E+01 0.  1.
          5    1    3    3  503    0  0.17466457401E+02 -0.29175791537E+02 -0.12622850742E+03  0.13081295819E+03  0.47000000000E+01 0. -1.
         -5    1    3    3    0  503 -0.32072896276E+02  0.44691816446E+02 -0.11362035880E+03  0.12632381037E+03  0.47000000000E+01 0.  1.
<mgrwt>
<rscale>  0 0.89038987E+02</rscale>
<asrwt>0</asrwt>
<pdfrwt beam="1">  1        1 0.49069608E-01 0.92692174E+02</pdfrwt>
<pdfrwt beam="2">  1       -1 0.47297656E-02 0.92692174E+02</pdfrwt>
<totfact> 0.14086122E+04</totfact>
</mgrwt>
</event>
<event>
 8    1  0.3177960E-004  0.1311271E+03  0.7546771E-02  0.1234920E+00
          1   -1    0    0  501    0  0.00000000000E+00  0.00000000000E+00  0.84686868624E+02  0.84686868624E+02  0.00000000000E+00 0. -1.
         -1   -1    0    0    0  501 -0.00000000000E+00 -0.00000000000E+00 -0.19957503938E+03  0.19957503938E+03  0.00000000000E+00 0.  1.
         23    2    1    2    0    0 -0.21171374467E+02  0.45991408297E+02 -0.72207509941E+01  0.13132574984E+03  0.12095816050E+03 0.  0.
         23    2    1    2    0    0  0.21171374467E+02 -0.45991408297E+02 -0.10766741976E+03  0.15293615816E+03  0.96092447472E+02 0.  0.
          5    1    4    4  502    0  0.45225196490E+01 -0.27716465926E+02  0.11818630824E+02  0.30828975039E+02  0.47000000000E+01 0. -1.
         -5    1    3    3    0  503 -0.46100471448E+02  0.75063383264E+02  0.10554758028E+02  0.88844008756E+02  0.47000000000E+01 0.  1.
          5    1    3    3  503    0  0.24929096981E+02 -0.29071974967E+02 -0.17775509022E+02  0.42481741087E+02  0.47000000000E+01 0. -1.
         -5    1    4    4    0  502  0.16648854818E+02 -0.18274942371E+02 -0.11948605059E+03  0.12210718312E+03  0.47000000000E+01 0.  1.
<mgrwt>
<rscale>  0 0.12509549E+03</rscale>
<asrwt>0</asrwt>
<pdfrwt beam="1">  1        1 0.13028749E-01 0.13112709E+03</pdfrwt>
<pdfrwt beam="2">  1       -1 0.30703852E-01 0.13112709E+03</pdfrwt>
<totfact> 0.42169529E+03</totfact>
</mgrwt>
</event>
<event>
 8    1  0.3177960E-004  0.8988371E+02  0.7546771E-02  0.1303208E+00
          1   -1    0    0  501    0  0.00000000000E+00  0.00000000000E+00  0.42510073508E+03  0.42510073508E+03  0.00000000000E+00 0. -1.
         -1   -1    0    0    0  501 -0.00000000000E+00 -0.00000000000E+00 -0.26061086806E+02  0.26061086806E+02  0.00000000000E+00 0.  1.
         23    2    1    2    0    0 -0.36457239265E+01 -0.10925530650E+01  0.31721336930E+03  0.32970199241E+03  0.89803102178E+02 0.  0.
         23    2    1    2    0    0  0.36457239265E+01  0.10925530650E+01  0.81826278974E+02  0.12145982948E+03  0.89679792989E+02 0.  0.
          5    1    3    3  502    0  0.21203475119E+02 -0.38621762241E+02  0.17082779601E+03  0.17648074616E+03  0.47000000000E+01 0. -1.
         -5    1    3    3    0  502 -0.24849199046E+02  0.37529209176E+02  0.14638557329E+03  0.15322124625E+03  0.47000000000E+01 0.  1.
          5    1    4    4  503    0  0.44250737682E+02  0.29781624249E+01  0.24078325622E+02  0.50683853460E+02  0.47000000000E+01 0. -1.
         -5    1    4    4    0  503 -0.40605013755E+02 -0.18856093599E+01  0.57747953351E+02  0.70775976016E+02  0.47000000000E+01 0.  1.
<mgrwt>
<rscale>  0 0.89852899E+02</rscale>
<asrwt>0</asrwt>
<pdfrwt beam="1">  1        1 0.65400108E-01 0.89883715E+02</pdfrwt>
<pdfrwt beam="2">  1       -1 0.40093983E-02 0.89883715E+02</pdfrwt>
<totfact> 0.12529579E+04</totfact>
</mgrwt>
</event>
<event>
 8    1  0.3177960E-004  0.1189140E+03  0.7546771E-02  0.1245669E+00
          2   -1    0    0  501    0  0.00000000000E+00  0.00000000000E+00  0.26756968659E+03  0.26756968659E+03  0.00000000000E+00 0. -1.
         -2   -1    0    0    0  501 -0.00000000000E+00 -0.00000000000E+00 -0.15401565659E+03  0.15401565659E+03  0.00000000000E+00 0.  1.
         23    2    1    2    0    0  0.58454718007E+02  0.44987091960E+02  0.22815023739E+03  0.25644048280E+03  0.90930731309E+02 0.  0.
         23    2    1    2    0    0 -0.58454718007E+02 -0.44987091960E+02 -0.11459620739E+03  0.16514486038E+03  0.93272405687E+02 0.  0.
          5    1    4    4  502    0 -0.24124228446E+01 -0.46901245686E+02 -0.94070141553E+02  0.10524651140E+03  0.47000000000E+01 0. -1.
         -5    1    3    3    0  503 -0.13304301001E+02 -0.17032186796E+02  0.42064686584E+02  0.47525021510E+02  0.47000000000E+01 0.  1.
          5    1    3    3  503    0  0.71759019008E+02  0.62019278755E+02  0.18608555080E+03  0.20891546129E+03  0.47000000000E+01 0. -1.
         -5    1    4    4    0  502 -0.56042295163E+02  0.19141537262E+01 -0.20526065833E+02  0.59898348977E+02  0.47000000000E+01 0.  1.
<mgrwt>
<rscale>  0 0.11845439E+03</rscale>
<asrwt>0</asrwt>
<pdfrwt beam="1">  1        2 0.41164567E-01 0.11891398E+03</pdfrwt>
<pdfrwt beam="2">  1       -2 0.23694717E-01 0.11891398E+03</pdfrwt>
<totfact> 0.18821045E+03</totfact>
</mgrwt>
</event>
<event>
 8    1  0.1010478E-003  0.1064873E+03  0.7546771E-02  0.1267724E+00
          1   -1    0    0  501    0  0.00000000000E+00  0.00000000000E+00  0.45951440663E+03  0.45951440663E+03  0.00000000000E+00 0. -1.
         -1   -1    0    0    0  501 -0.00000000000E+00 -0.00000000000E+00 -0.81353656948E+02  0.81353656948E+02  0.00000000000E+00 0.  1.
         23    2    1    2    0    0  0.52638663185E+02  0.13456140014E+01  0.41556081604E+03  0.42898756128E+03  0.92557530047E+02 0.  0.
         23    2    1    2    0    0 -0.52638663185E+02 -0.13456140014E+01 -0.37400066357E+02  0.11188050230E+03  0.91355581613E+02 0.  0.
          5    1    4    4  502    0  0.23701114486E+02 -0.69408426259E+01  0.27980679271E+01  0.25295005601E+02  0.47000000000E+01 0. -1.
         -5    1    3    3    0  503 -0.24124059173E+02 -0.12835199794E+02  0.12909876642E+03  0.13204277366E+03  0.47000000000E+01 0.  1.
          5    1    3    3  503    0  0.76762722357E+02  0.14180813795E+02  0.28646204962E+03  0.29694478762E+03  0.47000000000E+01 0. -1.
         -5    1    4    4    0  502 -0.76339777671E+02  0.55952286245E+01 -0.40198134284E+02  0.86585496696E+02  0.47000000000E+01 0.  1.
<mgrwt>
<rscale>  0 0.10622553E+03</rscale>
<asrwt>0</asrwt>
<pdfrwt beam="1">  1        1 0.70694523E-01 0.10648726E+03</pdfrwt>
<pdfrwt beam="2">  1       -1 0.12515947E-01 0.10648726E+03</pdfrwt>
<totfact> 0.21062022E+03</totfact>
</mgrwt>
</event>
<event>
 8    1  0.3177960E-004  0.1199149E+03  0.7546771E-02  0.1243367E+00
         -1   -1    0    0    0  501 -0.00000000000E+00  0.00000000000E+00  0.41072936265E+02  0.41072936265E+02  0.00000000000E+00 0.  1.
          1   -1    0    0  501    0  0.00000000000E+00 -0.00000000000E+00 -0.63415719184E+03  0.63415719184E+03  0.00000000000E+00 0. -1.
         23    2    1    2    0    0  0.75460614626E+02 -0.12175401212E+00 -0.52264904072E+03  0.53615930192E+03  0.92792554057E+02 0.  0.
         23    2    1    2    0    0 -0.75460614626E+02  0.12175401212E+00 -0.70435214853E+02  0.13907082618E+03  0.93194720984E+02 0.  0.
          5    1    3    3  502    0  0.28709120715E+02 -0.45377364112E+02 -0.26013283656E+03  0.26565861823E+03  0.47000000000E+01 0. -1.
         -5    1    4    4    0  503 -0.63412620324E+02  0.18011667486E+02 -0.87733913358E+00  0.66094177549E+02  0.47000000000E+01 0.  1.
          5    1    4    4  503    0 -0.12047994302E+02 -0.17889913473E+02 -0.69557875720E+02  0.72976648631E+02  0.47000000000E+01 0. -1.
         -5    1    3    3    0  502  0.46751493910E+02  0.45255610100E+02 -0.26251620416E+03  0.27050068369E+03  0.47000000000E+01 0.  1.
<mgrwt>
<rscale>  0 0.11983672E+03</rscale>
<asrwt>0</asrwt>
<pdfrwt beam="1">  1        1 0.97562636E-01 0.11991487E+03</pdfrwt>
<pdfrwt beam="2">  1       -1 0.63189138E-02 0.11991487E+03</pdfrwt>
<totfact> 0.38842963E+03</totfact>
</mgrwt>
</event>
<event>
 8    1  0.3177960E-004  0.9684556E+02  0.7546771E-02  0.1295696E+00
          3   -1    0    0  501    0  0.00000000000E+00  0.00000000000E+00  0.25928790986E+02  0.25928790986E+02  0.00000000000E+00 0. -1.
         -3   -1    0    0    0  501 -0.00000000000E+00 -0.00000000000E+00 -0.31482790689E+03  0.31482790689E+03  0.00000000000E+00 0.  1.
         23    2    1    2    0    0  0.18277962162E+02  0.50686487333E+01 -0.15429732710E+03  0.17493539539E+03  0.80218154500E+02 0.  0.
         23    2    1    2    0    0 -0.18277962162E+02 -0.50686487333E+01 -0.13460178881E+03  0.16582130248E+03  0.94969930537E+02 0.  0.
          5    1    3    3  502    0 -0.22304176008E+02  0.25804118676E+02 -0.86593538820E+02  0.93187229669E+02  0.47000000000E+01 0. -1.
         -5    1    4    4    0  503 -0.27212713912E+02 -0.26032287871E+02 -0.13725264205E+03  0.14240291275E+03  0.47000000000E+01 0.  1.
          5    1    4    4  503    0  0.89347517497E+01  0.20963639138E+02  0.26508532422E+01  0.23418389732E+02  0.47000000000E+01 0. -1.
         -5    1    3    3    0  502  0.40582138170E+02 -0.20735469943E+02 -0.67703788277E+02  0.81748165724E+02  0.47000000000E+01 0.  1.
<mgrwt>
<rscale>  0 0.93021063E+02</rscale>
<asrwt>0</asrwt>
<pdfrwt beam="1">  1        3 0.39890448E-02 0.96845562E+02</pdfrwt>
<pdfrwt beam="2">  1       -3 0.48435062E-01 0.96845562E+02</pdfrwt>
<totfact> 0.29715868E+03</totfact>
</mgrwt>
</event>
<event>
 8    1  0.3177960E-004  0.9459516E+02  0.7546771E-02  0.1292215E+00
          1   -1    0    0  501    0  0.00000000000E+00  0.00000000000E+00  0.24186054317E+03  0.24186054317E+03  0.00000000000E+00 0. -1.
         -1   -1    0    0    0  501 -0.00000000000E+00 -0.00000000000E+00 -0.41902751542E+02  0.41902751542E+02  0.00000000000E+00 0.  1.
         23    2    1    2    0    0 -0.24441314716E+02 -0.52882500899E+01  0.50908702091E+02  0.10723036709E+03  0.91001715495E+02 0.  0.
         23    2    1    2    0    0  0.24441314716E+02  0.52882500899E+01  0.14904908954E+03  0.17653292763E+03  0.91229929247E+02 0.  0.
          5    1    3    3  502    0 -0.51108453605E+02 -0.15505777277E+02  0.56350398470E+02  0.77781492443E+02  0.47000000000E+01 0. -1.
         -5    1    4    4    0  503  0.38146735308E+02  0.25973027682E+02  0.14331523598E+03  0.15063571438E+03  0.47000000000E+01 0.  1.
          5    1    4    4  503    0 -0.13705420592E+02 -0.20684777592E+02  0.57338535612E+01  0.25897213253E+02  0.47000000000E+01 0. -1.
         -5    1    3    3    0  502  0.26667138889E+02  0.10217527187E+02 -0.54416963794E+01  0.29448874644E+02  0.47000000000E+01 0.  1.
<mgrwt>
<rscale>  0 0.94540088E+02</rscale>
<asrwt>0</asrwt>
<pdfrwt beam="1">  1        1 0.37209313E-01 0.94595156E+02</pdfrwt>
<pdfrwt beam="2">  1       -1 0.64465773E-02 0.94595156E+02</pdfrwt>
<totfact> 0.12551680E+04</totfact>
</mgrwt>
</event>
<event>
 8    1  0.3177960E-004  0.1025942E+03  0.7546771E-02  0.1276275E+00
          2   -1    0    0  501    0  0.00000000000E+00  0.00000000000E+00  0.35201133878E+03  0.35201133878E+03  0.00000000000E+00 0. -1.
         -2   -1    0    0    0  501 -0.00000000000E+00 -0.00000000000E+00 -0.55916708220E+02  0.55916708220E+02  0.00000000000E+00 0.  1.
         23    2    1    2    0    0  0.24699793823E+02  0.19383634227E+02  0.29015839345E+03  0.30776203077E+03  0.97671742116E+02 0.  0.
         23    2    1    2    0    0 -0.24699793823E+02 -0.19383634227E+02  0.59362371167E+01  0.10016601623E+03  0.94932538180E+02 0.  0.
          5    1    3    3  502    0  0.71133952849E+01  0.54817306427E+02  0.10935294328E+03  0.12262011939E+03  0.47000000000E+01 0. -1.
         -5    1    4    4    0  503 -0.30793223193E+02  0.29669957717E+02  0.21551005337E+02  0.48115120457E+02  0.47000000000E+01 0. -1.
          5    1    4    4  503    0  0.60934293704E+01 -0.49053591944E+02 -0.15614768220E+02  0.52050895772E+02  0.47000000000E+01 0.  1.
         -5    1    3    3    0  502  0.17586398538E+02 -0.35433672200E+02  0.18080545017E+03  0.18514191138E+03  0.47000000000E+01 0.  1.
<mgrwt>
<rscale>  0 0.10193686E+03</rscale>
<asrwt>0</asrwt>
<pdfrwt beam="1">  1        2 0.54155589E-01 0.10259422E+03</pdfrwt>
<pdfrwt beam="2">  1       -2 0.86025707E-02 0.10259422E+03</pdfrwt>
<totfact> 0.72403225E+03</totfact>
</mgrwt>
</event>
<event>
 8    1  0.3177960E-004  0.1838340E+03  0.7546771E-02  0.1165634E+00
          1   -1    0    0  501    0  0.00000000000E+00  0.00000000000E+00  0.55969992430E+03  0.55969992430E+03  0.00000000000E+00 0. -1.
         -1   -1    0    0    0  501 -0.00000000000E+00 -0.00000000000E+00 -0.10365333839E+03  0.10365333839E+03  0.00000000000E+00 0.  1.
         23    2    1    2    0    0 -0.15980451528E+03  0.97941811774E+00  0.65711348313E+01  0.17773704251E+03  0.77516669854E+02 0.  0.
         23    2    1    2    0    0  0.15980451528E+03 -0.97941811774E+00  0.44947545108E+03  0.48561622017E+03  0.90865228808E+02 0.  0.
          5    1    3    3  502    0 -0.16247940594E+02  0.18544149299E+02  0.20441733634E+02  0.32370287622E+02  0.47000000000E+01 0. -1.
         -5    1    4    4    0  503  0.61400977422E+02  0.41729804275E+02  0.22061875969E+03  0.23282221484E+03  0.47000000000E+01 0.  1.
          5    1    4    4  503    0  0.98403537857E+02 -0.42709222393E+02  0.22885669139E+03  0.25279400533E+03  0.47000000000E+01 0. -1.
         -5    1    3    3    0  502 -0.14355657468E+03 -0.17564731181E+02 -0.13870598803E+02  0.14536675489E+03  0.47000000000E+01 0.  1.
<mgrwt>
<rscale>  0 0.18225925E+03</rscale>
<asrwt>0</asrwt>
<pdfrwt beam="1">  1        1 0.86107679E-01 0.18383398E+03</pdfrwt>
<pdfrwt beam="2">  1       -1 0.15946668E-01 0.18383398E+03</pdfrwt>
<totfact> 0.11273219E+03</totfact>
</mgrwt>
</event>
<event>
 8    1  0.3177960E-004  0.9684392E+02  0.7546771E-02  0.1288789E+00
          1   -1    0    0  501    0  0.00000000000E+00  0.00000000000E+00  0.25455803376E+03  0.25455803376E+03  0.00000000000E+00 0. -1.
         -1   -1    0    0    0  501 -0.00000000000E+00 -0.00000000000E+00 -0.50386121029E+02  0.50386121029E+02  0.00000000000E+00 0.  1.
         23    2    1    2    0    0  0.17385932838E+02 -0.87660143533E+01  0.18327185358E+03  0.20587066468E+03  0.91733552150E+02 0.  0.
         23    2    1    2    0    0 -0.17385932838E+02  0.87660143533E+01  0.20900059149E+02  0.99073490114E+02  0.94866381308E+02 0.  0.
          5    1    4    4  502    0  0.22320272717E+02 -0.21070657978E+02  0.35429774097E+02  0.47111846646E+02  0.47000000000E+01 0. -1.
         -5    1    3    3    0  503  0.85022905074E+00 -0.38168015067E+02  0.16015061364E+03  0.16470528016E+03  0.47000000000E+01 0.  1.
          5    1    3    3  503    0  0.16535703787E+02  0.29402000714E+02  0.23121239940E+02  0.41165384512E+02  0.47000000000E+01 0. -1.
         -5    1    4    4    0  502 -0.39706205555E+02  0.29836672332E+02 -0.14529714948E+02  0.51961643468E+02  0.47000000000E+01 0.  1.
<mgrwt>
<rscale>  0 0.96067954E+02</rscale>
<asrwt>0</asrwt>
<pdfrwt beam="1">  1        1 0.39162774E-01 0.96843916E+02</pdfrwt>
<pdfrwt beam="2">  1       -1 0.77517111E-02 0.96843916E+02</pdfrwt>
<totfact> 0.89833014E+03</totfact>
</mgrwt>
</event>
<event>
 8    1  0.3177960E-004  0.1576245E+03  0.7546771E-02  0.1192093E+00
         -1   -1    0    0    0  501 -0.00000000000E+00  0.00000000000E+00  0.24645628834E+02  0.24645628834E+02  0.00000000000E+00 0.  1.
          1   -1    0    0  501    0  0.00000000000E+00 -0.00000000000E+00 -0.12738521656E+04  0.12738521656E+04  0.00000000000E+00 0. -1.
         23    2    1    2    0    0 -0.94496181843E+02  0.83754983965E+02 -0.32344841659E+03  0.35981155908E+03  0.94345398038E+02 0.  0.
         23    2    1    2    0    0  0.94496181843E+02 -0.83754983965E+02 -0.92575812014E+03  0.93868623532E+03  0.90328985662E+02 0.  0.
          5    1    3    3  502    0 -0.57700092017E+02  0.81930479716E+02 -0.13759309953E+03  0.17028169357E+03  0.47000000000E+01 0. -1.
         -5    1    4    4    0  503  0.10652742990E+03 -0.50322557188E+02 -0.64986991839E+03  0.66047971499E+03  0.47000000000E+01 0.  1.
          5    1    4    4  503    0 -0.12031248054E+02 -0.33432426777E+02 -0.27588820174E+03  0.27820652033E+03  0.47000000000E+01 0. -1.
         -5    1    3    3    0  502 -0.36796089826E+02  0.18245042486E+01 -0.18585531706E+03  0.18952986552E+03  0.47000000000E+01 0.  1.
<mgrwt>
<rscale>  0 0.15702845E+03</rscale>
<asrwt>0</asrwt>
<pdfrwt beam="1">  1        1 0.19597721E+00 0.15762449E+03</pdfrwt>
<pdfrwt beam="2">  1       -1 0.37916362E-02 0.15762449E+03</pdfrwt>
<totfact> 0.26919427E+03</totfact>
</mgrwt>
</event>
<event>
 8    1  0.3177960E-004  0.1020016E+03  0.7546771E-02  0.1276617E+00
          3   -1    0    0  501    0  0.00000000000E+00  0.00000000000E+00  0.26465382568E+03  0.26465382568E+03  0.00000000000E+00 0. -1.
         -3   -1    0    0    0  501 -0.00000000000E+00 -0.00000000000E+00 -0.41449527438E+02  0.41449527438E+02  0.00000000000E+00 0.  1.
         23    2    1    2    0    0  0.37423787551E+02  0.21430601743E+02  0.74555280524E+02  0.12634402732E+03  0.92436534011E+02 0.  0.
         23    2    1    2    0    0 -0.37423787551E+02 -0.21430601743E+02  0.14864901772E+03  0.17975932579E+03  0.91417034386E+02 0.  0.
          5    1    3    3  502    0 -0.18086320885E+02 -0.17298172258E+02  0.46314147127E+02  0.52852927929E+02  0.47000000000E+01 0. -1.
         -5    1    4    4    0  503  0.59799005540E+01 -0.26188198949E+02  0.27668368262E+01  0.27410333104E+02  0.47000000000E+01 0.  1.
          5    1    4    4  503    0 -0.43403688105E+02  0.47575972060E+01  0.14588218089E+03  0.15234899269E+03  0.47000000000E+01 0. -1.
         -5    1    3    3    0  502  0.55510108437E+02  0.38728774001E+02  0.28241133397E+02  0.73491099392E+02  0.47000000000E+01 0.  1.
<mgrwt>
<rscale>  0 0.10177005E+03</rscale>
<asrwt>0</asrwt>
<pdfrwt beam="1">  1        3 0.40715972E-01 0.10200159E+03</pdfrwt>
<pdfrwt beam="2">  1       -3 0.63768505E-02 0.10200159E+03</pdfrwt>
<totfact> 0.20136986E+03</totfact>
</mgrwt>
</event>
<event>
 8    1  0.3177960E-004  0.1123031E+03  0.7546771E-02  0.1256370E+00
         -2   -1    0    0    0  501 -0.00000000000E+00  0.00000000000E+00  0.14555958397E+03  0.14555958397E+03  0.00000000000E+00 0.  1.
          2   -1    0    0  501    0  0.00000000000E+00 -0.00000000000E+00 -0.92415492041E+02  0.92415492041E+02  0.00000000000E+00 0. -1.
         23    2    1    2    0    0 -0.60033046115E+02  0.13929397463E+02  0.56335900329E+02  0.12564120152E+03  0.93882815855E+02 0.  0.
         23    2    1    2    0    0  0.60033046115E+02 -0.13929397463E+02 -0.31918084036E+01  0.11233387449E+03  0.93865419501E+02 0.  0.
          5    1    4    4  502    0  0.36616864668E+02 -0.51942863479E+02  0.12184766742E+02  0.64879999885E+02  0.47000000000E+01 0. -1.
         -5    1    3    3    0  503 -0.89600574020E+01  0.44994848504E+02  0.45349184618E+02  0.64679653417E+02  0.47000000000E+01 0.  1.
          5    1    3    3  503    0 -0.51072988713E+02 -0.31065451041E+02  0.10986715711E+02  0.60961548099E+02  0.47000000000E+01 0. -1.
         -5    1    4    4    0  502  0.23416181447E+02  0.38013466015E+02 -0.15376575146E+02  0.47453874608E+02  0.47000000000E+01 0.  1.
<mgrwt>
<rscale>  0 0.11229943E+03</rscale>
<asrwt>0</asrwt>
<pdfrwt beam="1">  1        2 0.14217768E-01 0.11230306E+03</pdfrwt>
<pdfrwt beam="2">  1       -2 0.22393782E-01 0.11230306E+03</pdfrwt>
<totfact> 0.66963149E+03</totfact>
</mgrwt>
</event>
<event>
 8    1  0.3177960E-004  0.9805012E+02  0.7546771E-02  0.1285604E+00
         -2   -1    0    0    0  501 -0.00000000000E+00  0.00000000000E+00  0.52981640432E+02  0.52981640432E+02  0.00000000000E+00 0.  1.
          2   -1    0    0  501    0  0.00000000000E+00 -0.00000000000E+00 -0.17765541691E+03  0.17765541691E+03  0.00000000000E+00 0. -1.
         23    2    1    2    0    0  0.27813988131E+02  0.99587303843E+01 -0.64192192072E+02  0.11543355424E+03  0.91276906574E+02 0.  0.
         23    2    1    2    0    0 -0.27813988131E+02 -0.99587303843E+01 -0.60481584410E+02  0.11520350311E+03  0.93493480145E+02 0.  0.
          5    1    4    4  502    0 -0.58191613047E+02 -0.35191896757E+01 -0.60005179762E+02  0.83793556574E+02  0.47000000000E+01 0. -1.
         -5    1    3    3    0  503  0.36879484380E+02  0.30756354717E+02 -0.11455319375E+01  0.48264396475E+02  0.47000000000E+01 0.  1.
          5    1    3    3  503    0 -0.90654962493E+01 -0.20797624333E+02 -0.63046660134E+02  0.67169157760E+02  0.47000000000E+01 0. -1.
         -5    1    4    4    0  502  0.30377624916E+02 -0.64395407086E+01 -0.47640464732E+00  0.31409946537E+02  0.47000000000E+01 0.  1.
<mgrwt>
<rscale>  0 0.97517989E+02</rscale>
<asrwt>0</asrwt>
<pdfrwt beam="1">  1        2 0.27331602E-01 0.98050115E+02</pdfrwt>
<pdfrwt beam="2">  1       -2 0.81510217E-02 0.98050115E+02</pdfrwt>
<totfact> 0.16157461E+04</totfact>
</mgrwt>
</event>
<event>
 8    1  0.3177960E-004  0.9529180E+02  0.7546771E-02  0.1291628E+00
         -1   -1    0    0    0  501 -0.00000000000E+00  0.00000000000E+00  0.23169515074E+02  0.23169515074E+02  0.00000000000E+00 0.  1.
          1   -1    0    0  501    0  0.00000000000E+00 -0.00000000000E+00 -0.47893823358E+03  0.47893823358E+03  0.00000000000E+00 0. -1.
         23    2    1    2    0    0 -0.27936543175E+02  0.35253161971E+01 -0.11417624618E+03  0.14747280379E+03  0.88989518304E+02 0.  0.
         23    2    1    2    0    0  0.27936543175E+02 -0.35253161971E+01 -0.34159247232E+03  0.35463494486E+03  0.91036523817E+02 0.  0.
          5    1    3    3  502    0  0.28244862306E+02 -0.17025019792E+02 -0.42208827292E+02  0.53770797344E+02  0.47000000000E+01 0. -1.
         -5    1    4    4    0  503 -0.91596039881E+01 -0.26603845637E+02 -0.26341141663E+03  0.26495155663E+03  0.47000000000E+01 0.  1.
          5    1    4    4  503    0  0.37096147163E+02  0.23078529440E+02 -0.78181055687E+02  0.89683388227E+02  0.47000000000E+01 0. -1.
         -5    1    3    3    0  502 -0.56181405482E+02  0.20550335989E+02 -0.71967418890E+02  0.93702006451E+02  0.47000000000E+01 0.  1.
<mgrwt>
<rscale>  0 0.94799590E+02</rscale>
<asrwt>0</asrwt>
<pdfrwt beam="1">  1        1 0.73682795E-01 0.95291799E+02</pdfrwt>
<pdfrwt beam="2">  1       -1 0.35645413E-02 0.95291799E+02</pdfrwt>
<totfact> 0.12848057E+04</totfact>
</mgrwt>
</event>
<event>
 8    1  0.3177960E-004  0.1057262E+03  0.7546771E-02  0.1269374E+00
          2   -1    0    0  501    0  0.00000000000E+00  0.00000000000E+00  0.46622780174E+03  0.46622780174E+03  0.00000000000E+00 0. -1.
         -2   -1    0    0    0  501 -0.00000000000E+00 -0.00000000000E+00 -0.15628377159E+03  0.15628377159E+03  0.00000000000E+00 0.  1.
         23    2    1    2    0    0 -0.49966555315E+02  0.17097799618E+02 -0.13190603104E+03  0.16818843692E+03  0.89995321475E+02 0.  0.
         23    2    1    2    0    0  0.49966555315E+02 -0.17097799618E+02  0.44185006119E+03  0.45432313641E+03  0.91591726168E+02 0.  0.
          5    1    4    4  502    0  0.48527561770E+02  0.26276453844E+02  0.32291995205E+03  0.32763510451E+03  0.47000000000E+01 0. -1.
         -5    1    3    3    0  503 -0.11636555823E+02  0.26049771546E+02 -0.12456036239E+03  0.12787249082E+03  0.47000000000E+01 0.  1.
          5    1    3    3  503    0 -0.38329999492E+02 -0.89519719275E+01 -0.73456686513E+01  0.40315946105E+02  0.47000000000E+01 0. -1.
         -5    1    4    4    0  502  0.14389935448E+01 -0.43374253462E+02  0.11893010914E+03  0.12668803190E+03  0.47000000000E+01 0.  1.
<mgrwt>
<rscale>  0 0.10537954E+03</rscale>
<asrwt>0</asrwt>
<pdfrwt beam="1">  1        2 0.71727353E-01 0.10572623E+03</pdfrwt>
<pdfrwt beam="2">  1       -2 0.24043657E-01 0.10572623E+03</pdfrwt>
<totfact> 0.10160018E+03</totfact>
</mgrwt>
</event>
<event>
 8    1  0.3177960E-004  0.1006113E+03  0.7546771E-02  0.1280882E+00
         -1   -1    0    0    0  501 -0.00000000000E+00  0.00000000000E+00  0.71702777547E+02  0.71702777547E+02  0.00000000000E+00 0.  1.
          1   -1    0    0  501    0  0.00000000000E+00 -0.00000000000E+00 -0.44676930671E+03  0.44676930671E+03  0.00000000000E+00 0. -1.
         23    2    1    2    0    0 -0.27563486770E+02  0.23292697033E+02  0.29578828901E+02  0.10150624861E+03  0.90146080614E+02 0.  0.
         23    2    1    2    0    0  0.27563486770E+02 -0.23292697033E+02 -0.40464535807E+03  0.41696583565E+03  0.93916701146E+02 0.  0.
          5    1    4    4  502    0 -0.22630625677E+02 -0.33296298626E+02 -0.26658858332E+03  0.26965227883E+03  0.47000000000E+01 0. -1.
         -5    1    4    4    0  502  0.50194112447E+02  0.10003601594E+02 -0.13805677475E+03  0.14731355682E+03  0.47000000000E+01 0.  1.
          5    1    3    3  503    0  0.24250608209E+02 -0.96147301671E+01 -0.99885083712E+01  0.28326583525E+02  0.47000000000E+01 0. -1.
         -5    1    3    3    0  503 -0.51814094979E+02  0.32907427200E+02  0.39567337273E+02  0.73179665087E+02  0.47000000000E+01 0.  1.
<mgrwt>
<rscale>  0 0.99722045E+02</rscale>
<asrwt>0</asrwt>
<pdfrwt beam="1">  1        1 0.68733740E-01 0.10061134E+03</pdfrwt>
<pdfrwt beam="2">  1       -1 0.11031196E-01 0.10061134E+03</pdfrwt>
<totfact> 0.26419265E+03</totfact>
</mgrwt>
</event>
<event>
 8    1  0.3177960E-004  0.1378128E+03  0.7546771E-02  0.1216623E+00
         -2   -1    0    0    0  501 -0.00000000000E+00  0.00000000000E+00  0.19892993532E+02  0.19892993532E+02  0.00000000000E+00 0.  1.
          2   -1    0    0  501    0  0.00000000000E+00 -0.00000000000E+00 -0.96159592275E+03  0.96159592275E+03  0.00000000000E+00 0. -1.
         23    2    1    2    0    0  0.10164478070E+03 -0.79418974644E+01 -0.52698041095E+03  0.54446816429E+03  0.91337249903E+02 0.  0.
         23    2    1    2    0    0 -0.10164478070E+03  0.79418974644E+01 -0.41472251826E+03  0.43702075199E+03  0.92723434668E+02 0.  0.
          5    1    3    3  502    0  0.94981448752E+02 -0.28706853580E+02 -0.49844684739E+03  0.50824886495E+03  0.47000000000E+01 0. -1.
         -5    1    4    4    0  503 -0.11088842845E+03  0.28577116510E+02 -0.35148988637E+03  0.36970275273E+03  0.47000000000E+01 0.  1.
          5    1    4    4  503    0  0.92436477522E+01 -0.20635219046E+02 -0.63232631890E+02  0.67317999262E+02  0.47000000000E+01 0. -1.
         -5    1    3    3    0  502  0.66633319449E+01  0.20764956116E+02 -0.28533563559E+02  0.36219299337E+02  0.47000000000E+01 0.  1.
<mgrwt>
<rscale>  0 0.13758002E+03</rscale>
<asrwt>0</asrwt>
<pdfrwt beam="1">  1        2 0.14793780E+00 0.13781281E+03</pdfrwt>
<pdfrwt beam="2">  1       -2 0.30604612E-02 0.13781281E+03</pdfrwt>
<totfact> 0.10982643E+04</totfact>
</mgrwt>
</event>
<event>
 8    1  0.3177960E-004  0.1032372E+03  0.7546771E-02  0.1278744E+00
          4   -1    0    0  501    0  0.00000000000E+00  0.00000000000E+00  0.14196194669E+03  0.14196194669E+03  0.00000000000E+00 0. -1.
         -4   -1    0    0    0  501 -0.00000000000E+00 -0.00000000000E+00 -0.10183065852E+03  0.10183065852E+03  0.00000000000E+00 0.  1.
         23    2    1    2    0    0  0.86724066882E+01 -0.17848839520E+02 -0.50546516729E+02  0.10638672982E+03  0.91484393305E+02 0.  0.
         23    2    1    2    0    0 -0.86724066882E+01  0.17848839520E+02  0.90677804901E+02  0.13740587539E+03  0.10131198636E+03 0.  0.
          5    1    4    4  502    0 -0.24968646870E+02 -0.19811284956E+02  0.90541140565E+02  0.96102593476E+02  0.47000000000E+01 0. -1.
         -5    1    3    3    0  503  0.35372278199E+02  0.23494417784E+02 -0.14187915357E+02  0.45017470765E+02  0.47000000000E+01 0.  1.
          5    1    3    3  503    0 -0.26699871510E+02 -0.41343257303E+02 -0.36358601373E+02  0.61369259054E+02  0.47000000000E+01 0. -1.
         -5    1    4    4    0  502  0.16296240182E+02  0.37660124475E+02  0.13666433604E+00  0.41303281912E+02  0.47000000000E+01 0.  1.
<mgrwt>
<rscale>  0 0.10074182E+03</rscale>
<asrwt>0</asrwt>
<pdfrwt beam="1">  1        4 0.21840300E-01 0.10323716E+03</pdfrwt>
<pdfrwt beam="2">  1       -4 0.15666255E-01 0.10323716E+03</pdfrwt>
<totfact> 0.10414373E+03</totfact>
</mgrwt>
</event>
<event>
 8    1  0.3202648E-004  0.1383777E+03  0.7546771E-02  0.1227105E+00
         -2   -1    0    0    0  501 -0.00000000000E+00  0.00000000000E+00  0.10448203001E+03  0.10448203001E+03  0.00000000000E+00 0.  1.
          2   -1    0    0  501    0  0.00000000000E+00 -0.00000000000E+00 -0.56892870334E+03  0.56892870334E+03  0.00000000000E+00 0. -1.
         23    2    1    2    0    0 -0.30698012430E+02  0.50856653318E+02 -0.51482358321E+03  0.52614831001E+03  0.90884295399E+02 0.  0.
         23    2    1    2    0    0  0.30698012430E+02 -0.50856653318E+02  0.50376909875E+02  0.14726242334E+03  0.12497848265E+03 0.  0.
          5    1    4    4  502    0 -0.21316511304E+02  0.29186864624E+02 -0.50243562144E+01  0.36791315226E+02  0.47000000000E+01 0.  1.
         -5    1    3    3    0  503 -0.61542381987E+02  0.37541198046E+02 -0.29465708996E+03  0.30338374543E+03  0.47000000000E+01 0.  1.
          5    1    3    3  503    0  0.30844369557E+02  0.13315455272E+02 -0.22016649325E+03  0.22276456458E+03  0.47000000000E+01 0. -1.
         -5    1    4    4    0  502  0.52014523733E+02 -0.80043517942E+02  0.55401266090E+02  0.11047110811E+03  0.47000000000E+01 0.  1.
<mgrwt>
<rscale>  0 0.13023656E+03</rscale>
<asrwt>0</asrwt>
<pdfrwt beam="1">  1        2 0.87527491E-01 0.13837770E+03</pdfrwt>
<pdfrwt beam="2">  1       -2 0.16074159E-01 0.13837770E+03</pdfrwt>
<totfact> 0.16174649E+03</totfact>
</mgrwt>
</event>
<event>
 8    1  0.3177960E-004  0.1192720E+03  0.7546771E-02  0.1244581E+00
          1   -1    0    0  501    0  0.00000000000E+00  0.00000000000E+00  0.10856782144E+04  0.10856782144E+04  0.00000000000E+00 0. -1.
         -1   -1    0    0    0  501 -0.00000000000E+00 -0.00000000000E+00 -0.17138116477E+02  0.17138116477E+02  0.00000000000E+00 0.  1.
         23    2    1    2    0    0 -0.74285937029E+02 -0.10458038684E+02  0.26544237793E+03  0.29100767203E+03  0.92725606859E+02 0.  0.
         23    2    1    2    0    0  0.74285937029E+02  0.10458038684E+02  0.80309772003E+03  0.81180865888E+03  0.91867185124E+02 0.  0.
          5    1    3    3  502    0 -0.23701737132E+02  0.31090050704E+02  0.17431931413E+03  0.17871115486E+03  0.47000000000E+01 0. -1.
         -5    1    3    3    0  502 -0.50584199896E+02 -0.41548089388E+02  0.91123063804E+02  0.11229651717E+03  0.47000000000E+01 0.  1.
          5    1    4    4  503    0  0.86967089124E+02 -0.16281108895E+02  0.59102408725E+03  0.59762857262E+03  0.47000000000E+01 0. -1.
         -5    1    4    4    0  503 -0.12681152095E+02  0.26739147578E+02  0.21207363278E+03  0.21418008626E+03  0.47000000000E+01 0.  1.
<mgrwt>
<rscale>  0 0.11910511E+03</rscale>
<asrwt>0</asrwt>
<pdfrwt beam="1">  1        1 0.16702736E+00 0.11927200E+03</pdfrwt>
<pdfrwt beam="2">  1       -1 0.26366341E-02 0.11927200E+03</pdfrwt>
<totfact> 0.61110780E+03</totfact>
</mgrwt>
</event>
<event>
 8    1  0.3177960E-004  0.9629944E+02  0.7546771E-02  0.1290967E+00
          1   -1    0    0  501    0  0.00000000000E+00  0.00000000000E+00  0.82174003805E+03  0.82174003805E+03  0.00000000000E+00 0. -1.
         -1   -1    0    0    0  501 -0.00000000000E+00 -0.00000000000E+00 -0.16147788111E+02  0.16147788111E+02  0.00000000000E+00 0.  1.
         23    2    1    2    0    0 -0.19970192437E+02  0.25660536086E+02  0.63850100037E+03  0.64503278107E+03  0.85594915000E+02 0.  0.
         23    2    1    2    0    0  0.19970192437E+02 -0.25660536086E+02  0.16709124957E+03  0.19285504510E+03  0.90643869286E+02 0.  0.
          5    1    4    4  502    0 -0.29037301004E+02 -0.20588663343E+02  0.11721140673E+03  0.12258736385E+03  0.47000000000E+01 0. -1.
         -5    1    4    4    0  502  0.49007493441E+02 -0.50718727427E+01  0.49879842836E+02  0.70267681247E+02  0.47000000000E+01 0.  1.
          5    1    3    3  503    0 -0.48000445667E+02  0.73590528102E+00  0.46304967934E+03  0.46555523826E+03  0.47000000000E+01 0. -1.
         -5    1    3    3    0  503  0.28030253230E+02  0.24924630805E+02  0.17545132104E+03  0.17947754280E+03  0.47000000000E+01 0.  1.
<mgrwt>
<rscale>  0 0.95092813E+02</rscale>
<asrwt>0</asrwt>
<pdfrwt beam="1">  1        1 0.12642151E+00 0.96299443E+02</pdfrwt>
<pdfrwt beam="2">  1       -1 0.24842757E-02 0.96299443E+02</pdfrwt>
<totfact> 0.10330977E+04</totfact>
</mgrwt>
</event>
<event>
 8    1  0.3177960E-004  0.1064344E+03  0.7546771E-02  0.1267748E+00
          1   -1    0    0  501    0  0.00000000000E+00  0.00000000000E+00  0.93584413171E+02  0.93584413171E+02  0.00000000000E+00 0. -1.
         -1   -1    0    0    0  501 -0.00000000000E+00 -0.00000000000E+00 -0.12725904585E+03  0.12725904585E+03  0.00000000000E+00 0.  1.
         23    2    1    2    0    0 -0.51413817463E+02 -0.18750100467E+02 -0.43192467727E+02  0.11486453212E+03  0.91287044960E+02 0.  0.
         23    2    1    2    0    0  0.51413817463E+02  0.18750100467E+02  0.95178350514E+01  0.10597892690E+03  0.90255176408E+02 0.  0.
          5    1    4    4  502    0  0.41776374514E+02 -0.85327033098E+01  0.43504509244E+02  0.61096684181E+02  0.47000000000E+01 0. -1.
         -5    1    4    4    0  502  0.96374429497E+01  0.27282803777E+02 -0.33986674193E+02  0.44882242716E+02  0.47000000000E+01 0.  1.
          5    1    3    3  503    0  0.21500755744E+02 -0.22839772618E+02 -0.22259052212E+02  0.38749104714E+02  0.47000000000E+01 0. -1.
         -5    1    3    3    0  503 -0.72914573207E+02  0.40896721510E+01 -0.20933415515E+02  0.76115427407E+02  0.47000000000E+01 0.  1.
<mgrwt>
<rscale>  0 0.10621274E+03</rscale>
<asrwt>0</asrwt>
<pdfrwt beam="1">  1        1 0.14397602E-01 0.10643435E+03</pdfrwt>
<pdfrwt beam="2">  1       -1 0.19578315E-01 0.10643435E+03</pdfrwt>
<totfact> 0.76165324E+03</totfact>
</mgrwt>
</event>
<event>
 8    1  0.3177960E-004  0.1061696E+03  0.7546771E-02  0.1267956E+00
         -1   -1    0    0    0  501 -0.00000000000E+00  0.00000000000E+00  0.11395332628E+03  0.11395332628E+03  0.00000000000E+00 0.  1.
          1   -1    0    0  501    0  0.00000000000E+00 -0.00000000000E+00 -0.64780677948E+03  0.64780677948E+03  0.00000000000E+00 0. -1.
         23    2    1    2    0    0 -0.25648586760E+02  0.46093426801E+02  0.83794685635E+02  0.13505346623E+03  0.91844626424E+02 0.  0.
         23    2    1    2    0    0  0.25648586760E+02 -0.46093426801E+02 -0.61764813883E+03  0.62670663953E+03  0.92138670696E+02 0.  0.
          5    1    4    4  502    0  0.52553506870E+02 -0.28136654873E+02 -0.52630989162E+03  0.52969588865E+03  0.47000000000E+01 0. -1.
         -5    1    4    4    0  502 -0.26904920110E+02 -0.17956771929E+02 -0.91338247211E+02  0.97010750888E+02  0.47000000000E+01 0.  1.
          5    1    3    3  503    0  0.94429314981E+01 -0.24166919799E+02  0.13867710702E+02  0.29792824102E+02  0.47000000000E+01 0. -1.
         -5    1    3    3    0  503 -0.35091518258E+02  0.70260346600E+02  0.69926974933E+02  0.10526064213E+03  0.47000000000E+01 0.  1.
<mgrwt>
<rscale>  0 0.10610579E+03</rscale>
<asrwt>0</asrwt>
<pdfrwt beam="1">  1        1 0.99662580E-01 0.10616962E+03</pdfrwt>
<pdfrwt beam="2">  1       -1 0.17531281E-01 0.10616962E+03</pdfrwt>
<totfact> 0.79237289E+02</totfact>
</mgrwt>
</event>
<event>
 8    1  0.3177960E-004  0.9290406E+02  0.7546771E-02  0.1296360E+00
         -4   -1    0    0    0  501 -0.00000000000E+00  0.00000000000E+00  0.31460323364E+03  0.31460323364E+03  0.00000000000E+00 0.  1.
          4   -1    0    0  501    0  0.00000000000E+00 -0.00000000000E+00 -0.34385712689E+02  0.34385712689E+02  0.00000000000E+00 0. -1.
         23    2    1    2    0    0 -0.63494953337E+01 -0.27712492065E+01  0.22007605176E+03  0.23888204893E+03  0.92645392942E+02 0.  0.
         23    2    1    2    0    0  0.63494953337E+01  0.27712492065E+01  0.60141469194E+02  0.11010689739E+03  0.91970302945E+02 0.  0.
          5    1    3    3  502    0 -0.84465984626E+01 -0.44609225084E+02  0.74920625715E+02  0.87729801924E+02  0.47000000000E+01 0. -1.
         -5    1    4    4    0  503  0.18845374744E+02  0.41872049999E+02  0.48994475503E+02  0.67312445730E+02  0.47000000000E+01 0.  1.
          5    1    4    4  503    0 -0.12495879411E+02 -0.39100800793E+02  0.11146993691E+02  0.42794451664E+02  0.47000000000E+01 0. -1.
         -5    1    3    3    0  502  0.20971031289E+01  0.41837975877E+02  0.14515542604E+03  0.15115224701E+03  0.47000000000E+01 0.  1.
<mgrwt>
<rscale>  0 0.92735304E+02</rscale>
<asrwt>0</asrwt>
<pdfrwt beam="1">  1        4 0.52901098E-02 0.92904062E+02</pdfrwt>
<pdfrwt beam="2">  1       -4 0.48400496E-01 0.92904062E+02</pdfrwt>
<totfact> 0.13627025E+03</totfact>
</mgrwt>
</event>
<event>
 8    1  0.3177960E-004  0.9880017E+02  0.7546771E-02  0.1283176E+00
         -3   -1    0    0    0  501 -0.00000000000E+00  0.00000000000E+00  0.67805758810E+02  0.67805758810E+02  0.00000000000E+00 0.  1.
          3   -1    0    0  501    0  0.00000000000E+00 -0.00000000000E+00 -0.17519940464E+03  0.17519940464E+03  0.00000000000E+00 0. -1.
         23    2    1    2    0    0  0.31439111790E+02 -0.13230873688E+02 -0.10560650084E+03  0.14418883237E+03  0.92055486478E+02 0.  0.
         23    2    1    2    0    0 -0.31439111790E+02  0.13230873688E+02 -0.17871449916E+01  0.98816331086E+02  0.92725399074E+02 0.  0.
          5    1    3    3  502    0 -0.64577399151E+01 -0.25478314998E+02  0.44357782686E+01  0.27066825983E+02  0.47000000000E+01 0. -1.
         -5    1    3    3    0  502  0.37896851705E+02  0.12247441309E+02 -0.11004227911E+03  0.11712200639E+03  0.47000000000E+01 0.  1.
          5    1    4    4  503    0 -0.49586848330E+02 -0.18676144878E+02  0.18859759441E+02  0.56439653090E+02  0.47000000000E+01 0. -1.
         -5    1    4    4    0  503  0.18147736540E+02  0.31907018566E+02 -0.20646904433E+02  0.42376677996E+02  0.47000000000E+01 0.  1.
<mgrwt>
<rscale>  0 0.98642680E+02</rscale>
<asrwt>0</asrwt>
<pdfrwt beam="1">  1        3 0.26953754E-01 0.98800169E+02</pdfrwt>
<pdfrwt beam="2">  1       -3 0.10431655E-01 0.98800169E+02</pdfrwt>
<totfact> 0.19455954E+03</totfact>
</mgrwt>
</event>
<event>
 8    1  0.3177960E-004  0.9413682E+02  0.7546771E-02  0.1294311E+00
          1   -1    0    0  501    0  0.00000000000E+00  0.00000000000E+00  0.14566358224E+03  0.14566358224E+03  0.00000000000E+00 0. -1.
         -1   -1    0    0    0  501 -0.00000000000E+00 -0.00000000000E+00 -0.61109107257E+02  0.61109107257E+02  0.00000000000E+00 0.  1.
         23    2    1    2    0    0 -0.24630087108E+02  0.95731766894E+01  0.58477849550E+02  0.10909090814E+03  0.88220635049E+02 0.  0.
         23    2    1    2    0    0  0.24630087108E+02 -0.95731766894E+01  0.26076625430E+02  0.97681781353E+02  0.90351829597E+02 0.  0.
          5    1    4    4  502    0  0.53719009917E+02 -0.20088499056E+02  0.31994408358E+02  0.65840807916E+02  0.47000000000E+01 0. -1.
         -5    1    4    4    0  502 -0.29088922809E+02  0.10515322366E+02 -0.59177829280E+01  0.31840973437E+02  0.47000000000E+01 0.  1.
          5    1    3    3  503    0 -0.43612035660E+02  0.28325853121E+02  0.94339895007E+01  0.53060849667E+02  0.47000000000E+01 0. -1.
         -5    1    3    3    0  503  0.18981948552E+02 -0.18752676432E+02  0.49043860049E+02  0.56030058475E+02  0.47000000000E+01 0.  1.
<mgrwt>
<rscale>  0 0.93621712E+02</rscale>
<asrwt>0</asrwt>
<pdfrwt beam="1">  1        1 0.22409782E-01 0.94136815E+02</pdfrwt>
<pdfrwt beam="2">  1       -1 0.94014012E-02 0.94136815E+02</pdfrwt>
<totfact> 0.13351241E+04</totfact>
</mgrwt>
</event>
<event>
 8    1  0.3177960E-004  0.9827253E+02  0.7546771E-02  0.1285692E+00
         -3   -1    0    0    0  501 -0.00000000000E+00  0.00000000000E+00  0.14491194147E+02  0.14491194147E+02  0.00000000000E+00 0.  1.
          3   -1    0    0  501    0  0.00000000000E+00 -0.00000000000E+00 -0.75182185723E+03  0.75182185723E+03  0.00000000000E+00 0. -1.
         23    2    1    2    0    0 -0.19462480346E+02 -0.31705602650E+02 -0.50773414786E+03  0.51656908443E+03  0.87553530538E+02 0.  0.
         23    2    1    2    0    0  0.19462480346E+02  0.31705602650E+02 -0.22959651523E+03  0.24974396695E+03  0.90958539131E+02 0.  0.
          5    1    4    4  502    0 -0.24650538872E+02 -0.13394967842E+02 -0.11880650389E+03  0.12216443671E+03  0.47000000000E+01 0. -1.
         -5    1    3    3    0  503  0.25071464261E+02 -0.36099089100E+02 -0.34165189303E+03  0.34449938833E+03  0.47000000000E+01 0.  1.
          5    1    3    3  503    0 -0.44533944607E+02  0.43934864493E+01 -0.16608225483E+03  0.17206969610E+03  0.47000000000E+01 0. -1.
         -5    1    4    4    0  502  0.44113019218E+02  0.45100570492E+02 -0.11079001134E+03  0.12757953024E+03  0.47000000000E+01 0.  1.
<mgrwt>
<rscale>  0 0.97477209E+02</rscale>
<asrwt>0</asrwt>
<pdfrwt beam="1">  1        3 0.11566489E+00 0.98272525E+02</pdfrwt>
<pdfrwt beam="2">  1       -3 0.22294146E-02 0.98272525E+02</pdfrwt>
<totfact> 0.11388095E+03</totfact>
</mgrwt>
</event>
<event>
 8    1  0.3177960E-004  0.9525968E+02  0.7546771E-02  0.1290772E+00
         -2   -1    0    0    0  501 -0.00000000000E+00  0.00000000000E+00  0.28663006106E+02  0.28663006106E+02  0.00000000000E+00 0.  1.
          2   -1    0    0  501    0  0.00000000000E+00 -0.00000000000E+00 -0.35096890267E+03  0.35096890267E+03  0.00000000000E+00 0. -1.
         23    2    1    2    0    0  0.13928206000E+02 -0.17416421471E+02 -0.22122907372E+03  0.24074011253E+03  0.92283108226E+02 0.  0.
         23    2    1    2    0    0 -0.13928206000E+02  0.17416421471E+02 -0.10107682285E+03  0.13889179625E+03  0.92612527710E+02 0.  0.
          5    1    3    3  502    0 -0.38170394732E+02 -0.14736252586E+02 -0.77489432820E+02  0.87754420817E+02  0.47000000000E+01 0. -1.
         -5    1    3    3    0  502  0.52098600732E+02 -0.26801688849E+01 -0.14373964090E+03  0.15298569171E+03  0.47000000000E+01 0.  1.
          5    1    4    4  503    0 -0.32783322527E+02  0.16315339895E+01 -0.10795185440E+03  0.11292962857E+03  0.47000000000E+01 0. -1.
         -5    1    4    4    0  503  0.18855116527E+02  0.15784887482E+02  0.68750315518E+01  0.25962167685E+02  0.47000000000E+01 0.  1.
<mgrwt>
<rscale>  0 0.95179522E+02</rscale>
<asrwt>0</asrwt>
<pdfrwt beam="1">  1        2 0.53995217E-01 0.95259682E+02</pdfrwt>
<pdfrwt beam="2">  1       -2 0.44096932E-02 0.95259682E+02</pdfrwt>
<totfact> 0.19759947E+04</totfact>
</mgrwt>
</event>
<event>
 8    1  0.3177960E-004  0.1108544E+03  0.7546771E-02  0.1259493E+00
          3   -1    0    0  501    0  0.00000000000E+00  0.00000000000E+00  0.38742588256E+03  0.38742588256E+03  0.00000000000E+00 0. -1.
         -3   -1    0    0    0  501 -0.00000000000E+00 -0.00000000000E+00 -0.32023814202E+02  0.32023814202E+02  0.00000000000E+00 0.  1.
         23    2    1    2    0    0 -0.60199975060E+02 -0.19269475214E+02  0.20756544494E+03  0.23531278817E+03  0.91067802600E+02 0.  0.
         23    2    1    2    0    0  0.60199975060E+02  0.19269475214E+02  0.14783662341E+03  0.18413690859E+03  0.89751792238E+02 0.  0.
          5    1    3    3  502    0 -0.27240046474E+02  0.36565127995E+02  0.84351573533E+02  0.96001597251E+02  0.47000000000E+01 0. -1.
         -5    1    3    3    0  502 -0.32959928586E+02 -0.55834603209E+02  0.12321387141E+03  0.13931119092E+03  0.47000000000E+01 0.  1.
          5    1    4    4  503    0 -0.22835059287E+02  0.10794068906E+02  0.42449488301E+02  0.49618554122E+02  0.47000000000E+01 0. -1.
         -5    1    4    4    0  503  0.83035034347E+02  0.84754063076E+01  0.10538713511E+03  0.13451835447E+03  0.47000000000E+01 0.  1.
<mgrwt>
<rscale>  0 0.11058376E+03</rscale>
<asrwt>0</asrwt>
<pdfrwt beam="1">  1        3 0.59603979E-01 0.11085438E+03</pdfrwt>
<pdfrwt beam="2">  1       -3 0.49267409E-02 0.11085438E+03</pdfrwt>
<totfact> 0.14470156E+03</totfact>
</mgrwt>
</event>
<event>
 8    1  0.3177960E-004  0.1116167E+03  0.7546771E-02  0.1263476E+00
          1   -1    0    0  501    0  0.00000000000E+00  0.00000000000E+00  0.73484879206E+02  0.73484879206E+02  0.00000000000E+00 0. -1.
         -1   -1    0    0    0  501 -0.00000000000E+00 -0.00000000000E+00 -0.15809716882E+03  0.15809716882E+03  0.00000000000E+00 0.  1.
         23    2    1    2    0    0 -0.26370508596E+02  0.39089018729E+02 -0.16493370469E+02  0.10082091229E+03  0.87575510142E+02 0.  0.
         23    2    1    2    0    0  0.26370508596E+02 -0.39089018729E+02 -0.68118919142E+02  0.13076113573E+03  0.10116784254E+03 0.  0.
          5    1    4    4  502    0 -0.35827845953E+02 -0.10739994532E+02 -0.57947422269E+01  0.38139888118E+02  0.47000000000E+01 0. -1.
         -5    1    4    4    0  502  0.62198354550E+02 -0.28349024197E+02 -0.62324176915E+02  0.92621247615E+02  0.47000000000E+01 0.  1.
          5    1    3    3  503    0  0.28959065080E+02  0.29189378435E+02 -0.16123995519E+02  0.44415318250E+02  0.47000000000E+01 0.  1.
         -5    1    3    3    0  503 -0.55329573676E+02  0.98996402938E+01 -0.36937494976E+00  0.56405594040E+02  0.47000000000E+01 0. -1.
<mgrwt>
<rscale>  0 0.10844560E+03</rscale>
<asrwt>0</asrwt>
<pdfrwt beam="1">  1        1 0.11305366E-01 0.11161670E+03</pdfrwt>
<pdfrwt beam="2">  1       -1 0.24322641E-01 0.11161670E+03</pdfrwt>
<totfact> 0.73804016E+03</totfact>
</mgrwt>
</event>
<event>
 8    1  0.3177960E-004  0.9877495E+02  0.7546771E-02  0.1287094E+00
          1   -1    0    0  501    0  0.00000000000E+00  0.00000000000E+00  0.30196067351E+03  0.30196067351E+03  0.00000000000E+00 0. -1.
         -1   -1    0    0    0  501 -0.00000000000E+00 -0.00000000000E+00 -0.31147283362E+02  0.31147283362E+02  0.00000000000E+00 0.  1.
         23    2    1    2    0    0  0.16651161758E+02  0.15733119088E+01  0.16364367363E+03  0.18736215217E+03  0.89697199776E+02 0.  0.
         23    2    1    2    0    0 -0.16651161758E+02 -0.15733119088E+01  0.10716971652E+03  0.14574580471E+03  0.97348625837E+02 0.  0.
          5    1    4    4  502    0  0.32059367354E+02 -0.21075894093E+01  0.86911421961E+02  0.92778932068E+02  0.47000000000E+01 0. -1.
         -5    1    4    4    0  502 -0.48710529112E+02  0.53427750046E+00  0.20258294563E+02  0.52966872642E+02  0.47000000000E+01 0.  1.
          5    1    3    3  503    0 -0.24622425593E+02  0.23945360935E+02  0.30740941018E+02  0.46332921417E+02  0.47000000000E+01 0. -1.
         -5    1    3    3    0  503  0.41273587351E+02 -0.22372049026E+02  0.13290273261E+03  0.14102923075E+03  0.47000000000E+01 0.  1.
<mgrwt>
<rscale>  0 0.96835649E+02</rscale>
<asrwt>0</asrwt>
<pdfrwt beam="1">  1        1 0.46455486E-01 0.98774954E+02</pdfrwt>
<pdfrwt beam="2">  1       -1 0.47918899E-02 0.98774954E+02</pdfrwt>
<totfact> 0.14867220E+04</totfact>
</mgrwt>
</event>
<event>
 8    1  0.3177960E-004  0.9982960E+02  0.7546771E-02  0.1281309E+00
          3   -1    0    0  501    0  0.00000000000E+00  0.00000000000E+00  0.12547362680E+03  0.12547362680E+03  0.00000000000E+00 0. -1.
         -3   -1    0    0    0  501 -0.00000000000E+00 -0.00000000000E+00 -0.80179554740E+02  0.80179554740E+02  0.00000000000E+00 0.  1.
         23    2    1    2    0    0 -0.30615118173E+02  0.17678463719E+02  0.37897254610E+02  0.10678085740E+03  0.93360248817E+02 0.  0.
         23    2    1    2    0    0  0.30615118173E+02 -0.17678463719E+02  0.73968174502E+01  0.98872324143E+02  0.92039176620E+02 0.  0.
          5    1    4    4  502    0  0.26271599540E+02  0.17088945544E+02 -0.32618217842E+02  0.45478205081E+02  0.47000000000E+01 0. -1.
         -5    1    3    3    0  503 -0.32051472961E+02 -0.22459237453E+02 -0.13244329901E+02  0.41583849515E+02  0.47000000000E+01 0.  1.
          5    1    3    3  503    0  0.14363547877E+01  0.40137701172E+02  0.51141584511E+02  0.65197007882E+02  0.47000000000E+01 0. -1.
         -5    1    4    4    0  502  0.43435186336E+01 -0.34767409263E+02  0.40015035293E+02  0.53394119062E+02  0.47000000000E+01 0.  1.
<mgrwt>
<rscale>  0 0.99519574E+02</rscale>
<asrwt>0</asrwt>
<pdfrwt beam="1">  1        3 0.19303635E-01 0.99829603E+02</pdfrwt>
<pdfrwt beam="2">  1       -3 0.12335316E-01 0.99829603E+02</pdfrwt>
<totfact> 0.26705884E+03</totfact>
</mgrwt>
</event>
<event>
 8    1  0.3177960E-004  0.9910522E+02  0.7546771E-02  0.1282203E+00
         -1   -1    0    0    0  501 -0.00000000000E+00  0.00000000000E+00  0.43684676195E+02  0.43684676195E+02  0.00000000000E+00 0.  1.
          1   -1    0    0  501    0  0.00000000000E+00 -0.00000000000E+00 -0.26427863736E+03  0.26427863736E+03  0.00000000000E+00 0. -1.
         23    2    1    2    0    0 -0.32512958088E+02  0.21897174067E+02 -0.50752082240E+02  0.11132123203E+03  0.90994857949E+02 0.  0.
         23    2    1    2    0    0  0.32512958088E+02 -0.21897174067E+02 -0.16984187892E+03  0.19664208152E+03  0.91023434970E+02 0.  0.
          5    1    3    3  502    0 -0.16002610643E+02  0.35838926224E+02 -0.71048283221E+02  0.81304739892E+02  0.47000000000E+01 0. -1.
         -5    1    4    4    0  503  0.15592680006E+02 -0.49418432870E+02 -0.49018417004E+02  0.71485721530E+02  0.47000000000E+01 0.  1.
          5    1    4    4  503    0  0.16920278082E+02  0.27521258803E+02 -0.12082346192E+03  0.12515635999E+03  0.47000000000E+01 0. -1.
         -5    1    3    3    0  502 -0.16510347445E+02 -0.13941752157E+02  0.20296200981E+02  0.30016492137E+02  0.47000000000E+01 0.  1.
<mgrwt>
<rscale>  0 0.99098657E+02</rscale>
<asrwt>0</asrwt>
<pdfrwt beam="1">  1        1 0.40658252E-01 0.99105219E+02</pdfrwt>
<pdfrwt beam="2">  1       -1 0.67207194E-02 0.99105219E+02</pdfrwt>
<totfact> 0.10632674E+04</totfact>
</mgrwt>
</event>
<event>
 8    1  0.3177960E-004  0.1360450E+03  0.7546771E-02  0.1221214E+00
         -2   -1    0    0    0  501 -0.00000000000E+00  0.00000000000E+00  0.18938472170E+02  0.18938472170E+02  0.00000000000E+00 0.  1.
          2   -1    0    0  501    0  0.00000000000E+00 -0.00000000000E+00 -0.97195498801E+03  0.97195498801E+03  0.00000000000E+00 0. -1.
         23    2    1    2    0    0  0.47784576784E+02 -0.80336291680E+02 -0.36021860594E+03  0.38268493949E+03  0.89179780856E+02 0.  0.
         23    2    1    2    0    0 -0.47784576784E+02  0.80336291680E+02 -0.59279790991E+03  0.60820852069E+03  0.98848151779E+02 0.  0.
          5    1    3    3  502    0  0.17740882720E+02 -0.93767633145E+02 -0.27989444221E+03  0.29575343907E+03  0.47000000000E+01 0. -1.
         -5    1    3    3    0  502  0.30043694065E+02  0.13431341465E+02 -0.80324163731E+02  0.86931500423E+02  0.47000000000E+01 0.  1.
          5    1    4    4  503    0 -0.46853424131E+02 -0.32524965088E+01 -0.14022045446E+03  0.14795164053E+03  0.47000000000E+01 0. -1.
         -5    1    4    4    0  503 -0.93115265311E+00  0.83588788189E+02 -0.45257745544E+03  0.46025688016E+03  0.47000000000E+01 0.  1.
<mgrwt>
<rscale>  0 0.13429815E+03</rscale>
<asrwt>0</asrwt>
<pdfrwt beam="1">  1        2 0.14953153E+00 0.13604500E+03</pdfrwt>
<pdfrwt beam="2">  1       -2 0.29136113E-02 0.13604500E+03</pdfrwt>
<totfact> 0.11627221E+04</totfact>
</mgrwt>
</event>
<event>
 8    1  0.3177960E-004  0.9220657E+02  0.7546771E-02  0.1297864E+00
          2   -1    0    0  501    0  0.00000000000E+00  0.00000000000E+00  0.50933519101E+03  0.50933519101E+03  0.00000000000E+00 0. -1.
         -2   -1    0    0    0  501 -0.00000000000E+00 -0.00000000000E+00 -0.22488900969E+02  0.22488900969E+02  0.00000000000E+00 0.  1.
         23    2    1    2    0    0 -0.67834636072E+01  0.77983628729E+01  0.37893778828E+03  0.38988644033E+03  0.91163365050E+02 0.  0.
         23    2    1    2    0    0  0.67834636072E+01 -0.77983628729E+01  0.10790850176E+03  0.14193765165E+03  0.91625446032E+02 0.  0.
          5    1    3    3  502    0 -0.32068967485E+02  0.20941193701E+02  0.33556943675E+03  0.33778083005E+03  0.47000000000E+01 0. -1.
         -5    1    3    3    0  502  0.25285503878E+02 -0.13142830828E+02  0.43368351533E+02  0.52105610286E+02  0.47000000000E+01 0.  1.
          5    1    4    4  503    0 -0.20737499716E+02  0.35076968918E+02  0.46422251061E+02  0.61947986542E+02  0.47000000000E+01 0. -1.
         -5    1    4    4    0  503  0.27520963323E+02 -0.42875331791E+02  0.61486250700E+02  0.79989665105E+02  0.47000000000E+01 0.  1.
<mgrwt>
<rscale>  0 0.92091570E+02</rscale>
<asrwt>0</asrwt>
<pdfrwt beam="1">  1        2 0.78359252E-01 0.92206574E+02</pdfrwt>
<pdfrwt beam="2">  1       -2 0.34598313E-02 0.92206574E+02</pdfrwt>
<totfact> 0.18947368E+04</totfact>
</mgrwt>
</event>
<event>
 8    1  0.3177960E-004  0.1590735E+03  0.7546771E-02  0.1190035E+00
          3   -1    0    0  501    0  0.00000000000E+00  0.00000000000E+00  0.66118916253E+03  0.66118916253E+03  0.00000000000E+00 0. -1.
         -3   -1    0    0    0  501 -0.00000000000E+00 -0.00000000000E+00 -0.46101331733E+02  0.46101331733E+02  0.00000000000E+00 0.  1.
         23    2    1    2    0    0  0.11490724907E+03  0.60092369173E+02  0.16036649017E+03  0.22588002256E+03  0.92139050915E+02 0.  0.
         23    2    1    2    0    0 -0.11490724907E+03 -0.60092369173E+02  0.45472134064E+03  0.48141047170E+03  0.90386812718E+02 0.  0.
          5    1    3    3  502    0  0.86860079843E+02 -0.51972923153E-01  0.60788715338E+02  0.10612273123E+03  0.47000000000E+01 0. -1.
         -5    1    3    3    0  502  0.28047169229E+02  0.60144342096E+02  0.99577774827E+02  0.11975729133E+03  0.47000000000E+01 0.  1.
          5    1    4    4  503    0  0.57344716788E+01 -0.25697474166E+02  0.14081547034E+03  0.14333293770E+03  0.47000000000E+01 0. -1.
         -5    1    4    4    0  503 -0.12064172075E+03 -0.34394895007E+02  0.31390587030E+03  0.33807753400E+03  0.47000000000E+01 0.  1.
<mgrwt>
<rscale>  0 0.15882076E+03</rscale>
<asrwt>0</asrwt>
<pdfrwt beam="1">  1        3 0.10172140E+00 0.15907348E+03</pdfrwt>
<pdfrwt beam="2">  1       -3 0.70925130E-02 0.15907348E+03</pdfrwt>
<totfact> 0.26942121E+02</totfact>
</mgrwt>
</event>
<event>
 8    1  0.3177960E-004  0.1073449E+03  0.7546771E-02  0.1268142E+00
         -1   -1    0    0    0  501 -0.00000000000E+00  0.00000000000E+00  0.43302101888E+02  0.43302101888E+02  0.00000000000E+00 0.  1.
          1   -1    0    0  501    0  0.00000000000E+00 -0.00000000000E+00 -0.49208415143E+03  0.49208415143E+03  0.00000000000E+00 0. -1.
         23    2    1    2    0    0  0.28272873993E+01  0.46481836986E+02 -0.40795676588E+03  0.42054010268E+03  0.90866387696E+02 0.  0.
         23    2    1    2    0    0 -0.28272873993E+01 -0.46481836986E+02 -0.40825283666E+02  0.11484615064E+03  0.96718042819E+02 0.  0.
          5    1    4    4  502    0 -0.24786019659E+02 -0.56660475461E+02 -0.57905814564E+02  0.84852398966E+02  0.47000000000E+01 0. -1.
         -5    1    3    3    0  503  0.45730399557E+02  0.15668801869E+02 -0.21598911070E+03  0.22138239934E+03  0.47000000000E+01 0.  1.
          5    1    3    3  503    0 -0.42903112158E+02  0.30813035117E+02 -0.19196765518E+03  0.19915770334E+03  0.47000000000E+01 0. -1.
         -5    1    4    4    0  502  0.21958732260E+02  0.10178638475E+02  0.17080530898E+02  0.29993751673E+02  0.47000000000E+01 0.  1.
<mgrwt>
<rscale>  0 0.10601004E+03</rscale>
<asrwt>0</asrwt>
<pdfrwt beam="1">  1        1 0.75705253E-01 0.10734493E+03</pdfrwt>
<pdfrwt beam="2">  1       -1 0.66618619E-02 0.10734493E+03</pdfrwt>
<totfact> 0.50017933E+03</totfact>
</mgrwt>
</event>
<event>
 8    1  0.3177960E-004  0.9270918E+02  0.7546771E-02  0.1296898E+00
         -2   -1    0    0    0  501 -0.00000000000E+00  0.00000000000E+00  0.13107147241E+03  0.13107147241E+03  0.00000000000E+00 0.  1.
          2   -1    0    0  501    0  0.00000000000E+00 -0.00000000000E+00 -0.65001916827E+02  0.65001916827E+02  0.00000000000E+00 0. -1.
         23    2    1    2    0    0 -0.97478355529E+01 -0.87257554802E+01  0.33898350204E+02  0.98712157726E+02  0.91781440551E+02 0.  0.
         23    2    1    2    0    0  0.97478355529E+01  0.87257554802E+01  0.32171205377E+02  0.97361231510E+02  0.90956384268E+02 0.  0.
          5    1    3    3  502    0 -0.52909613233E+01  0.41439460430E+02  0.13246771053E+02  0.44077092642E+02  0.47000000000E+01 0. -1.
         -5    1    3    3    0  502 -0.44568742296E+01 -0.50165215910E+02  0.20651579151E+02  0.54635065083E+02  0.47000000000E+01 0.  1.
          5    1    4    4  503    0  0.27057173382E+02  0.27529910836E+02  0.51816598333E+02  0.64784538934E+02  0.47000000000E+01 0. -1.
         -5    1    4    4    0  503 -0.17309337830E+02 -0.18804155356E+02 -0.19645392956E+02  0.32576692576E+02  0.47000000000E+01 0.  1.
<mgrwt>
<rscale>  0 0.92504320E+02</rscale>
<asrwt>0</asrwt>
<pdfrwt beam="1">  1        2 0.10000295E-01 0.92709179E+02</pdfrwt>
<pdfrwt beam="2">  1       -2 0.20164842E-01 0.92709179E+02</pdfrwt>
<totfact> 0.11960374E+04</totfact>
</mgrwt>
</event>
<event>
 8    1  0.3177960E-004  0.1095008E+03  0.7546771E-02  0.1262463E+00
         -1   -1    0    0    0  501 -0.00000000000E+00  0.00000000000E+00  0.19044583845E+02  0.19044583845E+02  0.00000000000E+00 0.  1.
          1   -1    0    0  501    0  0.00000000000E+00 -0.00000000000E+00 -0.65356401977E+03  0.65356401977E+03  0.00000000000E+00 0. -1.
         23    2    1    2    0    0  0.45023272920E+01 -0.60502273087E+02 -0.39871653930E+03  0.41347951477E+03  0.91157196239E+02 0.  0.
         23    2    1    2    0    0 -0.45023272920E+01  0.60502273087E+02 -0.23580289663E+03  0.25912908885E+03  0.88679662985E+02 0.  0.
          5    1    4    4  502    0 -0.36742130418E+02  0.89198295946E+01 -0.14360093894E+03  0.14856940187E+03  0.47000000000E+01 0. -1.
         -5    1    4    4    0  502  0.32239803125E+02  0.51582443493E+02 -0.92201957691E+02  0.11055968698E+03  0.47000000000E+01 0.  1.
          5    1    3    3  503    0 -0.32087435166E+00  0.22254929753E+02 -0.13795328072E+03  0.13981624555E+03  0.47000000000E+01 0. -1.
         -5    1    3    3    0  503  0.48232016437E+01 -0.82757202841E+02 -0.26076325858E+03  0.27366326922E+03  0.47000000000E+01 0.  1.
<mgrwt>
<rscale>  0 0.10898374E+03</rscale>
<asrwt>0</asrwt>
<pdfrwt beam="1">  1        1 0.10054832E+00 0.10950082E+03</pdfrwt>
<pdfrwt beam="2">  1       -1 0.29299358E-02 0.10950082E+03</pdfrwt>
<totfact> 0.11433547E+04</totfact>
</mgrwt>
</event>
<event>
 8    1  0.3177960E-004  0.1064642E+03  0.7546771E-02  0.1269070E+00
         -4   -1    0    0    0  501 -0.00000000000E+00  0.00000000000E+00  0.13411818856E+03  0.13411818856E+03  0.00000000000E+00 0.  1.
          4   -1    0    0  501    0  0.00000000000E+00 -0.00000000000E+00 -0.86890237055E+02  0.86890237055E+02  0.00000000000E+00 0. -1.
         23    2    1    2    0    0 -0.80385142280E+01 -0.45393056687E+02  0.51205227760E+02  0.11813809541E+03  0.95966071773E+02 0.  0.
         23    2    1    2    0    0  0.80385142280E+01  0.45393056687E+02 -0.39772762571E+01  0.10287033020E+03  0.91876758773E+02 0.  0.
          5    1    4    4  502    0 -0.15641615557E+02  0.63770073536E+02 -0.19679860378E+02  0.68707127145E+02  0.47000000000E+01 0. -1.
         -5    1    4    4    0  502  0.23680129785E+02 -0.18377016849E+02  0.15702584121E+02  0.34163203055E+02  0.47000000000E+01 0.  1.
          5    1    3    3  503    0  0.35336487188E+02  0.77357237496E+01  0.26498576202E+02  0.45086287155E+02  0.47000000000E+01 0. -1.
         -5    1    3    3    0  503 -0.43375001416E+02 -0.53128780436E+02  0.24706651558E+02  0.73051808258E+02  0.47000000000E+01 0.  1.
<mgrwt>
<rscale>  0 0.10553442E+03</rscale>
<asrwt>0</asrwt>
<pdfrwt beam="1">  1        4 0.13367729E-01 0.10646424E+03</pdfrwt>
<pdfrwt beam="2">  1       -4 0.20633567E-01 0.10646424E+03</pdfrwt>
<totfact> 0.15294822E+03</totfact>
</mgrwt>
</event>
<event>
 8    1  0.3177960E-004  0.1004892E+03  0.7546771E-02  0.1281754E+00
          1   -1    0    0  501    0  0.00000000000E+00  0.00000000000E+00  0.18242638056E+03  0.18242638056E+03  0.00000000000E+00 0. -1.
         -1   -1    0    0    0  501 -0.00000000000E+00 -0.00000000000E+00 -0.53338197327E+02  0.53338197327E+02  0.00000000000E+00 0.  1.
         23    2    1    2    0    0  0.29994521316E+02 -0.15453467673E+01  0.51538593502E+02  0.10883142679E+03  0.91027432297E+02 0.  0.
         23    2    1    2    0    0 -0.29994521316E+02  0.15453467673E+01  0.77549589727E+02  0.12693315110E+03  0.95895915318E+02 0.  0.
          5    1    3    3  502    0 -0.18882742300E+02  0.23348163668E+02  0.43690314439E+02  0.53222441500E+02  0.47000000000E+01 0. -1.
         -5    1    3    3    0  502  0.48877263616E+02 -0.24893510435E+02  0.78482790631E+01  0.55608985287E+02  0.47000000000E+01 0.  1.
          5    1    4    4  503    0 -0.61209948812E+02 -0.23191219239E+00  0.72358897394E+02  0.94892632216E+02  0.47000000000E+01 0. -1.
         -5    1    4    4    0  503  0.31215427496E+02  0.17772589597E+01  0.51906923326E+01  0.32040518880E+02  0.47000000000E+01 0.  1.
<mgrwt>
<rscale>  0 0.99309909E+02</rscale>
<asrwt>0</asrwt>
<pdfrwt beam="1">  1        1 0.28065597E-01 0.10048923E+03</pdfrwt>
<pdfrwt beam="2">  1       -1 0.82058766E-02 0.10048923E+03</pdfrwt>
<totfact> 0.12461264E+04</totfact>
</mgrwt>
</event>
<event>
 8    1  0.3177960E-004  0.9986547E+02  0.7546771E-02  0.1280681E+00
         -1   -1    0    0    0  501 -0.00000000000E+00  0.00000000000E+00  0.10450562948E+03  0.10450562948E+03  0.00000000000E+00 0.  1.
          1   -1    0    0  501    0  0.00000000000E+00 -0.00000000000E+00 -0.95516040224E+02  0.95516040224E+02  0.00000000000E+00 0. -1.
         23    2    1    2    0    0 -0.40966369704E+02  0.99098738768E+01  0.98100778484E+01  0.10034615119E+03  0.90535426133E+02 0.  0.
         23    2    1    2    0    0  0.40966369704E+02 -0.99098738768E+01 -0.82048859787E+00  0.99675518505E+02  0.90322127636E+02 0.  0.
          5    1    3    3  502    0 -0.37322842698E+02  0.30982851105E+02 -0.28328127700E+02  0.56369357533E+02  0.47000000000E+01 0. -1.
         -5    1    3    3    0  502 -0.36435270063E+01 -0.21072977228E+02  0.38138205548E+02  0.43976793662E+02  0.47000000000E+01 0.  1.
          5    1    4    4  503    0  0.67848834969E+02 -0.12251510524E+02  0.10757719072E+02  0.69938418887E+02  0.47000000000E+01 0. -1.
         -5    1    4    4    0  503 -0.26882465264E+02  0.23416366471E+01 -0.11578207670E+02  0.29737099619E+02  0.47000000000E+01 0.  1.
<mgrwt>
<rscale>  0 0.99817104E+02</rscale>
<asrwt>0</asrwt>
<pdfrwt beam="1">  1        1 0.14694775E-01 0.99865472E+02</pdfrwt>
<pdfrwt beam="2">  1       -1 0.16077789E-01 0.99865472E+02</pdfrwt>
<totfact> 0.10065584E+04</totfact>
</mgrwt>
</event>
<event>
 8    1  0.3177960E-004  0.1121688E+03  0.7546771E-02  0.1256956E+00
         -1   -1    0    0    0  501 -0.00000000000E+00  0.00000000000E+00  0.47565184560E+02  0.47565184560E+02  0.00000000000E+00 0.  1.
          1   -1    0    0  501    0  0.00000000000E+00 -0.00000000000E+00 -0.40368231763E+03  0.40368231763E+03  0.00000000000E+00 0. -1.
         23    2    1    2    0    0  0.78473403996E+01  0.63772588022E+02 -0.44319279486E+02  0.11988704597E+03  0.90995502765E+02 0.  0.
         23    2    1    2    0    0 -0.78473403996E+01 -0.63772588022E+02 -0.31179785358E+03  0.33136045622E+03  0.91941974695E+02 0.  0.
          5    1    4    4  502    0 -0.30058057919E+02  0.12108126069E+02 -0.10090486044E+03  0.10608475113E+03  0.47000000000E+01 0. -1.
         -5    1    3    3    0  503  0.41004205812E+02  0.37617126763E+02 -0.52463186693E+02  0.76621596683E+02  0.47000000000E+01 0.  1.
          5    1    3    3  503    0 -0.33156865413E+02  0.26155461259E+02  0.81439072072E+01  0.43265449290E+02  0.47000000000E+01 0. -1.
         -5    1    4    4    0  502  0.22210717519E+02 -0.75880714091E+02 -0.21089299314E+03  0.22527570508E+03  0.47000000000E+01 0.  1.
<mgrwt>
<rscale>  0 0.11197472E+03</rscale>
<asrwt>0</asrwt>
<pdfrwt beam="1">  1        1 0.62104972E-01 0.11216885E+03</pdfrwt>
<pdfrwt beam="2">  1       -1 0.73177207E-02 0.11216885E+03</pdfrwt>
<totfact> 0.56061382E+03</totfact>
</mgrwt>
</event>
<event>
 8    1  0.3177960E-004  0.1076941E+03  0.7546771E-02  0.1266403E+00
          3   -1    0    0  501    0  0.00000000000E+00  0.00000000000E+00  0.76110119280E+02  0.76110119280E+02  0.00000000000E+00 0. -1.
         -3   -1    0    0    0  501 -0.00000000000E+00 -0.00000000000E+00 -0.15110884977E+03  0.15110884977E+03  0.00000000000E+00 0.  1.
         23    2    1    2    0    0  0.48473748886E+02  0.17060669004E+02 -0.20722788656E+02  0.10662084530E+03  0.91092260506E+02 0.  0.
         23    2    1    2    0    0 -0.48473748886E+02 -0.17060669004E+02 -0.54275941838E+02  0.12059812376E+03  0.94642795994E+02 0.  0.
          5    1    3    3  502    0  0.32688372268E+02 -0.31704272009E+02  0.97486532422E+01  0.46806161829E+02  0.47000000000E+01 0. -1.
         -5    1    3    3    0  502  0.15785376618E+02  0.48764941013E+02 -0.30471441898E+02  0.59814683467E+02  0.47000000000E+01 0.  1.
          5    1    4    4  503    0  0.12119325156E+02 -0.37367010178E+02 -0.52364682859E+01  0.39908421317E+02  0.47000000000E+01 0. -1.
         -5    1    4    4    0  503 -0.60593074042E+02  0.20306341174E+02 -0.49039473552E+02  0.80689702441E+02  0.47000000000E+01 0.  1.
<mgrwt>
<rscale>  0 0.10690897E+03</rscale>
<asrwt>0</asrwt>
<pdfrwt beam="1">  1        3 0.11709249E-01 0.10769415E+03</pdfrwt>
<pdfrwt beam="2">  1       -3 0.23247515E-01 0.10769415E+03</pdfrwt>
<totfact> 0.21310935E+03</totfact>
</mgrwt>
</event>
<event>
 8    1  0.3177960E-004  0.9328075E+02  0.7546771E-02  0.1300507E+00
          1   -1    0    0  501    0  0.00000000000E+00  0.00000000000E+00  0.98277475287E+03  0.98277475287E+03  0.00000000000E+00 0. -1.
         -1   -1    0    0    0  501 -0.00000000000E+00 -0.00000000000E+00 -0.12381571354E+02  0.12381571354E+02  0.00000000000E+00 0.  1.
         23    2    1    2    0    0  0.37274274322E+00  0.18806236774E+02  0.76418598572E+03  0.76883198799E+03  0.82271450106E+02 0.  0.
         23    2    1    2    0    0 -0.37274274322E+00 -0.18806236774E+02  0.20620719580E+03  0.22632433624E+03  0.91364566964E+02 0.  0.
          5    1    3    3  502    0  0.30759330098E+02 -0.18227972136E+02  0.35355679029E+03  0.35539117788E+03  0.47000000000E+01 0. -1.
         -5    1    4    4    0  503 -0.26173202806E+02  0.22531931772E+02  0.13821332517E+03  0.14254030219E+03  0.47000000000E+01 0.  1.
          5    1    4    4  503    0  0.25800460063E+02 -0.41338168546E+02  0.67993870627E+02  0.83784034046E+02  0.47000000000E+01 0. -1.
         -5    1    3    3    0  502 -0.30386587355E+02  0.37034208911E+02  0.41062919543E+03  0.41344081010E+03  0.47000000000E+01 0.  1.
<mgrwt>
<rscale>  0 0.90975058E+02</rscale>
<asrwt>0</asrwt>
<pdfrwt beam="1">  1        1 0.15119605E+00 0.93280746E+02</pdfrwt>
<pdfrwt beam="2">  1       -1 0.19048579E-02 0.93280746E+02</pdfrwt>
<totfact> 0.11381583E+04</totfact>
</mgrwt>
</event>
<event>
 8    1  0.3177960E-004  0.1081676E+03  0.7546771E-02  0.1265225E+00
          1   -1    0    0  501    0  0.00000000000E+00  0.00000000000E+00  0.51301419160E+02  0.51301419160E+02  0.00000000000E+00 0. -1.
         -1   -1    0    0    0  501 -0.00000000000E+00 -0.00000000000E+00 -0.24654658801E+03  0.24654658801E+03  0.00000000000E+00 0.  1.
         23    2    1    2    0    0  0.41867194527E+02 -0.34722942659E+02 -0.50279040414E+02  0.11697398546E+03  0.90533897770E+02 0.  0.
         23    2    1    2    0    0 -0.41867194527E+02  0.34722942659E+02 -0.14496612844E+03  0.18087402171E+03  0.93496997872E+02 0.  0.
          5    1    4    4  502    0 -0.60638423489E+02  0.16801449513E+02 -0.45035870833E+02  0.77521782556E+02  0.47000000000E+01 0. -1.
         -5    1    4    4    0  502  0.18771228962E+02  0.17921493146E+02 -0.99930257606E+02  0.10335223916E+03  0.47000000000E+01 0.  1.
          5    1    3    3  503    0  0.32766900602E+02  0.26296403468E+02 -0.10991230425E+02  0.43681434920E+02  0.47000000000E+01 0. -1.
         -5    1    3    3    0  503  0.91002939253E+01 -0.61019346127E+02 -0.39287809989E+02  0.73292550542E+02  0.47000000000E+01 0.  1.
<mgrwt>
<rscale>  0 0.10752422E+03</rscale>
<asrwt>0</asrwt>
<pdfrwt beam="1">  1        1 0.78925260E-02 0.10816762E+03</pdfrwt>
<pdfrwt beam="2">  1       -1 0.37930244E-01 0.10816762E+03</pdfrwt>
<totfact> 0.56237845E+03</totfact>
</mgrwt>
</event>
<event>
 8    1  0.3177960E-004  0.1092013E+03  0.7546771E-02  0.1262419E+00
          1   -1    0    0  501    0  0.00000000000E+00  0.00000000000E+00  0.52581638243E+02  0.52581638243E+02  0.00000000000E+00 0. -1.
         -1   -1    0    0    0  501 -0.00000000000E+00 -0.00000000000E+00 -0.31665112059E+03  0.31665112059E+03  0.00000000000E+00 0.  1.
         23    2    1    2    0    0  0.22742914008E+02  0.49636529068E+02 -0.23092245488E+03  0.25511154144E+03  0.93678670199E+02 0.  0.
         23    2    1    2    0    0 -0.22742914008E+02 -0.49636529068E+02 -0.33147027458E+02  0.11412121739E+03  0.94572203493E+02 0.  0.
          5    1    3    3  502    0  0.17606204337E+02 -0.23024727079E+02 -0.33076260894E+02  0.44229464420E+02  0.47000000000E+01 0. -1.
         -5    1    3    3    0  502  0.51367096716E+01  0.72661256147E+02 -0.19784619399E+03  0.21088207702E+03  0.47000000000E+01 0.  1.
          5    1    4    4  503    0  0.23380241763E+02 -0.43000201362E+02  0.10299778611E+02  0.50237719509E+02  0.47000000000E+01 0. -1.
         -5    1    4    4    0  503 -0.46123155772E+02 -0.66363277060E+01 -0.43446806069E+02  0.63883497880E+02  0.47000000000E+01 0.  1.
<mgrwt>
<rscale>  0 0.10900757E+03</rscale>
<asrwt>0</asrwt>
<pdfrwt beam="1">  1        1 0.80894830E-02 0.10920131E+03</pdfrwt>
<pdfrwt beam="2">  1       -1 0.48715556E-01 0.10920131E+03</pdfrwt>
<totfact> 0.35011709E+03</totfact>
</mgrwt>
</event>
<event>
 8    1  0.3177960E-004  0.1035378E+03  0.7546771E-02  0.1273986E+00
          2   -1    0    0  501    0  0.00000000000E+00  0.00000000000E+00  0.66829175222E+03  0.66829175222E+03  0.00000000000E+00 0. -1.
         -2   -1    0    0    0  501 -0.00000000000E+00 -0.00000000000E+00 -0.18688625848E+02  0.18688625848E+02  0.00000000000E+00 0.  1.
         23    2    1    2    0    0 -0.48091017624E+02  0.11330776651E+02  0.46353632109E+03  0.47495893900E+03  0.90988682206E+02 0.  0.
         23    2    1    2    0    0  0.48091017624E+02 -0.11330776651E+02  0.18606680528E+03  0.21202143907E+03  0.88831875593E+02 0.  0.
          5    1    4    4  502    0  0.62953115172E+02  0.14982008533E+02  0.88243335689E+02  0.10952867927E+03  0.47000000000E+01 0. -1.
         -5    1    4    4    0  502 -0.14862097548E+02 -0.26312785183E+02  0.97823469591E+02  0.10249275979E+03  0.47000000000E+01 0.  1.
          5    1    3    3  503    0  0.26999735677E+02  0.62664103844E+01  0.12211268774E+03  0.12530703146E+03  0.47000000000E+01 0. -1.
         -5    1    3    3    0  503 -0.75090753301E+02  0.50643662664E+01  0.34142363335E+03  0.34965190754E+03  0.47000000000E+01 0.  1.
<mgrwt>
<rscale>  0 0.10306197E+03</rscale>
<asrwt>0</asrwt>
<pdfrwt beam="1">  1        2 0.10281410E+00 0.10353778E+03</pdfrwt>
<pdfrwt beam="2">  1       -2 0.28751737E-02 0.10353778E+03</pdfrwt>
<totfact> 0.18524330E+04</totfact>
</mgrwt>
</event>
<event>
 8    1  0.3177960E-004  0.9215932E+02  0.7546771E-02  0.1298344E+00
         -1   -1    0    0    0  501 -0.00000000000E+00  0.00000000000E+00  0.71237541646E+03  0.71237541646E+03  0.00000000000E+00 0.  1.
          1   -1    0    0  501    0  0.00000000000E+00 -0.00000000000E+00 -0.12904021399E+02  0.12904021399E+02  0.00000000000E+00 0. -1.
         23    2    1    2    0    0 -0.35633860102E+00 -0.46868502633E+01  0.24096483888E+03  0.25760262314E+03  0.90955837261E+02 0.  0.
         23    2    1    2    0    0  0.35633860102E+00  0.46868502633E+01  0.45850655618E+03  0.46767681471E+03  0.92039379716E+02 0.  0.
          5    1    3    3  502    0 -0.28140864310E+02  0.14980631903E+02  0.30562984281E+02  0.44412988916E+02  0.47000000000E+01 0. -1.
         -5    1    4    4    0  503  0.17350094423E+02 -0.33574938264E+02  0.10546582252E+03  0.11213131577E+03  0.47000000000E+01 0.  1.
          5    1    4    4  503    0 -0.16993755822E+02  0.38261788527E+02  0.35304073365E+03  0.35554549894E+03  0.47000000000E+01 0. -1.
         -5    1    3    3    0  502  0.27784525709E+02 -0.19667482167E+02  0.21040185460E+03  0.21318963423E+03  0.47000000000E+01 0.  1.
<mgrwt>
<rscale>  0 0.91887596E+02</rscale>
<asrwt>0</asrwt>
<pdfrwt beam="1">  1        1 0.19852346E-02 0.92159324E+02</pdfrwt>
<pdfrwt beam="2">  1       -1 0.10959619E+00 0.92159324E+02</pdfrwt>
<totfact> 0.46365477E+03</totfact>
</mgrwt>
</event>
<event>
 8    1  0.3177960E-004  0.1495032E+03  0.7546771E-02  0.1201420E+00
         -1   -1    0    0    0  501 -0.00000000000E+00  0.00000000000E+00  0.14219074240E+02  0.14219074240E+02  0.00000000000E+00 0.  1.
          1   -1    0    0  501    0  0.00000000000E+00 -0.00000000000E+00 -0.15885006068E+04  0.15885006068E+04  0.00000000000E+00 0. -1.
         23    2    1    2    0    0  0.69759269205E+02 -0.95182108599E+02 -0.67803029139E+03  0.69408471919E+03  0.90014065253E+02 0.  0.
         23    2    1    2    0    0 -0.69759269205E+02  0.95182108599E+02 -0.89625124113E+03  0.90863496181E+03  0.91788981621E+02 0.  0.
          5    1    4    4  502    0 -0.60435206701E+02  0.72166760023E+02 -0.85554951056E+03  0.86072499120E+03  0.47000000000E+01 0. -1.
         -5    1    3    3    0  503  0.55068411866E+02 -0.28623598534E+02 -0.49169359644E+03  0.49561731523E+03  0.47000000000E+01 0.  1.
          5    1    3    3  503    0  0.14690857339E+02 -0.66558510066E+02 -0.18633669495E+03  0.19846740396E+03  0.47000000000E+01 0. -1.
         -5    1    4    4    0  502 -0.93240625032E+01  0.23015348576E+02 -0.40701730576E+02  0.47909970607E+02  0.47000000000E+01 0.  1.
<mgrwt>
<rscale>  0 0.14923168E+03</rscale>
<asrwt>0</asrwt>
<pdfrwt beam="1">  1        1 0.24438479E+00 0.14950320E+03</pdfrwt>
<pdfrwt beam="2">  1       -1 0.21875492E-02 0.14950320E+03</pdfrwt>
<totfact> 0.37262843E+03</totfact>
</mgrwt>
</event>
<event>
 8    1  0.3177960E-004  0.1087215E+03  0.7546771E-02  0.1264052E+00
          3   -1    0    0  501    0  0.00000000000E+00  0.00000000000E+00  0.21003257910E+03  0.21003257910E+03  0.00000000000E+00 0. -1.
         -3   -1    0    0    0  501 -0.00000000000E+00 -0.00000000000E+00 -0.69382926927E+02  0.69382926927E+02  0.00000000000E+00 0.  1.
         23    2    1    2    0    0 -0.53173581925E+02  0.16327040738E+02  0.75222718909E+01  0.10898141953E+03  0.93415004980E+02 0.  0.
         23    2    1    2    0    0  0.53173581925E+02 -0.16327040738E+02  0.13312738028E+03  0.17043408649E+03  0.90724177501E+02 0.  0.
          5    1    3    3  502    0  0.34313267859E+00  0.46037319724E+02  0.10734853314E+02  0.47506627149E+02  0.47000000000E+01 0. -1.
         -5    1    4    4    0  503  0.34672204515E+02 -0.30144977827E+02  0.12946186261E+02  0.47964311658E+02  0.47000000000E+01 0.  1.
          5    1    4    4  503    0  0.18501377410E+02  0.13817937088E+02  0.12018119402E+03  0.12246977483E+03  0.47000000000E+01 0. -1.
         -5    1    3    3    0  502 -0.53516714604E+02 -0.29710278986E+02 -0.32125814234E+01  0.61474792385E+02  0.47000000000E+01 0.  1.
<mgrwt>
<rscale>  0 0.10814110E+03</rscale>
<asrwt>0</asrwt>
<pdfrwt beam="1">  1        3 0.32312704E-01 0.10872150E+03</pdfrwt>
<pdfrwt beam="2">  1       -3 0.10674297E-01 0.10872150E+03</pdfrwt>
<totfact> 0.13678039E+03</totfact>
</mgrwt>
</event>
<event>
 8    1  0.3177960E-004  0.1944789E+03  0.7546771E-02  0.1154630E+00
         -3   -1    0    0    0  501 -0.00000000000E+00  0.00000000000E+00  0.19445973988E+03  0.19445973988E+03  0.00000000000E+00 0.  1.
          3   -1    0    0  501    0  0.00000000000E+00 -0.00000000000E+00 -0.23758197984E+03  0.23758197984E+03  0.00000000000E+00 0. -1.
         23    2    1    2    0    0  0.61688447074E+02  0.15989617390E+03  0.71115065789E+02  0.20707339181E+03  0.91922717977E+02 0.  0.
         23    2    1    2    0    0 -0.61688447074E+02 -0.15989617390E+03 -0.11423730574E+03  0.22496832791E+03  0.90489422630E+02 0.  0.
          5    1    4    4  502    0 -0.84996922107E+02 -0.12835476251E+03 -0.85875607622E+02  0.17634095330E+03  0.47000000000E+01 0. -1.
         -5    1    3    3    0  503  0.35455892308E+02  0.67484749518E+02  0.79854675865E+02  0.11049964242E+03  0.47000000000E+01 0.  1.
          5    1    3    3  503    0  0.26232554765E+02  0.92411424386E+02 -0.87396100762E+01  0.96573749388E+02  0.47000000000E+01 0. -1.
         -5    1    4    4    0  502  0.23308475033E+02 -0.31541411397E+02 -0.28361698122E+02  0.48627374612E+02  0.47000000000E+01 0.  1.
<mgrwt>
<rscale>  0 0.19431033E+03</rscale>
<asrwt>0</asrwt>
<pdfrwt beam="1">  1        3 0.36551074E-01 0.19447889E+03</pdfrwt>
<pdfrwt beam="2">  1       -3 0.29916883E-01 0.19447889E+03</pdfrwt>
<totfact> 0.19425934E+02</totfact>
</mgrwt>
</event>
<event>
 8    1  0.3177960E-004  0.1107207E+03  0.7546771E-02  0.1259671E+00
         -1   -1    0    0    0  501 -0.00000000000E+00  0.00000000000E+00  0.34449021523E+03  0.34449021523E+03  0.00000000000E+00 0.  1.
          1   -1    0    0  501    0  0.00000000000E+00 -0.00000000000E+00 -0.37085442841E+02  0.37085442841E+02  0.00000000000E+00 0. -1.
         23    2    1    2    0    0  0.57662741091E+02  0.11958194657E+02  0.11230816740E+03  0.15770925005E+03  0.93760828472E+02 0.  0.
         23    2    1    2    0    0 -0.57662741091E+02 -0.11958194657E+02  0.19509660499E+03  0.22386640803E+03  0.92657936705E+02 0.  0.
          5    1    4    4  502    0  0.57219923130E+01 -0.20399525343E+02  0.36989036218E+01  0.22014852220E+02  0.47000000000E+01 0. -1.
         -5    1    4    4    0  502 -0.63384733404E+02  0.84413306858E+01  0.19139770137E+03  0.20185155581E+03  0.47000000000E+01 0.  1.
          5    1    3    3  503    0  0.64170840683E+01 -0.38077710701E+02  0.41635509310E+02  0.56979791643E+02  0.47000000000E+01 0. -1.
         -5    1    3    3    0  503  0.51245657023E+02  0.50035905358E+02  0.70672658093E+02  0.10072945841E+03  0.47000000000E+01 0.  1.
<mgrwt>
<rscale>  0 0.11048691E+03</rscale>
<asrwt>0</asrwt>
<pdfrwt beam="1">  1        1 0.57054530E-02 0.11072074E+03</pdfrwt>
<pdfrwt beam="2">  1       -1 0.52998493E-01 0.11072074E+03</pdfrwt>
<totfact> 0.48030333E+03</totfact>
</mgrwt>
</event>
<event>
 8    1  0.3177960E-004  0.1171007E+03  0.7546771E-02  0.1256469E+00
          1   -1    0    0  501    0  0.00000000000E+00  0.00000000000E+00  0.45143991320E+02  0.45143991320E+02  0.00000000000E+00 0. -1.
         -1   -1    0    0    0  501 -0.00000000000E+00 -0.00000000000E+00 -0.37045329405E+03  0.37045329405E+03  0.00000000000E+00 0.  1.
         23    2    1    2    0    0 -0.21089780798E+02 -0.28594276516E+02 -0.26714467604E+03  0.28484677181E+03  0.92244208333E+02 0.  0.
         23    2    1    2    0    0  0.21089780798E+02  0.28594276516E+02 -0.58164626688E+02  0.13075051356E+03  0.11158029169E+03 0.  0.
          5    1    4    4  502    0  0.53713989489E+02 -0.18798334273E+02 -0.41741943351E+02  0.70732240690E+02  0.47000000000E+01 0. -1.
         -5    1    4    4    0  502 -0.32624208691E+02  0.47392610788E+02 -0.16422683336E+02  0.60018272868E+02  0.47000000000E+01 0.  1.
          5    1    3    3  503    0  0.21317884798E+02  0.22526409202E+02 -0.10428088427E+03  0.10889666729E+03  0.47000000000E+01 0. -1.
         -5    1    3    3    0  503 -0.42407665596E+02 -0.51120685718E+02 -0.16286379178E+03  0.17595010452E+03  0.47000000000E+01 0.  1.
<mgrwt>
<rscale>  0 0.11224428E+03</rscale>
<asrwt>0</asrwt>
<pdfrwt beam="1">  1        1 0.69452292E-02 0.11710070E+03</pdfrwt>
<pdfrwt beam="2">  1       -1 0.56992816E-01 0.11710070E+03</pdfrwt>
<totfact> 0.32322182E+03</totfact>
</mgrwt>
</event>
<event>
 8    1  0.3177960E-004  0.9743361E+02  0.7546771E-02  0.1287220E+00
          2   -1    0    0  501    0  0.00000000000E+00  0.00000000000E+00  0.56702695054E+03  0.56702695054E+03  0.00000000000E+00 0. -1.
         -2   -1    0    0    0  501 -0.00000000000E+00 -0.00000000000E+00 -0.18322668405E+02  0.18322668405E+02  0.00000000000E+00 0.  1.
         23    2    1    2    0    0  0.33115576502E+02 -0.17191498198E+01  0.17380969889E+03  0.19800060684E+03  0.88852867134E+02 0.  0.
         23    2    1    2    0    0 -0.33115576502E+02  0.17191498198E+01  0.37489458325E+03  0.38734901211E+03  0.91617202257E+02 0.  0.
          5    1    3    3  502    0  0.18317925063E+02 -0.15367364255E+02  0.14556568074E+01  0.24411292459E+02  0.47000000000E+01 0.  1.
         -5    1    3    3    0  502  0.14797651438E+02  0.13648214435E+02  0.17235404208E+03  0.17358931438E+03  0.47000000000E+01 0. -1.
          5    1    4    4  503    0 -0.86402417423E+00 -0.42064555229E+02  0.14426487501E+03  0.15034832060E+03  0.47000000000E+01 0. -1.
         -5    1    4    4    0  503 -0.32251552327E+02  0.43783705049E+02  0.23062970824E+03  0.23700069151E+03  0.47000000000E+01 0.  1.
<mgrwt>
<rscale>  0 0.96778369E+02</rscale>
<asrwt>0</asrwt>
<pdfrwt beam="1">  1        2 0.87234902E-01 0.97433611E+02</pdfrwt>
<pdfrwt beam="2">  1       -2 0.28188725E-02 0.97433611E+02</pdfrwt>
<totfact> 0.22830821E+04</totfact>
</mgrwt>
</event>
<event>
 8    1  0.3177960E-004  0.1438301E+03  0.7546771E-02  0.1210160E+00
          3   -1    0    0  501    0  0.00000000000E+00  0.00000000000E+00  0.61505073408E+03  0.61505073408E+03  0.00000000000E+00 0. -1.
         -3   -1    0    0    0  501 -0.00000000000E+00 -0.00000000000E+00 -0.39795738626E+02  0.39795738626E+02  0.00000000000E+00 0.  1.
         23    2    1    2    0    0  0.26326668820E+02 -0.10105279847E+03  0.15040291910E+03  0.20810608949E+03  0.98905737136E+02 0.  0.
         23    2    1    2    0    0 -0.26326668820E+02  0.10105279847E+03  0.42485207636E+03  0.44674038322E+03  0.90404212536E+02 0.  0.
          5    1    3    3  502    0  0.80126700058E+01 -0.11736515026E+03  0.11338941097E+03  0.16345650766E+03  0.47000000000E+01 0. -1.
         -5    1    3    3    0  502  0.18313998814E+02  0.16312351789E+02  0.37013508124E+02  0.44649581825E+02  0.47000000000E+01 0.  1.
          5    1    4    4  503    0 -0.44077175004E+02  0.42365668986E+02  0.10996210939E+03  0.12590235410E+03  0.47000000000E+01 0. -1.
         -5    1    4    4    0  503  0.17750506184E+02  0.58687129487E+02  0.31488996696E+03  0.32083802912E+03  0.47000000000E+01 0.  1.
<mgrwt>
<rscale>  0 0.14238135E+03</rscale>
<asrwt>0</asrwt>
<pdfrwt beam="1">  1        3 0.94623183E-01 0.14383013E+03</pdfrwt>
<pdfrwt beam="2">  1       -3 0.61224218E-02 0.14383013E+03</pdfrwt>
<totfact> 0.39697270E+02</totfact>
</mgrwt>
</event>
<event>
 8    1  0.3177960E-004  0.1092833E+03  0.7546771E-02  0.1263305E+00
         -2   -1    0    0    0  501 -0.00000000000E+00  0.00000000000E+00  0.63662515530E+03  0.63662515530E+03  0.00000000000E+00 0.  1.
          2   -1    0    0  501    0  0.00000000000E+00 -0.00000000000E+00 -0.18269368474E+02  0.18269368474E+02  0.00000000000E+00 0. -1.
         23    2    1    2    0    0  0.49979021428E+02  0.24046432985E+02  0.32251749825E+03  0.34052956624E+03  0.94163237435E+02 0.  0.
         23    2    1    2    0    0 -0.49979021428E+02 -0.24046432985E+02  0.29583828857E+03  0.31436495753E+03  0.90713284670E+02 0.  0.
          5    1    4    4  502    0 -0.45365103341E+02 -0.56626690776E+02  0.19036597942E+03  0.20377897544E+03  0.47000000000E+01 0. -1.
         -5    1    3    3    0  503  0.51662276104E+02 -0.16041554420E+02  0.94740072185E+02  0.10919749776E+03  0.47000000000E+01 0.  1.
          5    1    3    3  503    0 -0.16832546760E+01  0.40087987404E+02  0.22777742607E+03  0.23133206848E+03  0.47000000000E+01 0. -1.
         -5    1    4    4    0  502 -0.46139180865E+01  0.32580257791E+02  0.10547230915E+03  0.11058598209E+03  0.47000000000E+01 0.  1.
<mgrwt>
<rscale>  0 0.10853616E+03</rscale>
<asrwt>0</asrwt>
<pdfrwt beam="1">  1        2 0.28106726E-02 0.10928334E+03</pdfrwt>
<pdfrwt beam="2">  1       -2 0.97942314E-01 0.10928334E+03</pdfrwt>
<totfact> 0.28885400E+03</totfact>
</mgrwt>
</event>
<event>
 8    1  0.3177960E-004  0.1038603E+03  0.7546771E-02  0.1276510E+00
          1   -1    0    0  501    0  0.00000000000E+00  0.00000000000E+00  0.19230422495E+03  0.19230422495E+03  0.00000000000E+00 0. -1.
         -1   -1    0    0    0  501 -0.00000000000E+00 -0.00000000000E+00 -0.69942109245E+02  0.69942109245E+02  0.00000000000E+00 0.  1.
         23    2    1    2    0    0 -0.30966828540E+02  0.64232896092E+01 -0.35795424297E+01  0.10392200107E+03  0.98928085314E+02 0.  0.
         23    2    1    2    0    0  0.30966828540E+02 -0.64232896092E+01  0.12594165814E+03  0.15832433312E+03  0.90581952315E+02 0.  0.
          5    1    4    4  502    0 -0.21964223909E+02 -0.12493126879E+02  0.90703455634E+02  0.94274663697E+02  0.47000000000E+01 0. -1.
         -5    1    3    3    0  503  0.71646415944E+01  0.24334413219E+02  0.37088176151E+02  0.45178740200E+02  0.47000000000E+01 0.  1.
          5    1    3    3  503    0 -0.38131470135E+02 -0.17911123609E+02 -0.40667718580E+02  0.58743260874E+02  0.47000000000E+01 0. -1.
         -5    1    4    4    0  502  0.52931052450E+02  0.60698372695E+01  0.35238202501E+02  0.64049669424E+02  0.47000000000E+01 0.  1.
<mgrwt>
<rscale>  0 0.10182209E+03</rscale>
<asrwt>0</asrwt>
<pdfrwt beam="1">  1        1 0.29585265E-01 0.10386033E+03</pdfrwt>
<pdfrwt beam="2">  1       -1 0.10760325E-01 0.10386033E+03</pdfrwt>
<totfact> 0.77774365E+03</totfact>
</mgrwt>
</event>
<event>
 8    1  0.3177960E-004  0.9412099E+02  0.7546771E-02  0.1294128E+00
         -2   -1    0    0    0  501 -0.00000000000E+00  0.00000000000E+00  0.16723622089E+03  0.16723622089E+03  0.00000000000E+00 0.  1.
          2   -1    0    0  501    0  0.00000000000E+00 -0.00000000000E+00 -0.67399734450E+02  0.67399734450E+02  0.00000000000E+00 0. -1.
         23    2    1    2    0    0  0.98744249904E+01 -0.42189522003E+01  0.10627185828E+03  0.14195939034E+03  0.93506453343E+02 0.  0.
         23    2    1    2    0    0 -0.98744249904E+01  0.42189522003E+01 -0.64353718426E+01  0.92676564999E+02  0.91827162989E+02 0.  0.
          5    1    4    4  502    0 -0.49724789149E+02  0.11086031932E+02 -0.87326551384E+01  0.51901869192E+02  0.47000000000E+01 0. -1.
         -5    1    4    4    0  502  0.39850364158E+02 -0.68670797313E+01  0.22972832959E+01  0.40774695807E+02  0.47000000000E+01 0.  1.
          5    1    3    3  503    0 -0.32410994350E+02 -0.29965708097E+02  0.49809267678E+02  0.66719332754E+02  0.47000000000E+01 0. -1.
         -5    1    3    3    0  503  0.42285419341E+02  0.25746755896E+02  0.56462590607E+02  0.75240057589E+02  0.47000000000E+01 0.  1.
<mgrwt>
<rscale>  0 0.93701157E+02</rscale>
<asrwt>0</asrwt>
<pdfrwt beam="1">  1        2 0.10369190E-01 0.94120989E+02</pdfrwt>
<pdfrwt beam="2">  1       -2 0.25728649E-01 0.94120989E+02</pdfrwt>
<totfact> 0.75606279E+03</totfact>
</mgrwt>
</event>
<event>
 8    1  0.3177960E-004  0.9117435E+02  0.7546771E-02  0.1300146E+00
         -1   -1    0    0    0  501 -0.00000000000E+00  0.00000000000E+00  0.24257735050E+02  0.24257735050E+02  0.00000000000E+00 0.  1.
          1   -1    0    0  501    0  0.00000000000E+00 -0.00000000000E+00 -0.43911690846E+03  0.43911690846E+03  0.00000000000E+00 0. -1.
         23    2    1    2    0    0  0.57571707827E+01  0.51493365610E+01 -0.98623807333E+02  0.13431089964E+03  0.90846583347E+02 0.  0.
         23    2    1    2    0    0 -0.57571707827E+01 -0.51493365610E+01 -0.31623536608E+03  0.32906374387E+03  0.90655833192E+02 0.  0.
          5    1    3    3  502    0  0.19469166466E+02 -0.32274930730E+02 -0.82935699352E+02  0.91220281865E+02  0.47000000000E+01 0. -1.
         -5    1    3    3    0  502 -0.13711995683E+02  0.37424267291E+02 -0.15688107981E+02  0.43090617771E+02  0.47000000000E+01 0.  1.
          5    1    4    4  503    0  0.75393383967E+01 -0.33630431312E+02 -0.49832468794E+02  0.60771806620E+02  0.47000000000E+01 0. -1.
         -5    1    4    4    0  503 -0.13296509179E+02  0.28481094751E+02 -0.26640289728E+03  0.26829193725E+03  0.47000000000E+01 0.  1.
<mgrwt>
<rscale>  0 0.91126799E+02</rscale>
<asrwt>0</asrwt>
<pdfrwt beam="1">  1        1 0.67556440E-01 0.91174352E+02</pdfrwt>
<pdfrwt beam="2">  1       -1 0.37319597E-02 0.91174352E+02</pdfrwt>
<totfact> 0.13366321E+04</totfact>
</mgrwt>
</event>
<event>
 8    1  0.3177960E-004  0.9575373E+02  0.7546771E-02  0.1293774E+00
         -3   -1    0    0    0  501 -0.00000000000E+00  0.00000000000E+00  0.35532517152E+03  0.35532517152E+03  0.00000000000E+00 0.  1.
          3   -1    0    0  501    0  0.00000000000E+00 -0.00000000000E+00 -0.29906809689E+02  0.29906809689E+02  0.00000000000E+00 0. -1.
         23    2    1    2    0    0 -0.61672029863E+01  0.20989698042E+02  0.24409564742E+03  0.25960491047E+03  0.85635405265E+02 0.  0.
         23    2    1    2    0    0  0.61672029863E+01 -0.20989698042E+02  0.81322714412E+02  0.12562707074E+03  0.93221109233E+02 0.  0.
          5    1    3    3  502    0  0.29459292318E+02 -0.15358280563E+02  0.62303684035E+02  0.70764155687E+02  0.47000000000E+01 0. -1.
         -5    1    3    3    0  502 -0.35626495304E+02  0.36347978605E+02  0.18179196339E+03  0.18884075479E+03  0.47000000000E+01 0.  1.
          5    1    4    4  503    0  0.30229616319E+02 -0.49407607606E+02  0.52320622267E+02  0.78195133522E+02  0.47000000000E+01 0. -1.
         -5    1    4    4    0  503 -0.24062413332E+02  0.28417909564E+02  0.29002092145E+02  0.47431937217E+02  0.47000000000E+01 0.  1.
<mgrwt>
<rscale>  0 0.93856040E+02</rscale>
<asrwt>0</asrwt>
<pdfrwt beam="1">  1        3 0.46010479E-02 0.95753731E+02</pdfrwt>
<pdfrwt beam="2">  1       -3 0.54665408E-01 0.95753731E+02</pdfrwt>
<totfact> 0.18658423E+03</totfact>
</mgrwt>
</event>
<event>
 8    1  0.3177960E-004  0.1171958E+03  0.7546771E-02  0.1247849E+00
         -2   -1    0    0    0  501 -0.00000000000E+00  0.00000000000E+00  0.16061661650E+03  0.16061661650E+03  0.00000000000E+00 0.  1.
          2   -1    0    0  501    0  0.00000000000E+00 -0.00000000000E+00 -0.17796481863E+03  0.17796481863E+03  0.00000000000E+00 0. -1.
         23    2    1    2    0    0 -0.57836744810E+02 -0.45548471060E+02  0.11340597291E+03  0.16299236802E+03  0.91026617403E+02 0.  0.
         23    2    1    2    0    0  0.57836744810E+02  0.45548471060E+02 -0.13075417505E+03  0.17558906710E+03  0.91187246516E+02 0.  0.
          5    1    4    4  502    0  0.60545914783E+02  0.25401310699E+02 -0.13848856811E+03  0.15333690971E+03  0.47000000000E+01 0. -1.
         -5    1    4    4    0  502 -0.27091699737E+01  0.20147160361E+02  0.77343930620E+01  0.22252157392E+02  0.47000000000E+01 0.  1.
          5    1    3    3  503    0 -0.29038930195E+02 -0.88079331978E+01 -0.89207769169E+01  0.31976701126E+02  0.47000000000E+01 0. -1.
         -5    1    3    3    0  503 -0.28797814615E+02 -0.36740537862E+02  0.12232674983E+03  0.13101566690E+03  0.47000000000E+01 0.  1.
<mgrwt>
<rscale>  0 0.11716460E+03</rscale>
<asrwt>0</asrwt>
<pdfrwt beam="1">  1        2 0.27379203E-01 0.11719585E+03</pdfrwt>
<pdfrwt beam="2">  1       -2 0.24710249E-01 0.11719585E+03</pdfrwt>
<totfact> 0.27059609E+03</totfact>
</mgrwt>
</event>
<event>
 8    1  0.3177960E-004  0.1004573E+03  0.7546771E-02  0.1281031E+00
         -3   -1    0    0    0  501 -0.00000000000E+00  0.00000000000E+00  0.51719325328E+02  0.51719325328E+02  0.00000000000E+00 0.  1.
          3   -1    0    0  501    0  0.00000000000E+00 -0.00000000000E+00 -0.22175338832E+03  0.22175338832E+03  0.00000000000E+00 0. -1.
         23    2    1    2    0    0 -0.25036251591E+02 -0.33467883003E+02 -0.13640511403E+03  0.16753608877E+03  0.87835487257E+02 0.  0.
         23    2    1    2    0    0  0.25036251591E+02  0.33467883003E+02 -0.33628948961E+02  0.10593662487E+03  0.91349598767E+02 0.  0.
          5    1    4    4  502    0 -0.20887014597E+02  0.11831570988E+01  0.19145392590E+02  0.28745491767E+02  0.47000000000E+01 0. -1.
         -5    1    3    3    0  503 -0.20103743967E+02  0.77201175591E+01  0.27875443443E+01  0.22217586280E+02  0.47000000000E+01 0.  1.
          5    1    3    3  503    0 -0.49325076234E+01 -0.41188000562E+02 -0.13919265838E+03  0.14531850249E+03  0.47000000000E+01 0. -1.
         -5    1    4    4    0  502  0.45923266188E+02  0.32284725904E+02 -0.52774341551E+02  0.77191133106E+02  0.47000000000E+01 0.  1.
<mgrwt>
<rscale>  0 0.99651491E+02</rscale>
<asrwt>0</asrwt>
<pdfrwt beam="1">  1        3 0.34115906E-01 0.10045727E+03</pdfrwt>
<pdfrwt beam="2">  1       -3 0.79568192E-02 0.10045727E+03</pdfrwt>
<totfact> 0.19676709E+03</totfact>
</mgrwt>
</event>
<event>
 8    1  0.3177960E-004  0.9613049E+02  0.7546771E-02  0.1290929E+00
         -1   -1    0    0    0  501 -0.00000000000E+00  0.00000000000E+00  0.21224628855E+02  0.21224628855E+02  0.00000000000E+00 0.  1.
          1   -1    0    0  501    0  0.00000000000E+00 -0.00000000000E+00 -0.41749661489E+03  0.41749661489E+03  0.00000000000E+00 0. -1.
         23    2    1    2    0    0 -0.35418316841E+01 -0.30177884331E+02 -0.19877384829E+03  0.22079880709E+03  0.91202089735E+02 0.  0.
         23    2    1    2    0    0  0.35418316841E+01  0.30177884331E+02 -0.19749813775E+03  0.21792243666E+03  0.86956452965E+02 0.  0.
          5    1    3    3  502    0 -0.41057365405E+02 -0.22997028572E+02 -0.57885659246E+02  0.74748980753E+02  0.47000000000E+01 0. -1.
         -5    1    3    3    0  502  0.37515533721E+02 -0.71808557592E+01 -0.14088818905E+03  0.14604982633E+03  0.47000000000E+01 0.  1.
          5    1    4    4  503    0 -0.31284820900E+02  0.16447586196E+02 -0.16281564910E+03  0.16667419927E+03  0.47000000000E+01 0. -1.
         -5    1    4    4    0  503  0.34826652584E+02  0.13730298135E+02 -0.34682488652E+02  0.51248237396E+02  0.47000000000E+01 0.  1.
<mgrwt>
<rscale>  0 0.95109796E+02</rscale>
<asrwt>0</asrwt>
<pdfrwt beam="1">  1        1 0.64230237E-01 0.96130487E+02</pdfrwt>
<pdfrwt beam="2">  1       -1 0.32653281E-02 0.96130487E+02</pdfrwt>
<totfact> 0.17363269E+04</totfact>
</mgrwt>
</event>
<event>
 7    1  0.3177960E-004  0.2472213E+03  0.7546771E-02  0.1135033E+00
         -1   -1    0    0    0  501 -0.00000000000E+00  0.00000000000E+00  0.42466570421E+02  0.42466570421E+02  0.00000000000E+00 0.  1.
          1   -1    0    0  501    0  0.00000000000E+00 -0.00000000000E+00 -0.96153891869E+03  0.96153891869E+03  0.00000000000E+00 0. -1.
         23    2    1    2    0    0 -0.20853013144E+02 -0.11776048824E+03 -0.43638297373E+03  0.46168880150E+03  0.91782726690E+02 0.  0.
          5    1    1    2  502    0 -0.84631134371E+02  0.85595854493E+02 -0.34751377323E+03  0.36780020636E+03  0.47000000000E+01 0. -1.
         -5    1    1    2    0  502  0.10548414751E+03  0.32164633747E+02 -0.13517560131E+03  0.17451648126E+03  0.47000000000E+01 0.  1.
          5    1    3    3  503    0 -0.20183636352E+02  0.77101283166E+01 -0.37750132406E+02  0.43749145726E+02  0.47000000000E+01 0. -1.
         -5    1    3    3    0  503 -0.66937679221E+00 -0.12547061656E+03 -0.39863284132E+03  0.41793965577E+03  0.47000000000E+01 0.  1.
<mgrwt>
<rscale>  0 0.21846448E+03</rscale>
<asrwt>0</asrwt>
<pdfrwt beam="1">  1        1 0.14792906E+00 0.24722127E+03</pdfrwt>
<pdfrwt beam="2">  1       -1 0.65333186E-02 0.24722127E+03</pdfrwt>
<totfact> 0.20052345E+03</totfact>
</mgrwt>
</event>
<event>
 8    1  0.3177960E-004  0.1038555E+03  0.7546771E-02  0.1272411E+00
         -1   -1    0    0    0  501 -0.00000000000E+00  0.00000000000E+00  0.27998946960E+03  0.27998946960E+03  0.00000000000E+00 0.  1.
          1   -1    0    0  501    0  0.00000000000E+00 -0.00000000000E+00 -0.11475585422E+03  0.11475585422E+03  0.00000000000E+00 0. -1.
         23    2    1    2    0    0 -0.39204836757E+02  0.29428183315E+02  0.24349566640E+03  0.26470331997E+03  0.91513227714E+02 0.  0.
         23    2    1    2    0    0  0.39204836757E+02 -0.29428183315E+02 -0.78262051021E+02  0.13004200385E+03  0.91558379936E+02 0.  0.
          5    1    3    3  502    0 -0.41353333963E+02 -0.20755368009E+02  0.70155763597E+02  0.84171281901E+02  0.47000000000E+01 0.  1.
         -5    1    3    3    0  502  0.21484972059E+01  0.50183551324E+02  0.17333990281E+03  0.18053203807E+03  0.47000000000E+01 0.  1.
          5    1    4    4  503    0  0.26608349682E+02 -0.54963898840E+02 -0.80438342228E+02  0.10110119361E+03  0.47000000000E+01 0. -1.
         -5    1    4    4    0  503  0.12596487075E+02  0.25535715524E+02  0.21762912074E+01  0.28940810241E+02  0.47000000000E+01 0.  1.
<mgrwt>
<rscale>  0 0.10384559E+03</rscale>
<asrwt>0</asrwt>
<pdfrwt beam="1">  1        1 0.17654747E-01 0.10385554E+03</pdfrwt>
<pdfrwt beam="2">  1       -1 0.43075303E-01 0.10385554E+03</pdfrwt>
<totfact> 0.15739207E+03</totfact>
</mgrwt>
</event>
<event>
 8    1  0.3177960E-004  0.9826404E+02  0.7546771E-02  0.1287782E+00
          2   -1    0    0  501    0  0.00000000000E+00  0.00000000000E+00  0.35486505143E+03  0.35486505143E+03  0.00000000000E+00 0. -1.
         -2   -1    0    0    0  501 -0.00000000000E+00 -0.00000000000E+00 -0.39035520193E+02  0.39035520193E+02  0.00000000000E+00 0.  1.
         23    2    1    2    0    0 -0.56669736259E+01  0.23307425841E+02  0.27075328103E+03  0.28579095014E+03  0.88282372569E+02 0.  0.
         23    2    1    2    0    0  0.56669736259E+01 -0.23307425841E+02  0.45076250214E+02  0.10810962149E+03  0.95291506626E+02 0.  0.
          5    1    4    4  502    0 -0.35096078225E+02 -0.31087419372E+02  0.46663361909E+02  0.66315320211E+02  0.47000000000E+01 0. -1.
         -5    1    3    3    0  503  0.27294241002E+02  0.22442712370E+02  0.44110271604E+02  0.56713816582E+02  0.47000000000E+01 0.  1.
          5    1    3    3  503    0 -0.32961214628E+02  0.86471347120E+00  0.22664300942E+03  0.22907713356E+03  0.47000000000E+01 0. -1.
         -5    1    4    4    0  502  0.40763051851E+02  0.77799935308E+01 -0.15871116950E+01  0.41794301275E+02  0.47000000000E+01 0.  1.
<mgrwt>
<rscale>  0 0.96523041E+02</rscale>
<asrwt>0</asrwt>
<pdfrwt beam="1">  1        2 0.54594621E-01 0.98264042E+02</pdfrwt>
<pdfrwt beam="2">  1       -2 0.60054649E-02 0.98264042E+02</pdfrwt>
<totfact> 0.12361627E+04</totfact>
</mgrwt>
</event>
<event>
 8    1  0.3177960E-004  0.1239124E+03  0.7546771E-02  0.1237567E+00
         -2   -1    0    0    0  501 -0.00000000000E+00  0.00000000000E+00  0.47606454817E+03  0.47606454817E+03  0.00000000000E+00 0.  1.
          2   -1    0    0  501    0  0.00000000000E+00 -0.00000000000E+00 -0.60113905490E+02  0.60113905490E+02  0.00000000000E+00 0. -1.
         23    2    1    2    0    0 -0.67602029186E+02 -0.40557855176E+02  0.24678213368E+02  0.12634596667E+03  0.95599765237E+02 0.  0.
         23    2    1    2    0    0  0.67602029186E+02  0.40557855176E+02  0.39127242932E+03  0.40983248699E+03  0.93024617614E+02 0.  0.
          5    1    4    4  502    0  0.67113860276E+02 -0.12493707005E+02  0.23284644486E+03  0.24269305685E+03  0.47000000000E+01 0. -1.
         -5    1    3    3    0  503  0.67938585244E+01  0.20574900161E+02 -0.94174482029E+01  0.24088614757E+02  0.47000000000E+01 0.  1.
          5    1    3    3  503    0 -0.74395887710E+02 -0.61132755336E+02  0.34095661571E+02  0.10225735192E+03  0.47000000000E+01 0. -1.
         -5    1    4    4    0  502  0.48816891032E+00  0.53051562181E+02  0.15842598445E+03  0.16713943014E+03  0.47000000000E+01 0.  1.
<mgrwt>
<rscale>  0 0.12341551E+03</rscale>
<asrwt>0</asrwt>
<pdfrwt beam="1">  1        2 0.92482934E-02 0.12391243E+03</pdfrwt>
<pdfrwt beam="2">  1       -2 0.73240697E-01 0.12391243E+03</pdfrwt>
<totfact> 0.11850245E+03</totfact>
</mgrwt>
</event>
<event>
 8    1  0.3177960E-004  0.9788252E+02  0.7546771E-02  0.1286272E+00
         -2   -1    0    0    0  501 -0.00000000000E+00  0.00000000000E+00  0.30767876030E+03  0.30767876030E+03  0.00000000000E+00 0.  1.
          2   -1    0    0  501    0  0.00000000000E+00 -0.00000000000E+00 -0.29569537324E+03  0.29569537324E+03  0.00000000000E+00 0. -1.
         23    2    1    2    0    0  0.33581689296E+01  0.26537110185E+02  0.29180982203E+03  0.30778882480E+03  0.94156746555E+02 0.  0.
         23    2    1    2    0    0 -0.33581689296E+01 -0.26537110185E+02 -0.27982643498E+03  0.29558530873E+03  0.91391167570E+02 0.  0.
          5    1    3    3  502    0 -0.91412283189E+01 -0.20628521086E+02  0.16994009674E+02  0.28635368030E+02  0.47000000000E+01 0. -1.
         -5    1    4    4    0  503  0.21268114872E+02 -0.42391817060E+02 -0.76680239335E+02  0.90284815823E+02  0.47000000000E+01 0.  1.
          5    1    4    4  503    0 -0.24626283802E+02  0.15854706875E+02 -0.20314619564E+03  0.20530049291E+03  0.47000000000E+01 0. -1.
         -5    1    3    3    0  502  0.12499397249E+02  0.47165631271E+02  0.27481581236E+03  0.27915345677E+03  0.47000000000E+01 0.  1.
<mgrwt>
<rscale>  0 0.97211323E+02</rscale>
<asrwt>0</asrwt>
<pdfrwt beam="1">  1        2 0.45491596E-01 0.97882524E+02</pdfrwt>
<pdfrwt beam="2">  1       -2 0.47335194E-01 0.97882524E+02</pdfrwt>
<totfact> 0.47622516E+02</totfact>
</mgrwt>
</event>
<event>
 7    1  0.3177960E-004  0.3071746E+03  0.7546771E-02  0.1081708E+00
         -1   -1    0    0    0  501 -0.00000000000E+00  0.00000000000E+00  0.31356955507E+03  0.31356955507E+03  0.00000000000E+00 0.  1.
          1   -1    0    0  501    0  0.00000000000E+00 -0.00000000000E+00 -0.75227519312E+02  0.75227519312E+02  0.00000000000E+00 0. -1.
         23    2    1    2    0    0 -0.44377838702E+02  0.57029638398E+02  0.79014731795E+02  0.14192132761E+03  0.93148071192E+02 0.  0.
          5    1    3    3  502    0  0.11237721311E+02  0.58438816717E+02  0.26641995556E+02  0.65370234868E+02  0.47000000000E+01 0. -1.
         -5    1    1    2    0  503  0.55028869369E+02 -0.11578749531E+03  0.10104884457E+03  0.16330302974E+03  0.47000000000E+01 0.  1.
          5    1    1    2  503    0 -0.10651030667E+02  0.58757856908E+02  0.58278459400E+02  0.83572717036E+02  0.47000000000E+01 0. -1.
         -5    1    3    3    0  502 -0.55615560013E+02 -0.14091783185E+01  0.52372736239E+02  0.76551092743E+02  0.47000000000E+01 0.  1.
<mgrwt>
<rscale>  0 0.30717461E+03</rscale>
<asrwt>0</asrwt>
<pdfrwt beam="1">  1        1 0.11573465E-01 0.30717461E+03</pdfrwt>
<pdfrwt beam="2">  1       -1 0.48241469E-01 0.30717461E+03</pdfrwt>
<totfact> 0.23136994E+03</totfact>
</mgrwt>
</event>
<event>
 8    1  0.3177960E-004  0.2611598E+03  0.7546771E-02  0.1106531E+00
         -1   -1    0    0    0  501 -0.00000000000E+00  0.00000000000E+00  0.19728335807E+03  0.19728335807E+03  0.00000000000E+00 0.  1.
          1   -1    0    0  501    0  0.00000000000E+00 -0.00000000000E+00 -0.10074381228E+04  0.10074381228E+04  0.00000000000E+00 0. -1.
         23    2    1    2    0    0  0.21934773473E+03  0.10695785590E+03  0.83229924580E+02  0.27410153214E+03  0.93010848323E+02 0.  0.
         23    2    1    2    0    0 -0.21934773473E+03 -0.10695785590E+03 -0.89338468935E+03  0.93061994877E+03  0.91454219202E+02 0.  0.
          5    1    4    4  502    0 -0.10728639232E+03 -0.10234710579E+03 -0.51167918000E+03  0.53275038553E+03  0.47000000000E+01 0. -1.
         -5    1    4    4    0  502 -0.11206134241E+03 -0.46107501033E+01 -0.38170550935E+03  0.39786956323E+03  0.47000000000E+01 0.  1.
          5    1    3    3  503    0  0.18350001732E+02 -0.14162716646E+02 -0.34259842774E+01  0.23898378075E+02  0.47000000000E+01 0. -1.
         -5    1    3    3    0  503  0.20099773300E+03  0.12112057254E+03  0.86655908857E+02  0.25020315407E+03  0.47000000000E+01 0.  1.
<mgrwt>
<rscale>  0 0.26102209E+03</rscale>
<asrwt>0</asrwt>
<pdfrwt beam="1">  1        1 0.15499048E+00 0.26115978E+03</pdfrwt>
<pdfrwt beam="2">  1       -1 0.30351287E-01 0.26115978E+03</pdfrwt>
<totfact> 0.16011886E+02</totfact>
</mgrwt>
</event>
<event>
 8    1  0.3177960E-004  0.1034554E+03  0.7546771E-02  0.1273914E+00
         -1   -1    0    0    0  501 -0.00000000000E+00  0.00000000000E+00  0.12829960238E+02  0.12829960238E+02  0.00000000000E+00 0.  1.
          1   -1    0    0  501    0  0.00000000000E+00 -0.00000000000E+00 -0.84443821074E+03  0.84443821074E+03  0.00000000000E+00 0. -1.
         23    2    1    2    0    0  0.24980579944E+02 -0.38060718469E+02 -0.48727009581E+03  0.49813166627E+03  0.92899747081E+02 0.  0.
         23    2    1    2    0    0 -0.24980579944E+02  0.38060718469E+02 -0.34433815470E+03  0.35913650471E+03  0.91310550161E+02 0.  0.
          5    1    3    3  502    0 -0.26803831795E+02  0.12482315712E+02 -0.11282396326E+03  0.11672870380E+03  0.47000000000E+01 0. -1.
         -5    1    3    3    0  502  0.51784411739E+02 -0.50543034181E+02 -0.37444613255E+03  0.38140296247E+03  0.47000000000E+01 0.  1.
          5    1    4    4  503    0 -0.32422311075E+02 -0.49632648287E+01 -0.27548647161E+03  0.27747202795E+03  0.47000000000E+01 0. -1.
         -5    1    4    4    0  503  0.74417311306E+01  0.43023983298E+02 -0.68851683086E+02  0.81664476762E+02  0.47000000000E+01 0.  1.
<mgrwt>
<rscale>  0 0.10309734E+03</rscale>
<asrwt>0</asrwt>
<pdfrwt beam="1">  1        1 0.12991362E+00 0.10345536E+03</pdfrwt>
<pdfrwt beam="2">  1       -1 0.19738393E-02 0.10345536E+03</pdfrwt>
<totfact> 0.13859629E+04</totfact>
</mgrwt>
</event>
<event>
 8    1  0.3177960E-004  0.1031619E+03  0.7546771E-02  0.1275440E+00
         -1   -1    0    0    0  501 -0.00000000000E+00  0.00000000000E+00  0.15138860988E+02  0.15138860988E+02  0.00000000000E+00 0.  1.
          1   -1    0    0  501    0  0.00000000000E+00 -0.00000000000E+00 -0.78699805701E+03  0.78699805701E+03  0.00000000000E+00 0. -1.
         23    2    1    2    0    0  0.12131783340E+02 -0.40927703844E+02 -0.24417423540E+03  0.26507252191E+03  0.93915534004E+02 0.  0.
         23    2    1    2    0    0 -0.12131783340E+02  0.40927703844E+02 -0.52768496062E+03  0.53706439609E+03  0.90357571762E+02 0.  0.
          5    1    3    3  502    0 -0.26103672744E+02 -0.62135984796E+01 -0.17125920689E+02  0.32177596185E+02  0.47000000000E+01 0. -1.
         -5    1    3    3    0  502  0.38235456085E+02 -0.34714105364E+02 -0.22704831471E+03  0.23289492572E+03  0.47000000000E+01 0.  1.
          5    1    4    4  503    0 -0.35212135166E+02  0.36383274141E+02 -0.48836086632E+03  0.49100108233E+03  0.47000000000E+01 0. -1.
         -5    1    4    4    0  503  0.23080351826E+02  0.45444297029E+01 -0.39324094300E+02  0.46063313757E+02  0.47000000000E+01 0.  1.
<mgrwt>
<rscale>  0 0.10234523E+03</rscale>
<asrwt>0</asrwt>
<pdfrwt beam="1">  1        1 0.12107667E+00 0.10316193E+03</pdfrwt>
<pdfrwt beam="2">  1       -1 0.23290546E-02 0.10316193E+03</pdfrwt>
<totfact> 0.12149935E+04</totfact>
</mgrwt>
</event>
<event>
 8    1  0.3177960E-004  0.1097496E+03  0.7546771E-02  0.1261958E+00
         -1   -1    0    0    0  501 -0.00000000000E+00  0.00000000000E+00  0.18453759171E+03  0.18453759171E+03  0.00000000000E+00 0.  1.
          1   -1    0    0  501    0  0.00000000000E+00 -0.00000000000E+00 -0.76603391971E+02  0.76603391971E+02  0.00000000000E+00 0. -1.
         23    2    1    2    0    0  0.86945063589E+00 -0.61142165988E+02  0.16375261534E+01  0.10976177144E+03  0.91136406404E+02 0.  0.
         23    2    1    2    0    0 -0.86945063589E+00  0.61142165988E+02  0.10629667358E+03  0.15137921224E+03  0.88755634618E+02 0.  0.
          5    1    3    3  502    0  0.39344797351E+02 -0.54826635754E+02  0.12987517176E+02  0.68882063479E+02  0.47000000000E+01 0.  1.
         -5    1    4    4    0  503  0.40011997826E+02  0.13511929212E+02  0.58695074690E+02  0.72461948593E+02  0.47000000000E+01 0.  1.
          5    1    4    4  503    0 -0.40881448462E+02  0.47630236776E+02  0.47601598893E+02  0.78917263643E+02  0.47000000000E+01 0. -1.
         -5    1    3    3    0  502 -0.38475346715E+02 -0.63155302334E+01 -0.11349991023E+02  0.40879707963E+02  0.47000000000E+01 0. -1.
<mgrwt>
<rscale>  0 0.10925400E+03</rscale>
<asrwt>0</asrwt>
<pdfrwt beam="1">  1        1 0.11785137E-01 0.10974956E+03</pdfrwt>
<pdfrwt beam="2">  1       -1 0.28390399E-01 0.10974956E+03</pdfrwt>
<totfact> 0.54143795E+03</totfact>
</mgrwt>
</event>
<event>
 8    1  0.3177960E-004  0.1000636E+03  0.7546771E-02  0.1280614E+00
         -1   -1    0    0    0  501 -0.00000000000E+00  0.00000000000E+00  0.27224290043E+03  0.27224290043E+03  0.00000000000E+00 0.  1.
          1   -1    0    0  501    0  0.00000000000E+00 -0.00000000000E+00 -0.52995410397E+02  0.52995410397E+02  0.00000000000E+00 0. -1.
         23    2    1    2    0    0 -0.54512030938E+01  0.26870886202E+02  0.20077009323E+03  0.22432420385E+03  0.96233871153E+02 0.  0.
         23    2    1    2    0    0  0.54512030938E+01 -0.26870886202E+02  0.18477396806E+02  0.10091410698E+03  0.95344022645E+02 0.  0.
          5    1    3    3  502    0  0.11703510820E+02 -0.17313048883E+02  0.38968100581E+01  0.21771287416E+02  0.47000000000E+01 0. -1.
         -5    1    4    4    0  503 -0.39948563111E+02  0.54149774654E+01 -0.37297456818E+01  0.40757952334E+02  0.47000000000E+01 0.  1.
          5    1    4    4  503    0  0.45399766205E+02 -0.32285863667E+02  0.22207142488E+02  0.60156154645E+02  0.47000000000E+01 0. -1.
         -5    1    3    3    0  502 -0.17154713914E+02  0.44183935085E+02  0.19687328317E+03  0.20255291644E+03  0.47000000000E+01 0.  1.
<mgrwt>
<rscale>  0 0.99849008E+02</rscale>
<asrwt>0</asrwt>
<pdfrwt beam="1">  1        1 0.81531402E-02 0.10006357E+03</pdfrwt>
<pdfrwt beam="2">  1       -1 0.41883522E-01 0.10006357E+03</pdfrwt>
<totfact> 0.45062052E+03</totfact>
</mgrwt>
</event>
<event>
 8    1  0.3177960E-004  0.1078097E+03  0.7546771E-02  0.1266262E+00
         -1   -1    0    0    0  501 -0.00000000000E+00  0.00000000000E+00  0.86015715789E+02  0.86015715789E+02  0.00000000000E+00 0.  1.
          1   -1    0    0  501    0  0.00000000000E+00 -0.00000000000E+00 -0.35787562894E+03  0.35787562894E+03  0.00000000000E+00 0. -1.
         23    2    1    2    0    0  0.14852525730E+02 -0.51269953656E+02 -0.31338247625E+03  0.33140836254E+03  0.93668141213E+02 0.  0.
         23    2    1    2    0    0 -0.14852525730E+02  0.51269953656E+02  0.41522563097E+02  0.11248298218E+03  0.89883771427E+02 0.  0.
          5    1    4    4  502    0  0.21684951712E+02 -0.14826541542E+02  0.21337470583E+02  0.34167837446E+02  0.47000000000E+01 0. -1.
         -5    1    4    4    0  502 -0.36537477442E+02  0.66096495198E+02  0.20185092514E+02  0.78315144737E+02  0.47000000000E+01 0.  1.
          5    1    3    3  503    0 -0.17313313467E+02 -0.47896404009E+02 -0.28021522752E+03  0.28484465955E+03  0.47000000000E+01 0. -1.
         -5    1    3    3    0  503  0.32165839197E+02 -0.33735496475E+01 -0.33167248724E+02  0.46563702993E+02  0.47000000000E+01 0.  1.
<mgrwt>
<rscale>  0 0.10698241E+03</rscale>
<asrwt>0</asrwt>
<pdfrwt beam="1">  1        1 0.55057789E-01 0.10780968E+03</pdfrwt>
<pdfrwt beam="2">  1       -1 0.13233187E-01 0.10780968E+03</pdfrwt>
<totfact> 0.26456716E+03</totfact>
</mgrwt>
</event>
<event>
 8    1  0.3177960E-004  0.1043781E+03  0.7546771E-02  0.1273245E+00
          1   -1    0    0  501    0  0.00000000000E+00  0.00000000000E+00  0.65200358026E+02  0.65200358026E+02  0.00000000000E+00 0. -1.
         -1   -1    0    0    0  501 -0.00000000000E+00 -0.00000000000E+00 -0.20100795244E+03  0.20100795244E+03  0.00000000000E+00 0.  1.
         23    2    1    2    0    0  0.49080971457E+02  0.92264649381E+01 -0.76528622818E+01  0.10092545796E+03  0.87368829393E+02 0.  0.
         23    2    1    2    0    0 -0.49080971457E+02 -0.92264649381E+01 -0.12815473214E+03  0.16528285251E+03  0.91655422915E+02 0.  0.
          5    1    3    3  502    0  0.39918628921E+02  0.34789918717E+02  0.24537451651E+02  0.58549226406E+02  0.47000000000E+01 0. -1.
         -5    1    4    4    0  503 -0.29147116270E+02  0.26201848700E+02 -0.11609272280E+03  0.12262015148E+03  0.47000000000E+01 0.  1.
          5    1    4    4  503    0 -0.19933855187E+02 -0.35428313638E+02 -0.12062009341E+02  0.42662701030E+02  0.47000000000E+01 0. -1.
         -5    1    3    3    0  502  0.91623425356E+01 -0.25563453779E+02 -0.32190313933E+02  0.42376231557E+02  0.47000000000E+01 0.  1.
<mgrwt>
<rscale>  0 0.10342944E+03</rscale>
<asrwt>0</asrwt>
<pdfrwt beam="1">  1        1 0.10030825E-01 0.10437809E+03</pdfrwt>
<pdfrwt beam="2">  1       -1 0.30924300E-01 0.10437809E+03</pdfrwt>
<totfact> 0.57772213E+03</totfact>
</mgrwt>
</event>
<event>
 8    1  0.3177960E-004  0.3549519E+03  0.7546771E-02  0.1060628E+00
         -2   -1    0    0    0  501 -0.00000000000E+00  0.00000000000E+00  0.95229492368E+03  0.95229492368E+03  0.00000000000E+00 0. -1.
          2   -1    0    0  501    0  0.00000000000E+00 -0.00000000000E+00 -0.29663214961E+03  0.29663214961E+03  0.00000000000E+00 0.  1.
         23    2    1    2    0    0  0.33798424499E+03  0.59399272080E+02  0.79282121822E+03  0.86865203557E+03  0.90715221820E+02 0.  0.
         23    2    1    2    0    0 -0.33798424499E+03 -0.59399272080E+02 -0.13715844414E+03  0.38027503772E+03  0.89638396502E+02 0.  0.
          5    1    4    4  502    0 -0.19136803347E+03 -0.48231034990E+02 -0.12273881103E+03  0.23245400126E+03  0.47000000000E+01 0. -1.
         -5    1    3    3    0  503  0.38826502850E+02 -0.20687065730E+02  0.12214572437E+03  0.12991197017E+03  0.47000000000E+01 0.  1.
          5    1    3    3  503    0  0.29915774214E+03  0.80086337809E+02  0.67067549384E+03  0.73874006540E+03  0.47000000000E+01 0. -1.
         -5    1    4    4    0  502 -0.14661621152E+03 -0.11168237090E+02 -0.14419633117E+02  0.14782103646E+03  0.47000000000E+01 0.  1.
<mgrwt>
<rscale>  0 0.35488349E+03</rscale>
<asrwt>0</asrwt>
<pdfrwt beam="1">  1        2 0.45635716E-01 0.35495193E+03</pdfrwt>
<pdfrwt beam="2">  1       -2 0.14650691E+00 0.35495193E+03</pdfrwt>
<totfact> 0.37187221E+01</totfact>
</mgrwt>
</event>
<event>
 8    1  0.3177960E-004  0.1324216E+03  0.7546771E-02  0.1226890E+00
          1   -1    0    0  501    0  0.00000000000E+00  0.00000000000E+00  0.27287841759E+03  0.27287841759E+03  0.00000000000E+00 0. -1.
         -1   -1    0    0    0  501 -0.00000000000E+00 -0.00000000000E+00 -0.83017381527E+02  0.83017381527E+02  0.00000000000E+00 0.  1.
         23    2    1    2    0    0  0.32980191018E+02  0.78014898123E+02  0.43317779555E+01  0.13249246077E+03  0.10179130872E+03 0.  0.
         23    2    1    2    0    0 -0.32980191018E+02 -0.78014898123E+02  0.18552925810E+03  0.22340333835E+03  0.91180747112E+02 0.  0.
          5    1    4    4  502    0 -0.62540901606E+02 -0.52183622732E+02  0.14741300798E+03  0.16848495416E+03  0.47000000000E+01 0. -1.
         -5    1    4    4    0  502  0.29560710588E+02 -0.25831275391E+02  0.38116250123E+02  0.54918384192E+02  0.47000000000E+01 0.  1.
          5    1    3    3  503    0  0.62676290226E+02  0.28652506101E+02  0.21249113409E+02  0.72269622131E+02  0.47000000000E+01 0. -1.
         -5    1    3    3    0  503 -0.29696099208E+02  0.49362392022E+02 -0.16917335453E+02  0.60222838634E+02  0.47000000000E+01 0.  1.
<mgrwt>
<rscale>  0 0.13038224E+03</rscale>
<asrwt>0</asrwt>
<pdfrwt beam="1">  1        1 0.41981295E-01 0.13242163E+03</pdfrwt>
<pdfrwt beam="2">  1       -1 0.12771905E-01 0.13242163E+03</pdfrwt>
<totfact> 0.39461483E+03</totfact>
</mgrwt>
</event>
<event>
 8    1  0.3177960E-004  0.1062391E+03  0.7546771E-02  0.1274367E+00
         -2   -1    0    0    0  501 -0.00000000000E+00  0.00000000000E+00  0.20848191259E+02  0.20848191259E+02  0.00000000000E+00 0.  1.
          2   -1    0    0  501    0  0.00000000000E+00 -0.00000000000E+00 -0.47800118567E+03  0.47800118567E+03  0.00000000000E+00 0. -1.
         23    2    1    2    0    0  0.21396480267E+02 -0.20950525385E+02 -0.21660861410E+03  0.23588862986E+03  0.88472708303E+02 0.  0.
         23    2    1    2    0    0 -0.21396480267E+02  0.20950525385E+02 -0.24054438032E+03  0.26296074708E+03  0.10193145598E+03 0.  0.
          5    1    3    3  502    0 -0.20572928899E+02  0.20804950913E+02 -0.10925563062E+03  0.11320324292E+03  0.47000000000E+01 0. -1.
         -5    1    3    3    0  502  0.41969409166E+02 -0.41755476299E+02 -0.10735298348E+03  0.12268538694E+03  0.47000000000E+01 0.  1.
          5    1    4    4  503    0 -0.44265463215E+02  0.12042604571E+02 -0.23201980112E+03  0.23655809787E+03  0.47000000000E+01 0. -1.
         -5    1    4    4    0  503  0.22868982948E+02  0.89079208143E+01 -0.85245792012E+01  0.26402649202E+02  0.47000000000E+01 0.  1.
<mgrwt>
<rscale>  0 0.10287358E+03</rscale>
<asrwt>0</asrwt>
<pdfrwt beam="1">  1        2 0.73538644E-01 0.10623914E+03</pdfrwt>
<pdfrwt beam="2">  1       -2 0.32074141E-02 0.10623914E+03</pdfrwt>
<totfact> 0.22989251E+04</totfact>
</mgrwt>
</event>
<event>
 8    1  0.3177960E-004  0.1091839E+03  0.7546771E-02  0.1264642E+00
         -1   -1    0    0    0  501 -0.00000000000E+00  0.00000000000E+00  0.28835188933E+03  0.28835188933E+03  0.00000000000E+00 0.  1.
          1   -1    0    0  501    0  0.00000000000E+00 -0.00000000000E+00 -0.40581423915E+02  0.40581423915E+02  0.00000000000E+00 0. -1.
         23    2    1    2    0    0 -0.78987462083E+01 -0.56107023666E+02  0.15547338651E+03  0.18998182540E+03  0.93331301145E+02 0.  0.
         23    2    1    2    0    0  0.78987462083E+01  0.56107023666E+02  0.92297078910E+02  0.13895148785E+03  0.87053873572E+02 0.  0.
          5    1    3    3  502    0 -0.37627104004E+02 -0.17361523982E+01  0.24966205161E+02  0.45433628306E+02  0.47000000000E+01 0. -1.
         -5    1    4    4    0  503  0.23269233782E+02  0.73274717300E+02  0.84111145492E+02  0.11405006020E+03  0.47000000000E+01 0.  1.
          5    1    4    4  503    0 -0.15370487574E+02 -0.17167693634E+02  0.81859334183E+01  0.24901427648E+02  0.47000000000E+01 0. -1.
         -5    1    3    3    0  502  0.29728357796E+02 -0.54370871268E+02  0.13050718135E+03  0.14454819709E+03  0.47000000000E+01 0.  1.
<mgrwt>
<rscale>  0 0.10783019E+03</rscale>
<asrwt>0</asrwt>
<pdfrwt beam="1">  1        1 0.62432962E-02 0.10918388E+03</pdfrwt>
<pdfrwt beam="2">  1       -1 0.44361828E-01 0.10918388E+03</pdfrwt>
<totfact> 0.58574203E+03</totfact>
</mgrwt>
</event>
<event>
 8    1  0.3177960E-004  0.1003072E+03  0.7546771E-02  0.1280527E+00
         -2   -1    0    0    0  501 -0.00000000000E+00  0.00000000000E+00  0.41607681277E+02  0.41607681277E+02  0.00000000000E+00 0.  1.
          2   -1    0    0  501    0  0.00000000000E+00 -0.00000000000E+00 -0.23826735250E+03  0.23826735250E+03  0.00000000000E+00 0. -1.
         23    2    1    2    0    0  0.28850566224E+02  0.31961850729E+02 -0.91589532174E+02  0.13461224823E+03  0.88757534314E+02 0.  0.
         23    2    1    2    0    0 -0.28850566224E+02 -0.31961850729E+02 -0.10507013905E+03  0.14526278555E+03  0.90595958358E+02 0.  0.
          5    1    4    4  502    0 -0.33720613892E+02  0.25592015028E+01 -0.10465342181E+03  0.11008205126E+03  0.47000000000E+01 0. -1.
         -5    1    3    3    0  503 -0.25624345553E+02  0.34887158860E+02 -0.46263857573E+02  0.63530744179E+02  0.47000000000E+01 0.  1.
          5    1    3    3  503    0  0.54474911777E+02 -0.29253081311E+01 -0.45325674601E+02  0.71081504056E+02  0.47000000000E+01 0. -1.
         -5    1    4    4    0  502  0.48700476684E+01 -0.34521052232E+02 -0.41671724202E+00  0.35180734284E+02  0.47000000000E+01 0.  1.
<mgrwt>
<rscale>  0 0.99890330E+02</rscale>
<asrwt>0</asrwt>
<pdfrwt beam="1">  1        2 0.36656516E-01 0.10030724E+03</pdfrwt>
<pdfrwt beam="2">  1       -2 0.64011818E-02 0.10030724E+03</pdfrwt>
<totfact> 0.17094354E+04</totfact>
</mgrwt>
</event>
<event>
 8    1  0.3177960E-004  0.9676717E+02  0.7546771E-02  0.1289497E+00
         -1   -1    0    0    0  501 -0.00000000000E+00  0.00000000000E+00  0.56355656725E+02  0.56355656725E+02  0.00000000000E+00 0.  1.
          1   -1    0    0  501    0  0.00000000000E+00 -0.00000000000E+00 -0.16376300771E+03  0.16376300771E+03  0.00000000000E+00 0. -1.
         23    2    1    2    0    0  0.81752268028E+01 -0.16222978658E+02 -0.72878988124E+02  0.12114136934E+03  0.95046646888E+02 0.  0.
         23    2    1    2    0    0 -0.81752268028E+01  0.16222978658E+02 -0.34528362860E+02  0.98977295099E+02  0.90963056971E+02 0.  0.
          5    1    3    3  502    0 -0.20931122938E+02  0.10742425353E+01 -0.82805905117E+02  0.85546325618E+02  0.47000000000E+01 0. -1.
         -5    1    3    3    0  502  0.29106349741E+02 -0.17297221193E+02  0.99269169928E+01  0.35595043717E+02  0.47000000000E+01 0.  1.
          5    1    4    4  503    0 -0.38169502002E+02  0.38568080653E+02 -0.25878240832E+02  0.60300755194E+02  0.47000000000E+01 0. -1.
         -5    1    4    4    0  503  0.29994275200E+02 -0.22345101995E+02 -0.86501220283E+01  0.38676539905E+02  0.47000000000E+01 0.  1.
<mgrwt>
<rscale>  0 0.95749263E+02</rscale>
<asrwt>0</asrwt>
<pdfrwt beam="1">  1        1 0.25194309E-01 0.96767166E+02</pdfrwt>
<pdfrwt beam="2">  1       -1 0.86701011E-02 0.96767166E+02</pdfrwt>
<totfact> 0.13068654E+04</totfact>
</mgrwt>
</event>
<event>
 8    1  0.3177960E-004  0.1178929E+03  0.7546771E-02  0.1246778E+00
          3   -1    0    0  501    0  0.00000000000E+00  0.00000000000E+00  0.99125198329E+02  0.99125198329E+02  0.00000000000E+00 0. -1.
         -3   -1    0    0    0  501 -0.00000000000E+00 -0.00000000000E+00 -0.18058316031E+03  0.18058316031E+03  0.00000000000E+00 0.  1.
         23    2    1    2    0    0 -0.56151106609E+02  0.48683197696E+02 -0.10717789980E+03  0.15904249432E+03  0.91018746887E+02 0.  0.
         23    2    1    2    0    0  0.56151106609E+02 -0.48683197696E+02  0.25719937816E+02  0.12066586431E+03  0.91519042271E+02 0.  0.
          5    1    4    4  502    0  0.15787749187E+02  0.19846503717E+02 -0.16380991436E+02  0.30554273262E+02  0.47000000000E+01 0. -1.
         -5    1    4    4    0  502  0.40363357422E+02 -0.68529701413E+02  0.42100929251E+02  0.90111591052E+02  0.47000000000E+01 0.  1.
          5    1    3    3  503    0  0.46930747600E+01  0.39018893723E+02 -0.53560784164E+01  0.39940913786E+02  0.47000000000E+01 0. -1.
         -5    1    3    3    0  503 -0.60844181369E+02  0.96643039737E+01 -0.10182182138E+03  0.11910158054E+03  0.47000000000E+01 0.  1.
<mgrwt>
<rscale>  0 0.11779579E+03</rscale>
<asrwt>0</asrwt>
<pdfrwt beam="1">  1        3 0.15250031E-01 0.11789290E+03</pdfrwt>
<pdfrwt beam="2">  1       -3 0.27782024E-01 0.11789290E+03</pdfrwt>
<totfact> 0.10062153E+03</totfact>
</mgrwt>
</event>
<event>
 8    1  0.3177960E-004  0.9403957E+02  0.7546771E-02  0.1293542E+00
          1   -1    0    0  501    0  0.00000000000E+00  0.00000000000E+00  0.23176112867E+03  0.23176112867E+03  0.00000000000E+00 0. -1.
         -1   -1    0    0    0  501 -0.00000000000E+00 -0.00000000000E+00 -0.71846295441E+02  0.71846295441E+02  0.00000000000E+00 0.  1.
         23    2    1    2    0    0  0.20893539869E+02 -0.43296809198E+01 -0.24271670190E+02  0.96802907038E+02  0.91249124335E+02 0.  0.
         23    2    1    2    0    0 -0.20893539869E+02  0.43296809198E+01  0.18418650341E+03  0.20680451707E+03  0.91586866390E+02 0.  0.
          5    1    4    4  502    0  0.36445897489E+01  0.37863157256E+02  0.14323696352E+03  0.14827615934E+03  0.47000000000E+01 0. -1.
         -5    1    3    3    0  503  0.21740513467E+01 -0.43383421577E+02 -0.29806405379E+02  0.52890070605E+02  0.47000000000E+01 0.  1.
          5    1    3    3  503    0  0.18719488523E+02  0.39053740658E+02  0.55347351897E+01  0.43912836432E+02  0.47000000000E+01 0. -1.
         -5    1    4    4    0  502 -0.24538129618E+02 -0.33533476336E+02  0.40949539896E+02  0.58528357725E+02  0.47000000000E+01 0.  1.
<mgrwt>
<rscale>  0 0.93957234E+02</rscale>
<asrwt>0</asrwt>
<pdfrwt beam="1">  1        1 0.35655558E-01 0.94039567E+02</pdfrwt>
<pdfrwt beam="2">  1       -1 0.11053276E-01 0.94039567E+02</pdfrwt>
<totfact> 0.58919570E+03</totfact>
</mgrwt>
</event>
<event>
 8    1  0.3177960E-004  0.1254820E+03  0.7546771E-02  0.1247179E+00
         -1   -1    0    0    0  501 -0.00000000000E+00  0.00000000000E+00  0.43894959795E+03  0.43894959795E+03  0.00000000000E+00 0.  1.
          1   -1    0    0  501    0  0.00000000000E+00 -0.00000000000E+00 -0.88403282774E+02  0.88403282774E+02  0.00000000000E+00 0. -1.
         23    2    1    2    0    0  0.55010841455E+01  0.28744293217E+02  0.38522360340E+03  0.39716747567E+03  0.92131877207E+02 0.  0.
         23    2    1    2    0    0 -0.55010841455E+01 -0.28744293217E+02 -0.34677288221E+02  0.13018540505E+03  0.12202142866E+03 0.  0.
          5    1    4    4  502    0 -0.23522408867E+02 -0.53674268698E+02  0.24211041834E+02  0.63580621150E+02  0.47000000000E+01 0. -1.
         -5    1    4    4    0  502  0.18021324721E+02  0.24929975480E+02 -0.58888330055E+02  0.66604783904E+02  0.47000000000E+01 0.  1.
          5    1    3    3  503    0 -0.17865325978E+02 -0.26687224665E+02  0.86002867597E+02  0.91923669789E+02  0.47000000000E+01 0. -1.
         -5    1    3    3    0  503  0.23366410123E+02  0.55431517882E+02  0.29922073580E+03  0.30524380588E+03  0.47000000000E+01 0.  1.
<mgrwt>
<rscale>  0 0.11755934E+03</rscale>
<asrwt>0</asrwt>
<pdfrwt beam="1">  1        1 0.13600505E-01 0.12548197E+03</pdfrwt>
<pdfrwt beam="2">  1       -1 0.67530706E-01 0.12548197E+03</pdfrwt>
<totfact> 0.96377192E+02</totfact>
</mgrwt>
</event>
<event>
 8    1  0.3177960E-004  0.9408770E+02  0.7546771E-02  0.1294170E+00
          2   -1    0    0  501    0  0.00000000000E+00  0.00000000000E+00  0.34177332572E+03  0.34177332572E+03  0.00000000000E+00 0. -1.
         -2   -1    0    0    0  501 -0.00000000000E+00 -0.00000000000E+00 -0.11380430536E+03  0.11380430536E+03  0.00000000000E+00 0.  1.
         23    2    1    2    0    0  0.39899069312E+01  0.22812550386E+02 -0.86490643984E+02  0.12780112468E+03  0.91193005002E+02 0.  0.
         23    2    1    2    0    0 -0.39899069312E+01 -0.22812550386E+02  0.31445966434E+03  0.32777650640E+03  0.89533378350E+02 0.  0.
          5    1    4    4  502    0 -0.22110151750E+02  0.24060205897E+02  0.19966722791E+03  0.20237797365E+03  0.47000000000E+01 0. -1.
         -5    1    3    3    0  503  0.14846922543E+02  0.49691499067E+02 -0.83331303659E+02  0.98264298492E+02  0.47000000000E+01 0.  1.
          5    1    3    3  503    0 -0.10857015612E+02 -0.26878948681E+02 -0.31593403245E+01  0.29536826192E+02  0.47000000000E+01 0. -1.
         -5    1    4    4    0  502  0.18120244819E+02 -0.46872756283E+02  0.11479243643E+03  0.12539853275E+03  0.47000000000E+01 0.  1.
<mgrwt>
<rscale>  0 0.93683186E+02</rscale>
<asrwt>0</asrwt>
<pdfrwt beam="1">  1        2 0.52580511E-01 0.94087704E+02</pdfrwt>
<pdfrwt beam="2">  1       -2 0.17508355E-01 0.94087704E+02</pdfrwt>
<totfact> 0.24005052E+03</totfact>
</mgrwt>
</event>
<event>
 8    1  0.3177960E-004  0.9629590E+02  0.7546771E-02  0.1288880E+00
          1   -1    0    0  501    0  0.00000000000E+00  0.00000000000E+00  0.88212505503E+03  0.88212505503E+03  0.00000000000E+00 0. -1.
         -1   -1    0    0    0  501 -0.00000000000E+00 -0.00000000000E+00 -0.11349054807E+02  0.11349054807E+02  0.00000000000E+00 0.  1.
         23    2    1    2    0    0 -0.56122266226E+01 -0.29116386995E+02  0.30365803527E+03  0.31823877881E+03  0.90490092695E+02 0.  0.
         23    2    1    2    0    0  0.56122266226E+01  0.29116386995E+02  0.56711796495E+03  0.57523533103E+03  0.91616804184E+02 0.  0.
          5    1    4    4  502    0 -0.37018293828E+02  0.36431830485E+02  0.27595402391E+03  0.28083864703E+03  0.47000000000E+01 0. -1.
         -5    1    3    3    0  503  0.26547933146E+02 -0.18149785097E+02  0.36439462696E+02  0.48827573101E+02  0.47000000000E+01 0.  1.
          5    1    3    3  503    0 -0.32160159769E+02 -0.10966601898E+02  0.26721857257E+03  0.26941120571E+03  0.47000000000E+01 0. -1.
         -5    1    4    4    0  502  0.42630520451E+02 -0.73154434904E+01  0.29116394104E+03  0.29439668400E+03  0.47000000000E+01 0.  1.
<mgrwt>
<rscale>  0 0.96026940E+02</rscale>
<asrwt>0</asrwt>
<pdfrwt beam="1">  1        1 0.13571149E+00 0.96295898E+02</pdfrwt>
<pdfrwt beam="2">  1       -1 0.17460091E-02 0.96295898E+02</pdfrwt>
<totfact> 0.15351489E+04</totfact>
</mgrwt>
</event>
<event>
 8    1  0.3177960E-004  0.1129310E+03  0.7546771E-02  0.1255857E+00
         -1   -1    0    0    0  501 -0.00000000000E+00  0.00000000000E+00  0.49432069714E+03  0.49432069714E+03  0.00000000000E+00 0.  1.
          1   -1    0    0  501    0  0.00000000000E+00 -0.00000000000E+00 -0.39577989450E+02  0.39577989450E+02  0.00000000000E+00 0. -1.
         23    2    1    2    0    0 -0.35990572483E+02 -0.53121558168E+02  0.38755873533E+03  0.40367707011E+03  0.92931062399E+02 0.  0.
         23    2    1    2    0    0  0.35990572483E+02  0.53121558168E+02  0.67183972362E+02  0.13022161647E+03  0.91251093170E+02 0.  0.
          5    1    4    4  502    0  0.61528626688E+02  0.25182507006E+02  0.63237973518E+02  0.91875251596E+02  0.47000000000E+01 0. -1.
         -5    1    3    3    0  503 -0.69587078119E+01 -0.75367195009E+02  0.27236541219E+03  0.28272538877E+03  0.47000000000E+01 0.  1.
          5    1    3    3  503    0 -0.29031864671E+02  0.22245636841E+02  0.11519332314E+03  0.12095168134E+03  0.47000000000E+01 0. -1.
         -5    1    4    4    0  502 -0.25538054205E+02  0.27939051162E+02  0.39459988441E+01  0.38346364877E+02  0.47000000000E+01 0.  1.
<mgrwt>
<rscale>  0 0.11258479E+03</rscale>
<asrwt>0</asrwt>
<pdfrwt beam="1">  1        1 0.60889218E-02 0.11293097E+03</pdfrwt>
<pdfrwt beam="2">  1       -1 0.76049334E-01 0.11293097E+03</pdfrwt>
<totfact> 0.22032658E+03</totfact>
</mgrwt>
</event>
<event>
 8    1  0.3177960E-004  0.9639702E+02  0.7546771E-02  0.1289737E+00
         -1   -1    0    0    0  501 -0.00000000000E+00  0.00000000000E+00  0.10478968394E+03  0.10478968394E+03  0.00000000000E+00 0.  1.
          1   -1    0    0  501    0  0.00000000000E+00 -0.00000000000E+00 -0.11107190572E+03  0.11107190572E+03  0.00000000000E+00 0. -1.
         23    2    1    2    0    0 -0.10210687779E+02  0.27205075253E+02 -0.54426416117E+02  0.10811072143E+03  0.88776793433E+02 0.  0.
         23    2    1    2    0    0  0.10210687779E+02 -0.27205075253E+02  0.48144194332E+02  0.10775086823E+03  0.91913067038E+02 0.  0.
          5    1    4    4  502    0 -0.34169408481E+02  0.27041391899E+01 -0.14615882522E+01  0.34627836850E+02  0.47000000000E+01 0. -1.
         -5    1    4    4    0  502  0.44380096260E+02 -0.29909214443E+02  0.49605782584E+02  0.73123031381E+02  0.47000000000E+01 0.  1.
          5    1    3    3  503    0 -0.45329778754E+02  0.80041843045E+01 -0.49088677420E+02  0.67458461731E+02  0.47000000000E+01 0. -1.
         -5    1    3    3    0  503  0.35119090975E+02  0.19200890948E+02 -0.53377386966E+01  0.40652259698E+02  0.47000000000E+01 0.  1.
<mgrwt>
<rscale>  0 0.95641793E+02</rscale>
<asrwt>0</asrwt>
<pdfrwt beam="1">  1        1 0.17087985E-01 0.96397024E+02</pdfrwt>
<pdfrwt beam="2">  1       -1 0.16121490E-01 0.96397024E+02</pdfrwt>
<totfact> 0.82403071E+03</totfact>
</mgrwt>
</event>
<event>
 8    1  0.3177960E-004  0.1084399E+03  0.7546771E-02  0.1264679E+00
          2   -1    0    0  501    0  0.00000000000E+00  0.00000000000E+00  0.59258239200E+03  0.59258239200E+03  0.00000000000E+00 0. -1.
         -2   -1    0    0    0  501 -0.00000000000E+00 -0.00000000000E+00 -0.20700432730E+02  0.20700432730E+02  0.00000000000E+00 0.  1.
         23    2    1    2    0    0  0.42448706174E+02 -0.37671190387E+02  0.35997400158E+03  0.37524038986E+03  0.89459807313E+02 0.  0.
         23    2    1    2    0    0 -0.42448706174E+02  0.37671190387E+02  0.21190795769E+03  0.23804243488E+03  0.92402418951E+02 0.  0.
          5    1    4    4  502    0 -0.19414884860E+02 -0.29360989067E+02  0.92772052208E+02  0.99336544655E+02  0.47000000000E+01 0. -1.
         -5    1    3    3    0  503 -0.55694360444E+01 -0.29196653698E+02  0.33173179409E+02  0.44788536894E+02  0.47000000000E+01 0.  1.
          5    1    3    3  503    0  0.48018142218E+02 -0.84745366894E+01  0.32680082217E+03  0.33045185296E+03  0.47000000000E+01 0. -1.
         -5    1    4    4    0  502 -0.23033821313E+02  0.67032179454E+02  0.11913590548E+03  0.13870589022E+03  0.47000000000E+01 0.  1.
<mgrwt>
<rscale>  0 0.10781041E+03</rscale>
<asrwt>0</asrwt>
<pdfrwt beam="1">  1        2 0.91166509E-01 0.10843993E+03</pdfrwt>
<pdfrwt beam="2">  1       -2 0.31846824E-02 0.10843993E+03</pdfrwt>
<totfact> 0.18374198E+04</totfact>
</mgrwt>
</event>
<event>
 8    1  0.3177960E-004  0.1184485E+03  0.7546771E-02  0.1247664E+00
         -1   -1    0    0    0  501 -0.00000000000E+00  0.00000000000E+00  0.23281649969E+03  0.23281649969E+03  0.00000000000E+00 0.  1.
          1   -1    0    0  501    0  0.00000000000E+00 -0.00000000000E+00 -0.58553055342E+02  0.58553055342E+02  0.00000000000E+00 0. -1.
         23    2    1    2    0    0  0.65534444731E+02 -0.69743001236E+01  0.73821698831E+02  0.13956967552E+03  0.98420764054E+02 0.  0.
         23    2    1    2    0    0 -0.65534444731E+02  0.69743001236E+01  0.10044174552E+03  0.15179987952E+03  0.92796847308E+02 0.  0.
          5    1    4    4  502    0 -0.13734807555E+02  0.31440264437E+02  0.85741236300E+02  0.92470453491E+02  0.47000000000E+01 0. -1.
         -5    1    4    4    0  502 -0.51799637176E+02 -0.24465964314E+02  0.14700509218E+02  0.59329426027E+02  0.47000000000E+01 0.  1.
          5    1    3    3  503    0  0.17269757713E+02  0.35502001901E+02 -0.22921579450E+01  0.39824372669E+02  0.47000000000E+01 0. -1.
         -5    1    3    3    0  503  0.48264687018E+02 -0.42476302025E+02  0.76113856776E+02  0.99745302847E+02  0.47000000000E+01 0.  1.
<mgrwt>
<rscale>  0 0.11727366E+03</rscale>
<asrwt>0</asrwt>
<pdfrwt beam="1">  1        1 0.90081625E-02 0.11844852E+03</pdfrwt>
<pdfrwt beam="2">  1       -1 0.35817922E-01 0.11844852E+03</pdfrwt>
<totfact> 0.52401767E+03</totfact>
</mgrwt>
</event>
<event>
 8    1  0.3177960E-004  0.1303532E+03  0.7546771E-02  0.1226942E+00
         -1   -1    0    0    0  501 -0.00000000000E+00  0.00000000000E+00  0.19623035880E+03  0.19623035880E+03  0.00000000000E+00 0.  1.
          1   -1    0    0  501    0  0.00000000000E+00 -0.00000000000E+00 -0.92616469637E+02  0.92616469637E+02  0.00000000000E+00 0. -1.
         23    2    1    2    0    0 -0.90283902770E+02 -0.22947825968E+02  0.14916104035E+02  0.13117867560E+03  0.91145866364E+02 0.  0.
         23    2    1    2    0    0  0.90283902770E+02  0.22947825968E+02  0.88697785127E+02  0.15766815284E+03  0.91182035062E+02 0.  0.
          5    1    3    3  502    0 -0.49116653634E+02  0.27963400502E+02 -0.15556628886E+02  0.58808980047E+02  0.47000000000E+01 0. -1.
         -5    1    4    4    0  503  0.98524586328E+02 -0.70526401834E+01  0.67339562268E+02  0.11963920967E+03  0.47000000000E+01 0.  1.
          5    1    4    4  503    0 -0.82406835583E+01  0.30000466152E+02  0.21358222859E+02  0.38028943169E+02  0.47000000000E+01 0. -1.
         -5    1    3    3    0  502 -0.41167249136E+02 -0.50911226470E+02  0.30472732921E+02  0.72369695549E+02  0.47000000000E+01 0.  1.
<mgrwt>
<rscale>  0 0.13034685E+03</rscale>
<asrwt>0</asrwt>
<pdfrwt beam="1">  1        1 0.14248688E-01 0.13035317E+03</pdfrwt>
<pdfrwt beam="2">  1       -1 0.30189286E-01 0.13035317E+03</pdfrwt>
<totfact> 0.38603506E+03</totfact>
</mgrwt>
</event>
<event>
 8    1  0.3177960E-004  0.1026632E+03  0.7546771E-02  0.1279453E+00
          2   -1    0    0  501    0  0.00000000000E+00  0.00000000000E+00  0.16809941650E+04  0.16809941650E+04  0.00000000000E+00 0. -1.
         -2   -1    0    0    0  501 -0.00000000000E+00 -0.00000000000E+00 -0.58886166625E+01  0.58886166625E+01  0.00000000000E+00 0.  1.
         23    2    1    2    0    0 -0.31632780276E+02 -0.22045347049E+02  0.10046659252E+04  0.10098976956E+04  0.95147801971E+02 0.  0.
         23    2    1    2    0    0  0.31632780276E+02  0.22045347049E+02  0.67043962316E+03  0.67698508607E+03  0.85632285700E+02 0.  0.
          5    1    4    4  502    0 -0.16026019724E+02 -0.21794678054E+02  0.25942279150E+03  0.26087183836E+03  0.47000000000E+01 0. -1.
         -5    1    4    4    0  502  0.47658800000E+02  0.43840025102E+02  0.41101683166E+03  0.41611324772E+03  0.47000000000E+01 0.  1.
          5    1    3    3  503    0 -0.62810219624E+02 -0.30551077650E+02  0.68814651657E+03  0.69169806296E+03  0.47000000000E+01 0. -1.
         -5    1    3    3    0  503  0.31177439348E+02  0.85057306018E+01  0.31651940860E+03  0.31819963262E+03  0.47000000000E+01 0.  1.
<mgrwt>
<rscale>  0 0.10040185E+03</rscale>
<asrwt>0</asrwt>
<pdfrwt beam="1">  1        2 0.25861410E+00 0.10266321E+03</pdfrwt>
<pdfrwt beam="2">  1       -2 0.90594236E-03 0.10266321E+03</pdfrwt>
<totfact> 0.25437414E+04</totfact>
</mgrwt>
</event>
<event>
 8    1  0.3177960E-004  0.9904240E+02  0.7546771E-02  0.1286165E+00
          1   -1    0    0  501    0  0.00000000000E+00  0.00000000000E+00  0.25640270527E+02  0.25640270527E+02  0.00000000000E+00 0. -1.
         -1   -1    0    0    0  501 -0.00000000000E+00 -0.00000000000E+00 -0.37777411361E+03  0.37777411361E+03  0.00000000000E+00 0.  1.
         23    2    1    2    0    0 -0.13969825093E+02  0.55596474502E+01 -0.12191929246E+03  0.15279886971E+03  0.90868669067E+02 0.  0.
         23    2    1    2    0    0  0.13969825093E+02 -0.55596474502E+01 -0.23021455062E+03  0.25061551443E+03  0.97894489422E+02 0.  0.
          5    1    4    4  502    0  0.42128352985E+02  0.24090205189E+02 -0.17550751038E+03  0.18215408947E+03  0.47000000000E+01 0. -1.
         -5    1    3    3    0  503  0.17915083075E+02 -0.13416360139E+02 -0.11171359779E+03  0.11403055228E+03  0.47000000000E+01 0.  1.
          5    1    3    3  503    0 -0.31884908168E+02  0.18976007589E+02 -0.10205694667E+02  0.38768317433E+02  0.47000000000E+01 0. -1.
         -5    1    4    4    0  502 -0.28158527891E+02 -0.29649852639E+02 -0.54707040240E+02  0.68461424951E+02  0.47000000000E+01 0.  1.
<mgrwt>
<rscale>  0 0.97260322E+02</rscale>
<asrwt>0</asrwt>
<pdfrwt beam="1">  1        1 0.39446571E-02 0.99042399E+02</pdfrwt>
<pdfrwt beam="2">  1       -1 0.58119093E-01 0.99042399E+02</pdfrwt>
<totfact> 0.66242361E+03</totfact>
</mgrwt>
</event>
<event>
 8    1  0.3177960E-004  0.1384440E+03  0.7546771E-02  0.1215593E+00
          3   -1    0    0  501    0  0.00000000000E+00  0.00000000000E+00  0.21965302807E+03  0.21965302807E+03  0.00000000000E+00 0. -1.
         -3   -1    0    0    0  501 -0.00000000000E+00 -0.00000000000E+00 -0.17737059962E+03  0.17737059962E+03  0.00000000000E+00 0.  1.
         23    2    1    2    0    0  0.87841315421E+02 -0.55002208310E+02  0.16287453143E+03  0.21376354031E+03  0.91789969825E+02 0.  0.
         23    2    1    2    0    0 -0.87841315421E+02  0.55002208310E+02 -0.12059210298E+03  0.18326008738E+03  0.91106886202E+02 0.  0.
          5    1    3    3  502    0  0.74231691945E+01 -0.51679620769E+02  0.94431748017E+02  0.10800616500E+03  0.47000000000E+01 0. -1.
         -5    1    3    3    0  502  0.80418146227E+02 -0.33225875414E+01  0.68442783416E+02  0.10575737531E+03  0.47000000000E+01 0.  1.
          5    1    4    4  503    0  0.90158860798E+00 -0.20672810755E+02 -0.20364838343E+02  0.29410790661E+02  0.47000000000E+01 0. -1.
         -5    1    4    4    0  503 -0.88742904029E+02  0.75675019066E+02 -0.10022726463E+03  0.15384929672E+03  0.47000000000E+01 0.  1.
<mgrwt>
<rscale>  0 0.13833086E+03</rscale>
<asrwt>0</asrwt>
<pdfrwt beam="1">  1        3 0.33792773E-01 0.13844399E+03</pdfrwt>
<pdfrwt beam="2">  1       -3 0.27287785E-01 0.13844399E+03</pdfrwt>
<totfact> 0.25689383E+02</totfact>
</mgrwt>
</event>
<event>
 8    1  0.3177960E-004  0.2261887E+03  0.7546771E-02  0.1129705E+00
          1   -1    0    0  501    0  0.00000000000E+00  0.00000000000E+00  0.28742872031E+03  0.28742872031E+03  0.00000000000E+00 0. -1.
         -1   -1    0    0    0  501 -0.00000000000E+00 -0.00000000000E+00 -0.19185177653E+03  0.19185177653E+03  0.00000000000E+00 0.  1.
         23    2    1    2    0    0 -0.19755992902E+03  0.52605051028E+02 -0.19894329921E+02  0.22706189577E+03  0.96768296463E+02 0.  0.
         23    2    1    2    0    0  0.19755992902E+03 -0.52605051028E+02  0.11547127370E+03  0.25221860107E+03  0.92105324099E+02 0.  0.
          5    1    4    4  502    0  0.16176038449E+03 -0.73238503563E+02  0.11306748368E+03  0.21056268962E+03  0.47000000000E+01 0. -1.
         -5    1    3    3    0  503 -0.18104104921E+03  0.18985750366E+02  0.44364793717E+01  0.18214854533E+03  0.47000000000E+01 0.  1.
          5    1    3    3  503    0 -0.16518879810E+02  0.33619300662E+02 -0.24330809293E+02  0.44913350443E+02  0.47000000000E+01 0. -1.
         -5    1    4    4    0  502  0.35799544529E+02  0.20633452535E+02  0.24037900166E+01  0.41655911446E+02  0.47000000000E+01 0.  1.
<mgrwt>
<rscale>  0 0.22569826E+03</rscale>
<asrwt>0</asrwt>
<pdfrwt beam="1">  1        1 0.44219803E-01 0.22618868E+03</pdfrwt>
<pdfrwt beam="2">  1       -1 0.29515658E-01 0.22618868E+03</pdfrwt>
<totfact> 0.97206999E+02</totfact>
</mgrwt>
</event>
<event>
 8    1  0.3177960E-004  0.9961634E+02  0.7546771E-02  0.1282338E+00
          1   -1    0    0  501    0  0.00000000000E+00  0.00000000000E+00  0.12671276687E+04  0.12671276687E+04  0.00000000000E+00 0. -1.
         -1   -1    0    0    0  501 -0.00000000000E+00 -0.00000000000E+00 -0.76526221670E+01  0.76526221670E+01  0.00000000000E+00 0.  1.
         23    2    1    2    0    0 -0.28376726750E+02  0.20889541596E+02  0.61400709063E+03  0.62167057838E+03  0.90708263758E+02 0.  0.
         23    2    1    2    0    0  0.28376726750E+02 -0.20889541596E+02  0.64546795588E+03  0.65310971246E+03  0.93176192633E+02 0.  0.
          5    1    4    4  502    0  0.16472524625E+02  0.31676991264E+02  0.13284168695E+03  0.13763640374E+03  0.47000000000E+01 0. -1.
         -5    1    4    4    0  502  0.11904202126E+02 -0.52566532861E+02  0.51262626893E+03  0.51547330872E+03  0.47000000000E+01 0.  1.
          5    1    3    3  503    0 -0.53030597185E+02  0.37684062341E+02  0.35852870870E+03  0.36441358064E+03  0.47000000000E+01 0. -1.
         -5    1    3    3    0  503  0.24653870435E+02 -0.16794520745E+02  0.25547838193E+03  0.25725699774E+03  0.47000000000E+01 0.  1.
<mgrwt>
<rscale>  0 0.99035154E+02</rscale>
<asrwt>0</asrwt>
<pdfrwt beam="1">  1        1 0.19494255E+00 0.99616336E+02</pdfrwt>
<pdfrwt beam="2">  1       -1 0.11773275E-02 0.99616336E+02</pdfrwt>
<totfact> 0.14411674E+04</totfact>
</mgrwt>
</event>
<event>
 8    1  0.3177960E-004  0.9746325E+02  0.7546771E-02  0.1286105E+00
         -1   -1    0    0    0  501 -0.00000000000E+00  0.00000000000E+00  0.31753580722E+02  0.31753580722E+02  0.00000000000E+00 0.  1.
          1   -1    0    0  501    0  0.00000000000E+00 -0.00000000000E+00 -0.59298737748E+03  0.59298737748E+03  0.00000000000E+00 0. -1.
         23    2    1    2    0    0 -0.29452571598E+02 -0.16236152788E+02 -0.59423411592E+02  0.11355337223E+03  0.90731250781E+02 0.  0.
         23    2    1    2    0    0  0.29452571598E+02  0.16236152788E+02 -0.50181038516E+03  0.51118758597E+03  0.91476875558E+02 0.  0.
          5    1    4    4  502    0  0.43578737659E+02 -0.27151182915E+02 -0.27221296843E+03  0.27705285288E+03  0.47000000000E+01 0. -1.
         -5    1    4    4    0  502 -0.14126166061E+02  0.43387335704E+02 -0.22959741674E+03  0.23413473309E+03  0.47000000000E+01 0.  1.
          5    1    3    3  503    0 -0.79984372195E+01  0.35744327367E+02 -0.93112934813E+01  0.38084407875E+02  0.47000000000E+01 0. -1.
         -5    1    3    3    0  503 -0.21454134378E+02 -0.51980480155E+02 -0.50112118111E+02  0.75468964354E+02  0.47000000000E+01 0.  1.
<mgrwt>
<rscale>  0 0.97287908E+02</rscale>
<asrwt>0</asrwt>
<pdfrwt beam="1">  1        1 0.91228834E-01 0.97463251E+02</pdfrwt>
<pdfrwt beam="2">  1       -1 0.48851659E-02 0.97463251E+02</pdfrwt>
<totfact> 0.61523597E+03</totfact>
</mgrwt>
</event>
<event>
 8    1  0.3177960E-004  0.9508928E+02  0.7546771E-02  0.1293579E+00
         -1   -1    0    0    0  501 -0.00000000000E+00  0.00000000000E+00  0.81346367098E+03  0.81346367098E+03  0.00000000000E+00 0.  1.
          1   -1    0    0  501    0  0.00000000000E+00 -0.00000000000E+00 -0.10767401555E+02  0.10767401555E+02  0.00000000000E+00 0. -1.
         23    2    1    2    0    0  0.16597878429E+02 -0.76211041195E+01  0.35872725174E+03  0.37111617071E+03  0.93318809621E+02 0.  0.
         23    2    1    2    0    0 -0.16597878429E+02  0.76211041195E+01  0.44396901769E+03  0.45311490183E+03  0.88718965227E+02 0.  0.
          5    1    3    3  502    0 -0.27085094394E+02  0.21426380355E+01  0.36413249220E+02  0.45675025505E+02  0.47000000000E+01 0. -1.
         -5    1    4    4    0  503 -0.27726640511E+02 -0.33718198315E+02  0.28723138339E+03  0.29056779088E+03  0.47000000000E+01 0.  1.
          5    1    4    4  503    0  0.11128762082E+02  0.41339302434E+02  0.15673763430E+03  0.16254711095E+03  0.47000000000E+01 0. -1.
         -5    1    3    3    0  502  0.43682972823E+02 -0.97637421550E+01  0.32231400252E+03  0.32544114521E+03  0.47000000000E+01 0.  1.
<mgrwt>
<rscale>  0 0.93941180E+02</rscale>
<asrwt>0</asrwt>
<pdfrwt beam="1">  1        1 0.16565240E-02 0.95089279E+02</pdfrwt>
<pdfrwt beam="2">  1       -1 0.12514821E+00 0.95089279E+02</pdfrwt>
<totfact> 0.43945610E+03</totfact>
</mgrwt>
</event>
<event>
 8    1  0.3177960E-004  0.9164962E+02  0.7546771E-02  0.1303714E+00
          2   -1    0    0  501    0  0.00000000000E+00  0.00000000000E+00  0.28413085222E+03  0.28413085222E+03  0.00000000000E+00 0. -1.
         -2   -1    0    0    0  501 -0.00000000000E+00 -0.00000000000E+00 -0.28208437482E+02  0.28208437482E+02  0.00000000000E+00 0.  1.
         23    2    1    2    0    0 -0.66905010090E+01  0.70992830143E+01  0.10264698415E+03  0.13760834475E+03  0.91128977644E+02 0.  0.
         23    2    1    2    0    0  0.66905010090E+01 -0.70992830143E+01  0.15327543060E+03  0.17473094496E+03  0.83320963024E+02 0.  0.
          5    1    3    3  502    0  0.41961878232E+02  0.60978308802E+00  0.43956259835E+02  0.60954194596E+02  0.47000000000E+01 0. -1.
         -5    1    3    3    0  502 -0.48652379241E+02  0.64894999262E+01  0.58690724311E+02  0.76654150150E+02  0.47000000000E+01 0.  1.
          5    1    4    4  503    0  0.19297921323E+02  0.29537259459E+02  0.11372690651E+03  0.11916693638E+03  0.47000000000E+01 0. -1.
         -5    1    4    4    0  503 -0.12607420314E+02 -0.36636542473E+02  0.39548524090E+02  0.55564008576E+02  0.47000000000E+01 0.  1.
<mgrwt>
<rscale>  0 0.89644915E+02</rscale>
<asrwt>0</asrwt>
<pdfrwt beam="1">  1        2 0.43712437E-01 0.91649622E+02</pdfrwt>
<pdfrwt beam="2">  1       -2 0.43397598E-02 0.91649622E+02</pdfrwt>
<totfact> 0.25135366E+04</totfact>
</mgrwt>
</event>
<event>
 8    1  0.3177960E-004  0.1165489E+03  0.7546771E-02  0.1249700E+00
         -1   -1    0    0    0  501 -0.00000000000E+00  0.00000000000E+00  0.49870005396E+03  0.49870005396E+03  0.00000000000E+00 0.  1.
          1   -1    0    0  501    0  0.00000000000E+00 -0.00000000000E+00 -0.43725513767E+02  0.43725513767E+02  0.00000000000E+00 0. -1.
         23    2    1    2    0    0  0.65942506317E+02  0.28769178432E+02  0.39506707498E+03  0.41138152064E+03  0.89334663045E+02 0.  0.
         23    2    1    2    0    0 -0.65942506317E+02 -0.28769178432E+02  0.59907465213E+02  0.13104404709E+03  0.91692737567E+02 0.  0.
          5    1    4    4  502    0 -0.15842262185E+01 -0.47696436948E+02  0.34848198684E+02  0.59278552797E+02  0.47000000000E+01 0. -1.
         -5    1    3    3    0  503  0.17190357910E+02  0.30456585876E+02  0.41675943216E+02  0.54608481679E+02  0.47000000000E+01 0. -1.
          5    1    3    3  503    0  0.48752148407E+02 -0.16874074442E+01  0.35339113176E+03  0.35677303896E+03  0.47000000000E+01 0.  1.
         -5    1    4    4    0  502 -0.64358280098E+02  0.18927258516E+02  0.25059266529E+02  0.71765494293E+02  0.47000000000E+01 0.  1.
<mgrwt>
<rscale>  0 0.11608461E+03</rscale>
<asrwt>0</asrwt>
<pdfrwt beam="1">  1        1 0.67270025E-02 0.11654886E+03</pdfrwt>
<pdfrwt beam="2">  1       -1 0.76723081E-01 0.11654886E+03</pdfrwt>
<totfact> 0.18953911E+03</totfact>
</mgrwt>
</event>
<event>
 8    1  0.3177960E-004  0.1134803E+03  0.7546771E-02  0.1255462E+00
         -1   -1    0    0    0  501 -0.00000000000E+00  0.00000000000E+00  0.63674851704E+02  0.63674851704E+02  0.00000000000E+00 0.  1.
          1   -1    0    0  501    0  0.00000000000E+00 -0.00000000000E+00 -0.20654675157E+03  0.20654675157E+03  0.00000000000E+00 0. -1.
         23    2    1    2    0    0  0.62931221205E+02  0.48576885057E+01 -0.43974026538E+02  0.12170249608E+03  0.94307193793E+02 0.  0.
         23    2    1    2    0    0 -0.62931221205E+02 -0.48576885057E+01 -0.98897873327E+02  0.14851910720E+03  0.91067008923E+02 0.  0.
          5    1    3    3  502    0 -0.22461343043E+02  0.89445215302E+01 -0.22665494263E+02  0.33471346357E+02  0.47000000000E+01 0. -1.
         -5    1    3    3    0  502  0.85392564248E+02 -0.40868330244E+01 -0.21308532275E+02  0.88231149719E+02  0.47000000000E+01 0.  1.
          5    1    4    4  503    0 -0.82580106586E+02 -0.16965299830E+02 -0.89821845729E+02  0.12327752988E+03  0.47000000000E+01 0. -1.
         -5    1    4    4    0  503  0.19648885382E+02  0.12107611325E+02 -0.90760275983E+01  0.25241577322E+02  0.47000000000E+01 0.  1.
<mgrwt>
<rscale>  0 0.11280479E+03</rscale>
<asrwt>0</asrwt>
<pdfrwt beam="1">  1        1 0.31776423E-01 0.11348032E+03</pdfrwt>
<pdfrwt beam="2">  1       -1 0.97961311E-02 0.11348032E+03</pdfrwt>
<totfact> 0.82704024E+03</totfact>
</mgrwt>
</event>
<event>
 8    1  0.3177960E-004  0.9395564E+02  0.7546771E-02  0.1293546E+00
         -1   -1    0    0    0  501 -0.00000000000E+00  0.00000000000E+00  0.56064461242E+03  0.56064461242E+03  0.00000000000E+00 0.  1.
          1   -1    0    0  501    0  0.00000000000E+00 -0.00000000000E+00 -0.16860509165E+02  0.16860509165E+02  0.00000000000E+00 0. -1.
         23    2    1    2    0    0 -0.76567759977E+01 -0.20295812497E+02  0.19763371615E+03  0.21883040843E+03  0.91417261345E+02 0.  0.
         23    2    1    2    0    0  0.76567759977E+01  0.20295812497E+02  0.34615038711E+03  0.35867471316E+03  0.91416153596E+02 0.  0.
          5    1    3    3  502    0  0.25246160977E+02 -0.36099425291E+02  0.16068450811E+03  0.16667974771E+03  0.47000000000E+01 0. -1.
         -5    1    4    4    0  503 -0.91022790009E+01  0.42244161914E+02  0.79935336523E+02  0.90989937487E+02  0.47000000000E+01 0.  1.
          5    1    4    4  503    0  0.16759054999E+02 -0.21948349417E+02  0.26621505059E+03  0.26768477567E+03  0.47000000000E+01 0. -1.
         -5    1    3    3    0  502 -0.32902936974E+02  0.15803612794E+02  0.36949208039E+02  0.52150660721E+02  0.47000000000E+01 0.  1.
<mgrwt>
<rscale>  0 0.93955368E+02</rscale>
<asrwt>0</asrwt>
<pdfrwt beam="1">  1        1 0.25939249E-02 0.93955638E+02</pdfrwt>
<pdfrwt beam="2">  1       -1 0.86253003E-01 0.93955638E+02</pdfrwt>
<totfact> 0.53895453E+03</totfact>
</mgrwt>
</event>
<event>
 8    1  0.3177960E-004  0.9015455E+02  0.7546771E-02  0.1307326E+00
         -1   -1    0    0    0  501 -0.00000000000E+00  0.00000000000E+00  0.12628120392E+03  0.12628120392E+03  0.00000000000E+00 0.  1.
          1   -1    0    0  501    0  0.00000000000E+00 -0.00000000000E+00 -0.59047002536E+02  0.59047002536E+02  0.00000000000E+00 0. -1.
         23    2    1    2    0    0 -0.55009372480E+01  0.11282480236E+01  0.37212440510E+02  0.97532601106E+02  0.89979493751E+02 0.  0.
         23    2    1    2    0    0  0.55009372480E+01 -0.11282480236E+01  0.30021760877E+02  0.87795605353E+02  0.82311778858E+02 0.  0.
          5    1    4    4  502    0 -0.26729634768E+02  0.14589472965E+02  0.39798130286E+02  0.50331970660E+02  0.47000000000E+01 0. -1.
         -5    1    4    4    0  502  0.32230572016E+02 -0.15717720989E+02 -0.97763694089E+01  0.37463634693E+02  0.47000000000E+01 0.  1.
          5    1    3    3  503    0  0.18864046330E+02  0.10889957244E+02 -0.22789048274E+02  0.31872780455E+02  0.47000000000E+01 0. -1.
         -5    1    3    3    0  503 -0.24364983578E+02 -0.97617092200E+01  0.60001488784E+02  0.65659820651E+02  0.47000000000E+01 0.  1.
<mgrwt>
<rscale>  0 0.88177606E+02</rscale>
<asrwt>0</asrwt>
<pdfrwt beam="1">  1        1 0.90841542E-02 0.90154548E+02</pdfrwt>
<pdfrwt beam="2">  1       -1 0.19427878E-01 0.90154548E+02</pdfrwt>
<totfact> 0.13832125E+04</totfact>
</mgrwt>
</event>
<event>
 8    1  0.3177960E-004  0.1238347E+03  0.7546771E-02  0.1247484E+00
         -1   -1    0    0    0  501 -0.00000000000E+00  0.00000000000E+00  0.79480093880E+02  0.79480093880E+02  0.00000000000E+00 0.  1.
          1   -1    0    0  501    0  0.00000000000E+00 -0.00000000000E+00 -0.21860676992E+03  0.21860676992E+03  0.00000000000E+00 0. -1.
         23    2    1    2    0    0  0.48551958150E+01  0.49366658227E+02 -0.14266609586E+03  0.17420157995E+03  0.86786725252E+02 0.  0.
         23    2    1    2    0    0 -0.48551958150E+01 -0.49366658227E+02  0.35394198225E+01  0.12388528384E+03  0.11346539644E+03 0.  0.
          5    1    4    4  502    0  0.17856520637E+02  0.30953553437E+02 -0.13639059918E+02  0.38536888238E+02  0.47000000000E+01 0. -1.
         -5    1    4    4    0  502 -0.22711716452E+02 -0.80320211665E+02  0.17178479740E+02  0.85348395604E+02  0.47000000000E+01 0.  1.
          5    1    3    3  503    0  0.33822575805E+02  0.56185602495E+02 -0.72681867152E+02  0.98007817925E+02  0.47000000000E+01 0. -1.
         -5    1    3    3    0  503 -0.28967379990E+02 -0.68189442674E+01 -0.69984228707E+02  0.76193762029E+02  0.47000000000E+01 0.  1.
<mgrwt>
<rscale>  0 0.11737929E+03</rscale>
<asrwt>0</asrwt>
<pdfrwt beam="1">  1        1 0.33631811E-01 0.12383471E+03</pdfrwt>
<pdfrwt beam="2">  1       -1 0.12227707E-01 0.12383471E+03</pdfrwt>
<totfact> 0.55278485E+03</totfact>
</mgrwt>
</event>
<event>
 8    1  0.3177960E-004  0.1002089E+03  0.7546771E-02  0.1281106E+00
         -1   -1    0    0    0  501 -0.00000000000E+00  0.00000000000E+00  0.72899871573E+02  0.72899871573E+02  0.00000000000E+00 0.  1.
          1   -1    0    0  501    0  0.00000000000E+00 -0.00000000000E+00 -0.27726356488E+03  0.27726356488E+03  0.00000000000E+00 0. -1.
         23    2    1    2    0    0  0.32294055688E+02  0.12970617063E+02  0.22842937477E+02  0.10277944330E+03  0.93971651221E+02 0.  0.
         23    2    1    2    0    0 -0.32294055688E+02 -0.12970617063E+02 -0.22720663078E+03  0.24738399315E+03  0.91459521404E+02 0.  0.
          5    1    4    4  502    0 -0.52601296594E+02 -0.32120068625E+02 -0.19472466241E+03  0.20429972923E+03  0.47000000000E+01 0. -1.
         -5    1    3    3    0  503  0.23182297802E+02  0.52872930629E+02  0.58620994317E+01  0.58218724947E+02  0.47000000000E+01 0.  1.
          5    1    3    3  503    0  0.91117578862E+01 -0.39902313566E+02  0.16980838045E+02  0.44560718356E+02  0.47000000000E+01 0. -1.
         -5    1    4    4    0  502  0.20307240906E+02  0.19149451561E+02 -0.32481968371E+02  0.43084263921E+02  0.47000000000E+01 0.  1.
<mgrwt>
<rscale>  0 0.99615636E+02</rscale>
<asrwt>0</asrwt>
<pdfrwt beam="1">  1        1 0.42655932E-01 0.10020885E+03</pdfrwt>
<pdfrwt beam="2">  1       -1 0.11215365E-01 0.10020885E+03</pdfrwt>
<totfact> 0.46483778E+03</totfact>
</mgrwt>
</event>
<event>
 8    1  0.3177960E-004  0.2285711E+03  0.7546771E-02  0.1127862E+00
          2   -1    0    0  501    0  0.00000000000E+00  0.00000000000E+00  0.75526257493E+03  0.75526257493E+03  0.00000000000E+00 0. -1.
         -2   -1    0    0    0  501 -0.00000000000E+00 -0.00000000000E+00 -0.13831749532E+03  0.13831749532E+03  0.00000000000E+00 0.  1.
         23    2    1    2    0    0  0.40329873880E+02  0.20424292458E+03 -0.78420189963E+01  0.22870557031E+03  0.94356079079E+02 0.  0.
         23    2    1    2    0    0 -0.40329873880E+02 -0.20424292458E+03  0.62478709861E+03  0.66487449994E+03  0.91419424169E+02 0.  0.
          5    1    4    4  502    0 -0.49198558184E+02 -0.11098261428E+03  0.45456160057E+03  0.47051671332E+03  0.47000000000E+01 0. -1.
         -5    1    4    4    0  502  0.88686843037E+01 -0.93260310296E+02  0.17022549804E+03  0.19435778662E+03  0.47000000000E+01 0.  1.
          5    1    3    3  503    0  0.66657743553E+02  0.10520689390E+03  0.80676680677E+01  0.12489564672E+03  0.47000000000E+01 0. -1.
         -5    1    3    3    0  503 -0.26327869672E+02  0.99036030675E+02 -0.15909687064E+02  0.10380992359E+03  0.47000000000E+01 0.  1.
<mgrwt>
<rscale>  0 0.22827136E+03</rscale>
<asrwt>0</asrwt>
<pdfrwt beam="1">  1        2 0.11619424E+00 0.22857108E+03</pdfrwt>
<pdfrwt beam="2">  1       -2 0.21279615E-01 0.22857108E+03</pdfrwt>
<totfact> 0.72416518E+02</totfact>
</mgrwt>
</event>
<event>
 8    1  0.3177960E-004  0.1132343E+03  0.7546771E-02  0.1255406E+00
          1   -1    0    0  501    0  0.00000000000E+00  0.00000000000E+00  0.91804170620E+02  0.91804170620E+02  0.00000000000E+00 0. -1.
         -1   -1    0    0    0  501 -0.00000000000E+00 -0.00000000000E+00 -0.24470891474E+03  0.24470891474E+03  0.00000000000E+00 0.  1.
         23    2    1    2    0    0 -0.27181594707E+01  0.64966124805E+02 -0.18800767723E+03  0.21947410726E+03  0.92703890407E+02 0.  0.
         23    2    1    2    0    0  0.27181594707E+01 -0.64966124805E+02  0.35102933107E+02  0.11703897810E+03  0.90762992017E+02 0.  0.
          5    1    4    4  502    0 -0.29984878569E+02 -0.45514623236E+02  0.51691170507E+02  0.75264473555E+02  0.47000000000E+01 0. -1.
         -5    1    3    3    0  503 -0.34326891166E+02  0.46591546702E+02 -0.16752916640E+03  0.17730544062E+03  0.47000000000E+01 0.  1.
          5    1    3    3  503    0  0.31608731695E+02  0.18374578103E+02 -0.20478510834E+02  0.42168666635E+02  0.47000000000E+01 0. -1.
         -5    1    4    4    0  502  0.32703038040E+02 -0.19451501569E+02 -0.16588237399E+02  0.41774504549E+02  0.47000000000E+01 0.  1.
<mgrwt>
<rscale>  0 0.11283631E+03</rscale>
<asrwt>0</asrwt>
<pdfrwt beam="1">  1        1 0.14123719E-01 0.11323426E+03</pdfrwt>
<pdfrwt beam="2">  1       -1 0.37647525E-01 0.11323426E+03</pdfrwt>
<totfact> 0.26605126E+03</totfact>
</mgrwt>
</event>
<event>
 8    1  0.3177960E-004  0.1128917E+03  0.7546771E-02  0.1256116E+00
         -2   -1    0    0    0  501 -0.00000000000E+00  0.00000000000E+00  0.32082847110E+02  0.32082847110E+02  0.00000000000E+00 0.  1.
          2   -1    0    0  501    0  0.00000000000E+00 -0.00000000000E+00 -0.61563967390E+03  0.61563967390E+03  0.00000000000E+00 0. -1.
         23    2    1    2    0    0 -0.20143958636E+02 -0.59612372413E+02 -0.48891093060E+03  0.50177527900E+03  0.93728963209E+02 0.  0.
         23    2    1    2    0    0  0.20143958636E+02  0.59612372413E+02 -0.94645896194E+02  0.14594724201E+03  0.91560568860E+02 0.  0.
          5    1    4    4  502    0 -0.11418689699E+02 -0.17505910135E+02 -0.42340824011E+02  0.47451857097E+02  0.47000000000E+01 0. -1.
         -5    1    3    3    0  503 -0.44483037534E+02 -0.73302284267E+01 -0.32078036762E+03  0.32396698463E+03  0.47000000000E+01 0.  1.
          5    1    3    3  503    0  0.24339078898E+02 -0.52282143987E+02 -0.16813056298E+03  0.17780829438E+03  0.47000000000E+01 0. -1.
         -5    1    4    4    0  502  0.31562648335E+02  0.77118282548E+02 -0.52305072184E+02  0.98495384913E+02  0.47000000000E+01 0.  1.
<mgrwt>
<rscale>  0 0.11244055E+03</rscale>
<asrwt>0</asrwt>
<pdfrwt beam="1">  1        2 0.94713793E-01 0.11289169E+03</pdfrwt>
<pdfrwt beam="2">  1       -2 0.49358228E-02 0.11289169E+03</pdfrwt>
<totfact> 0.92380370E+03</totfact>
</mgrwt>
</event>
<event>
 8    1  0.3177960E-004  0.1004742E+03  0.7546771E-02  0.1280989E+00
         -2   -1    0    0    0  501 -0.00000000000E+00  0.00000000000E+00  0.10295934736E+03  0.10295934736E+03  0.00000000000E+00 0.  1.
          2   -1    0    0  501    0  0.00000000000E+00 -0.00000000000E+00 -0.13072606756E+03  0.13072606756E+03  0.00000000000E+00 0. -1.
         23    2    1    2    0    0 -0.41171528623E+02  0.15016035273E+02  0.47374280697E+02  0.10822136625E+03  0.86873272977E+02 0.  0.
         23    2    1    2    0    0  0.41171528623E+02 -0.15016035273E+02 -0.75141000899E+02  0.12546404866E+03  0.90412838724E+02 0.  0.
          5    1    3    3  502    0  0.20267048449E+02 -0.17235108605E+02  0.19389373173E+02  0.33254172874E+02  0.47000000000E+01 0. -1.
         -5    1    4    4    0  503 -0.11554315721E+02  0.28616268291E+02 -0.17030284602E+02  0.35560000229E+02  0.47000000000E+01 0.  1.
          5    1    4    4  503    0  0.52725844344E+02 -0.43632303564E+02 -0.58110716297E+02  0.89904048433E+02  0.47000000000E+01 0. -1.
         -5    1    3    3    0  502 -0.61438577072E+02  0.32251143879E+02  0.27984907523E+02  0.74967193380E+02  0.47000000000E+01 0.  1.
<mgrwt>
<rscale>  0 0.99671375E+02</rscale>
<asrwt>0</asrwt>
<pdfrwt beam="1">  1        2 0.20111703E-01 0.10047416E+03</pdfrwt>
<pdfrwt beam="2">  1       -2 0.15839900E-01 0.10047416E+03</pdfrwt>
<totfact> 0.79518067E+03</totfact>
</mgrwt>
</event>
<event>
 8    1  0.3177960E-004  0.9545157E+02  0.7546771E-02  0.1294141E+00
         -1   -1    0    0    0  501 -0.00000000000E+00  0.00000000000E+00  0.12238037323E+03  0.12238037323E+03  0.00000000000E+00 0.  1.
          1   -1    0    0  501    0  0.00000000000E+00 -0.00000000000E+00 -0.10785281198E+03  0.10785281198E+03  0.00000000000E+00 0. -1.
         23    2    1    2    0    0 -0.97016111921E+01  0.13232431238E+01 -0.61780145411E+02  0.10802897454E+03  0.88077243040E+02 0.  0.
         23    2    1    2    0    0  0.97016111921E+01 -0.13232431238E+01  0.76307706657E+02  0.12220421067E+03  0.94948042513E+02 0.  0.
          5    1    3    3  502    0  0.12138015677E+02 -0.26766827017E+02 -0.65501076875E+02  0.71946337814E+02  0.47000000000E+01 0. -1.
         -5    1    4    4    0  503  0.50146098368E+02 -0.25782537380E+01  0.23849766020E+02  0.55786915250E+02  0.47000000000E+01 0.  1.
          5    1    4    4  503    0 -0.40444487176E+02  0.12550106143E+01  0.52457940636E+02  0.66417295416E+02  0.47000000000E+01 0. -1.
         -5    1    3    3    0  502 -0.21839626869E+02  0.28090070141E+02  0.37209314643E+01  0.36082636728E+02  0.47000000000E+01 0.  1.
<mgrwt>
<rscale>  0 0.93695782E+02</rscale>
<asrwt>0</asrwt>
<pdfrwt beam="1">  1        1 0.16592740E-01 0.95451574E+02</pdfrwt>
<pdfrwt beam="2">  1       -1 0.18827750E-01 0.95451574E+02</pdfrwt>
<totfact> 0.66979051E+03</totfact>
</mgrwt>
</event>
<event>
 8    1  0.3177960E-004  0.1112755E+03  0.7546771E-02  0.1258278E+00
         -2   -1    0    0    0  501 -0.00000000000E+00  0.00000000000E+00  0.69334363112E+03  0.69334363112E+03  0.00000000000E+00 0.  1.
          2   -1    0    0  501    0  0.00000000000E+00 -0.00000000000E+00 -0.10755352495E+03  0.10755352495E+03  0.00000000000E+00 0. -1.
         23    2    1    2    0    0  0.46404727259E+02 -0.41376018190E+02  0.65865136019E+03  0.66798492500E+03  0.92286901269E+02 0.  0.
         23    2    1    2    0    0 -0.46404727259E+02  0.41376018190E+02 -0.72861254015E+02  0.13291223107E+03  0.92149472265E+02 0.  0.
          5    1    3    3  502    0 -0.12969094702E+02 -0.38078590368E+02  0.13492126293E+03  0.14086878168E+03  0.47000000000E+01 0. -1.
         -5    1    3    3    0  502  0.59373821961E+02 -0.32974278221E+01  0.52373009726E+03  0.52711614332E+03  0.47000000000E+01 0.  1.
          5    1    4    4  503    0 -0.36810964263E+02  0.19216518389E+02 -0.92455933001E+02  0.10146187075E+03  0.47000000000E+01 0. -1.
         -5    1    4    4    0  503 -0.95937629963E+01  0.22159499801E+02  0.19594678986E+02  0.31450360323E+02  0.47000000000E+01 0.  1.
<mgrwt>
<rscale>  0 0.11124704E+03</rscale>
<asrwt>0</asrwt>
<pdfrwt beam="1">  1        2 0.16546697E-01 0.11127554E+03</pdfrwt>
<pdfrwt beam="2">  1       -2 0.10666825E+00 0.11127554E+03</pdfrwt>
<totfact> 0.25504499E+02</totfact>
</mgrwt>
</event>
<event>
 8    1  0.3177960E-004  0.9860383E+02  0.7546771E-02  0.1285881E+00
          1   -1    0    0  501    0  0.00000000000E+00  0.00000000000E+00  0.99104562430E+02  0.99104562430E+02  0.00000000000E+00 0. -1.
         -1   -1    0    0    0  501 -0.00000000000E+00 -0.00000000000E+00 -0.18548462628E+03  0.18548462628E+03  0.00000000000E+00 0.  1.
         23    2    1    2    0    0 -0.23372716995E+02  0.10487544985E+02 -0.14396036262E+03  0.17449155042E+03  0.95217869443E+02 0.  0.
         23    2    1    2    0    0  0.23372716995E+02 -0.10487544985E+02  0.57580298773E+02  0.11009763829E+03  0.90275836474E+02 0.  0.
          5    1    3    3  502    0 -0.55811917451E+02 -0.19443414610E+01 -0.53515021387E+02  0.77489987142E+02  0.47000000000E+01 0.  1.
         -5    1    4    4    0  503 -0.17017207972E+02  0.29189793471E+02  0.35249361319E+02  0.49053408479E+02  0.47000000000E+01 0.  1.
          5    1    4    4  503    0  0.40389924968E+02 -0.39677338455E+02  0.22330937454E+02  0.61044229812E+02  0.47000000000E+01 0. -1.
         -5    1    3    3    0  502  0.32439200455E+02  0.12431886446E+02 -0.90445341234E+02  0.97001563275E+02  0.47000000000E+01 0.  1.
<mgrwt>
<rscale>  0 0.97390740E+02</rscale>
<asrwt>0</asrwt>
<pdfrwt beam="1">  1        1 0.15246856E-01 0.98603829E+02</pdfrwt>
<pdfrwt beam="2">  1       -1 0.28536096E-01 0.98603829E+02</pdfrwt>
<totfact> 0.38195011E+03</totfact>
</mgrwt>
</event>
<event>
 8    1  0.3177960E-004  0.1239251E+03  0.7546771E-02  0.1237443E+00
          3   -1    0    0  501    0  0.00000000000E+00  0.00000000000E+00  0.30561448177E+03  0.30561448177E+03  0.00000000000E+00 0. -1.
         -3   -1    0    0    0  501 -0.00000000000E+00 -0.00000000000E+00 -0.49596382316E+02  0.49596382316E+02  0.00000000000E+00 0.  1.
         23    2    1    2    0    0  0.43480230852E+01  0.81413509514E+02  0.12208235317E+03  0.17273833864E+03  0.91034981429E+02 0.  0.
         23    2    1    2    0    0 -0.43480230852E+01 -0.81413509514E+02  0.13393574628E+03  0.18247252545E+03  0.93329382161E+02 0.  0.
          5    1    4    4  502    0  0.40201862831E+02 -0.51451950521E+02  0.97424907057E+02  0.11737629873E+03  0.47000000000E+01 0. -1.
         -5    1    4    4    0  502 -0.44549885916E+02 -0.29961558993E+02  0.36510839228E+02  0.65096226723E+02  0.47000000000E+01 0.  1.
          5    1    3    3  503    0  0.41300613029E+02  0.57379177756E+02  0.10169567739E+03  0.12394438864E+03  0.47000000000E+01 0. -1.
         -5    1    3    3    0  503 -0.36952589944E+02  0.24034331757E+02  0.20386675779E+02  0.48793949993E+02  0.47000000000E+01 0.  1.
<mgrwt>
<rscale>  0 0.12349323E+03</rscale>
<asrwt>0</asrwt>
<pdfrwt beam="1">  1        3 0.47017612E-01 0.12392513E+03</pdfrwt>
<pdfrwt beam="2">  1       -3 0.76302128E-02 0.12392513E+03</pdfrwt>
<totfact> 0.11820966E+03</totfact>
</mgrwt>
</event>
<event>
 8    1  0.3177960E-004  0.1094911E+03  0.7546771E-02  0.1262604E+00
         -2   -1    0    0    0  501 -0.00000000000E+00  0.00000000000E+00  0.27719545593E+03  0.27719545593E+03  0.00000000000E+00 0.  1.
          2   -1    0    0  501    0  0.00000000000E+00 -0.00000000000E+00 -0.11054039275E+03  0.11054039275E+03  0.00000000000E+00 0. -1.
         23    2    1    2    0    0 -0.48440219091E+02  0.34923570105E+02 -0.68606342053E+02  0.12920962159E+03  0.91772466286E+02 0.  0.
         23    2    1    2    0    0  0.48440219091E+02 -0.34923570105E+02  0.23526140523E+03  0.25852622709E+03  0.89004329823E+02 0.  0.
          5    1    3    3  502    0 -0.78882877126E+01  0.42893553805E+02 -0.75236696253E+02  0.87090369755E+02  0.47000000000E+01 0. -1.
         -5    1    4    4    0  503  0.44970567460E+02 -0.63337230507E+02  0.18035680266E+03  0.19642968964E+03  0.47000000000E+01 0.  1.
          5    1    4    4  503    0  0.34696516311E+01  0.28413660402E+02  0.54904602577E+02  0.62096537456E+02  0.47000000000E+01 0. -1.
         -5    1    3    3    0  502 -0.40551931378E+02 -0.79699836996E+01  0.66303541995E+01  0.42119251839E+02  0.47000000000E+01 0.  1.
<mgrwt>
<rscale>  0 0.10890907E+03</rscale>
<asrwt>0</asrwt>
<pdfrwt beam="1">  1        2 0.17006214E-01 0.10949108E+03</pdfrwt>
<pdfrwt beam="2">  1       -2 0.42645454E-01 0.10949108E+03</pdfrwt>
<totfact> 0.17015409E+03</totfact>
</mgrwt>
</event>
<event>
 8    1  0.3177960E-004  0.1446416E+03  0.7546771E-02  0.1207896E+00
         -4   -1    0    0    0  501 -0.00000000000E+00  0.00000000000E+00  0.16870547340E+02  0.16870547340E+02  0.00000000000E+00 0.  1.
          4   -1    0    0  501    0  0.00000000000E+00 -0.00000000000E+00 -0.13172517013E+04  0.13172517013E+04  0.00000000000E+00 0. -1.
         23    2    1    2    0    0 -0.54912664813E+01 -0.11073823291E+03 -0.83374685201E+03  0.84620034145E+03  0.92887536325E+02 0.  0.
         23    2    1    2    0    0  0.54912664813E+01  0.11073823291E+03 -0.46663430196E+03  0.48792190720E+03  0.89594115429E+02 0.  0.
          5    1    3    3  502    0  0.16039305414E+02 -0.11751507630E+03 -0.62391085106E+03  0.63510148209E+03  0.47000000000E+01 0. -1.
         -5    1    4    4    0  503  0.46902389097E+02  0.62621329642E+02 -0.27788545342E+03  0.28872769222E+03  0.47000000000E+01 0.  1.
          5    1    4    4  503    0 -0.41411122616E+02  0.48116903273E+02 -0.18874884854E+03  0.19919421498E+03  0.47000000000E+01 0. -1.
         -5    1    3    3    0  502 -0.21530571895E+02  0.67768433867E+01 -0.20983600095E+03  0.21109885937E+03  0.47000000000E+01 0.  1.
<mgrwt>
<rscale>  0 0.14411562E+03</rscale>
<asrwt>0</asrwt>
<pdfrwt beam="1">  1        4 0.20265414E+00 0.14464164E+03</pdfrwt>
<pdfrwt beam="2">  1       -4 0.25954685E-02 0.14464164E+03</pdfrwt>
<totfact> 0.16136269E+02</totfact>
</mgrwt>
</event>
<event>
 8    1  0.3177960E-004  0.9582444E+02  0.7546771E-02  0.1290459E+00
         -1   -1    0    0    0  501 -0.00000000000E+00  0.00000000000E+00  0.56566425640E+02  0.56566425640E+02  0.00000000000E+00 0.  1.
          1   -1    0    0  501    0  0.00000000000E+00 -0.00000000000E+00 -0.19629199053E+03  0.19629199053E+03  0.00000000000E+00 0. -1.
         23    2    1    2    0    0  0.32215697515E+02  0.47363654675E+01 -0.12560222988E+03  0.15798178042E+03  0.90122352776E+02 0.  0.
         23    2    1    2    0    0 -0.32215697515E+02 -0.47363654675E+01 -0.14123335013E+02  0.94876635752E+02  0.87987630355E+02 0.  0.
          5    1    4    4  502    0 -0.61648720492E+02  0.59878499268E+01 -0.10411263161E+02  0.62983358799E+02  0.47000000000E+01 0. -1.
         -5    1    3    3    0  503  0.68159862376E+00 -0.38002742041E+02 -0.76245002469E+02  0.85323287447E+02  0.47000000000E+01 0.  1.
          5    1    3    3  503    0  0.31534098891E+02  0.42739107508E+02 -0.49357227410E+02  0.72658492973E+02  0.47000000000E+01 0. -1.
         -5    1    4    4    0  502  0.29433022977E+02 -0.10724215394E+02 -0.37120718523E+01  0.31893276953E+02  0.47000000000E+01 0.  1.
<mgrwt>
<rscale>  0 0.95319234E+02</rscale>
<asrwt>0</asrwt>
<pdfrwt beam="1">  1        1 0.30198768E-01 0.95824437E+02</pdfrwt>
<pdfrwt beam="2">  1       -1 0.87025270E-02 0.95824437E+02</pdfrwt>
<totfact> 0.10380059E+04</totfact>
</mgrwt>
</event>
<event>
 8    1  0.3177960E-004  0.1268389E+03  0.7546771E-02  0.1232443E+00
          1   -1    0    0  501    0  0.00000000000E+00  0.00000000000E+00  0.18717848120E+03  0.18717848120E+03  0.00000000000E+00 0. -1.
         -1   -1    0    0    0  501 -0.00000000000E+00 -0.00000000000E+00 -0.11089712493E+03  0.11089712493E+03  0.00000000000E+00 0.  1.
         23    2    1    2    0    0  0.83962269320E+02  0.28170872710E+02 -0.33027852718E+02  0.13106848227E+03  0.90801141246E+02 0.  0.
         23    2    1    2    0    0 -0.83962269320E+02 -0.28170872710E+02  0.10930920898E+03  0.16700712385E+03  0.89997863923E+02 0.  0.
          5    1    3    3  502    0  0.44224950337E+01  0.34244494889E+02  0.14887549875E+02  0.37894234836E+02  0.47000000000E+01 0. -1.
         -5    1    3    3    0  502  0.79539774287E+02 -0.60736221791E+01 -0.47915402593E+02  0.93174247438E+02  0.47000000000E+01 0.  1.
          5    1    4    4  503    0 -0.69499165361E+02  0.82032736167E+01  0.10644797519E+03  0.12747819070E+03  0.47000000000E+01 0. -1.
         -5    1    4    4    0  503 -0.14463103959E+02 -0.36374146327E+02  0.28612337971E+01  0.39528933150E+02  0.47000000000E+01 0.  1.
<mgrwt>
<rscale>  0 0.12669521E+03</rscale>
<asrwt>0</asrwt>
<pdfrwt beam="1">  1        1 0.28796689E-01 0.12683891E+03</pdfrwt>
<pdfrwt beam="2">  1       -1 0.17061096E-01 0.12683891E+03</pdfrwt>
<totfact> 0.39910023E+03</totfact>
</mgrwt>
</event>
<event>
 8    1  0.3177960E-004  0.1565279E+03  0.7546771E-02  0.1193251E+00
         -1   -1    0    0    0  501 -0.00000000000E+00  0.00000000000E+00  0.34349898987E+02  0.34349898987E+02  0.00000000000E+00 0.  1.
          1   -1    0    0  501    0  0.00000000000E+00 -0.00000000000E+00 -0.77016942736E+03  0.77016942736E+03  0.00000000000E+00 0. -1.
         23    2    1    2    0    0  0.58219598108E+02  0.11243121658E+03 -0.48767654723E+03  0.51218102204E+03  0.92036321931E+02 0.  0.
         23    2    1    2    0    0 -0.58219598108E+02 -0.11243121658E+03 -0.24814298114E+03  0.29233830430E+03  0.88636589551E+02 0.  0.
          5    1    3    3  502    0  0.25859877975E+02  0.11920799561E+03 -0.35649306696E+03  0.37681384833E+03  0.47000000000E+01 0. -1.
         -5    1    4    4    0  503 -0.35627316984E+02 -0.11349503207E+03 -0.14993365063E+03  0.19144873363E+03  0.47000000000E+01 0.  1.
          5    1    4    4  503    0 -0.22592281124E+02  0.10638154865E+01 -0.98209330509E+02  0.10088957066E+03  0.47000000000E+01 0. -1.
         -5    1    3    3    0  502  0.32359720133E+02 -0.67767790308E+01 -0.13118348027E+03  0.13536717371E+03  0.47000000000E+01 0.  1.
<mgrwt>
<rscale>  0 0.15603192E+03</rscale>
<asrwt>0</asrwt>
<pdfrwt beam="1">  1        1 0.11848761E+00 0.15652790E+03</pdfrwt>
<pdfrwt beam="2">  1       -1 0.52845998E-02 0.15652790E+03</pdfrwt>
<totfact> 0.38792505E+03</totfact>
</mgrwt>
</event>
<event>
 8    1  0.3177960E-004  0.1252582E+03  0.7546771E-02  0.1235084E+00
         -2   -1    0    0    0  501 -0.00000000000E+00  0.00000000000E+00  0.57034800719E+02  0.57034800719E+02  0.00000000000E+00 0.  1.
          2   -1    0    0  501    0  0.00000000000E+00 -0.00000000000E+00 -0.30179040024E+03  0.30179040024E+03  0.00000000000E+00 0. -1.
         23    2    1    2    0    0 -0.82546450493E+02 -0.19053367691E+02 -0.17850644968E+03  0.21806915953E+03  0.92264069133E+02 0.  0.
         23    2    1    2    0    0  0.82546450493E+02  0.19053367691E+02 -0.66249149843E+02  0.14075604143E+03  0.90809504096E+02 0.  0.
          5    1    4    4  502    0  0.96783888935E+02 -0.15341912200E+01 -0.42103512089E+02  0.10566111220E+03  0.47000000000E+01 0. -1.
         -5    1    3    3    0  503 -0.49639521553E+02  0.35271801324E+02 -0.77726672473E+02  0.98851948298E+02  0.47000000000E+01 0.  1.
          5    1    3    3  503    0 -0.32906928940E+02 -0.54325169015E+02 -0.10077977721E+03  0.11921721123E+03  0.47000000000E+01 0. -1.
         -5    1    4    4    0  502 -0.14237438442E+02  0.20587558911E+02 -0.24145637754E+02  0.35094929233E+02  0.47000000000E+01 0.  1.
<mgrwt>
<rscale>  0 0.12499042E+03</rscale>
<asrwt>0</asrwt>
<pdfrwt beam="1">  1        2 0.46429293E-01 0.12525816E+03</pdfrwt>
<pdfrwt beam="2">  1       -2 0.87745847E-02 0.12525816E+03</pdfrwt>
<totfact> 0.83787229E+03</totfact>
</mgrwt>
</event>
<event>
 8    1  0.3177960E-004  0.9370594E+02  0.7546771E-02  0.1299306E+00
         -2   -1    0    0    0  501 -0.00000000000E+00  0.00000000000E+00  0.10121579766E+03  0.10121579766E+03  0.00000000000E+00 0.  1.
          2   -1    0    0  501    0  0.00000000000E+00 -0.00000000000E+00 -0.79030295045E+02  0.79030295045E+02  0.00000000000E+00 0. -1.
         23    2    1    2    0    0 -0.20648476596E+02 -0.13811058261E+01  0.12771857105E+02  0.86068496612E+02  0.82561484580E+02 0.  0.
         23    2    1    2    0    0  0.20648476596E+02  0.13811058261E+01  0.94136455101E+01  0.94177596093E+02  0.91392208886E+02 0.  0.
          5    1    3    3  502    0  0.19861845579E+02 -0.19588650817E+02  0.27089098765E+02  0.39167811051E+02  0.47000000000E+01 0. -1.
         -5    1    4    4    0  503 -0.10336011219E+02 -0.25337617616E+02 -0.27349326557E+02  0.38973114547E+02  0.47000000000E+01 0.  1.
          5    1    4    4  503    0  0.30984487816E+02  0.26718723442E+02  0.36762972067E+02  0.55204481546E+02  0.47000000000E+01 0. -1.
         -5    1    3    3    0  502 -0.40510322175E+02  0.18207544991E+02 -0.14317241661E+02  0.46900685561E+02  0.47000000000E+01 0.  1.
<mgrwt>
<rscale>  0 0.91480310E+02</rscale>
<asrwt>0</asrwt>
<pdfrwt beam="1">  1        2 0.12158507E-01 0.93705938E+02</pdfrwt>
<pdfrwt beam="2">  1       -2 0.15571661E-01 0.93705938E+02</pdfrwt>
<totfact> 0.14512830E+04</totfact>
</mgrwt>
</event>
<event>
 8    1  0.3177960E-004  0.3524074E+03  0.7546771E-02  0.1061637E+00
          1   -1    0    0  501    0  0.00000000000E+00  0.00000000000E+00  0.11909558811E+04  0.11909558811E+04  0.00000000000E+00 0. -1.
         -1   -1    0    0    0  501 -0.00000000000E+00 -0.00000000000E+00 -0.18583344797E+03  0.18583344797E+03  0.00000000000E+00 0.  1.
         23    2    1    2    0    0  0.23207852244E+03  0.24911281197E+03  0.46498944712E+02  0.35546180921E+03  0.90957749982E+02 0.  0.
         23    2    1    2    0    0 -0.23207852244E+03 -0.24911281197E+03  0.95862348844E+03  0.10213275199E+04  0.90737404610E+02 0.  0.
          5    1    4    4  502    0 -0.20430281704E+03 -0.22176829878E+03  0.73798050533E+03  0.79721900106E+03  0.47000000000E+01 0. -1.
         -5    1    3    3    0  503  0.21983330392E+03  0.18942476787E+03  0.48835519635E+02  0.29430498157E+03  0.47000000000E+01 0.  1.
          5    1    3    3  503    0  0.12245218517E+02  0.59688044102E+02 -0.23365749234E+01  0.61156827645E+02  0.47000000000E+01 0. -1.
         -5    1    4    4    0  502 -0.27775705404E+02 -0.27344513192E+02  0.22064298310E+03  0.22410851881E+03  0.47000000000E+01 0.  1.
<mgrwt>
<rscale>  0 0.35239316E+03</rscale>
<asrwt>0</asrwt>
<pdfrwt beam="1">  1        1 0.18322398E+00 0.35240736E+03</pdfrwt>
<pdfrwt beam="2">  1       -1 0.28589762E-01 0.35240736E+03</pdfrwt>
<totfact> 0.12832524E+02</totfact>
</mgrwt>
</event>
<event>
 8    1  0.3177960E-004  0.1129411E+03  0.7546771E-02  0.1264149E+00
          2   -1    0    0  501    0  0.00000000000E+00  0.00000000000E+00  0.18000893711E+03  0.18000893711E+03  0.00000000000E+00 0. -1.
         -2   -1    0    0    0  501 -0.00000000000E+00 -0.00000000000E+00 -0.10713986122E+03  0.10713986122E+03  0.00000000000E+00 0.  1.
         23    2    1    2    0    0  0.20054577522E+02 -0.14747875607E+02 -0.56904039726E+02  0.12646641591E+03  0.11016350894E+03 0.  0.
         23    2    1    2    0    0 -0.20054577522E+02  0.14747875607E+02  0.12977311562E+03  0.16068238242E+03  0.91422538627E+02 0.  0.
          5    1    3    3  502    0  0.43332151459E+02  0.31508297468E+01  0.16933110791E+02  0.46866014544E+02  0.47000000000E+01 0. -1.
         -5    1    4    4    0  503 -0.25489672805E+02 -0.22382234170E+02  0.10900607941E+02  0.35938851952E+02  0.47000000000E+01 0.  1.
          5    1    4    4  503    0  0.54350952829E+01  0.37130109777E+02  0.11887250767E+03  0.12474353047E+03  0.47000000000E+01 0. -1.
         -5    1    3    3    0  502 -0.23277573937E+02 -0.17898705354E+02 -0.73837150517E+02  0.79600401370E+02  0.47000000000E+01 0.  1.
<mgrwt>
<rscale>  0 0.10808986E+03</rscale>
<asrwt>0</asrwt>
<pdfrwt beam="1">  1        2 0.27693683E-01 0.11294107E+03</pdfrwt>
<pdfrwt beam="2">  1       -2 0.16483056E-01 0.11294107E+03</pdfrwt>
<totfact> 0.52835612E+03</totfact>
</mgrwt>
</event>
<event>
 8    1  0.3177960E-004  0.1061911E+03  0.7546771E-02  0.1269189E+00
         -2   -1    0    0    0  501 -0.00000000000E+00  0.00000000000E+00  0.13373716951E+02  0.13373716951E+02  0.00000000000E+00 0.  1.
          2   -1    0    0  501    0  0.00000000000E+00 -0.00000000000E+00 -0.82249817208E+03  0.82249817208E+03  0.00000000000E+00 0. -1.
         23    2    1    2    0    0 -0.48228566624E+02  0.11638523337E+02 -0.39097010290E+03  0.40513475903E+03  0.93888773311E+02 0.  0.
         23    2    1    2    0    0  0.48228566624E+02 -0.11638523337E+02 -0.41815435223E+03  0.43073713000E+03  0.90664011624E+02 0.  0.
          5    1    4    4  502    0  0.36337009126E+02 -0.48948300423E+02 -0.30021439959E+03  0.30637736547E+03  0.47000000000E+01 0. -1.
         -5    1    3    3    0  503  0.28297413097E+02  0.59440552147E+01 -0.10482245816E+03  0.10883893198E+03  0.47000000000E+01 0.  1.
          5    1    3    3  503    0 -0.76525979721E+02  0.56944681224E+01 -0.28614764473E+03  0.29629582705E+03  0.47000000000E+01 0. -1.
         -5    1    4    4    0  502  0.11891557498E+02  0.37309777086E+02 -0.11793995264E+03  0.12435976453E+03  0.47000000000E+01 0.  1.
<mgrwt>
<rscale>  0 0.10547383E+03</rscale>
<asrwt>0</asrwt>
<pdfrwt beam="1">  1        2 0.12653820E+00 0.10619111E+03</pdfrwt>
<pdfrwt beam="2">  1       -2 0.20574946E-02 0.10619111E+03</pdfrwt>
<totfact> 0.23521351E+04</totfact>
</mgrwt>
</event>
<event>
 8    1  0.3177960E-004  0.1039494E+03  0.7546771E-02  0.1272409E+00
         -3   -1    0    0    0  501 -0.00000000000E+00  0.00000000000E+00  0.34612775979E+03  0.34612775979E+03  0.00000000000E+00 0.  1.
          3   -1    0    0  501    0  0.00000000000E+00 -0.00000000000E+00 -0.51152401306E+02  0.51152401306E+02  0.00000000000E+00 0. -1.
         23    2    1    2    0    0 -0.39674688477E+02 -0.27361984491E+02  0.27205217328E+03  0.29123506907E+03  0.92101690358E+02 0.  0.
         23    2    1    2    0    0  0.39674688477E+02  0.27361984491E+02  0.22923185204E+02  0.10604509203E+03  0.91636946821E+02 0.  0.
          5    1    3    3  502    0 -0.30614837681E+02  0.31330916410E+02  0.10450982366E+03  0.11341643554E+03  0.47000000000E+01 0. -1.
         -5    1    4    4    0  503  0.20452793572E+02  0.55833467417E+02  0.35204721300E+02  0.69261499049E+02  0.47000000000E+01 0.  1.
          5    1    4    4  503    0  0.19221894905E+02 -0.28471482926E+02 -0.12281536095E+02  0.36783592981E+02  0.47000000000E+01 0. -1.
         -5    1    3    3    0  502 -0.90598507954E+01 -0.58692900902E+02  0.16754234962E+03  0.17781863352E+03  0.47000000000E+01 0.  1.
<mgrwt>
<rscale>  0 0.10384637E+03</rscale>
<asrwt>0</asrwt>
<pdfrwt beam="1">  1        3 0.78696004E-02 0.10394941E+03</pdfrwt>
<pdfrwt beam="2">  1       -3 0.53250423E-01 0.10394941E+03</pdfrwt>
<totfact> 0.85174507E+02</totfact>
</mgrwt>
</event>
<event>
 8    1  0.3177960E-004  0.9431452E+02  0.7546771E-02  0.1295422E+00
          3   -1    0    0  501    0  0.00000000000E+00  0.00000000000E+00  0.11236801141E+03  0.11236801141E+03  0.00000000000E+00 0. -1.
         -3   -1    0    0    0  501 -0.00000000000E+00 -0.00000000000E+00 -0.91984368365E+02  0.91984368365E+02  0.00000000000E+00 0.  1.
         23    2    1    2    0    0 -0.69919282356E+01 -0.16103135492E+02 -0.33472744395E+02  0.95744192806E+02  0.87967765719E+02 0.  0.
         23    2    1    2    0    0  0.69919282356E+01  0.16103135492E+02  0.53856387436E+02  0.10860818696E+03  0.92666227801E+02 0.  0.
          5    1    3    3  502    0 -0.32802321220E+02 -0.41531780031E+02 -0.21140889126E+02  0.57183111345E+02  0.47000000000E+01 0. -1.
         -5    1    3    3    0  502  0.25810392984E+02  0.25428644539E+02 -0.12331855269E+02  0.38561081462E+02  0.47000000000E+01 0.  1.
          5    1    4    4  503    0  0.10153105373E+02 -0.36917317349E+02  0.10761001121E+02  0.40048258565E+02  0.47000000000E+01 0. -1.
         -5    1    4    4    0  503 -0.31611771379E+01  0.53020452841E+02  0.43095386316E+02  0.68559928399E+02  0.47000000000E+01 0.  1.
<mgrwt>
<rscale>  0 0.93139726E+02</rscale>
<asrwt>0</asrwt>
<pdfrwt beam="1">  1        3 0.17287386E-01 0.94314515E+02</pdfrwt>
<pdfrwt beam="2">  1       -3 0.14151441E-01 0.94314515E+02</pdfrwt>
<totfact> 0.25377889E+03</totfact>
</mgrwt>
</event>
<event>
 8    1  0.3177960E-004  0.1349836E+03  0.7546771E-02  0.1220866E+00
         -1   -1    0    0    0  501 -0.00000000000E+00  0.00000000000E+00  0.10022692462E+04  0.10022692462E+04  0.00000000000E+00 0.  1.
          1   -1    0    0  501    0  0.00000000000E+00 -0.00000000000E+00 -0.24992369552E+02  0.24992369552E+02  0.00000000000E+00 0. -1.
         23    2    1    2    0    0  0.59439179872E+02  0.80146492674E+02  0.76369828612E+03  0.77553570589E+03  0.90906999190E+02 0.  0.
         23    2    1    2    0    0 -0.59439179872E+02 -0.80146492674E+02  0.21357859051E+03  0.25172590984E+03  0.88281611726E+02 0.  0.
          5    1    4    4  502    0 -0.82001856316E+02 -0.57917063626E+02  0.17249291754E+03  0.19963613726E+03  0.47000000000E+01 0. -1.
         -5    1    4    4    0  502  0.22562676444E+02 -0.22229429048E+02  0.41085672968E+02  0.52089772579E+02  0.47000000000E+01 0.  1.
          5    1    3    3  503    0  0.63749821438E+01  0.66446535919E+02  0.24652711506E+03  0.25544762867E+03  0.47000000000E+01 0. -1.
         -5    1    3    3    0  503  0.53064197728E+02  0.13699956756E+02  0.51717117106E+03  0.52008807723E+03  0.47000000000E+01 0.  1.
<mgrwt>
<rscale>  0 0.13454290E+03</rscale>
<asrwt>0</asrwt>
<pdfrwt beam="1">  1        1 0.38449807E-02 0.13498355E+03</pdfrwt>
<pdfrwt beam="2">  1       -1 0.15419524E+00 0.13498355E+03</pdfrwt>
<totfact> 0.83210223E+02</totfact>
</mgrwt>
</event>
<event>
 8    1  0.3177960E-004  0.9450305E+02  0.7546771E-02  0.1292328E+00
         -1   -1    0    0    0  501 -0.00000000000E+00  0.00000000000E+00  0.84460727548E+01  0.84460727548E+01  0.00000000000E+00 0.  1.
          1   -1    0    0  501    0  0.00000000000E+00 -0.00000000000E+00 -0.10576186067E+04  0.10576186067E+04  0.00000000000E+00 0. -1.
         23    2    1    2    0    0  0.22481291223E+02  0.71215591507E+01 -0.51009065778E+03  0.51877095627E+03  0.91513391664E+02 0.  0.
         23    2    1    2    0    0 -0.22481291223E+02 -0.71215591507E+01 -0.53908187615E+03  0.54729372317E+03  0.91460511528E+02 0.  0.
          5    1    3    3  502    0  0.50254534871E+02  0.25870802749E+02 -0.24223515758E+03  0.24878661194E+03  0.47000000000E+01 0.  1.
         -5    1    4    4    0  503  0.20377018858E+02  0.29048009748E+02 -0.27216869281E+03  0.27451210741E+03  0.47000000000E+01 0.  1.
          5    1    4    4  503    0 -0.42858310082E+02 -0.36169568898E+02 -0.26691318334E+03  0.27278161577E+03  0.47000000000E+01 0. -1.
         -5    1    3    3    0  502 -0.27773243648E+02 -0.18749243598E+02 -0.26785550020E+03  0.26998434433E+03  0.47000000000E+01 0. -1.
<mgrwt>
<rscale>  0 0.94490243E+02</rscale>
<asrwt>0</asrwt>
<pdfrwt beam="1">  1        1 0.16271048E+00 0.94503047E+02</pdfrwt>
<pdfrwt beam="2">  1       -1 0.12993964E-02 0.94503047E+02</pdfrwt>
<totfact> 0.17350090E+04</totfact>
</mgrwt>
</event>
<event>
 8    1  0.3177960E-004  0.9584952E+02  0.7546771E-02  0.1290735E+00
          1   -1    0    0  501    0  0.00000000000E+00  0.00000000000E+00  0.50945420143E+02  0.50945420143E+02  0.00000000000E+00 0. -1.
         -1   -1    0    0    0  501 -0.00000000000E+00 -0.00000000000E+00 -0.30448347540E+03  0.30448347540E+03  0.00000000000E+00 0.  1.
         23    2    1    2    0    0  0.12109904009E+02 -0.13706712141E+02 -0.24143028993E+03  0.25881766741E+03  0.91452043916E+02 0.  0.
         23    2    1    2    0    0 -0.12109904009E+02  0.13706712141E+02 -0.12107765328E+02  0.96611228132E+02  0.94088297291E+02 0.  0.
          5    1    4    4  502    0  0.20769478766E+01  0.38928278943E+02 -0.40066814693E+02  0.56099592276E+02  0.47000000000E+01 0. -1.
         -5    1    4    4    0  502 -0.14186851886E+02 -0.25221566802E+02  0.27959049364E+02  0.40511635856E+02  0.47000000000E+01 0.  1.
          5    1    3    3  503    0  0.11951784869E+02  0.23683521816E+02 -0.18398048062E+02  0.32624109791E+02  0.47000000000E+01 0. -1.
         -5    1    3    3    0  503  0.15811913983E+00 -0.37390233957E+02 -0.22303224187E+03  0.22619355762E+03  0.47000000000E+01 0.  1.
<mgrwt>
<rscale>  0 0.95196263E+02</rscale>
<asrwt>0</asrwt>
<pdfrwt beam="1">  1        1 0.78377572E-02 0.95849525E+02</pdfrwt>
<pdfrwt beam="2">  1       -1 0.46843610E-01 0.95849525E+02</pdfrwt>
<totfact> 0.38837141E+03</totfact>
</mgrwt>
</event>
<event>
 8    1  0.3177960E-004  0.1097249E+03  0.7546771E-02  0.1263269E+00
          1   -1    0    0  501    0  0.00000000000E+00  0.00000000000E+00  0.42218222435E+02  0.42218222435E+02  0.00000000000E+00 0. -1.
         -1   -1    0    0    0  501 -0.00000000000E+00 -0.00000000000E+00 -0.27896553603E+03  0.27896553603E+03  0.00000000000E+00 0.  1.
         23    2    1    2    0    0 -0.53263024533E+02 -0.10472606076E+01 -0.13870449413E+03  0.17403774336E+03  0.90620929617E+02 0.  0.
         23    2    1    2    0    0  0.53263024533E+02  0.10472606076E+01 -0.98042819457E+02  0.14714601510E+03  0.95924495177E+02 0.  0.
          5    1    3    3  502    0  0.19420534506E+02 -0.21466865247E+02 -0.34676010890E+02  0.45414746452E+02  0.47000000000E+01 0. -1.
         -5    1    3    3    0  502 -0.72683559040E+02  0.20419604639E+02 -0.10402848324E+03  0.12862299691E+03  0.47000000000E+01 0.  1.
          5    1    4    4  503    0  0.49816654482E+02  0.30147270300E+02 -0.17001659303E+02  0.60841625466E+02  0.47000000000E+01 0. -1.
         -5    1    4    4    0  503  0.34463700515E+01 -0.29100009692E+02 -0.81041160155E+02  0.86304389633E+02  0.47000000000E+01 0.  1.
<mgrwt>
<rscale>  0 0.10855509E+03</rscale>
<asrwt>0</asrwt>
<pdfrwt beam="1">  1        1 0.64951109E-02 0.10972491E+03</pdfrwt>
<pdfrwt beam="2">  1       -1 0.42917776E-01 0.10972491E+03</pdfrwt>
<totfact> 0.58910899E+03</totfact>
</mgrwt>
</event>
<event>
 8    1  0.3177960E-004  0.1022992E+03  0.7546771E-02  0.1277671E+00
          1   -1    0    0  501    0  0.00000000000E+00  0.00000000000E+00  0.68103660187E+03  0.68103660187E+03  0.00000000000E+00 0. -1.
         -1   -1    0    0    0  501 -0.00000000000E+00 -0.00000000000E+00 -0.15819688175E+02  0.15819688175E+02  0.00000000000E+00 0.  1.
         23    2    1    2    0    0 -0.15006496869E+01  0.42649036009E+02  0.23597919968E+03  0.25559657897E+03  0.88443407195E+02 0.  0.
         23    2    1    2    0    0  0.15006496869E+01 -0.42649036009E+02  0.42923771402E+03  0.44125971108E+03  0.92972712479E+02 0.  0.
          5    1    3    3  502    0  0.37439053691E+02 -0.26998279610E+01  0.80093104949E+02  0.88577464812E+02  0.47000000000E+01 0. -1.
         -5    1    3    3    0  502 -0.38939703378E+02  0.45348863970E+02  0.15588609473E+03  0.16701911415E+03  0.47000000000E+01 0.  1.
          5    1    4    4  503    0  0.42772557958E+02 -0.71476952199E+01  0.25341715309E+03  0.25714378223E+03  0.47000000000E+01 0. -1.
         -5    1    4    4    0  503 -0.41271908272E+02 -0.35501340789E+02  0.17582056093E+03  0.18411592885E+03  0.47000000000E+01 0.  1.
<mgrwt>
<rscale>  0 0.10125885E+03</rscale>
<asrwt>0</asrwt>
<pdfrwt beam="1">  1        1 0.10477484E+00 0.10229916E+03</pdfrwt>
<pdfrwt beam="2">  1       -1 0.24337987E-02 0.10229916E+03</pdfrwt>
<totfact> 0.14032275E+04</totfact>
</mgrwt>
</event>
<event>
 8    1  0.3177960E-004  0.1522748E+03  0.7546771E-02  0.1197797E+00
         -1   -1    0    0    0  501 -0.00000000000E+00  0.00000000000E+00  0.10121985028E+03  0.10121985028E+03  0.00000000000E+00 0.  1.
          1   -1    0    0  501    0  0.00000000000E+00 -0.00000000000E+00 -0.23951651544E+03  0.23951651544E+03  0.00000000000E+00 0. -1.
         23    2    1    2    0    0 -0.68165109711E+02 -0.10087190136E+03 -0.10554489730E+03  0.18527636982E+03  0.91465759727E+02 0.  0.
         23    2    1    2    0    0  0.68165109711E+02  0.10087190136E+03 -0.32751767866E+02  0.15545999590E+03  0.90958833322E+02 0.  0.
          5    1    4    4  502    0 -0.20695034067E+01  0.72167869101E+02  0.82671719137E+00  0.72355080238E+02  0.47000000000E+01 0.  1.
         -5    1    3    3    0  503 -0.67491878861E+02 -0.23373784749E+02 -0.69153093537E+02  0.99527523186E+02  0.47000000000E+01 0.  1.
          5    1    3    3  503    0 -0.67323084914E+00 -0.77498116615E+02 -0.36391803764E+02  0.85748846638E+02  0.47000000000E+01 0. -1.
         -5    1    4    4    0  502  0.70234613117E+02  0.28704032262E+02 -0.33578485057E+02  0.83104915658E+02  0.47000000000E+01 0. -1.
<mgrwt>
<rscale>  0 0.15219873E+03</rscale>
<asrwt>0</asrwt>
<pdfrwt beam="1">  1        1 0.36848695E-01 0.15227478E+03</pdfrwt>
<pdfrwt beam="2">  1       -1 0.15572285E-01 0.15227478E+03</pdfrwt>
<totfact> 0.34260765E+03</totfact>
</mgrwt>
</event>
<event>
 8    1  0.3177960E-004  0.1963334E+03  0.7546771E-02  0.1152916E+00
          2   -1    0    0  501    0  0.00000000000E+00  0.00000000000E+00  0.33833212926E+03  0.33833212926E+03  0.00000000000E+00 0. -1.
         -2   -1    0    0    0  501 -0.00000000000E+00 -0.00000000000E+00 -0.24019171530E+03  0.24019171530E+03  0.00000000000E+00 0.  1.
         23    2    1    2    0    0 -0.16752207177E+03  0.45072688488E+02  0.25888264785E+03  0.32478213088E+03  0.91476857198E+02 0.  0.
         23    2    1    2    0    0  0.16752207177E+03 -0.45072688488E+02 -0.16074223389E+03  0.25374171368E+03  0.91932582529E+02 0.  0.
          5    1    3    3  502    0 -0.14533958335E+03  0.29166469187E+02  0.25736787243E+03  0.29704307629E+03  0.47000000000E+01 0. -1.
         -5    1    3    3    0  502 -0.22182488419E+02  0.15906219302E+02  0.15147754218E+01  0.27739054589E+02  0.47000000000E+01 0.  1.
          5    1    4    4  503    0  0.11206692549E+03 -0.59141087436E+02 -0.65961139950E+02  0.14293224267E+03  0.47000000000E+01 0. -1.
         -5    1    4    4    0  503  0.55455146281E+02  0.14068398948E+02 -0.94781093940E+02  0.11080947101E+03  0.47000000000E+01 0.  1.
<mgrwt>
<rscale>  0 0.19628010E+03</rscale>
<asrwt>0</asrwt>
<pdfrwt beam="1">  1        2 0.52051097E-01 0.19633337E+03</pdfrwt>
<pdfrwt beam="2">  1       -2 0.36952571E-01 0.19633337E+03</pdfrwt>
<totfact> 0.66620715E+02</totfact>
</mgrwt>
</event>
<event>
 8    1  0.3177960E-004  0.9603494E+02  0.7546771E-02  0.1290555E+00
          2   -1    0    0  501    0  0.00000000000E+00  0.00000000000E+00  0.18774953850E+03  0.18774953850E+03  0.00000000000E+00 0. -1.
         -2   -1    0    0    0  501 -0.00000000000E+00 -0.00000000000E+00 -0.47812765657E+02  0.47812765657E+02  0.00000000000E+00 0.  1.
         23    2    1    2    0    0 -0.53039405117E+01 -0.15390154799E+02  0.63228357624E+02  0.11498058133E+03  0.94645233506E+02 0.  0.
         23    2    1    2    0    0  0.53039405117E+01  0.15390154799E+02  0.76708415220E+02  0.12058172283E+03  0.91601213228E+02 0.  0.
          5    1    3    3  502    0  0.21664954975E+02 -0.16311968926E+02 -0.15524801633E+02  0.31600001108E+02  0.47000000000E+01 0.  1.
         -5    1    3    3    0  502 -0.26968895487E+02  0.92181412700E+00  0.78753159257E+02  0.83380580221E+02  0.47000000000E+01 0. -1.
          5    1    4    4  503    0 -0.19326314684E+02  0.46851676303E+02  0.30599506089E+02  0.59388599785E+02  0.47000000000E+01 0. -1.
         -5    1    4    4    0  503  0.24630255195E+02 -0.31461521504E+02  0.46108909131E+02  0.61193123042E+02  0.47000000000E+01 0.  1.
<mgrwt>
<rscale>  0 0.95276360E+02</rscale>
<asrwt>0</asrwt>
<pdfrwt beam="1">  1        2 0.28884544E-01 0.96034936E+02</pdfrwt>
<pdfrwt beam="2">  1       -2 0.73558102E-02 0.96034936E+02</pdfrwt>
<totfact> 0.17770160E+04</totfact>
</mgrwt>
</event>
<event>
 8    1  0.3177960E-004  0.1119594E+03  0.7546771E-02  0.1257629E+00
         -1   -1    0    0    0  501 -0.00000000000E+00  0.00000000000E+00  0.11922744822E+03  0.11922744822E+03  0.00000000000E+00 0.  1.
          1   -1    0    0  501    0  0.00000000000E+00 -0.00000000000E+00 -0.12598461451E+03  0.12598461451E+03  0.00000000000E+00 0. -1.
         23    2    1    2    0    0 -0.29884473894E+01 -0.61215620247E+02  0.48077980853E+02  0.12054530099E+03  0.91996708463E+02 0.  0.
         23    2    1    2    0    0  0.29884473894E+01  0.61215620247E+02 -0.54835147144E+02  0.12466676173E+03  0.93694317536E+02 0.  0.
          5    1    3    3  502    0 -0.42885381506E+02 -0.10187926952E+02  0.28558478133E+02  0.52731645867E+02  0.47000000000E+01 0. -1.
         -5    1    4    4    0  503  0.42666831294E+02  0.54057743687E+01 -0.19265914142E+02  0.47359754401E+02  0.47000000000E+01 0.  1.
          5    1    4    4  503    0 -0.39678383905E+02  0.55809845878E+02 -0.35569233003E+02  0.77307007332E+02  0.47000000000E+01 0. -1.
         -5    1    3    3    0  502  0.39896934117E+02 -0.51027693294E+02  0.19519502720E+02  0.67813655124E+02  0.47000000000E+01 0.  1.
<mgrwt>
<rscale>  0 0.11160352E+03</rscale>
<asrwt>0</asrwt>
<pdfrwt beam="1">  1        1 0.19382248E-01 0.11195940E+03</pdfrwt>
<pdfrwt beam="2">  1       -1 0.18342684E-01 0.11195940E+03</pdfrwt>
<totfact> 0.58010323E+03</totfact>
</mgrwt>
</event>
<event>
 8    1  0.3177960E-004  0.9372052E+02  0.7546771E-02  0.1294207E+00
         -1   -1    0    0    0  501 -0.00000000000E+00  0.00000000000E+00  0.16327557317E+02  0.16327557317E+02  0.00000000000E+00 0.  1.
          1   -1    0    0  501    0  0.00000000000E+00 -0.00000000000E+00 -0.53830578031E+03  0.53830578031E+03  0.00000000000E+00 0. -1.
         23    2    1    2    0    0 -0.20359401754E+02 -0.79805986054E+01 -0.27631414512E+03  0.29177567340E+03  0.91133646927E+02 0.  0.
         23    2    1    2    0    0  0.20359401754E+02  0.79805986054E+01 -0.24566407787E+03  0.26285766422E+03  0.90912690482E+02 0.  0.
          5    1    3    3  502    0 -0.21069461466E+02 -0.38159003504E+02 -0.24154476213E+03  0.24549133155E+03  0.47000000000E+01 0. -1.
         -5    1    4    4    0  503  0.40906314426E+02  0.35148424003E+02 -0.18877304235E+03  0.19638250887E+03  0.47000000000E+01 0.  1.
          5    1    4    4  503    0 -0.20546912673E+02 -0.27167825398E+02 -0.56891035516E+02  0.66475155354E+02  0.47000000000E+01 0. -1.
         -5    1    3    3    0  502  0.71005971228E+00  0.30178404899E+02 -0.34769382991E+02  0.46284341851E+02  0.47000000000E+01 0.  1.
<mgrwt>
<rscale>  0 0.93666768E+02</rscale>
<asrwt>0</asrwt>
<pdfrwt beam="1">  1        1 0.82816275E-01 0.93720525E+02</pdfrwt>
<pdfrwt beam="2">  1       -1 0.25119319E-02 0.93720525E+02</pdfrwt>
<totfact> 0.18274495E+04</totfact>
</mgrwt>
</event>
<event>
 8    1  0.3177960E-004  0.1118317E+03  0.7546771E-02  0.1259942E+00
         -1   -1    0    0    0  501 -0.00000000000E+00  0.00000000000E+00  0.44254860303E+02  0.44254860303E+02  0.00000000000E+00 0.  1.
          1   -1    0    0  501    0  0.00000000000E+00 -0.00000000000E+00 -0.50475275875E+03  0.50475275875E+03  0.00000000000E+00 0. -1.
         23    2    1    2    0    0 -0.62895709603E+02  0.11180414203E+02 -0.41492563245E+03  0.42824689490E+03  0.84565067149E+02 0.  0.
         23    2    1    2    0    0  0.62895709603E+02 -0.11180414203E+02 -0.45572265999E+02  0.12076072415E+03  0.91790245239E+02 0.  0.
          5    1    4    4  502    0  0.20545115062E+02 -0.47275033240E+02 -0.38420431635E+02  0.64461229338E+02  0.47000000000E+01 0. -1.
         -5    1    4    4    0  502  0.42350594541E+02  0.36094619037E+02 -0.71518343635E+01  0.56299494813E+02  0.47000000000E+01 0.  1.
          5    1    3    3  503    0 -0.29660692183E+02 -0.18409367828E+02 -0.33334257010E+03  0.33519847930E+03  0.47000000000E+01 0. -1.
         -5    1    3    3    0  503 -0.33235017420E+02  0.29589782032E+02 -0.81583062342E+02  0.93048415595E+02  0.47000000000E+01 0.  1.
<mgrwt>
<rscale>  0 0.11033958E+03</rscale>
<asrwt>0</asrwt>
<pdfrwt beam="1">  1        1 0.77654267E-01 0.11183166E+03</pdfrwt>
<pdfrwt beam="2">  1       -1 0.68084404E-02 0.11183166E+03</pdfrwt>
<totfact> 0.46966318E+03</totfact>
</mgrwt>
</event>
<event>
 8    1  0.3177960E-004  0.1300712E+03  0.7546771E-02  0.1227492E+00
         -2   -1    0    0    0  501 -0.00000000000E+00  0.00000000000E+00  0.58257279917E+02  0.58257279917E+02  0.00000000000E+00 0.  1.
          2   -1    0    0  501    0  0.00000000000E+00 -0.00000000000E+00 -0.29107900455E+03  0.29107900455E+03  0.00000000000E+00 0. -1.
         23    2    1    2    0    0  0.82340089237E+02  0.42309607849E+02 -0.12921458055E+03  0.18334372223E+03  0.91370232806E+02 0.  0.
         23    2    1    2    0    0 -0.82340089237E+02 -0.42309607849E+02 -0.10360714409E+03  0.16599256224E+03  0.90824540744E+02 0.  0.
          5    1    3    3  502    0  0.13241393934E+02  0.27530469343E+02 -0.10347613418E+03  0.10799380352E+03  0.47000000000E+01 0. -1.
         -5    1    3    3    0  502  0.69098695302E+02  0.14779138506E+02 -0.25738446374E+02  0.75349918708E+02  0.47000000000E+01 0.  1.
          5    1    4    4  503    0 -0.52612369413E+02  0.23124926627E+02 -0.46528359865E+02  0.74093197519E+02  0.47000000000E+01 0. -1.
         -5    1    4    4    0  503 -0.29727719824E+02 -0.65434534476E+02 -0.57078784221E+02  0.91899364721E+02  0.47000000000E+01 0.  1.
<mgrwt>
<rscale>  0 0.12997539E+03</rscale>
<asrwt>0</asrwt>
<pdfrwt beam="1">  1        2 0.44781386E-01 0.13007118E+03</pdfrwt>
<pdfrwt beam="2">  1       -2 0.89626584E-02 0.13007118E+03</pdfrwt>
<totfact> 0.84461158E+03</totfact>
</mgrwt>
</event>
<event>
 8    1  0.3177960E-004  0.9346469E+02  0.7546771E-02  0.1296306E+00
         -2   -1    0    0    0  501 -0.00000000000E+00  0.00000000000E+00  0.24089987053E+03  0.24089987053E+03  0.00000000000E+00 0.  1.
          2   -1    0    0  501    0  0.00000000000E+00 -0.00000000000E+00 -0.16138828754E+03  0.16138828754E+03  0.00000000000E+00 0. -1.
         23    2    1    2    0    0  0.14611516600E+02 -0.74182975892E+01  0.21775324609E+03  0.23696439685E+03  0.92016963833E+02 0.  0.
         23    2    1    2    0    0 -0.14611516600E+02  0.74182975892E+01 -0.13824166311E+03  0.16532376122E+03  0.89177693681E+02 0.  0.
          5    1    3    3  502    0 -0.37904951819E+02  0.36144217079E+01  0.72158190668E+02  0.81723582258E+02  0.47000000000E+01 0. -1.
         -5    1    4    4    0  503  0.14521054625E+02 -0.25507972457E+02 -0.12884814012E+02  0.32397933860E+02  0.47000000000E+01 0.  1.
          5    1    4    4  503    0 -0.29132571225E+02  0.32926270047E+02 -0.12535684909E+03  0.13292582736E+03  0.47000000000E+01 0. -1.
         -5    1    3    3    0  502  0.52516468419E+02 -0.11032719297E+02  0.14559505543E+03  0.15524081459E+03  0.47000000000E+01 0.  1.
<mgrwt>
<rscale>  0 0.92758245E+02</rscale>
<asrwt>0</asrwt>
<pdfrwt beam="1">  1        2 0.24828967E-01 0.93464695E+02</pdfrwt>
<pdfrwt beam="2">  1       -2 0.37061518E-01 0.93464695E+02</pdfrwt>
<totfact> 0.14406822E+03</totfact>
</mgrwt>
</event>
<event>
 8    1  0.3177960E-004  0.9363170E+02  0.7546771E-02  0.1295971E+00
         -1   -1    0    0    0  501 -0.00000000000E+00  0.00000000000E+00  0.31825691871E+03  0.31825691871E+03  0.00000000000E+00 0.  1.
          1   -1    0    0  501    0  0.00000000000E+00 -0.00000000000E+00 -0.35271426313E+02  0.35271426313E+02  0.00000000000E+00 0. -1.
         23    2    1    2    0    0  0.19098399883E+02  0.15892554701E+01  0.23027207013E+03  0.24858021200E+03  0.91649445743E+02 0.  0.
         23    2    1    2    0    0 -0.19098399883E+02 -0.15892554701E+01  0.52713422264E+02  0.10494813302E+03  0.88702486586E+02 0.  0.
          5    1    3    3  502    0 -0.33482452947E+02  0.49694175333E+01  0.48946523443E+02  0.59696079629E+02  0.47000000000E+01 0. -1.
         -5    1    4    4    0  503  0.13163394454E+02  0.37289159327E+02  0.26539434446E+02  0.47855908074E+02  0.47000000000E+01 0.  1.
          5    1    4    4  503    0 -0.32261794336E+02 -0.38878414797E+02  0.26173987818E+02  0.57092224946E+02  0.47000000000E+01 0. -1.
         -5    1    3    3    0  502  0.52580852830E+02 -0.33801620632E+01  0.18132554669E+03  0.18888413237E+03  0.47000000000E+01 0.  1.
<mgrwt>
<rscale>  0 0.92902588E+02</rscale>
<asrwt>0</asrwt>
<pdfrwt beam="1">  1        1 0.54263735E-02 0.93631701E+02</pdfrwt>
<pdfrwt beam="2">  1       -1 0.48962601E-01 0.93631701E+02</pdfrwt>
<totfact> 0.58582977E+03</totfact>
</mgrwt>
</event>
<event>
 8    1  0.3177960E-004  0.1248639E+03  0.7546771E-02  0.1236696E+00
          2   -1    0    0  501    0  0.00000000000E+00  0.00000000000E+00  0.58114703821E+03  0.58114703821E+03  0.00000000000E+00 0. -1.
         -2   -1    0    0    0  501 -0.00000000000E+00 -0.00000000000E+00 -0.37266756374E+02  0.37266756374E+02  0.00000000000E+00 0.  1.
         23    2    1    2    0    0 -0.13617087361E+02  0.83221746287E+02  0.99711766351E+02  0.15702820911E+03  0.87201708609E+02 0.  0.
         23    2    1    2    0    0  0.13617087361E+02 -0.83221746287E+02  0.44416851549E+03  0.46138558548E+03  0.92085309427E+02 0.  0.
          5    1    4    4  502    0 -0.45158319573E+01 -0.94846729392E+02  0.40879569401E+03  0.41970502053E+03  0.47000000000E+01 0. -1.
         -5    1    3    3    0  503 -0.24278104861E+02  0.40173039622E+02  0.10199110535E+03  0.11237248354E+03  0.47000000000E+01 0.  1.
          5    1    3    3  503    0  0.10661017499E+02  0.43048706665E+02 -0.22793389949E+01  0.44655725567E+02  0.47000000000E+01 0. -1.
         -5    1    4    4    0  502  0.18132919318E+02  0.11624983105E+02  0.35372821474E+02  0.41680564946E+02  0.47000000000E+01 0.  1.
<mgrwt>
<rscale>  0 0.12396504E+03</rscale>
<asrwt>0</asrwt>
<pdfrwt beam="1">  1        2 0.89407230E-01 0.12486388E+03</pdfrwt>
<pdfrwt beam="2">  1       -2 0.57333476E-02 0.12486388E+03</pdfrwt>
<totfact> 0.79270102E+03</totfact>
</mgrwt>
</event>
<event>
 8    1  0.3177960E-004  0.9248189E+02  0.7546771E-02  0.1298452E+00
         -1   -1    0    0    0  501 -0.00000000000E+00  0.00000000000E+00  0.68885928410E+02  0.68885928410E+02  0.00000000000E+00 0.  1.
          1   -1    0    0  501    0  0.00000000000E+00 -0.00000000000E+00 -0.12079963565E+03  0.12079963565E+03  0.00000000000E+00 0. -1.
         23    2    1    2    0    0 -0.92389130022E+01  0.95431668966E+01 -0.25150182173E+02  0.95840661183E+02  0.91523063349E+02 0.  0.
         23    2    1    2    0    0  0.92389130022E+01 -0.95431668966E+01 -0.26763525072E+02  0.93844902881E+02  0.88961508388E+02 0.  0.
          5    1    4    4  502    0  0.40606869854E+01  0.20711698678E+02 -0.50385151729E+02  0.54828980983E+02  0.47000000000E+01 0. -1.
         -5    1    3    3    0  503 -0.30472553833E+02  0.28338259631E+02  0.16687925537E+02  0.45080043864E+02  0.47000000000E+01 0.  1.
          5    1    3    3  503    0  0.21233640831E+02 -0.18795092735E+02 -0.41838107711E+02  0.50760617319E+02  0.47000000000E+01 0. -1.
         -5    1    4    4    0  502  0.51782260167E+01 -0.30254865574E+02  0.23621626657E+02  0.39015921898E+02  0.47000000000E+01 0.  1.
<mgrwt>
<rscale>  0 0.91841716E+02</rscale>
<asrwt>0</asrwt>
<pdfrwt beam="1">  1        1 0.18584559E-01 0.92481894E+02</pdfrwt>
<pdfrwt beam="2">  1       -1 0.10597835E-01 0.92481894E+02</pdfrwt>
<totfact> 0.14066156E+04</totfact>
</mgrwt>
</event>
<event>
 8    1  0.3177960E-004  0.9671530E+02  0.7546771E-02  0.1287433E+00
          2   -1    0    0  501    0  0.00000000000E+00  0.00000000000E+00  0.23403063724E+03  0.23403063724E+03  0.00000000000E+00 0. -1.
         -2   -1    0    0    0  501 -0.00000000000E+00 -0.00000000000E+00 -0.41445714297E+02  0.41445714297E+02  0.00000000000E+00 0.  1.
         23    2    1    2    0    0 -0.11074061793E+02 -0.25277364142E+02  0.69735191399E+02  0.11912448669E+03  0.92553046561E+02 0.  0.
         23    2    1    2    0    0  0.11074061793E+02  0.25277364142E+02  0.12284973155E+03  0.15635186485E+03  0.92694493459E+02 0.  0.
          5    1    3    3  502    0 -0.48510705563E+02  0.13024693575E+01  0.46820914439E+02  0.67596397903E+02  0.47000000000E+01 0. -1.
         -5    1    4    4    0  503  0.26493547655E+02  0.88237503007E+01 -0.29411708559E+01  0.28469406786E+02  0.47000000000E+01 0.  1.
          5    1    4    4  503    0 -0.15419485863E+02  0.16453613841E+02  0.12579090240E+03  0.12788245806E+03  0.47000000000E+01 0. -1.
         -5    1    3    3    0  502  0.37436643770E+02 -0.26579833499E+02  0.22914276960E+02  0.51528088789E+02  0.47000000000E+01 0.  1.
<mgrwt>
<rscale>  0 0.96681392E+02</rscale>
<asrwt>0</asrwt>
<pdfrwt beam="1">  1        2 0.36004713E-01 0.96715299E+02</pdfrwt>
<pdfrwt beam="2">  1       -2 0.63762639E-02 0.96715299E+02</pdfrwt>
<totfact> 0.17460980E+04</totfact>
</mgrwt>
</event>
<event>
 8    1  0.3177960E-004  0.9531537E+02  0.7546771E-02  0.1292154E+00
          1   -1    0    0  501    0  0.00000000000E+00  0.00000000000E+00  0.82842096273E+02  0.82842096273E+02  0.00000000000E+00 0. -1.
         -1   -1    0    0    0  501 -0.00000000000E+00 -0.00000000000E+00 -0.11581695230E+03  0.11581695230E+03  0.00000000000E+00 0.  1.
         23    2    1    2    0    0  0.22952629850E+02  0.73186114186E+01 -0.44734488167E+02  0.10262099374E+03  0.89160017020E+02 0.  0.
         23    2    1    2    0    0 -0.22952629850E+02 -0.73186114186E+01  0.11759632138E+02  0.96038054832E+02  0.92220571121E+02 0.  0.
          5    1    3    3  502    0 -0.26522028460E+01 -0.31585884293E+02  0.70551444686E+01  0.32811085474E+02  0.47000000000E+01 0. -1.
         -5    1    4    4    0  503 -0.17255443562E+02  0.34462652994E+02 -0.19393035712E+02  0.43400514030E+02  0.47000000000E+01 0.  1.
          5    1    4    4  503    0 -0.56971862880E+01 -0.41781264413E+02  0.31152667851E+02  0.52637540803E+02  0.47000000000E+01 0. -1.
         -5    1    3    3    0  502  0.25604832696E+02  0.38904495711E+02 -0.51789632636E+02  0.69809908269E+02  0.47000000000E+01 0.  1.
<mgrwt>
<rscale>  0 0.94567116E+02</rscale>
<asrwt>0</asrwt>
<pdfrwt beam="1">  1        1 0.12744938E-01 0.95315366E+02</pdfrwt>
<pdfrwt beam="2">  1       -1 0.17817993E-01 0.95315366E+02</pdfrwt>
<totfact> 0.10248557E+04</totfact>
</mgrwt>
</event>
<event>
 8    1  0.3177960E-004  0.1108194E+03  0.7546771E-02  0.1263111E+00
          1   -1    0    0  501    0  0.00000000000E+00  0.00000000000E+00  0.60186622975E+03  0.60186622975E+03  0.00000000000E+00 0. -1.
         -1   -1    0    0    0  501 -0.00000000000E+00 -0.00000000000E+00 -0.83236469113E+02  0.83236469113E+02  0.00000000000E+00 0.  1.
         23    2    1    2    0    0  0.42123369072E+02 -0.24024443506E+02 -0.44183823516E+02  0.11148255425E+03  0.90136549374E+02 0.  0.
         23    2    1    2    0    0 -0.42123369072E+02  0.24024443506E+02  0.56281358416E+03  0.57362014462E+03  0.99646313005E+02 0.  0.
          5    1    3    3  502    0  0.62693958040E+02 -0.27415600149E+02 -0.74588609231E+01  0.68991826419E+02  0.47000000000E+01 0. -1.
         -5    1    3    3    0  502 -0.20570588969E+02  0.33911566428E+01 -0.36724962593E+02  0.42490727828E+02  0.47000000000E+01 0.  1.
          5    1    4    4  503    0 -0.56875178338E+02  0.52414461242E+02  0.43005762775E+03  0.43698251091E+03  0.47000000000E+01 0. -1.
         -5    1    4    4    0  503  0.14751809267E+02 -0.28390017735E+02  0.13275595641E+03  0.13663763371E+03  0.47000000000E+01 0.  1.
<mgrwt>
<rscale>  0 0.10863933E+03</rscale>
<asrwt>0</asrwt>
<pdfrwt beam="1">  1        1 0.92594802E-01 0.11081940E+03</pdfrwt>
<pdfrwt beam="2">  1       -1 0.12805611E-01 0.11081940E+03</pdfrwt>
<totfact> 0.14299317E+03</totfact>
</mgrwt>
</event>
<event>
 8    1  0.3177960E-004  0.9140564E+02  0.7546771E-02  0.1299878E+00
         -2   -1    0    0    0  501 -0.00000000000E+00  0.00000000000E+00  0.90372488762E+02  0.90372488762E+02  0.00000000000E+00 0.  1.
          2   -1    0    0  501    0  0.00000000000E+00 -0.00000000000E+00 -0.24682639455E+03  0.24682639455E+03  0.00000000000E+00 0. -1.
         23    2    1    2    0    0  0.65177371250E+01 -0.13360650203E+02  0.55292631738E+02  0.10682821131E+03  0.90188711800E+02 0.  0.
         23    2    1    2    0    0 -0.65177371250E+01  0.13360650203E+02 -0.21174653753E+03  0.23037067200E+03  0.89515710873E+02 0.  0.
          5    1    4    4  502    0 -0.23807667000E+02  0.30482531297E+02 -0.19846470360E+03  0.20225310455E+03  0.47000000000E+01 0. -1.
         -5    1    4    4    0  502  0.17289929875E+02 -0.17121881094E+02 -0.13281833924E+02  0.28117567456E+02  0.47000000000E+01 0.  1.
          5    1    3    3  503    0 -0.19568314728E+02  0.10839124050E+02 -0.15389156727E+02  0.27555792426E+02  0.47000000000E+01 0. -1.
         -5    1    3    3    0  503  0.26086051853E+02 -0.24199774253E+02  0.70681788465E+02  0.79272418884E+02  0.47000000000E+01 0.  1.
<mgrwt>
<rscale>  0 0.91239195E+02</rscale>
<asrwt>0</asrwt>
<pdfrwt beam="1">  1        2 0.37973292E-01 0.91405643E+02</pdfrwt>
<pdfrwt beam="2">  1       -2 0.13903460E-01 0.91405643E+02</pdfrwt>
<totfact> 0.49023846E+03</totfact>
</mgrwt>
</event>
<event>
 8    1  0.3177960E-004  0.9411596E+02  0.7546771E-02  0.1293746E+00
          3   -1    0    0  501    0  0.00000000000E+00  0.00000000000E+00  0.31795315841E+03  0.31795315841E+03  0.00000000000E+00 0. -1.
         -3   -1    0    0    0  501 -0.00000000000E+00 -0.00000000000E+00 -0.27687224721E+02  0.27687224721E+02  0.00000000000E+00 0.  1.
         23    2    1    2    0    0  0.17552747113E+01 -0.13293574543E+02  0.15574309633E+03  0.18146301654E+03  0.92158093544E+02 0.  0.
         23    2    1    2    0    0 -0.17552747113E+01  0.13293574543E+02  0.13452283736E+03  0.16417736659E+03  0.93155857650E+02 0.  0.
          5    1    4    4  502    0  0.15227192883E+02  0.30508193893E+02  0.13522152259E+03  0.13953339195E+03  0.47000000000E+01 0. -1.
         -5    1    4    4    0  502 -0.16982467595E+02 -0.17214619350E+02 -0.69868522711E+00  0.24643974639E+02  0.47000000000E+01 0.  1.
          5    1    3    3  503    0  0.21332127407E+02 -0.21423015528E+02  0.73186095496E+01  0.31458819109E+02  0.47000000000E+01 0. -1.
         -5    1    3    3    0  503 -0.19576852696E+02  0.81294409845E+01  0.14842448678E+03  0.15000419743E+03  0.47000000000E+01 0.  1.
<mgrwt>
<rscale>  0 0.93868113E+02</rscale>
<asrwt>0</asrwt>
<pdfrwt beam="1">  1        3 0.48915868E-01 0.94115960E+02</pdfrwt>
<pdfrwt beam="2">  1       -3 0.42595733E-02 0.94115960E+02</pdfrwt>
<totfact> 0.26176022E+03</totfact>
</mgrwt>
</event>
<event>
 8    1  0.3177960E-004  0.9494311E+02  0.7546771E-02  0.1293906E+00
         -2   -1    0    0    0  501 -0.00000000000E+00  0.00000000000E+00  0.23753743441E+03  0.23753743441E+03  0.00000000000E+00 0.  1.
          2   -1    0    0  501    0  0.00000000000E+00 -0.00000000000E+00 -0.37301858658E+02  0.37301858658E+02  0.00000000000E+00 0. -1.
         23    2    1    2    0    0  0.91794832533E+01 -0.35196377555E+01  0.73855143587E+02  0.11676902941E+03  0.89909806098E+02 0.  0.
         23    2    1    2    0    0 -0.91794832533E+01  0.35196377555E+01  0.12638043216E+03  0.15807026366E+03  0.94432747792E+02 0.  0.
          5    1    3    3  502    0 -0.12644554917E+02 -0.27889655649E+02  0.77554025920E+02  0.83513080399E+02  0.47000000000E+01 0. -1.
         -5    1    3    3    0  502  0.21824038170E+02  0.24370017894E+02 -0.36988823332E+01  0.33255949012E+02  0.47000000000E+01 0.  1.
          5    1    4    4  503    0 -0.28083401474E+02  0.18143382431E+02  0.48342646547E+01  0.34107475414E+02  0.47000000000E+01 0. -1.
         -5    1    4    4    0  503  0.18903918220E+02 -0.14623744676E+02  0.12154616751E+03  0.12396278824E+03  0.47000000000E+01 0.  1.
<mgrwt>
<rscale>  0 0.93798215E+02</rscale>
<asrwt>0</asrwt>
<pdfrwt beam="1">  1        2 0.57387476E-02 0.94943113E+02</pdfrwt>
<pdfrwt beam="2">  1       -2 0.36544220E-01 0.94943113E+02</pdfrwt>
<totfact> 0.84294089E+03</totfact>
</mgrwt>
</event>
<event>
 8    1  0.3177960E-004  0.9538183E+02  0.7546771E-02  0.1291524E+00
          1   -1    0    0  501    0  0.00000000000E+00  0.00000000000E+00  0.50337128244E+03  0.50337128244E+03  0.00000000000E+00 0. -1.
         -1   -1    0    0    0  501 -0.00000000000E+00 -0.00000000000E+00 -0.25592955935E+03  0.25592955935E+03  0.00000000000E+00 0.  1.
         23    2    1    2    0    0  0.21524164105E+02 -0.16382351615E+02 -0.24248903671E+03  0.26057364924E+03  0.91465964553E+02 0.  0.
         23    2    1    2    0    0 -0.21524164105E+02  0.16382351615E+02  0.48993075979E+03  0.49872719254E+03  0.89246804448E+02 0.  0.
          5    1    3    3  502    0  0.41091837798E+02  0.23199046153E+02 -0.89709716001E+02  0.10147244957E+03  0.47000000000E+01 0. -1.
         -5    1    3    3    0  502 -0.19567673693E+02 -0.39581397767E+02 -0.15277932071E+03  0.15910119968E+03  0.47000000000E+01 0.  1.
          5    1    4    4  503    0  0.73453832258E+01 -0.22542957323E+02  0.44478427911E+02  0.50621735737E+02  0.47000000000E+01 0. -1.
         -5    1    4    4    0  503 -0.28869547331E+02  0.38925308937E+02  0.44545233188E+03  0.44810545681E+03  0.47000000000E+01 0.  1.
<mgrwt>
<rscale>  0 0.94845848E+02</rscale>
<asrwt>0</asrwt>
<pdfrwt beam="1">  1        1 0.77441736E-01 0.95381831E+02</pdfrwt>
<pdfrwt beam="2">  1       -1 0.39373778E-01 0.95381831E+02</pdfrwt>
<totfact> 0.29322650E+02</totfact>
</mgrwt>
</event>
<event>
 8    1  0.3177960E-004  0.9641033E+02  0.7546771E-02  0.1288375E+00
         -3   -1    0    0    0  501 -0.00000000000E+00  0.00000000000E+00  0.14174222702E+03  0.14174222702E+03  0.00000000000E+00 0.  1.
          3   -1    0    0  501    0  0.00000000000E+00 -0.00000000000E+00 -0.65924939651E+02  0.65924939651E+02  0.00000000000E+00 0. -1.
         23    2    1    2    0    0 -0.19476395778E+02 -0.19709499367E+02  0.49257826734E+02  0.10826488035E+03  0.92342603734E+02 0.  0.
         23    2    1    2    0    0  0.19476395778E+02  0.19709499367E+02  0.26559460633E+02  0.99402286321E+02  0.91693048913E+02 0.  0.
          5    1    3    3  502    0 -0.24643355274E+02  0.33624032639E+02  0.27946118391E+02  0.50407797643E+02  0.47000000000E+01 0. -1.
         -5    1    4    4    0  503  0.50923740200E+02 -0.92126388445E+01  0.21061339362E+02  0.56069332493E+02  0.47000000000E+01 0.  1.
          5    1    4    4  503    0 -0.31447344423E+02  0.28922138211E+02  0.54981212707E+01  0.43332953828E+02  0.47000000000E+01 0. -1.
         -5    1    3    3    0  502  0.51669594965E+01 -0.53333532006E+02  0.21311708343E+02  0.57857082705E+02  0.47000000000E+01 0.  1.
<mgrwt>
<rscale>  0 0.96254456E+02</rscale>
<asrwt>0</asrwt>
<pdfrwt beam="1">  1        3 0.10142298E-01 0.96410325E+02</pdfrwt>
<pdfrwt beam="2">  1       -3 0.21806496E-01 0.96410325E+02</pdfrwt>
<totfact> 0.29605923E+03</totfact>
</mgrwt>
</event>
<event>
 8    1  0.3177960E-004  0.1045877E+03  0.7546771E-02  0.1272621E+00
          1   -1    0    0  501    0  0.00000000000E+00  0.00000000000E+00  0.10760459096E+04  0.10760459096E+04  0.00000000000E+00 0. -1.
         -1   -1    0    0    0  501 -0.00000000000E+00 -0.00000000000E+00 -0.10171600266E+02  0.10171600266E+02  0.00000000000E+00 0.  1.
         23    2    1    2    0    0  0.44148019286E+02  0.22043262343E+02  0.42689803797E+03  0.43873835162E+03  0.88399396678E+02 0.  0.
         23    2    1    2    0    0 -0.44148019286E+02 -0.22043262343E+02  0.63897627134E+03  0.64747915823E+03  0.92215139653E+02 0.  0.
          5    1    4    4  502    0  0.22710563941E+02 -0.17331569154E+02  0.93487307075E+02  0.97867868006E+02  0.47000000000E+01 0. -1.
         -5    1    3    3    0  503 -0.26681019483E+02  0.36179668187E+01  0.96295367974E+02  0.10009922266E+03  0.47000000000E+01 0.  1.
          5    1    3    3  503    0  0.70829038770E+02  0.18425295525E+02  0.33060267000E+03  0.33863912895E+03  0.47000000000E+01 0. -1.
         -5    1    4    4    0  502 -0.66858583227E+02 -0.47116931891E+01  0.54548896427E+03  0.54961129022E+03  0.47000000000E+01 0.  1.
<mgrwt>
<rscale>  0 0.10374036E+03</rscale>
<asrwt>0</asrwt>
<pdfrwt beam="1">  1        1 0.16554543E+00 0.10458769E+03</pdfrwt>
<pdfrwt beam="2">  1       -1 0.15648624E-02 0.10458769E+03</pdfrwt>
<totfact> 0.13028340E+04</totfact>
</mgrwt>
</event>
<event>
 8    1  0.3177960E-004  0.1200971E+03  0.7546771E-02  0.1243389E+00
         -4   -1    0    0    0  501 -0.00000000000E+00  0.00000000000E+00  0.95022772005E+02  0.95022772005E+02  0.00000000000E+00 0.  1.
          4   -1    0    0  501    0  0.00000000000E+00 -0.00000000000E+00 -0.39209015326E+03  0.39209015326E+03  0.00000000000E+00 0. -1.
         23    2    1    2    0    0  0.29609838825E+02  0.72151348245E+02  0.42942980138E+02  0.12651571127E+03  0.89886406352E+02 0.  0.
         23    2    1    2    0    0 -0.29609838825E+02 -0.72151348245E+02 -0.34001036139E+03  0.36059721399E+03  0.91327680773E+02 0.  0.
          5    1    3    3  502    0  0.58146114244E+02  0.62812699136E+02  0.43480235944E+02  0.96119855868E+02  0.47000000000E+01 0. -1.
         -5    1    4    4    0  503 -0.24956031851E+02 -0.17093089021E+02 -0.21774449711E+02  0.37565860542E+02  0.47000000000E+01 0.  1.
          5    1    4    4  503    0 -0.46538069744E+01 -0.55058259224E+02 -0.31823591168E+03  0.32303135345E+03  0.47000000000E+01 0. -1.
         -5    1    3    3    0  502 -0.28536275418E+02  0.93386491086E+01 -0.53725580641E+00  0.30395855404E+02  0.47000000000E+01 0.  1.
<mgrwt>
<rscale>  0 0.11982304E+03</rscale>
<asrwt>0</asrwt>
<pdfrwt beam="1">  1        4 0.60321563E-01 0.12009706E+03</pdfrwt>
<pdfrwt beam="2">  1       -4 0.14618888E-01 0.12009706E+03</pdfrwt>
<totfact> 0.16920835E+02</totfact>
</mgrwt>
</event>
<event>
 8    1  0.3177960E-004  0.1046065E+03  0.7546771E-02  0.1271091E+00
          1   -1    0    0  501    0  0.00000000000E+00  0.00000000000E+00  0.81701757602E+03  0.81701757602E+03  0.00000000000E+00 0. -1.
         -1   -1    0    0    0  501 -0.00000000000E+00 -0.00000000000E+00 -0.77725737388E+02  0.77725737388E+02  0.00000000000E+00 0.  1.
         23    2    1    2    0    0 -0.44533417746E+02  0.23287685799E+02 -0.37637403632E+02  0.11080354331E+03  0.91297915926E+02 0.  0.
         23    2    1    2    0    0  0.44533417746E+02 -0.23287685799E+02  0.77692924227E+03  0.78393977010E+03  0.91744068183E+02 0.  0.
          5    1    4    4  502    0  0.31380738957E+02 -0.58558155042E+02  0.50850401620E+03  0.51284718269E+03  0.47000000000E+01 0. -1.
         -5    1    3    3    0  503 -0.20875085640E+01  0.23125690673E+02 -0.58616657369E+02  0.63223079506E+02  0.47000000000E+01 0.  1.
          5    1    3    3  503    0 -0.42445909182E+02  0.16199512607E+00  0.20979253737E+02  0.47580463807E+02  0.47000000000E+01 0. -1.
         -5    1    4    4    0  502  0.13152678789E+02  0.35270469243E+02  0.26842522606E+03  0.27109258741E+03  0.47000000000E+01 0.  1.
<mgrwt>
<rscale>  0 0.10450857E+03</rscale>
<asrwt>0</asrwt>
<pdfrwt beam="1">  1        1 0.12569501E+00 0.10460648E+03</pdfrwt>
<pdfrwt beam="2">  1       -1 0.11957806E-01 0.10460648E+03</pdfrwt>
<totfact> 0.10281939E+03</totfact>
</mgrwt>
</event>
<event>
 8    1  0.3177960E-004  0.1194841E+03  0.7546771E-02  0.1245225E+00
         -1   -1    0    0    0  501 -0.00000000000E+00  0.00000000000E+00  0.22799666797E+03  0.22799666797E+03  0.00000000000E+00 0.  1.
          1   -1    0    0  501    0  0.00000000000E+00 -0.00000000000E+00 -0.16567691171E+03  0.16567691171E+03  0.00000000000E+00 0. -1.
         23    2    1    2    0    0 -0.58518017656E+02 -0.44288899826E+02  0.18773264610E+03  0.22253089173E+03  0.94289905721E+02 0.  0.
         23    2    1    2    0    0  0.58518017656E+02  0.44288899826E+02 -0.12541288984E+03  0.17114268796E+03  0.90418812569E+02 0.  0.
          5    1    4    4  502    0  0.36150049898E+02  0.53254761826E+02 -0.13093627131E+03  0.14597702871E+03  0.47000000000E+01 0. -1.
         -5    1    4    4    0  502  0.22367967758E+02 -0.89658619999E+01  0.55233814688E+01  0.25165659258E+02  0.47000000000E+01 0.  1.
          5    1    3    3  503    0  0.20529875751E+02  0.84226185035E+01  0.22991297978E+02  0.32297152870E+02  0.47000000000E+01 0. -1.
         -5    1    3    3    0  503 -0.79047893407E+02 -0.52711518329E+02  0.16474134813E+03  0.19023373886E+03  0.47000000000E+01 0.  1.
<mgrwt>
<rscale>  0 0.11871915E+03</rscale>
<asrwt>0</asrwt>
<pdfrwt beam="1">  1        1 0.25488756E-01 0.11948411E+03</pdfrwt>
<pdfrwt beam="2">  1       -1 0.35076411E-01 0.11948411E+03</pdfrwt>
<totfact> 0.14227887E+03</totfact>
</mgrwt>
</event>
<event>
 8    1  0.3177960E-004  0.1013532E+03  0.7546771E-02  0.1277932E+00
          1   -1    0    0  501    0  0.00000000000E+00  0.00000000000E+00  0.59098823577E+03  0.59098823577E+03  0.00000000000E+00 0. -1.
         -1   -1    0    0    0  501 -0.00000000000E+00 -0.00000000000E+00 -0.13030263279E+03  0.13030263279E+03  0.00000000000E+00 0.  1.
         23    2    1    2    0    0  0.41795214839E+02 -0.74793191602E+01 -0.10574387394E+03  0.14586508856E+03  0.91060842230E+02 0.  0.
         23    2    1    2    0    0 -0.41795214839E+02  0.74793191602E+01  0.56642947691E+03  0.57542577999E+03  0.92030950031E+02 0.  0.
          5    1    3    3  502    0 -0.10893924301E+02 -0.30040689163E+02 -0.93589549366E+01  0.33627379166E+02  0.47000000000E+01 0. -1.
         -5    1    4    4    0  503  0.44649487036E+01 -0.33277285357E+02  0.11869277782E+03  0.12343977882E+03  0.47000000000E+01 0.  1.
          5    1    4    4  503    0 -0.46260163543E+02  0.40756604517E+02  0.44773669909E+03  0.45198600117E+03  0.47000000000E+01 0. -1.
         -5    1    3    3    0  502  0.52689139140E+02  0.22561370003E+02 -0.96384919002E+02  0.11223770940E+03  0.47000000000E+01 0.  1.
<mgrwt>
<rscale>  0 0.10113249E+03</rscale>
<asrwt>0</asrwt>
<pdfrwt beam="1">  1        1 0.90921265E-01 0.10135322E+03</pdfrwt>
<pdfrwt beam="2">  1       -1 0.20046559E-01 0.10135322E+03</pdfrwt>
<totfact> 0.72569859E+02</totfact>
</mgrwt>
</event>
<event>
 8    1  0.3177960E-004  0.1194357E+03  0.7546771E-02  0.1245410E+00
          2   -1    0    0  501    0  0.00000000000E+00  0.00000000000E+00  0.11723667140E+03  0.11723667140E+03  0.00000000000E+00 0. -1.
         -2   -1    0    0    0  501 -0.00000000000E+00 -0.00000000000E+00 -0.29090545074E+03  0.29090545074E+03  0.00000000000E+00 0.  1.
         23    2    1    2    0    0  0.35955519462E+02 -0.60163635430E+02 -0.24448264537E+03  0.27209676547E+03  0.96707928734E+02 0.  0.
         23    2    1    2    0    0 -0.35955519462E+02  0.60163635430E+02  0.70813866025E+02  0.13604535668E+03  0.92635160948E+02 0.  0.
          5    1    4    4  502    0 -0.19326635127E+02  0.76522913520E+02  0.78124300658E+02  0.11115201965E+03  0.47000000000E+01 0. -1.
         -5    1    4    4    0  502 -0.16628884335E+02 -0.16359278089E+02 -0.73104346328E+01  0.24893337027E+02  0.47000000000E+01 0.  1.
          5    1    3    3  503    0 -0.27081592360E+02 -0.43543047534E+02 -0.80407111230E+02  0.95481952063E+02  0.47000000000E+01 0. -1.
         -5    1    3    3    0  503  0.63037111822E+02 -0.16620587896E+02 -0.16407553414E+03  0.17661481340E+03  0.47000000000E+01 0.  1.
<mgrwt>
<rscale>  0 0.11860886E+03</rscale>
<asrwt>0</asrwt>
<pdfrwt beam="1">  1        2 0.18036411E-01 0.11943570E+03</pdfrwt>
<pdfrwt beam="2">  1       -2 0.44754684E-01 0.11943570E+03</pdfrwt>
<totfact> 0.14556861E+03</totfact>
</mgrwt>
</event>
<event>
 8    1  0.3177960E-004  0.1037451E+03  0.7546771E-02  0.1277821E+00
         -2   -1    0    0    0  501 -0.00000000000E+00  0.00000000000E+00  0.39489159490E+03  0.39489159490E+03  0.00000000000E+00 0.  1.
          2   -1    0    0  501    0  0.00000000000E+00 -0.00000000000E+00 -0.27499109089E+02  0.27499109089E+02  0.00000000000E+00 0. -1.
         23    2    1    2    0    0  0.19470829943E+02 -0.89297630161E+01  0.25893259387E+03  0.27894286992E+03  0.10150951987E+03 0.  0.
         23    2    1    2    0    0 -0.19470829943E+02  0.89297630161E+01  0.10845989194E+03  0.14344783407E+03  0.91405027507E+02 0.  0.
          5    1    4    4  502    0  0.29642762138E+02  0.27374737989E+02  0.55249125872E+02  0.68575692025E+02  0.47000000000E+01 0. -1.
         -5    1    4    4    0  502 -0.49113592081E+02 -0.18444974973E+02  0.53210766073E+02  0.74872142048E+02  0.47000000000E+01 0.  1.
          5    1    3    3  503    0  0.41286093838E+02 -0.44557612256E+02  0.13608348429E+03  0.14909972183E+03  0.47000000000E+01 0. -1.
         -5    1    3    3    0  503 -0.21815263895E+02  0.35627849240E+02  0.12284910958E+03  0.12984314809E+03  0.47000000000E+01 0.  1.
<mgrwt>
<rscale>  0 0.10118603E+03</rscale>
<asrwt>0</asrwt>
<pdfrwt beam="1">  1        2 0.42306324E-02 0.10374506E+03</pdfrwt>
<pdfrwt beam="2">  1       -2 0.60752549E-01 0.10374506E+03</pdfrwt>
<totfact> 0.46954011E+03</totfact>
</mgrwt>
</event>
<event>
 8    1  0.3177960E-004  0.9994696E+02  0.7546771E-02  0.1282513E+00
          1   -1    0    0  501    0  0.00000000000E+00  0.00000000000E+00  0.49643463073E+03  0.49643463073E+03  0.00000000000E+00 0. -1.
         -1   -1    0    0    0  501 -0.00000000000E+00 -0.00000000000E+00 -0.22329558999E+02  0.22329558999E+02  0.00000000000E+00 0.  1.
         23    2    1    2    0    0  0.37863081940E+02 -0.24925659154E+02  0.14628663417E+03  0.17716990182E+03  0.89075772891E+02 0.  0.
         23    2    1    2    0    0 -0.37863081940E+02  0.24925659154E+02  0.32781843756E+03  0.34159428791E+03  0.84657120603E+02 0.  0.
          5    1    4    4  502    0 -0.53622100619E+02 -0.18256412110E+01  0.12153192533E+03  0.13293141658E+03  0.47000000000E+01 0. -1.
         -5    1    3    3    0  503  0.29370685760E+02 -0.30965239836E+01  0.98907401710E+00  0.29921462367E+02  0.47000000000E+01 0.  1.
          5    1    3    3  503    0  0.84923961801E+01 -0.21829135170E+02  0.14529756015E+03  0.14724843945E+03  0.47000000000E+01 0. -1.
         -5    1    4    4    0  502  0.15759018679E+02  0.26751300365E+02  0.20628651223E+03  0.20866287133E+03  0.47000000000E+01 0.  1.
<mgrwt>
<rscale>  0 0.98952948E+02</rscale>
<asrwt>0</asrwt>
<pdfrwt beam="1">  1        1 0.76374550E-01 0.99946960E+02</pdfrwt>
<pdfrwt beam="2">  1       -1 0.34353171E-02 0.99946960E+02</pdfrwt>
<totfact> 0.12998442E+04</totfact>
</mgrwt>
</event>
<event>
 8    1  0.3177960E-004  0.1013835E+03  0.7546771E-02  0.1277645E+00
          2   -1    0    0  501    0  0.00000000000E+00  0.00000000000E+00  0.92508353985E+03  0.92508353985E+03  0.00000000000E+00 0. -1.
         -2   -1    0    0    0  501 -0.00000000000E+00 -0.00000000000E+00 -0.11554192685E+02  0.11554192685E+02  0.00000000000E+00 0.  1.
         23    2    1    2    0    0 -0.23455324935E+02  0.31948127341E+02  0.36107950471E+03  0.37504270721E+03  0.93315531375E+02 0.  0.
         23    2    1    2    0    0  0.23455324935E+02 -0.31948127341E+02  0.55244984245E+03  0.56159502533E+03  0.92829461604E+02 0.  0.
          5    1    4    4  502    0  0.34085506893E+02 -0.60781730019E+02  0.38021025141E+03  0.38657232927E+03  0.47000000000E+01 0. -1.
         -5    1    3    3    0  503  0.80772706754E+01  0.37902520269E+02  0.56112515175E+02  0.68356036336E+02  0.47000000000E+01 0.  1.
          5    1    3    3  503    0 -0.31532595610E+02 -0.59543929274E+01  0.30496698954E+03  0.30668667087E+03  0.47000000000E+01 0. -1.
         -5    1    4    4    0  502 -0.10630181958E+02  0.28833602678E+02  0.17223959105E+03  0.17502269606E+03  0.47000000000E+01 0.  1.
<mgrwt>
<rscale>  0 0.10127156E+03</rscale>
<asrwt>0</asrwt>
<pdfrwt beam="1">  1        2 0.14232049E+00 0.10138355E+03</pdfrwt>
<pdfrwt beam="2">  1       -2 0.17775688E-02 0.10138355E+03</pdfrwt>
<totfact> 0.24893845E+04</totfact>
</mgrwt>
</event>
<event>
 8    1  0.3177960E-004  0.1062649E+03  0.7546771E-02  0.1268957E+00
         -4   -1    0    0    0  501 -0.00000000000E+00  0.00000000000E+00  0.18506491007E+02  0.18506491007E+02  0.00000000000E+00 0.  1.
          4   -1    0    0  501    0  0.00000000000E+00 -0.00000000000E+00 -0.59943270111E+03  0.59943270111E+03  0.00000000000E+00 0. -1.
         23    2    1    2    0    0  0.12517406054E+02  0.45112265086E+02 -0.26014527765E+03  0.28001519682E+03  0.92418304739E+02 0.  0.
         23    2    1    2    0    0 -0.12517406054E+02 -0.45112265086E+02 -0.32078093246E+03  0.33792399530E+03  0.95396111329E+02 0.  0.
          5    1    4    4  502    0  0.53381830719E+01 -0.69812707172E+02 -0.26556199714E+03  0.27467721894E+03  0.47000000000E+01 0. -1.
         -5    1    3    3    0  503  0.26792522545E+02  0.63375376663E+02 -0.23734926833E+03  0.24716602276E+03  0.47000000000E+01 0.  1.
          5    1    3    3  503    0 -0.14275116492E+02 -0.18263111576E+02 -0.22796009319E+02  0.32849174056E+02  0.47000000000E+01 0. -1.
         -5    1    4    4    0  502 -0.17855589126E+02  0.24700442085E+02 -0.55218935323E+02  0.63246776364E+02  0.47000000000E+01 0.  1.
<mgrwt>
<rscale>  0 0.10559227E+03</rscale>
<asrwt>0</asrwt>
<pdfrwt beam="1">  1        4 0.92220397E-01 0.10626486E+03</pdfrwt>
<pdfrwt beam="2">  1       -4 0.28471530E-02 0.10626486E+03</pdfrwt>
<totfact> 0.94789179E+02</totfact>
</mgrwt>
</event>
<event>
 8    1  0.3177960E-004  0.1017659E+03  0.7546771E-02  0.1279036E+00
          2   -1    0    0  501    0  0.00000000000E+00  0.00000000000E+00  0.12940911437E+04  0.12940911437E+04  0.00000000000E+00 0. -1.
         -2   -1    0    0    0  501 -0.00000000000E+00 -0.00000000000E+00 -0.95590282448E+01  0.95590282448E+01  0.00000000000E+00 0.  1.
         23    2    1    2    0    0  0.31524761024E+02 -0.20552910859E+02  0.36261481036E+03  0.37662421747E+03  0.94551931715E+02 0.  0.
         23    2    1    2    0    0 -0.31524761024E+02  0.20552910859E+02  0.92191730511E+03  0.92702595448E+03  0.89606752708E+02 0.  0.
          5    1    3    3  502    0 -0.24806800103E+01  0.27534029565E+02  0.22663417162E+03  0.22836246255E+03  0.47000000000E+01 0. -1.
         -5    1    4    4    0  503  0.95409163402E+01 -0.29939627800E+02  0.27726162678E+03  0.27907617254E+03  0.47000000000E+01 0.  1.
          5    1    4    4  503    0 -0.41065677364E+02  0.50492538659E+02  0.64465567833E+03  0.64794978194E+03  0.47000000000E+01 0. -1.
         -5    1    3    3    0  502  0.34005441034E+02 -0.48086940424E+02  0.13598063874E+03  0.14826175492E+03  0.47000000000E+01 0.  1.
<mgrwt>
<rscale>  0 0.10060173E+03</rscale>
<asrwt>0</asrwt>
<pdfrwt beam="1">  1        2 0.19909081E+00 0.10176591E+03</pdfrwt>
<pdfrwt beam="2">  1       -2 0.14706208E-02 0.10176591E+03</pdfrwt>
<totfact> 0.20201080E+04</totfact>
</mgrwt>
</event>
<event>
 8    1  0.3177960E-004  0.9831449E+02  0.7546771E-02  0.1285711E+00
         -2   -1    0    0    0  501 -0.00000000000E+00  0.00000000000E+00  0.88149411384E+03  0.88149411384E+03  0.00000000000E+00 0.  1.
          2   -1    0    0  501    0  0.00000000000E+00 -0.00000000000E+00 -0.16803300764E+02  0.16803300764E+02  0.00000000000E+00 0. -1.
         23    2    1    2    0    0 -0.30957066066E+02 -0.23930965797E+02  0.70060127030E+03  0.70700936827E+03  0.86539446610E+02 0.  0.
         23    2    1    2    0    0  0.30957066066E+02  0.23930965797E+02  0.16408954278E+03  0.19128804634E+03  0.90192613650E+02 0.  0.
          5    1    3    3  502    0  0.29790263301E+02 -0.82369093890E+01  0.19153621741E+03  0.19407091241E+03  0.47000000000E+01 0. -1.
         -5    1    4    4    0  503 -0.24386930105E+02  0.61761254788E+01  0.10575123704E+03  0.10880386492E+03  0.47000000000E+01 0.  1.
          5    1    4    4  503    0  0.55343996171E+02  0.17754840318E+02  0.58338305740E+02  0.82484181414E+02  0.47000000000E+01 0. -1.
         -5    1    3    3    0  502 -0.60747329366E+02 -0.15694056408E+02  0.50906505289E+03  0.51293845586E+03  0.47000000000E+01 0.  1.
<mgrwt>
<rscale>  0 0.97468572E+02</rscale>
<asrwt>0</asrwt>
<pdfrwt beam="1">  1        2 0.25851239E-02 0.98314488E+02</pdfrwt>
<pdfrwt beam="2">  1       -2 0.13561444E+00 0.98314488E+02</pdfrwt>
<totfact> 0.14820765E+03</totfact>
</mgrwt>
</event>
<event>
 8    1  0.3177960E-004  0.9338957E+02  0.7546771E-02  0.1295154E+00
         -1   -1    0    0    0  501 -0.00000000000E+00  0.00000000000E+00  0.10366553982E+03  0.10366553982E+03  0.00000000000E+00 0.  1.
          1   -1    0    0  501    0  0.00000000000E+00 -0.00000000000E+00 -0.14833840373E+03  0.14833840373E+03  0.00000000000E+00 0. -1.
         23    2    1    2    0    0  0.32025025472E+01  0.13103194484E+02  0.60833922637E+02  0.11145571777E+03  0.92410287047E+02 0.  0.
         23    2    1    2    0    0 -0.32025025472E+01 -0.13103194484E+02 -0.10550678655E+03  0.14054822579E+03  0.91870408928E+02 0.  0.
          5    1    3    3  502    0 -0.32966543048E+02  0.16528573902E+02 -0.35851563193E+01  0.37348762517E+02  0.47000000000E+01 0. -1.
         -5    1    3    3    0  502  0.36169045595E+02 -0.34253794172E+01  0.64419078956E+02  0.74106955254E+02  0.47000000000E+01 0.  1.
          5    1    4    4  503    0 -0.21758413558E+02 -0.47135688736E+02 -0.46870941605E+02  0.70101190290E+02  0.47000000000E+01 0. -1.
         -5    1    4    4    0  503  0.18555911011E+02  0.34032494252E+02 -0.58635844940E+02  0.70447035497E+02  0.47000000000E+01 0.  1.
<mgrwt>
<rscale>  0 0.93255732E+02</rscale>
<asrwt>0</asrwt>
<pdfrwt beam="1">  1        1 0.22821293E-01 0.93389565E+02</pdfrwt>
<pdfrwt beam="2">  1       -1 0.15948545E-01 0.93389565E+02</pdfrwt>
<totfact> 0.58081687E+03</totfact>
</mgrwt>
</event>
<event>
 8    1  0.3177960E-004  0.9909920E+02  0.7546771E-02  0.1283759E+00
         -2   -1    0    0    0  501 -0.00000000000E+00  0.00000000000E+00  0.43185746257E+02  0.43185746257E+02  0.00000000000E+00 0.  1.
          2   -1    0    0  501    0  0.00000000000E+00 -0.00000000000E+00 -0.31164023920E+03  0.31164023920E+03  0.00000000000E+00 0. -1.
         23    2    1    2    0    0 -0.17864962338E+02 -0.30601751537E+02 -0.37069550151E+02  0.10311257198E+03  0.89456284718E+02 0.  0.
         23    2    1    2    0    0  0.17864962338E+02  0.30601751537E+02 -0.23138494279E+03  0.25171341348E+03  0.92547429448E+02 0.  0.
          5    1    3    3  502    0  0.19009796475E+02 -0.48526255890E+02 -0.32480397413E+02  0.61589253030E+02  0.47000000000E+01 0. -1.
         -5    1    4    4    0  503 -0.32352252683E+02 -0.62029111722E+01 -0.51634274238E+02  0.61427458329E+02  0.47000000000E+01 0.  1.
          5    1    4    4  503    0  0.50217215020E+02  0.36804662709E+02 -0.17975066855E+03  0.19028595515E+03  0.47000000000E+01 0. -1.
         -5    1    3    3    0  502 -0.36874758812E+02  0.17924504353E+02 -0.45891527381E+01  0.41523318950E+02  0.47000000000E+01 0.  1.
<mgrwt>
<rscale>  0 0.98371104E+02</rscale>
<asrwt>0</asrwt>
<pdfrwt beam="1">  1        2 0.47944649E-01 0.99099197E+02</pdfrwt>
<pdfrwt beam="2">  1       -2 0.66439613E-02 0.99099197E+02</pdfrwt>
<totfact> 0.12172715E+04</totfact>
</mgrwt>
</event>
<event>
 8    1  0.3177960E-004  0.1003890E+03  0.7546771E-02  0.1281162E+00
          1   -1    0    0  501    0  0.00000000000E+00  0.00000000000E+00  0.33452239080E+03  0.33452239080E+03  0.00000000000E+00 0. -1.
         -1   -1    0    0    0  501 -0.00000000000E+00 -0.00000000000E+00 -0.31013426694E+02  0.31013426694E+02  0.00000000000E+00 0.  1.
         23    2    1    2    0    0 -0.38341343743E+02  0.35711079577E+01  0.19384152202E+03  0.21685862709E+03  0.89276632042E+02 0.  0.
         23    2    1    2    0    0  0.38341343743E+02 -0.35711079577E+01  0.10966744208E+03  0.14867719040E+03  0.92710019105E+02 0.  0.
          5    1    4    4  502    0 -0.13534952426E+02 -0.36188701145E+02  0.43480303543E+02  0.58356180683E+02  0.47000000000E+01 0. -1.
         -5    1    4    4    0  502  0.51876296169E+02  0.32617593187E+02  0.66187138535E+02  0.90321009721E+02  0.47000000000E+01 0.  1.
          5    1    3    3  503    0 -0.35069894743E+01 -0.31622796981E+02  0.13962667701E+03  0.14328293408E+03  0.47000000000E+01 0. -1.
         -5    1    3    3    0  503 -0.34834354269E+02  0.35193904938E+02  0.54214845012E+02  0.73575693009E+02  0.47000000000E+01 0.  1.
<mgrwt>
<rscale>  0 0.99589068E+02</rscale>
<asrwt>0</asrwt>
<pdfrwt beam="1">  1        1 0.51464981E-01 0.10038904E+03</pdfrwt>
<pdfrwt beam="2">  1       -1 0.47712966E-02 0.10038904E+03</pdfrwt>
<totfact> 0.13213586E+04</totfact>
</mgrwt>
</event>
<event>
 8    1  0.3177960E-004  0.1225877E+03  0.7546771E-02  0.1239849E+00
         -2   -1    0    0    0  501 -0.00000000000E+00  0.00000000000E+00  0.44992050494E+02  0.44992050494E+02  0.00000000000E+00 0.  1.
          2   -1    0    0  501    0  0.00000000000E+00 -0.00000000000E+00 -0.49560570636E+03  0.49560570636E+03  0.00000000000E+00 0. -1.
         23    2    1    2    0    0 -0.15173474682E+02  0.76727187459E+02 -0.66472010555E+02  0.13737008514E+03  0.91294668381E+02 0.  0.
         23    2    1    2    0    0  0.15173474682E+02 -0.76727187459E+02 -0.38414164531E+03  0.40322767171E+03  0.94395211446E+02 0.  0.
          5    1    3    3  502    0 -0.25029121488E+02  0.46458798177E+01 -0.58574610941E+02  0.64039957594E+02  0.47000000000E+01 0. -1.
         -5    1    3    3    0  502  0.98556468058E+01  0.72081307642E+02 -0.78973996140E+01  0.73330127546E+02  0.47000000000E+01 0.  1.
          5    1    4    4  503    0 -0.12010783004E+02 -0.86919360986E+02 -0.33127735896E+03  0.34273315098E+03  0.47000000000E+01 0. -1.
         -5    1    4    4    0  503  0.27184257686E+02  0.10192173527E+02 -0.52864286353E+02  0.60494520733E+02  0.47000000000E+01 0.  1.
<mgrwt>
<rscale>  0 0.12199058E+03</rscale>
<asrwt>0</asrwt>
<pdfrwt beam="1">  1        2 0.76247034E-01 0.12258773E+03</pdfrwt>
<pdfrwt beam="2">  1       -2 0.69218537E-02 0.12258773E+03</pdfrwt>
<totfact> 0.70972758E+03</totfact>
</mgrwt>
</event>
<event>
 8    1  0.3177960E-004  0.9595499E+02  0.7546771E-02  0.1291785E+00
          3   -1    0    0  501    0  0.00000000000E+00  0.00000000000E+00  0.12170244382E+03  0.12170244382E+03  0.00000000000E+00 0. -1.
         -3   -1    0    0    0  501 -0.00000000000E+00 -0.00000000000E+00 -0.13367139544E+03  0.13367139544E+03  0.00000000000E+00 0.  1.
         23    2    1    2    0    0 -0.10926868836E+01 -0.11480775739E+02  0.80873841253E+02  0.12185550712E+03  0.90416725443E+02 0.  0.
         23    2    1    2    0    0  0.10926868836E+01  0.11480775739E+02 -0.92842792869E+02  0.13351833215E+03  0.95259428170E+02 0.  0.
          5    1    3    3  502    0 -0.26248135880E+02  0.30525447039E+02  0.47357301009E+02  0.62334352592E+02  0.47000000000E+01 0. -1.
         -5    1    4    4    0  503  0.45299600015E+01 -0.38860288322E+02 -0.64140949632E+02  0.75278110801E+02  0.47000000000E+01 0.  1.
          5    1    4    4  503    0 -0.34372731179E+01  0.50341064060E+02 -0.28701843237E+02  0.58240221346E+02  0.47000000000E+01 0. -1.
         -5    1    3    3    0  502  0.25155448996E+02 -0.42006222778E+02  0.33516540243E+02  0.59521154526E+02  0.47000000000E+01 0.  1.
<mgrwt>
<rscale>  0 0.94730311E+02</rscale>
<asrwt>0</asrwt>
<pdfrwt beam="1">  1        3 0.18723453E-01 0.95954994E+02</pdfrwt>
<pdfrwt beam="2">  1       -3 0.20564830E-01 0.95954994E+02</pdfrwt>
<totfact> 0.11673263E+03</totfact>
</mgrwt>
</event>
<event>
 8    1  0.3177960E-004  0.1190613E+03  0.7546771E-02  0.1244665E+00
         -2   -1    0    0    0  501 -0.00000000000E+00  0.00000000000E+00  0.40032277102E+02  0.40032277102E+02  0.00000000000E+00 0.  1.
          2   -1    0    0  501    0  0.00000000000E+00 -0.00000000000E+00 -0.36318583015E+03  0.36318583015E+03  0.00000000000E+00 0. -1.
         23    2    1    2    0    0  0.72708698803E+02  0.25780784327E+02 -0.12956998747E+03  0.17596580576E+03  0.90688364305E+02 0.  0.
         23    2    1    2    0    0 -0.72708698803E+02 -0.25780784327E+02 -0.19358356558E+03  0.22725230150E+03  0.90652126017E+02 0.  0.
          5    1    4    4  502    0  0.20540003710E+02 -0.96110056857E+01 -0.26710138425E+02  0.35352293807E+02  0.47000000000E+01 0. -1.
         -5    1    4    4    0  502 -0.93248702513E+02 -0.16169778641E+02 -0.16687342715E+03  0.19190000769E+03  0.47000000000E+01 0.  1.
          5    1    3    3  503    0  0.71760561436E+02 -0.56090764688E+01 -0.12439088047E+03  0.14379228443E+03  0.47000000000E+01 0. -1.
         -5    1    3    3    0  503  0.94813736714E+00  0.31389860796E+02 -0.51791069956E+01  0.32173521326E+02  0.47000000000E+01 0.  1.
<mgrwt>
<rscale>  0 0.11905436E+03</rscale>
<asrwt>0</asrwt>
<pdfrwt beam="1">  1        2 0.55874743E-01 0.11906126E+03</pdfrwt>
<pdfrwt beam="2">  1       -2 0.61588119E-02 0.11906126E+03</pdfrwt>
<totfact> 0.11801758E+04</totfact>
</mgrwt>
</event>
<event>
 8    1  0.3177960E-004  0.1085923E+03  0.7546771E-02  0.1267652E+00
         -2   -1    0    0    0  501 -0.00000000000E+00  0.00000000000E+00  0.64412110833E+02  0.64412110833E+02  0.00000000000E+00 0.  1.
          2   -1    0    0  501    0  0.00000000000E+00 -0.00000000000E+00 -0.44639114833E+03  0.44639114833E+03  0.00000000000E+00 0. -1.
         23    2    1    2    0    0  0.10126387820E+02  0.42461232377E+02  0.13687290118E+02  0.10050565535E+03  0.89490473575E+02 0.  0.
         23    2    1    2    0    0 -0.10126387820E+02 -0.42461232377E+02 -0.39566632762E+03  0.41029760382E+03  0.99432293065E+02 0.  0.
          5    1    3    3  502    0  0.18413102573E+02 -0.20205038416E+02  0.23512694318E+02  0.36362380530E+02  0.47000000000E+01 0. -1.
         -5    1    3    3    0  502 -0.82867147531E+01  0.62666270793E+02 -0.98254042005E+01  0.64143274817E+02  0.47000000000E+01 0.  1.
          5    1    4    4  503    0 -0.49227147586E+02 -0.47599661712E+02 -0.23730660560E+03  0.24703350970E+03  0.47000000000E+01 0. -1.
         -5    1    4    4    0  503  0.39100759766E+02  0.51384293350E+01 -0.15835972202E+03  0.16326409412E+03  0.47000000000E+01 0.  1.
<mgrwt>
<rscale>  0 0.10626263E+03</rscale>
<asrwt>0</asrwt>
<pdfrwt beam="1">  1        2 0.68675560E-01 0.10859227E+03</pdfrwt>
<pdfrwt beam="2">  1       -2 0.99095557E-02 0.10859227E+03</pdfrwt>
<totfact> 0.45370344E+03</totfact>
</mgrwt>
</event>
<event>
 8    1  0.3177960E-004  0.9888150E+02  0.7546771E-02  0.1282749E+00
         -2   -1    0    0    0  501 -0.00000000000E+00  0.00000000000E+00  0.87929453677E+01  0.87929453677E+01  0.00000000000E+00 0.  1.
          2   -1    0    0  501    0  0.00000000000E+00 -0.00000000000E+00 -0.11349319150E+04  0.11349319150E+04  0.00000000000E+00 0. -1.
         23    2    1    2    0    0 -0.13628069449E+02  0.34063050756E+02 -0.64701051687E+03  0.65449932335E+03  0.91655548764E+02 0.  0.
         23    2    1    2    0    0  0.13628069449E+02 -0.34063050756E+02 -0.47912845279E+03  0.48922553705E+03  0.91823396378E+02 0.  0.
          5    1    3    3  502    0 -0.44524721401E+02  0.17667289546E+00 -0.19159516371E+03  0.19675690277E+03  0.47000000000E+01 0. -1.
         -5    1    4    4    0  503 -0.11688306443E+01  0.31243472880E+02 -0.14158362342E+03  0.14507078680E+03  0.47000000000E+01 0.  1.
          5    1    4    4  503    0  0.14796900093E+02 -0.65306523636E+02 -0.33754482937E+03  0.34415475024E+03  0.47000000000E+01 0. -1.
         -5    1    3    3    0  502  0.30896651952E+02  0.33886377861E+02 -0.45541535316E+03  0.45774242058E+03  0.47000000000E+01 0.  1.
<mgrwt>
<rscale>  0 0.98842519E+02</rscale>
<asrwt>0</asrwt>
<pdfrwt beam="1">  1        2 0.17460487E+00 0.98881504E+02</pdfrwt>
<pdfrwt beam="2">  1       -2 0.13527611E-02 0.98881504E+02</pdfrwt>
<totfact> 0.27716601E+04</totfact>
</mgrwt>
</event>
<event>
 8    1  0.3177960E-004  0.1023631E+03  0.7546771E-02  0.1277249E+00
          2   -1    0    0  501    0  0.00000000000E+00  0.00000000000E+00  0.16382417195E+03  0.16382417195E+03  0.00000000000E+00 0. -1.
         -2   -1    0    0    0  501 -0.00000000000E+00 -0.00000000000E+00 -0.83777387172E+02  0.83777387172E+02  0.00000000000E+00 0.  1.
         23    2    1    2    0    0  0.34888884846E+02 -0.17333162005E+02  0.10400424565E+03  0.14592837814E+03  0.94660105868E+02 0.  0.
         23    2    1    2    0    0 -0.34888884846E+02  0.17333162005E+02 -0.23957460875E+02  0.10167318098E+03  0.90806404001E+02 0.  0.
          5    1    4    4  502    0  0.56560150881E+01 -0.21745948792E+02  0.19711945446E+02  0.30257686442E+02  0.47000000000E+01 0. -1.
         -5    1    4    4    0  502 -0.40544899934E+02  0.39079110797E+02 -0.43669406321E+02  0.71415494536E+02  0.47000000000E+01 0.  1.
          5    1    3    3  503    0  0.60662524313E+02 -0.17635586709E+02  0.35573648264E+02  0.72653494241E+02  0.47000000000E+01 0. -1.
         -5    1    3    3    0  503 -0.25773639466E+02  0.30242470367E+00  0.68430597389E+02  0.73274883903E+02  0.47000000000E+01 0.  1.
<mgrwt>
<rscale>  0 0.10146312E+03</rscale>
<asrwt>0</asrwt>
<pdfrwt beam="1">  1        2 0.25203719E-01 0.10236312E+03</pdfrwt>
<pdfrwt beam="2">  1       -2 0.12888829E-01 0.10236312E+03</pdfrwt>
<totfact> 0.86553128E+03</totfact>
</mgrwt>
</event>
<event>
 8    1  0.3177960E-004  0.1066140E+03  0.7546771E-02  0.1267115E+00
         -2   -1    0    0    0  501 -0.00000000000E+00  0.00000000000E+00  0.20744260962E+02  0.20744260962E+02  0.00000000000E+00 0.  1.
          2   -1    0    0  501    0  0.00000000000E+00 -0.00000000000E+00 -0.55240078918E+03  0.55240078918E+03  0.00000000000E+00 0. -1.
         23    2    1    2    0    0 -0.50783791356E+02  0.25165548422E+02 -0.29529754693E+03  0.31385350052E+03  0.89950432338E+02 0.  0.
         23    2    1    2    0    0  0.50783791356E+02 -0.25165548422E+02 -0.23635898130E+03  0.25929154962E+03  0.90300838173E+02 0.  0.
          5    1    3    3  502    0 -0.38805637927E+02  0.21087401380E+01 -0.28121889402E+03  0.28393041520E+03  0.47000000000E+01 0. -1.
         -5    1    4    4    0  503  0.25151065199E+02  0.24569500716E+02 -0.33449062236E+02  0.48756191510E+02  0.47000000000E+01 0.  1.
          5    1    4    4  503    0  0.25632726156E+02 -0.49735049138E+02 -0.20290991906E+03  0.21053535811E+03  0.47000000000E+01 0. -1.
         -5    1    3    3    0  502 -0.11978153429E+02  0.23056808284E+02 -0.14078652908E+02  0.29923085328E+02  0.47000000000E+01 0.  1.
<mgrwt>
<rscale>  0 0.10653974E+03</rscale>
<asrwt>0</asrwt>
<pdfrwt beam="1">  1        2 0.84984752E-01 0.10661398E+03</pdfrwt>
<pdfrwt beam="2">  1       -2 0.31914242E-02 0.10661398E+03</pdfrwt>
<totfact> 0.19778384E+04</totfact>
</mgrwt>
</event>
<event>
 8    1  0.3177960E-004  0.1081333E+03  0.7546771E-02  0.1264724E+00
          2   -1    0    0  501    0  0.00000000000E+00  0.00000000000E+00  0.61471198376E+02  0.61471198376E+02  0.00000000000E+00 0. -1.
         -2   -1    0    0    0  501 -0.00000000000E+00 -0.00000000000E+00 -0.30105029834E+03  0.30105029834E+03  0.00000000000E+00 0.  1.
         23    2    1    2    0    0 -0.47546880617E+02  0.28083906778E+02 -0.23048385932E+03  0.25400633125E+03  0.91361891579E+02 0.  0.
         23    2    1    2    0    0  0.47546880617E+02 -0.28083906778E+02 -0.90952406463E+01  0.10851516547E+03  0.92969920176E+02 0.  0.
          5    1    3    3  502    0  0.27305711965E+02  0.10517250379E+02 -0.59503345559E+02  0.66475202852E+02  0.47000000000E+01 0.  1.
         -5    1    4    4    0  503  0.45800998412E+02  0.10223523583E+02 -0.37753282590E+02  0.60412351687E+02  0.47000000000E+01 0.  1.
          5    1    4    4  503    0  0.17458822049E+01 -0.38307430361E+02  0.28658041944E+02  0.48102813780E+02  0.47000000000E+01 0. -1.
         -5    1    3    3    0  502 -0.74852592582E+02  0.17566656399E+02 -0.17098051376E+03  0.18753112840E+03  0.47000000000E+01 0. -1.
<mgrwt>
<rscale>  0 0.10778683E+03</rscale>
<asrwt>0</asrwt>
<pdfrwt beam="1">  1        2 0.94571074E-02 0.10813333E+03</pdfrwt>
<pdfrwt beam="2">  1       -2 0.46315431E-01 0.10813333E+03</pdfrwt>
<totfact> 0.29100175E+03</totfact>
</mgrwt>
</event>
<event>
 8    1  0.3177960E-004  0.1922480E+03  0.7546771E-02  0.1160843E+00
         -1   -1    0    0    0  501 -0.00000000000E+00  0.00000000000E+00  0.20039918622E+03  0.20039918622E+03  0.00000000000E+00 0.  1.
          1   -1    0    0  501    0  0.00000000000E+00 -0.00000000000E+00 -0.46301221159E+03  0.46301221159E+03  0.00000000000E+00 0. -1.
         23    2    1    2    0    0  0.12642374902E+03  0.76369223199E+02  0.13626197656E+03  0.22062413443E+03  0.91062944539E+02 0.  0.
         23    2    1    2    0    0 -0.12642374902E+03 -0.76369223199E+02 -0.39887500194E+03  0.44278726338E+03  0.12306124848E+03 0.  0.
          5    1    4    4  502    0 -0.89677902492E+02 -0.54442084784E+02 -0.38262429136E+03  0.39677387153E+03  0.47000000000E+01 0. -1.
         -5    1    4    4    0  502 -0.36745846524E+02 -0.21927138415E+02 -0.16250710580E+02  0.46013391857E+02  0.47000000000E+01 0.  1.
          5    1    3    3  503    0  0.27344014937E+02  0.57277886011E+02  0.20224852180E+02  0.66780131959E+02  0.47000000000E+01 0. -1.
         -5    1    3    3    0  503  0.99079734078E+02  0.19091337188E+02  0.11603712438E+03  0.15384400247E+03  0.47000000000E+01 0.  1.
<mgrwt>
<rscale>  0 0.18738337E+03</rscale>
<asrwt>0</asrwt>
<pdfrwt beam="1">  1        1 0.71232647E-01 0.19224800E+03</pdfrwt>
<pdfrwt beam="2">  1       -1 0.30830644E-01 0.19224800E+03</pdfrwt>
<totfact> 0.49233045E+02</totfact>
</mgrwt>
</event>
<event>
 8    1  0.3177960E-004  0.1360004E+03  0.7546771E-02  0.1219444E+00
          2   -1    0    0  501    0  0.00000000000E+00  0.00000000000E+00  0.60210652171E+03  0.60210652171E+03  0.00000000000E+00 0. -1.
         -2   -1    0    0    0  501 -0.00000000000E+00 -0.00000000000E+00 -0.35525780697E+02  0.35525780697E+02  0.00000000000E+00 0.  1.
         23    2    1    2    0    0 -0.88892071582E+02 -0.49073866988E+02  0.40377401068E+03  0.42549523928E+03  0.87765039386E+02 0.  0.
         23    2    1    2    0    0  0.88892071582E+02  0.49073866988E+02  0.16280673033E+03  0.21213706313E+03  0.90476832943E+02 0.  0.
          5    1    4    4  502    0  0.29741011241E+01  0.39276863871E+02  0.92297448534E+02  0.10046106867E+03  0.47000000000E+01 0. -1.
         -5    1    4    4    0  502  0.85917970458E+02  0.97970031174E+01  0.70509281800E+02  0.11167599446E+03  0.47000000000E+01 0.  1.
          5    1    3    3  503    0 -0.89320812619E+02 -0.52600987993E+01  0.25207496103E+03  0.26752523653E+03  0.47000000000E+01 0. -1.
         -5    1    3    3    0  503  0.42874103702E+00 -0.43813768189E+02  0.15169904966E+03  0.15797000275E+03  0.47000000000E+01 0.  1.
<mgrwt>
<rscale>  0 0.13555095E+03</rscale>
<asrwt>0</asrwt>
<pdfrwt beam="1">  1        2 0.92631765E-01 0.13600038E+03</pdfrwt>
<pdfrwt beam="2">  1       -2 0.54655052E-02 0.13600038E+03</pdfrwt>
<totfact> 0.82288942E+03</totfact>
</mgrwt>
</event>
<event>
 8    1  0.3177960E-004  0.1719896E+03  0.7546771E-02  0.1175807E+00
          1   -1    0    0  501    0  0.00000000000E+00  0.00000000000E+00  0.26628558308E+03  0.26628558308E+03  0.00000000000E+00 0. -1.
         -1   -1    0    0    0  501 -0.00000000000E+00 -0.00000000000E+00 -0.12125740818E+03  0.12125740818E+03  0.00000000000E+00 0.  1.
         23    2    1    2    0    0  0.49058427231E+02  0.13561630351E+03  0.16247713943E+02  0.17268300206E+03  0.93578415960E+02 0.  0.
         23    2    1    2    0    0 -0.49058427231E+02 -0.13561630351E+03  0.12878046095E+03  0.21485998920E+03  0.93711775002E+02 0.  0.
          5    1    3    3  502    0 -0.20475848140E+02  0.59445265180E+02  0.27586072093E+02  0.68819192693E+02  0.47000000000E+01 0. -1.
         -5    1    3    3    0  502  0.69534275371E+02  0.76171038330E+02 -0.11338358150E+02  0.10386380937E+03  0.47000000000E+01 0.  1.
          5    1    4    4  503    0  0.72321783044E+01 -0.97697660876E+02  0.47835011439E+02  0.10912110549E+03  0.47000000000E+01 0. -1.
         -5    1    4    4    0  503 -0.56290605536E+02 -0.37918642634E+02  0.80945449514E+02  0.10573888371E+03  0.47000000000E+01 0.  1.
<mgrwt>
<rscale>  0 0.17197140E+03</rscale>
<asrwt>0</asrwt>
<pdfrwt beam="1">  1        1 0.40967013E-01 0.17198956E+03</pdfrwt>
<pdfrwt beam="2">  1       -1 0.18654986E-01 0.17198956E+03</pdfrwt>
<totfact> 0.22646823E+03</totfact>
</mgrwt>
</event>
<event>
 8    1  0.3177960E-004  0.1180499E+03  0.7546771E-02  0.1246987E+00
         -1   -1    0    0    0  501 -0.00000000000E+00  0.00000000000E+00  0.39658515003E+02  0.39658515003E+02  0.00000000000E+00 0.  1.
          1   -1    0    0  501    0  0.00000000000E+00 -0.00000000000E+00 -0.45506345035E+03  0.45506345035E+03  0.00000000000E+00 0. -1.
         23    2    1    2    0    0 -0.60813209167E+02 -0.41942658601E+02 -0.86114641960E+02  0.14491077773E+03  0.90144156342E+02 0.  0.
         23    2    1    2    0    0  0.60813209167E+02  0.41942658601E+02 -0.32929029339E+03  0.34981118762E+03  0.92077883595E+02 0.  0.
          5    1    4    4  502    0 -0.21180606394E+02 -0.65624567508E+01 -0.63727748172E+02  0.67638744910E+02  0.47000000000E+01 0. -1.
         -5    1    4    4    0  502  0.81993815562E+02  0.48505115352E+02 -0.26556254522E+03  0.28217244271E+03  0.47000000000E+01 0.  1.
          5    1    3    3  503    0 -0.76880909825E+02 -0.66074605994E+01 -0.53799245320E+02  0.94184826953E+02  0.47000000000E+01 0. -1.
         -5    1    3    3    0  503  0.16067700658E+02 -0.35335198001E+02 -0.32315396639E+02  0.50725950777E+02  0.47000000000E+01 0.  1.
<mgrwt>
<rscale>  0 0.11767255E+03</rscale>
<asrwt>0</asrwt>
<pdfrwt beam="1">  1        1 0.70009762E-01 0.11804986E+03</pdfrwt>
<pdfrwt beam="2">  1       -1 0.61013100E-02 0.11804986E+03</pdfrwt>
<totfact> 0.63369250E+03</totfact>
</mgrwt>
</event>
<event>
 8    1  0.3177960E-004  0.1086313E+03  0.7546771E-02  0.1263234E+00
         -1   -1    0    0    0  501 -0.00000000000E+00  0.00000000000E+00  0.18524447153E+03  0.18524447153E+03  0.00000000000E+00 0.  1.
          1   -1    0    0  501    0  0.00000000000E+00 -0.00000000000E+00 -0.12400844441E+03  0.12400844441E+03  0.00000000000E+00 0. -1.
         23    2    1    2    0    0 -0.29325996152E+02 -0.52881536698E+02  0.13854990542E+03  0.17591799258E+03  0.89969955241E+02 0.  0.
         23    2    1    2    0    0  0.29325996152E+02  0.52881536698E+02 -0.77313878300E+02  0.13333492336E+03  0.90245748022E+02 0.  0.
          5    1    4    4  502    0  0.26539813715E+02  0.77653006686E+02 -0.50738468411E+02  0.96596238726E+02  0.47000000000E+01 0. -1.
         -5    1    4    4    0  502  0.27861824367E+01 -0.24771469988E+02 -0.26575409890E+02  0.36738684635E+02  0.47000000000E+01 0.  1.
          5    1    3    3  503    0 -0.36258192410E+02 -0.19896959007E+02  0.98224966567E+01  0.42768176663E+02  0.47000000000E+01 0. -1.
         -5    1    3    3    0  503  0.69321962580E+01 -0.32984577691E+02  0.12872740876E+03  0.13314981591E+03  0.47000000000E+01 0.  1.
<mgrwt>
<rscale>  0 0.10857403E+03</rscale>
<asrwt>0</asrwt>
<pdfrwt beam="1">  1        1 0.19078222E-01 0.10863133E+03</pdfrwt>
<pdfrwt beam="2">  1       -1 0.28499149E-01 0.10863133E+03</pdfrwt>
<totfact> 0.28938349E+03</totfact>
</mgrwt>
</event>
<event>
 8    1  0.3177960E-004  0.1110647E+03  0.7546771E-02  0.1261117E+00
         -2   -1    0    0    0  501 -0.00000000000E+00  0.00000000000E+00  0.28065425010E+03  0.28065425010E+03  0.00000000000E+00 0.  1.
          2   -1    0    0  501    0  0.00000000000E+00 -0.00000000000E+00 -0.89818019027E+02  0.89818019027E+02  0.00000000000E+00 0. -1.
         23    2    1    2    0    0 -0.45328242716E+02  0.44588105892E+02  0.23184272321E+03  0.25707276503E+03  0.91063765817E+02 0.  0.
         23    2    1    2    0    0  0.45328242716E+02 -0.44588105892E+02 -0.41006492134E+02  0.11339950409E+03  0.84469913912E+02 0.  0.
          5    1    3    3  502    0  0.25796096677E+02  0.68098585799E+01  0.34409726579E+02  0.43794201224E+02  0.47000000000E+01 0. -1.
         -5    1    3    3    0  502 -0.71124339393E+02  0.37778247312E+02  0.19743299663E+03  0.21327856381E+03  0.47000000000E+01 0.  1.
          5    1    4    4  503    0  0.50198950724E+02  0.25022730357E+01 -0.42221152380E+02  0.65809662911E+02  0.47000000000E+01 0. -1.
         -5    1    4    4    0  503 -0.48707080085E+01 -0.47090378927E+02  0.12146602462E+01  0.47589841180E+02  0.47000000000E+01 0.  1.
<mgrwt>
<rscale>  0 0.10970515E+03</rscale>
<asrwt>0</asrwt>
<pdfrwt beam="1">  1        2 0.13818157E-01 0.11106466E+03</pdfrwt>
<pdfrwt beam="2">  1       -2 0.43177577E-01 0.11106466E+03</pdfrwt>
<totfact> 0.21158392E+03</totfact>
</mgrwt>
</event>
<event>
 8    1  0.3177960E-004  0.1028213E+03  0.7546771E-02  0.1276009E+00
          1   -1    0    0  501    0  0.00000000000E+00  0.00000000000E+00  0.27841976436E+03  0.27841976436E+03  0.00000000000E+00 0. -1.
         -1   -1    0    0    0  501 -0.00000000000E+00 -0.00000000000E+00 -0.42707394263E+02  0.42707394263E+02  0.00000000000E+00 0.  1.
         23    2    1    2    0    0  0.42790706815E+02 -0.32066858440E+00  0.17567261325E+03  0.20205994786E+03  0.90200931616E+02 0.  0.
         23    2    1    2    0    0 -0.42790706815E+02  0.32066858440E+00  0.60039756843E+02  0.11906721076E+03  0.93493747698E+02 0.  0.
          5    1    4    4  502    0 -0.37673553708E+02 -0.21886309201E+02 -0.10267894817E+02  0.45009186211E+02  0.47000000000E+01 0. -1.
         -5    1    3    3    0  503  0.33778835079E+02  0.25745155808E+02  0.26487727902E+02  0.50274371963E+02  0.47000000000E+01 0.  1.
          5    1    3    3  503    0  0.90118717358E+01 -0.26065824393E+02  0.14918488535E+03  0.15178557590E+03  0.47000000000E+01 0. -1.
         -5    1    4    4    0  502 -0.51171531064E+01  0.22206977785E+02  0.70307651660E+02  0.74058024550E+02  0.47000000000E+01 0.  1.
<mgrwt>
<rscale>  0 0.10206690E+03</rscale>
<asrwt>0</asrwt>
<pdfrwt beam="1">  1        1 0.42833809E-01 0.10282134E+03</pdfrwt>
<pdfrwt beam="2">  1       -1 0.65703685E-02 0.10282134E+03</pdfrwt>
<totfact> 0.10349244E+04</totfact>
</mgrwt>
</event>
<event>
 8    1  0.3177960E-004  0.1059743E+03  0.7546771E-02  0.1271034E+00
          1   -1    0    0  501    0  0.00000000000E+00  0.00000000000E+00  0.14387624878E+04  0.14387624878E+04  0.00000000000E+00 0. -1.
         -1   -1    0    0    0  501 -0.00000000000E+00 -0.00000000000E+00 -0.74201531204E+01  0.74201531204E+01  0.00000000000E+00 0.  1.
         23    2    1    2    0    0 -0.36348799235E+02 -0.21143283537E+02  0.77612244870E+03  0.78332407258E+03  0.97274218921E+02 0.  0.
         23    2    1    2    0    0  0.36348799235E+02  0.21143283537E+02  0.65521988596E+03  0.66285856832E+03  0.91104933955E+02 0.  0.
          5    1    4    4  502    0  0.34797361838E+02 -0.26253514902E+02  0.18030861009E+03  0.18556235692E+03  0.47000000000E+01 0.  1.
         -5    1    3    3    0  503  0.17115853589E+02 -0.43725816576E+02  0.30804113991E+03  0.31163493603E+03  0.47000000000E+01 0.  1.
          5    1    3    3  503    0 -0.53464652824E+02  0.22582533040E+02  0.46808130879E+03  0.47168913655E+03  0.47000000000E+01 0. -1.
         -5    1    4    4    0  502  0.15514373972E+01  0.47396798439E+02  0.47491127587E+03  0.47729621140E+03  0.47000000000E+01 0. -1.
<mgrwt>
<rscale>  0 0.10453707E+03</rscale>
<asrwt>0</asrwt>
<pdfrwt beam="1">  1        1 0.22134785E+00 0.10597428E+03</pdfrwt>
<pdfrwt beam="2">  1       -1 0.11415632E-02 0.10597428E+03</pdfrwt>
<totfact> 0.11668909E+04</totfact>
</mgrwt>
</event>
<event>
 8    1  0.3177960E-004  0.1507347E+03  0.7546771E-02  0.1200456E+00
          2   -1    0    0  501    0  0.00000000000E+00  0.00000000000E+00  0.97561037510E+03  0.97561037510E+03  0.00000000000E+00 0. -1.
         -2   -1    0    0    0  501 -0.00000000000E+00 -0.00000000000E+00 -0.23029605541E+02  0.23029605541E+02  0.00000000000E+00 0.  1.
         23    2    1    2    0    0 -0.52107535417E+02 -0.10663527912E+03  0.43655210554E+03  0.46184270504E+03  0.92922900028E+02 0.  0.
         23    2    1    2    0    0  0.52107535417E+02  0.10663527912E+03  0.51602866403E+03  0.53679727560E+03  0.88201218800E+02 0.  0.
          5    1    3    3  502    0 -0.55548055468E+02 -0.15724001358E+02  0.20466746374E+03  0.21270564497E+03  0.47000000000E+01 0. -1.
         -5    1    4    4    0  503  0.55833071885E+02  0.71843647108E+02  0.21230898441E+03  0.23103254405E+03  0.47000000000E+01 0.  1.
          5    1    4    4  503    0 -0.37255364674E+01  0.34791632017E+02  0.30371967961E+03  0.30576473156E+03  0.47000000000E+01 0. -1.
         -5    1    3    3    0  502  0.34405200510E+01 -0.90911277767E+02  0.23188464179E+03  0.24913706008E+03  0.47000000000E+01 0.  1.
<mgrwt>
<rscale>  0 0.15001352E+03</rscale>
<asrwt>0</asrwt>
<pdfrwt beam="1">  1        2 0.15009387E+00 0.15073468E+03</pdfrwt>
<pdfrwt beam="2">  1       -2 0.35430170E-02 0.15073468E+03</pdfrwt>
<totfact> 0.87169810E+03</totfact>
</mgrwt>
</event>
<event>
 8    1  0.3177960E-004  0.1376142E+03  0.7546771E-02  0.1229893E+00
          1   -1    0    0  501    0  0.00000000000E+00  0.00000000000E+00  0.25146635978E+03  0.25146635978E+03  0.00000000000E+00 0. -1.
         -1   -1    0    0    0  501 -0.00000000000E+00 -0.00000000000E+00 -0.70798706336E+02  0.70798706336E+02  0.00000000000E+00 0.  1.
         23    2    1    2    0    0 -0.48849896379E+02 -0.25610571417E+02  0.16819439546E+03  0.21731781372E+03  0.12607721346E+03 0.  0.
         23    2    1    2    0    0  0.48849896379E+02  0.25610571417E+02  0.12473257983E+02  0.10494725239E+03  0.88408878937E+02 0.  0.
          5    1    3    3  502    0 -0.87167686952E+02 -0.14290856636E+02  0.75598602173E+02  0.11636010004E+03  0.47000000000E+01 0. -1.
         -5    1    3    3    0  502  0.38317790572E+02 -0.11319714780E+02  0.92595793287E+02  0.10095771368E+03  0.47000000000E+01 0.  1.
          5    1    4    4  503    0  0.19341920804E+02  0.17285014821E+02  0.49840789793E+02  0.56383295088E+02  0.47000000000E+01 0. -1.
         -5    1    4    4    0  503  0.29507975575E+02  0.83255565954E+01 -0.37367531811E+02  0.48563957302E+02  0.47000000000E+01 0.  1.
<mgrwt>
<rscale>  0 0.12837131E+03</rscale>
<asrwt>0</asrwt>
<pdfrwt beam="1">  1        1 0.38687132E-01 0.13761423E+03</pdfrwt>
<pdfrwt beam="2">  1       -1 0.10892109E-01 0.13761423E+03</pdfrwt>
<totfact> 0.55910943E+03</totfact>
</mgrwt>
</event>
<event>
 8    1  0.3177960E-004  0.9933558E+02  0.7546771E-02  0.1285601E+00
         -1   -1    0    0    0  501 -0.00000000000E+00  0.00000000000E+00  0.16308270087E+02  0.16308270087E+02  0.00000000000E+00 0.  1.
          1   -1    0    0  501    0  0.00000000000E+00 -0.00000000000E+00 -0.73541610596E+03  0.73541610596E+03  0.00000000000E+00 0. -1.
         23    2    1    2    0    0  0.95556338152E+01  0.35836747641E+01 -0.18769030785E+03  0.21235632352E+03  0.98809936826E+02 0.  0.
         23    2    1    2    0    0 -0.95556338152E+01 -0.35836747641E+01 -0.53141752803E+03  0.53936805253E+03  0.91701440195E+02 0.  0.
          5    1    4    4  502    0  0.37095141522E+02 -0.77981121398E-01 -0.34866065344E+03  0.35065994476E+03  0.47000000000E+01 0. -1.
         -5    1    3    3    0  503  0.51871368096E+02  0.13661670703E+01 -0.13416748699E+03  0.14392883591E+03  0.47000000000E+01 0.  1.
          5    1    3    3  503    0 -0.42315734280E+02  0.22175076937E+01 -0.53522820861E+02  0.68427487612E+02  0.47000000000E+01 0. -1.
         -5    1    4    4    0  502 -0.46650775338E+02 -0.35056936427E+01 -0.18275687459E+03  0.18870810777E+03  0.47000000000E+01 0.  1.
<mgrwt>
<rscale>  0 0.97519372E+02</rscale>
<asrwt>0</asrwt>
<pdfrwt beam="1">  1        1 0.11314091E+00 0.99335575E+02</pdfrwt>
<pdfrwt beam="2">  1       -1 0.25089652E-02 0.99335575E+02</pdfrwt>
<totfact> 0.12017158E+04</totfact>
</mgrwt>
</event>
<event>
 8    1  0.3177960E-004  0.9399462E+02  0.7546771E-02  0.1294082E+00
         -1   -1    0    0    0  501 -0.00000000000E+00  0.00000000000E+00  0.55759042488E+03  0.55759042488E+03  0.00000000000E+00 0.  1.
          1   -1    0    0  501    0  0.00000000000E+00 -0.00000000000E+00 -0.19125890062E+02  0.19125890062E+02  0.00000000000E+00 0. -1.
         23    2    1    2    0    0  0.21883539096E+02 -0.12178548272E+02  0.39066153443E+03  0.40155720203E+03  0.89468126720E+02 0.  0.
         23    2    1    2    0    0 -0.21883539096E+02  0.12178548272E+02  0.14780300039E+03  0.17515911292E+03  0.90596807842E+02 0.  0.
          5    1    3    3  502    0 -0.29733318322E+02  0.15438875047E+02  0.15989007598E+03  0.16342997118E+03  0.47000000000E+01 0. -1.
         -5    1    4    4    0  503 -0.46737981725E+02 -0.21220897825E+02  0.72006611696E+02  0.88553981097E+02  0.47000000000E+01 0.  1.
          5    1    4    4  503    0  0.24854442629E+02  0.33399446097E+02  0.75796388697E+02  0.86605131820E+02  0.47000000000E+01 0. -1.
         -5    1    3    3    0  502  0.51616857418E+02 -0.27617423319E+02  0.23077145845E+03  0.23812723086E+03  0.47000000000E+01 0.  1.
<mgrwt>
<rscale>  0 0.93721581E+02</rscale>
<asrwt>0</asrwt>
<pdfrwt beam="1">  1        1 0.29424450E-02 0.93994616E+02</pdfrwt>
<pdfrwt beam="2">  1       -1 0.85783130E-01 0.93994616E+02</pdfrwt>
<totfact> 0.45848999E+03</totfact>
</mgrwt>
</event>
<event>
 8    1  0.3177960E-004  0.9001600E+02  0.7546771E-02  0.1303301E+00
          1   -1    0    0  501    0  0.00000000000E+00  0.00000000000E+00  0.54615718208E+03  0.54615718208E+03  0.00000000000E+00 0. -1.
         -1   -1    0    0    0  501 -0.00000000000E+00 -0.00000000000E+00 -0.19199119184E+02  0.19199119184E+02  0.00000000000E+00 0.  1.
         23    2    1    2    0    0  0.65797361979E+01  0.85348072536E+01  0.12580004053E+03  0.15422294280E+03  0.88560318572E+02 0.  0.
         23    2    1    2    0    0 -0.65797361979E+01 -0.85348072536E+01  0.40115802237E+03  0.41113335847E+03  0.89368583234E+02 0.  0.
          5    1    3    3  502    0 -0.16035459207E+02 -0.31333284684E+02  0.25110534288E+02  0.43491833869E+02  0.47000000000E+01 0. -1.
         -5    1    4    4    0  503  0.66428416695E+01  0.39229857854E+02  0.16649773293E+03  0.17125038442E+03  0.47000000000E+01 0.  1.
          5    1    4    4  503    0 -0.13222577867E+02 -0.47764665107E+02  0.23466028944E+03  0.23988297404E+03  0.47000000000E+01 0. -1.
         -5    1    3    3    0  502  0.22615195405E+02  0.39868091938E+02  0.10068950624E+03  0.11073110893E+03  0.47000000000E+01 0.  1.
<mgrwt>
<rscale>  0 0.89814722E+02</rscale>
<asrwt>0</asrwt>
<pdfrwt beam="1">  1        1 0.84024170E-01 0.90015996E+02</pdfrwt>
<pdfrwt beam="2">  1       -1 0.29537111E-02 0.90015996E+02</pdfrwt>
<totfact> 0.14154003E+04</totfact>
</mgrwt>
</event>
<event>
 8    1  0.3177960E-004  0.9861415E+02  0.7546771E-02  0.1283392E+00
         -1   -1    0    0    0  501 -0.00000000000E+00  0.00000000000E+00  0.13950454244E+02  0.13950454244E+02  0.00000000000E+00 0.  1.
          1   -1    0    0  501    0  0.00000000000E+00 -0.00000000000E+00 -0.81543248544E+03  0.81543248544E+03  0.00000000000E+00 0. -1.
         23    2    1    2    0    0 -0.38987193008E+02  0.48497946991E+01 -0.56057081599E+03  0.56917869835E+03  0.90450147508E+02 0.  0.
         23    2    1    2    0    0  0.38987193008E+02 -0.48497946991E+01 -0.24091121520E+03  0.26020424134E+03  0.90136074190E+02 0.  0.
          5    1    4    4  502    0 -0.65004564842E+01 -0.39369650714E+02 -0.82842416626E+02  0.92071609763E+02  0.47000000000E+01 0. -1.
         -5    1    4    4    0  502  0.45487649493E+02  0.34519856015E+02 -0.15806879858E+03  0.16813263157E+03  0.47000000000E+01 0.  1.
          5    1    3    3  503    0 -0.36064168314E+02 -0.31736152288E+02 -0.44998747975E+03  0.45256892241E+03  0.47000000000E+01 0. -1.
         -5    1    3    3    0  503 -0.29230246946E+01  0.36585946987E+02 -0.11058333624E+03  0.11660977594E+03  0.47000000000E+01 0.  1.
<mgrwt>
<rscale>  0 0.98542075E+02</rscale>
<asrwt>0</asrwt>
<pdfrwt beam="1">  1        1 0.12545111E+00 0.98614152E+02</pdfrwt>
<pdfrwt beam="2">  1       -1 0.21462245E-02 0.98614152E+02</pdfrwt>
<totfact> 0.12913281E+04</totfact>
</mgrwt>
</event>
<event>
 8    1  0.3177960E-004  0.1012310E+03  0.7546771E-02  0.1277758E+00
          2   -1    0    0  501    0  0.00000000000E+00  0.00000000000E+00  0.43610353335E+03  0.43610353335E+03  0.00000000000E+00 0. -1.
         -2   -1    0    0    0  501 -0.00000000000E+00 -0.00000000000E+00 -0.79860651146E+02  0.79860651146E+02  0.00000000000E+00 0.  1.
         23    2    1    2    0    0 -0.30649483862E+02  0.28913913807E+02 -0.38618588309E+02  0.10834718231E+03  0.92045158913E+02 0.  0.
         23    2    1    2    0    0  0.30649483862E+02 -0.28913913807E+02  0.39486147052E+03  0.40761700219E+03  0.91981706343E+02 0.  0.
          5    1    3    3  502    0 -0.24205546297E+02 -0.72583852324E+01  0.24276072325E+02  0.35355484939E+02  0.47000000000E+01 0. -1.
         -5    1    3    3    0  502 -0.64439375647E+01  0.36172299039E+02 -0.62894660634E+02  0.72991697373E+02  0.47000000000E+01 0.  1.
          5    1    4    4  503    0 -0.18918877298E+01 -0.57278636962E+02  0.21072367048E+03  0.21842842487E+03  0.47000000000E+01 0. -1.
         -5    1    4    4    0  503  0.32541371592E+02  0.28364723155E+02  0.18413780003E+03  0.18918857731E+03  0.47000000000E+01 0.  1.
<mgrwt>
<rscale>  0 0.10121658E+03</rscale>
<asrwt>0</asrwt>
<pdfrwt beam="1">  1        2 0.67092850E-01 0.10123101E+03</pdfrwt>
<pdfrwt beam="2">  1       -2 0.12286254E-01 0.10123101E+03</pdfrwt>
<totfact> 0.33033908E+03</totfact>
</mgrwt>
</event>
<event>
 8    1  0.3177960E-004  0.9257210E+02  0.7546771E-02  0.1299282E+00
         -1   -1    0    0    0  501 -0.00000000000E+00  0.00000000000E+00  0.19551222080E+02  0.19551222080E+02  0.00000000000E+00 0.  1.
          1   -1    0    0  501    0  0.00000000000E+00 -0.00000000000E+00 -0.44289954521E+03  0.44289954521E+03  0.00000000000E+00 0. -1.
         23    2    1    2    0    0  0.10864422784E+02  0.11250997627E+02 -0.16202341737E+03  0.18660434463E+03  0.91241290151E+02 0.  0.
         23    2    1    2    0    0 -0.10864422784E+02 -0.11250997627E+02 -0.26132490576E+03  0.27584642266E+03  0.86924805978E+02 0.  0.
          5    1    4    4  502    0 -0.41560345132E+02  0.18895368341E+01 -0.21201709704E+03  0.21611148066E+03  0.47000000000E+01 0. -1.
         -5    1    3    3    0  503  0.58092190194E+01 -0.39185353346E+02 -0.53507105085E+02  0.66740836352E+02  0.47000000000E+01 0.  1.
          5    1    3    3  503    0  0.50552037647E+01  0.50436350973E+02 -0.10851631229E+03  0.11986350828E+03  0.47000000000E+01 0. -1.
         -5    1    4    4    0  502  0.30695922348E+02 -0.13140534461E+02 -0.49307808717E+02  0.59734941995E+02  0.47000000000E+01 0.  1.
<mgrwt>
<rscale>  0 0.91490434E+02</rscale>
<asrwt>0</asrwt>
<pdfrwt beam="1">  1        1 0.68138387E-01 0.92572100E+02</pdfrwt>
<pdfrwt beam="2">  1       -1 0.30078805E-02 0.92572100E+02</pdfrwt>
<totfact> 0.18085225E+04</totfact>
</mgrwt>
</event>
<event>
 8    1  0.3177960E-004  0.1057041E+03  0.7546771E-02  0.1274466E+00
          2   -1    0    0  501    0  0.00000000000E+00  0.00000000000E+00  0.16921647711E+02  0.16921647711E+02  0.00000000000E+00 0. -1.
         -2   -1    0    0    0  501 -0.00000000000E+00 -0.00000000000E+00 -0.78041340709E+03  0.78041340709E+03  0.00000000000E+00 0.  1.
         23    2    1    2    0    0 -0.24476197251E+02 -0.99063692902E+01 -0.59287380466E+03  0.60222313830E+03  0.10235301493E+03 0.  0.
         23    2    1    2    0    0  0.24476197251E+02  0.99063692902E+01 -0.17061795472E+03  0.19511191650E+03  0.90889785482E+02 0.  0.
          5    1    3    3  502    0  0.25395929250E+02 -0.36485417990E+02 -0.34854482922E+03  0.35139966836E+03  0.47000000000E+01 0. -1.
         -5    1    4    4    0  503 -0.22059978361E+02  0.29625060445E+02 -0.10953856896E+03  0.11569388464E+03  0.47000000000E+01 0.  1.
          5    1    4    4  503    0  0.46536175612E+02 -0.19718691155E+02 -0.61079385754E+02  0.79418031866E+02  0.47000000000E+01 0. -1.
         -5    1    3    3    0  502 -0.49872126501E+02  0.26579048699E+02 -0.24432897544E+03  0.25082346993E+03  0.47000000000E+01 0.  1.
<mgrwt>
<rscale>  0 0.10282444E+03</rscale>
<asrwt>0</asrwt>
<pdfrwt beam="1">  1        2 0.26033299E-02 0.10570412E+03</pdfrwt>
<pdfrwt beam="2">  1       -2 0.12006362E+00 0.10570412E+03</pdfrwt>
<totfact> 0.19840938E+03</totfact>
</mgrwt>
</event>
<event>
 8    1  0.3592036E-004  0.1068330E+03  0.7546771E-02  0.1267634E+00
          1   -1    0    0  501    0  0.00000000000E+00  0.00000000000E+00  0.10113281098E+03  0.10113281098E+03  0.00000000000E+00 0. -1.
         -1   -1    0    0    0  501 -0.00000000000E+00 -0.00000000000E+00 -0.29043110492E+03  0.29043110492E+03  0.00000000000E+00 0.  1.
         23    2    1    2    0    0 -0.43120972797E+02  0.32950137238E+02  0.59821875442E+02  0.12050274631E+03  0.89426647298E+02 0.  0.
         23    2    1    2    0    0  0.43120972797E+02 -0.32950137238E+02 -0.24912016939E+03  0.27106116959E+03  0.92022654969E+02 0.  0.
          5    1    3    3  502    0 -0.66204370152E+02  0.17079711890E+02  0.19634235854E+02  0.71290450994E+02  0.47000000000E+01 0. -1.
         -5    1    4    4    0  503  0.57634007589E+02  0.10697937536E+02 -0.16349936207E+03  0.17375343477E+03  0.47000000000E+01 0.  1.
          5    1    4    4  503    0 -0.14513034792E+02 -0.43648074774E+02 -0.85620807316E+02  0.97307734820E+02  0.47000000000E+01 0. -1.
         -5    1    3    3    0  502  0.23083397355E+02  0.15870425348E+02  0.40187639589E+02  0.49212295312E+02  0.47000000000E+01 0.  1.
<mgrwt>
<rscale>  0 0.10627168E+03</rscale>
<asrwt>0</asrwt>
<pdfrwt beam="1">  1        1 0.15558894E-01 0.10683304E+03</pdfrwt>
<pdfrwt beam="2">  1       -1 0.44681707E-01 0.10683304E+03</pdfrwt>
<totfact> 0.17354631E+03</totfact>
</mgrwt>
</event>
<event>
 8    1  0.3177960E-004  0.1003094E+03  0.7546771E-02  0.1280133E+00
         -2   -1    0    0    0  501 -0.00000000000E+00  0.00000000000E+00  0.12277109439E+03  0.12277109439E+03  0.00000000000E+00 0.  1.
          2   -1    0    0  501    0  0.00000000000E+00 -0.00000000000E+00 -0.10861656450E+03  0.10861656450E+03  0.00000000000E+00 0. -1.
         23    2    1    2    0    0 -0.31487240493E+02 -0.27650539885E+02  0.65223377233E+02  0.11964977801E+03  0.91137159110E+02 0.  0.
         23    2    1    2    0    0  0.31487240493E+02  0.27650539885E+02 -0.51068847344E+02  0.11173788087E+03  0.90118412012E+02 0.  0.
          5    1    3    3  502    0  0.28689540605E+02 -0.10580951351E+02  0.26533930800E+01  0.31051195895E+02  0.47000000000E+01 0. -1.
         -5    1    3    3    0  502 -0.60176781099E+02 -0.17069588534E+02  0.62569984153E+02  0.88598582116E+02  0.47000000000E+01 0.  1.
          5    1    4    4  503    0  0.34301070403E+02  0.54982553953E+02 -0.52922858124E+02  0.83800737360E+02  0.47000000000E+01 0. -1.
         -5    1    4    4    0  503 -0.28138299104E+01 -0.27332014068E+02  0.18540107804E+01  0.27937143515E+02  0.47000000000E+01 0.  1.
<mgrwt>
<rscale>  0 0.10007745E+03</rscale>
<asrwt>0</asrwt>
<pdfrwt beam="1">  1        2 0.16710241E-01 0.10030942E+03</pdfrwt>
<pdfrwt beam="2">  1       -2 0.18887861E-01 0.10030942E+03</pdfrwt>
<totfact> 0.73364316E+03</totfact>
</mgrwt>
</event>
<event>
 8    1  0.3177960E-004  0.9653208E+02  0.7546771E-02  0.1288760E+00
          1   -1    0    0  501    0  0.00000000000E+00  0.00000000000E+00  0.39646634124E+02  0.39646634124E+02  0.00000000000E+00 0. -1.
         -1   -1    0    0    0  501 -0.00000000000E+00 -0.00000000000E+00 -0.53692519245E+03  0.53692519245E+03  0.00000000000E+00 0.  1.
         23    2    1    2    0    0 -0.21840267651E+02  0.16896516139E+02 -0.46735284929E+03  0.47721811442E+03  0.92498396967E+02 0.  0.
         23    2    1    2    0    0  0.21840267651E+02 -0.16896516139E+02 -0.29925709038E+02  0.99353712156E+02  0.90626279352E+02 0.  0.
          5    1    4    4  502    0 -0.11236376261E+02  0.23894935063E+02  0.14426327529E+02  0.30453784644E+02  0.47000000000E+01 0. -1.
         -5    1    3    3    0  503 -0.43484604368E+02 -0.83914993583E+01 -0.39423829042E+03  0.39674582255E+03  0.47000000000E+01 0.  1.
          5    1    3    3  503    0  0.21644336717E+02  0.25288015497E+02 -0.73114558871E+02  0.80472291869E+02  0.47000000000E+01 0. -1.
         -5    1    4    4    0  502  0.33076643911E+02 -0.40791451202E+02 -0.44352036567E+02  0.68899927513E+02  0.47000000000E+01 0.  1.
<mgrwt>
<rscale>  0 0.96080834E+02</rscale>
<asrwt>0</asrwt>
<pdfrwt beam="1">  1        1 0.60994825E-02 0.96532083E+02</pdfrwt>
<pdfrwt beam="2">  1       -1 0.82603872E-01 0.96532083E+02</pdfrwt>
<totfact> 0.18437949E+03</totfact>
</mgrwt>
</event>
<event>
 8    1  0.3177960E-004  0.1027074E+03  0.7546771E-02  0.1277313E+00
         -3   -1    0    0    0  501 -0.00000000000E+00  0.00000000000E+00  0.48431436369E+02  0.48431436369E+02  0.00000000000E+00 0.  1.
          3   -1    0    0  501    0  0.00000000000E+00 -0.00000000000E+00 -0.41402562608E+03  0.41402562608E+03  0.00000000000E+00 0. -1.
         23    2    1    2    0    0  0.44015557136E+02  0.56255137289E+01 -0.17154020822E+02  0.99194956073E+02  0.87042306985E+02 0.  0.
         23    2    1    2    0    0 -0.44015557136E+02 -0.56255137289E+01 -0.34844016889E+03  0.36326210638E+03  0.92627161021E+02 0.  0.
          5    1    3    3  502    0  0.54256943977E+01 -0.24864068909E+02 -0.37666784405E+02  0.45700511264E+02  0.47000000000E+01 0. -1.
         -5    1    4    4    0  503 -0.36611451731E+02  0.35176714548E+02 -0.26619152272E+03  0.27103102482E+03  0.47000000000E+01 0.  1.
          5    1    4    4  503    0 -0.74041054048E+01 -0.40802228277E+02 -0.82248646165E+02  0.92231081557E+02  0.47000000000E+01 0. -1.
         -5    1    3    3    0  502  0.38589862738E+02  0.30489582638E+02  0.20512763583E+02  0.53494444809E+02  0.47000000000E+01 0.  1.
<mgrwt>
<rscale>  0 0.10143210E+03</rscale>
<asrwt>0</asrwt>
<pdfrwt beam="1">  1        3 0.63696252E-01 0.10270738E+03</pdfrwt>
<pdfrwt beam="2">  1       -3 0.74509900E-02 0.10270738E+03</pdfrwt>
<totfact> 0.64516310E+02</totfact>
</mgrwt>
</event>
<event>
 8    1  0.3177960E-004  0.9444619E+02  0.7546771E-02  0.1294232E+00
         -1   -1    0    0    0  501 -0.00000000000E+00  0.00000000000E+00  0.15159339403E+03  0.15159339403E+03  0.00000000000E+00 0.  1.
          1   -1    0    0  501    0  0.00000000000E+00 -0.00000000000E+00 -0.91093340685E+02  0.91093340685E+02  0.00000000000E+00 0. -1.
         23    2    1    2    0    0  0.44323487873E+01 -0.13899895559E+02  0.10425424934E+03  0.13859776877E+03  0.90152871231E+02 0.  0.
         23    2    1    2    0    0 -0.44323487873E+01  0.13899895559E+02 -0.43754195993E+02  0.10408896594E+03  0.93312541236E+02 0.  0.
          5    1    3    3  502    0 -0.31024989768E+02  0.23780959505E+02  0.45027864889E+02  0.59813732884E+02  0.47000000000E+01 0. -1.
         -5    1    4    4    0  503  0.22415532053E+02  0.46191759165E+02 -0.29994441734E+02  0.59648061385E+02  0.47000000000E+01 0.  1.
          5    1    4    4  503    0 -0.26847880840E+02 -0.32291863606E+02 -0.13759754258E+02  0.44440904559E+02  0.47000000000E+01 0. -1.
         -5    1    3    3    0  502  0.35457338555E+02 -0.37680855065E+02  0.59226384449E+02  0.78784035887E+02  0.47000000000E+01 0.  1.
<mgrwt>
<rscale>  0 0.93656226E+02</rscale>
<asrwt>0</asrwt>
<pdfrwt beam="1">  1        1 0.14014360E-01 0.94446192E+02</pdfrwt>
<pdfrwt beam="2">  1       -1 0.23322061E-01 0.94446192E+02</pdfrwt>
<totfact> 0.58999281E+03</totfact>
</mgrwt>
</event>
<event>
 8    1  0.3177960E-004  0.1046403E+03  0.7546771E-02  0.1271323E+00
         -2   -1    0    0    0  501 -0.00000000000E+00  0.00000000000E+00  0.30446766376E+03  0.30446766376E+03  0.00000000000E+00 0.  1.
          2   -1    0    0  501    0  0.00000000000E+00 -0.00000000000E+00 -0.67800880838E+02  0.67800880838E+02  0.00000000000E+00 0. -1.
         23    2    1    2    0    0  0.41418583204E+02 -0.27361591483E+02 -0.10190744056E+02  0.10414874848E+03  0.90988762066E+02 0.  0.
         23    2    1    2    0    0 -0.41418583204E+02  0.27361591483E+02  0.24685752698E+03  0.26811979612E+03  0.92116397682E+02 0.  0.
          5    1    4    4  502    0  0.11065926323E+02  0.41232635933E+02  0.62180010183E+02  0.75571348127E+02  0.47000000000E+01 0. -1.
         -5    1    3    3    0  503 -0.10363839058E+02 -0.35460434180E+02 -0.30101409958E+02  0.47885660001E+02  0.47000000000E+01 0.  1.
          5    1    3    3  503    0  0.51782422263E+02  0.80988426971E+01  0.19910665902E+02  0.56263088478E+02  0.47000000000E+01 0. -1.
         -5    1    4    4    0  502 -0.52484509528E+02 -0.13871044449E+02  0.18467751680E+03  0.19254844799E+03  0.47000000000E+01 0.  1.
<mgrwt>
<rscale>  0 0.10439156E+03</rscale>
<asrwt>0</asrwt>
<pdfrwt beam="1">  1        2 0.10430905E-01 0.10464027E+03</pdfrwt>
<pdfrwt beam="2">  1       -2 0.46841178E-01 0.10464027E+03</pdfrwt>
<totfact> 0.25210408E+03</totfact>
</mgrwt>
</event>
<event>
 7    1  0.3177960E-004  0.1552949E+03  0.7546771E-02  0.1217646E+00
         -3   -1    0    0    0  501 -0.00000000000E+00  0.00000000000E+00  0.72722513296E+02  0.72722513296E+02  0.00000000000E+00 0.  1.
          3   -1    0    0  501    0  0.00000000000E+00 -0.00000000000E+00 -0.30842623054E+03  0.30842623054E+03  0.00000000000E+00 0. -1.
         23    2    1    2    0    0  0.18324577060E+02  0.15237605689E+02 -0.20141969176E+03  0.22211450325E+03  0.90537205467E+02 0.  0.
          5    1    1    2  502    0 -0.19698790228E+02  0.39888154312E+02 -0.77048818870E+02  0.89093870048E+02  0.47000000000E+01 0. -1.
         -5    1    1    2    0  502  0.13742131680E+01 -0.55125760001E+02  0.42764793386E+02  0.69940370537E+02  0.47000000000E+01 0.  1.
          5    1    3    3  503    0 -0.30284881920E+02  0.17432792342E+02 -0.13570646514E+03  0.14021202161E+03  0.47000000000E+01 0. -1.
         -5    1    3    3    0  503  0.48609458980E+02 -0.21951866535E+01 -0.65713226620E+02  0.81902481644E+02  0.47000000000E+01 0.  1.
<mgrwt>
<rscale>  0 0.13683953E+03</rscale>
<asrwt>0</asrwt>
<pdfrwt beam="1">  1        3 0.47450189E-01 0.15529487E+03</pdfrwt>
<pdfrwt beam="2">  1       -3 0.11188079E-01 0.15529487E+03</pdfrwt>
<totfact> 0.64065293E+02</totfact>
</mgrwt>
</event>
<event>
 8    1  0.3177960E-004  0.1093525E+03  0.7546771E-02  0.1262539E+00
          2   -1    0    0  501    0  0.00000000000E+00  0.00000000000E+00  0.63272685624E+02  0.63272685624E+02  0.00000000000E+00 0. -1.
         -2   -1    0    0    0  501 -0.00000000000E+00 -0.00000000000E+00 -0.25489092227E+03  0.25489092227E+03  0.00000000000E+00 0.  1.
         23    2    1    2    0    0  0.43157978201E+02  0.40890289969E+02 -0.12696485895E+02  0.10847108484E+03  0.89834005786E+02 0.  0.
         23    2    1    2    0    0 -0.43157978201E+02 -0.40890289969E+02 -0.17892175075E+03  0.20969252306E+03  0.91778725410E+02 0.  0.
          5    1    3    3  502    0 -0.25461444223E+01  0.33893726144E+02  0.29837091048E+02  0.45470974539E+02  0.47000000000E+01 0. -1.
         -5    1    3    3    0  502  0.45704122624E+02  0.69965638249E+01 -0.42533576942E+02  0.63000110299E+02  0.47000000000E+01 0.  1.
          5    1    4    4  503    0 -0.45209106119E+02  0.18713457348E+02 -0.89387001011E+02  0.10201069901E+03  0.47000000000E+01 0. -1.
         -5    1    4    4    0  503  0.20511279175E+01 -0.59603747316E+02 -0.89534749738E+02  0.10768182405E+03  0.47000000000E+01 0.  1.
<mgrwt>
<rscale>  0 0.10894342E+03</rscale>
<asrwt>0</asrwt>
<pdfrwt beam="1">  1        2 0.97342595E-02 0.10935246E+03</pdfrwt>
<pdfrwt beam="2">  1       -2 0.39213987E-01 0.10935246E+03</pdfrwt>
<totfact> 0.38613684E+03</totfact>
</mgrwt>
</event>
<event>
 8    1  0.3177960E-004  0.1043082E+03  0.7546771E-02  0.1286929E+00
         -3   -1    0    0    0  501 -0.00000000000E+00  0.00000000000E+00  0.58397037196E+02  0.58397037196E+02  0.00000000000E+00 0.  1.
          3   -1    0    0  501    0  0.00000000000E+00 -0.00000000000E+00 -0.20275696126E+03  0.20275696126E+03  0.00000000000E+00 0. -1.
         23    2    1    2    0    0 -0.47832958807E+02 -0.19238851078E+02  0.62258115211E+01  0.77970301066E+02  0.58159107457E+02 0.  0.
         23    2    1    2    0    0  0.47832958807E+02  0.19238851078E+02 -0.15058573558E+03  0.18318369739E+03  0.90675674185E+02 0.  0.
          5    1    3    3  502    0 -0.22947328478E+02 -0.37194469576E+02  0.13694628960E+02  0.46039562483E+02  0.47000000000E+01 0. -1.
         -5    1    4    4    0  503 -0.61221319540E+01  0.42453399836E+02 -0.45512071592E+02  0.62715311670E+02  0.47000000000E+01 0.  1.
          5    1    4    4  503    0  0.53955090761E+02 -0.23214548758E+02 -0.10507366399E+03  0.12046838572E+03  0.47000000000E+01 0. -1.
         -5    1    3    3    0  502 -0.24885630328E+02  0.17955618498E+02 -0.74688174393E+01  0.31930738582E+02  0.47000000000E+01 0.  1.
<mgrwt>
<rscale>  0 0.96911196E+02</rscale>
<asrwt>0</asrwt>
<pdfrwt beam="1">  1        3 0.31193378E-01 0.10430821E+03</pdfrwt>
<pdfrwt beam="2">  1       -3 0.89841598E-02 0.10430821E+03</pdfrwt>
<totfact> 0.19224140E+03</totfact>
</mgrwt>
</event>
<event>
 8    1  0.3177960E-004  0.1086171E+03  0.7546771E-02  0.1264301E+00
          1   -1    0    0  501    0  0.00000000000E+00  0.00000000000E+00  0.64851556725E+02  0.64851556725E+02  0.00000000000E+00 0. -1.
         -1   -1    0    0    0  501 -0.00000000000E+00 -0.00000000000E+00 -0.18563629747E+03  0.18563629747E+03  0.00000000000E+00 0.  1.
         23    2    1    2    0    0 -0.39641097478E+02  0.37940146095E+02 -0.86600167394E+02  0.13891458299E+03  0.93737938321E+02 0.  0.
         23    2    1    2    0    0  0.39641097478E+02 -0.37940146095E+02 -0.34184573346E+02  0.11157327120E+03  0.90934803545E+02 0.  0.
          5    1    4    4  502    0  0.62368771278E+01  0.20654022966E+02 -0.37897026448E+02  0.43860710375E+02  0.47000000000E+01 0. -1.
         -5    1    4    4    0  502  0.33404220350E+02 -0.58594169060E+02  0.37124531024E+01  0.67712560822E+02  0.47000000000E+01 0.  1.
          5    1    3    3  503    0 -0.30906285430E+02  0.67050870483E+02 -0.43032140072E+02  0.85585470676E+02  0.47000000000E+01 0. -1.
         -5    1    3    3    0  503 -0.87348120481E+01 -0.29110724388E+02 -0.43568027322E+02  0.53329112318E+02  0.47000000000E+01 0.  1.
<mgrwt>
<rscale>  0 0.10800959E+03</rscale>
<asrwt>0</asrwt>
<pdfrwt beam="1">  1        1 0.99771628E-02 0.10861709E+03</pdfrwt>
<pdfrwt beam="2">  1       -1 0.28559430E-01 0.10861709E+03</pdfrwt>
<totfact> 0.66644250E+03</totfact>
</mgrwt>
</event>
<event>
 8    1  0.3177960E-004  0.1107329E+03  0.7546771E-02  0.1259408E+00
         -2   -1    0    0    0  501 -0.00000000000E+00  0.00000000000E+00  0.13088988138E+02  0.13088988138E+02  0.00000000000E+00 0.  1.
          2   -1    0    0  501    0  0.00000000000E+00 -0.00000000000E+00 -0.96147350486E+03  0.96147350486E+03  0.00000000000E+00 0. -1.
         23    2    1    2    0    0  0.43062836386E+01  0.62669741814E+02 -0.38995751849E+03  0.40526250080E+03  0.90690615343E+02 0.  0.
         23    2    1    2    0    0 -0.43062836386E+01 -0.62669741814E+02 -0.55842699824E+03  0.56929999220E+03  0.91190614328E+02 0.  0.
          5    1    3    3  502    0 -0.35413980467E+02  0.59580119060E+02 -0.22399634651E+03  0.23452162768E+03  0.47000000000E+01 0. -1.
         -5    1    4    4    0  503  0.36529128690E+02 -0.38687161035E+02 -0.40911685945E+03  0.41258910353E+03  0.47000000000E+01 0.  1.
          5    1    4    4  503    0 -0.40835412329E+02 -0.23982580779E+02 -0.14931013879E+03  0.15671088867E+03  0.47000000000E+01 0. -1.
         -5    1    3    3    0  502  0.39720264106E+02  0.30896227544E+01 -0.16596117198E+03  0.17074087313E+03  0.47000000000E+01 0.  1.
<mgrwt>
<rscale>  0 0.11062988E+03</rscale>
<asrwt>0</asrwt>
<pdfrwt beam="1">  1        2 0.14791904E+00 0.11073287E+03</pdfrwt>
<pdfrwt beam="2">  1       -2 0.20136900E-02 0.11073287E+03</pdfrwt>
<totfact> 0.19915885E+04</totfact>
</mgrwt>
</event>
<event>
 8    1  0.3177960E-004  0.1102917E+03  0.7546771E-02  0.1260612E+00
          1   -1    0    0  501    0  0.00000000000E+00  0.00000000000E+00  0.48096909484E+03  0.48096909484E+03  0.00000000000E+00 0. -1.
         -1   -1    0    0    0  501 -0.00000000000E+00 -0.00000000000E+00 -0.28163890763E+02  0.28163890763E+02  0.00000000000E+00 0.  1.
         23    2    1    2    0    0  0.46795564370E+02 -0.38899705525E+02  0.31051365403E+03  0.32910203623E+03  0.90478776393E+02 0.  0.
         23    2    1    2    0    0 -0.46795564370E+02  0.38899705525E+02  0.14229155005E+03  0.18003094937E+03  0.91985029120E+02 0.  0.
          5    1    4    4  502    0 -0.75972877826E+01  0.48445197197E+02  0.12770080659E+03  0.13687308690E+03  0.47000000000E+01 0. -1.
         -5    1    3    3    0  503 -0.21938499483E+02 -0.14621188284E+02  0.15488250447E+03  0.15718065116E+03  0.47000000000E+01 0.  1.
          5    1    3    3  503    0  0.68734063853E+02 -0.24278517242E+02  0.15563114956E+03  0.17192138508E+03  0.47000000000E+01 0. -1.
         -5    1    4    4    0  502 -0.39198276587E+02 -0.95454916716E+01  0.14590743456E+02  0.43157862473E+02  0.47000000000E+01 0.  1.
<mgrwt>
<rscale>  0 0.10997708E+03</rscale>
<asrwt>0</asrwt>
<pdfrwt beam="1">  1        1 0.73995239E-01 0.11029169E+03</pdfrwt>
<pdfrwt beam="2">  1       -1 0.43329066E-02 0.11029169E+03</pdfrwt>
<totfact> 0.97321100E+03</totfact>
</mgrwt>
</event>
<event>
 8    1  0.3177960E-004  0.9177396E+02  0.7546771E-02  0.1298836E+00
         -1   -1    0    0    0  501 -0.00000000000E+00  0.00000000000E+00  0.40037019804E+02  0.40037019804E+02  0.00000000000E+00 0.  1.
          1   -1    0    0  501    0  0.00000000000E+00 -0.00000000000E+00 -0.45835266801E+03  0.45835266801E+03  0.00000000000E+00 0. -1.
         23    2    1    2    0    0 -0.47023547717E+01  0.17618599375E+02 -0.25344426905E+02  0.94844349928E+02  0.89557710745E+02 0.  0.
         23    2    1    2    0    0  0.47023547717E+01 -0.17618599375E+02 -0.39297122130E+03  0.40354533789E+03  0.89944048019E+02 0.  0.
          5    1    4    4  502    0  0.46177934934E+02 -0.16957234645E+02 -0.23595610828E+03  0.24107535029E+03  0.47000000000E+01 0. -1.
         -5    1    3    3    0  503 -0.15262087547E+01  0.39758948707E+02  0.19464755296E+02  0.44542900828E+02  0.47000000000E+01 0.  1.
          5    1    3    3  503    0 -0.31761460170E+01 -0.22140349332E+02 -0.44809182200E+02  0.50301449100E+02  0.47000000000E+01 0. -1.
         -5    1    4    4    0  502 -0.41475580162E+02 -0.66136473003E+00 -0.15701511302E+03  0.16246998760E+03  0.47000000000E+01 0.  1.
<mgrwt>
<rscale>  0 0.91679159E+02</rscale>
<asrwt>0</asrwt>
<pdfrwt beam="1">  1        1 0.70515792E-01 0.91773956E+02</pdfrwt>
<pdfrwt beam="2">  1       -1 0.61595418E-02 0.91773956E+02</pdfrwt>
<totfact> 0.60906565E+03</totfact>
</mgrwt>
</event>
<event>
 8    1  0.3177960E-004  0.9253179E+02  0.7546771E-02  0.1304408E+00
         -3   -1    0    0    0  501 -0.00000000000E+00  0.00000000000E+00  0.35365007128E+03  0.35365007128E+03  0.00000000000E+00 0.  1.
          3   -1    0    0  501    0  0.00000000000E+00 -0.00000000000E+00 -0.13201228551E+03  0.13201228551E+03  0.00000000000E+00 0. -1.
         23    2    1    2    0    0 -0.10966176006E+02  0.15455450887E+02  0.33448846392E+03  0.34705138687E+03  0.90570440295E+02 0.  0.
         23    2    1    2    0    0  0.10966176006E+02 -0.15455450887E+02 -0.11285067814E+03  0.13861096992E+03  0.78221464109E+02 0.  0.
          5    1    4    4  502    0 -0.61031441849E+01 -0.43330588693E+02 -0.43906488227E+02  0.62166373498E+02  0.47000000000E+01 0. -1.
         -5    1    3    3    0  503 -0.31131106217E+01  0.52898942341E+02  0.21580890197E+03  0.22226912005E+03  0.47000000000E+01 0.  1.
          5    1    3    3  503    0 -0.78530653839E+01 -0.37443491454E+02  0.11867956195E+03  0.12478226682E+03  0.47000000000E+01 0. -1.
         -5    1    4    4    0  502  0.17069320190E+02  0.27875137806E+02 -0.68944189915E+02  0.76444596425E+02  0.47000000000E+01 0.  1.
<mgrwt>
<rscale>  0 0.89360594E+02</rscale>
<asrwt>0</asrwt>
<pdfrwt beam="1">  1        3 0.20309583E-01 0.92531793E+02</pdfrwt>
<pdfrwt beam="2">  1       -3 0.54407703E-01 0.92531793E+02</pdfrwt>
<totfact> 0.16374586E+02</totfact>
</mgrwt>
</event>
<event>
 8    1  0.3177960E-004  0.1180438E+03  0.7546771E-02  0.1246622E+00
          2   -1    0    0  501    0  0.00000000000E+00  0.00000000000E+00  0.93321260120E+03  0.93321260120E+03  0.00000000000E+00 0. -1.
         -2   -1    0    0    0  501 -0.00000000000E+00 -0.00000000000E+00 -0.14872569215E+02  0.14872569215E+02  0.00000000000E+00 0.  1.
         23    2    1    2    0    0  0.44563692585E+02  0.59352132133E+02  0.47511875246E+03  0.48941379503E+03  0.90991403653E+02 0.  0.
         23    2    1    2    0    0 -0.44563692585E+02 -0.59352132133E+02  0.44322127953E+03  0.45867137539E+03  0.91791773541E+02 0.  0.
          5    1    4    4  502    0 -0.38788429803E+02  0.10351554890E+02  0.24741698124E+03  0.25069692774E+03  0.47000000000E+01 0. -1.
         -5    1    4    4    0  502 -0.57752627819E+01 -0.69703687023E+02  0.19580429829E+03  0.20797444764E+03  0.47000000000E+01 0.  1.
          5    1    3    3  503    0  0.32635979958E+02  0.83429233596E+02  0.38124416510E+03  0.39165641528E+03  0.47000000000E+01 0. -1.
         -5    1    3    3    0  503  0.11927712628E+02 -0.24077101463E+02  0.93874587362E+02  0.97757379751E+02  0.47000000000E+01 0.  1.
<mgrwt>
<rscale>  0 0.11788812E+03</rscale>
<asrwt>0</asrwt>
<pdfrwt beam="1">  1        2 0.14357112E+00 0.11804375E+03</pdfrwt>
<pdfrwt beam="2">  1       -2 0.22880883E-02 0.11804375E+03</pdfrwt>
<totfact> 0.17305848E+04</totfact>
</mgrwt>
</event>
<event>
 8    1  0.3177960E-004  0.1020490E+03  0.7546771E-02  0.1276782E+00
         -2   -1    0    0    0  501 -0.00000000000E+00  0.00000000000E+00  0.22453338682E+02  0.22453338682E+02  0.00000000000E+00 0.  1.
          2   -1    0    0  501    0  0.00000000000E+00 -0.00000000000E+00 -0.54299152155E+03  0.54299152155E+03  0.00000000000E+00 0. -1.
         23    2    1    2    0    0  0.11769138677E+02 -0.41410342546E+02 -0.37101223954E+03  0.38441445168E+03  0.90945366416E+02 0.  0.
         23    2    1    2    0    0 -0.11769138677E+02  0.41410342546E+02 -0.14952594333E+03  0.18103040856E+03  0.92523899612E+02 0.  0.
          5    1    3    3  502    0  0.21647479639E+02 -0.64598420785E+02 -0.32132972151E+03  0.32850639152E+03  0.47000000000E+01 0. -1.
         -5    1    4    4    0  503 -0.43831023292E+02  0.28788224908E+02 -0.40014673440E+02  0.66130058118E+02  0.47000000000E+01 0.  1.
          5    1    4    4  503    0  0.32061884614E+02  0.12622117638E+02 -0.10951126989E+03  0.11490035044E+03  0.47000000000E+01 0. -1.
         -5    1    3    3    0  502 -0.98783409617E+01  0.23188078240E+02 -0.49682518031E+02  0.55908060157E+02  0.47000000000E+01 0.  1.
<mgrwt>
<rscale>  0 0.10168987E+03</rscale>
<asrwt>0</asrwt>
<pdfrwt beam="1">  1        2 0.83537146E-01 0.10204901E+03</pdfrwt>
<pdfrwt beam="2">  1       -2 0.34543603E-02 0.10204901E+03</pdfrwt>
<totfact> 0.17877259E+04</totfact>
</mgrwt>
</event>
<event>
 8    1  0.3177960E-004  0.1036217E+03  0.7546771E-02  0.1277508E+00
         -1   -1    0    0    0  501 -0.00000000000E+00  0.00000000000E+00  0.12237284064E+03  0.12237284064E+03  0.00000000000E+00 0.  1.
          1   -1    0    0  501    0  0.00000000000E+00 -0.00000000000E+00 -0.11521837013E+03  0.11521837013E+03  0.00000000000E+00 0. -1.
         23    2    1    2    0    0 -0.16354329696E+02 -0.45052959673E+02  0.68707670504E+02  0.11706632671E+03  0.81771312748E+02 0.  0.
         23    2    1    2    0    0  0.16354329696E+02  0.45052959673E+02 -0.61553199995E+02  0.12052488407E+03  0.91870658942E+02 0.  0.
          5    1    3    3  502    0 -0.46383787244E+02 -0.13646967741E+02  0.22737401054E+02  0.53635574523E+02  0.47000000000E+01 0. -1.
         -5    1    3    3    0  502  0.30029457549E+02 -0.31405991932E+02  0.45970269450E+02  0.63430752189E+02  0.47000000000E+01 0.  1.
          5    1    4    4  503    0 -0.12056864224E+02  0.29946244028E+02 -0.77661255281E+02  0.84234826990E+02  0.47000000000E+01 0. -1.
         -5    1    4    4    0  503  0.28411193919E+02  0.15106715645E+02  0.16108055285E+02  0.36290057076E+02  0.47000000000E+01 0.  1.
<mgrwt>
<rscale>  0 0.10133754E+03</rscale>
<asrwt>0</asrwt>
<pdfrwt beam="1">  1        1 0.17725903E-01 0.10362167E+03</pdfrwt>
<pdfrwt beam="2">  1       -1 0.18826591E-01 0.10362167E+03</pdfrwt>
<totfact> 0.61985370E+03</totfact>
</mgrwt>
</event>
<event>
 8    1  0.3177960E-004  0.1404770E+03  0.7546771E-02  0.1212726E+00
         -1   -1    0    0    0  501 -0.00000000000E+00  0.00000000000E+00  0.18779941525E+03  0.18779941525E+03  0.00000000000E+00 0.  1.
          1   -1    0    0  501    0  0.00000000000E+00 -0.00000000000E+00 -0.15756531299E+03  0.15756531299E+03  0.00000000000E+00 0. -1.
         23    2    1    2    0    0 -0.60948218093E+02 -0.86481045602E+02 -0.84622201884E+02  0.16399602548E+03  0.92412784751E+02 0.  0.
         23    2    1    2    0    0  0.60948218093E+02  0.86481045602E+02  0.11485630414E+03  0.18136870276E+03  0.92244128284E+02 0.  0.
          5    1    3    3  502    0 -0.80194710796E+02 -0.45621288663E+02 -0.71224260820E+02  0.11665109922E+03  0.47000000000E+01 0. -1.
         -5    1    4    4    0  503 -0.22413999513E+02  0.21567033097E+02  0.43913306526E+02  0.54018448523E+02  0.47000000000E+01 0. -1.
          5    1    4    4  503    0  0.83362217607E+02  0.64914012505E+02  0.70942997617E+02  0.12735025424E+03  0.47000000000E+01 0.  1.
         -5    1    3    3    0  502  0.19246492703E+02 -0.40859756939E+02 -0.13397941064E+02  0.47344926267E+02  0.47000000000E+01 0.  1.
<mgrwt>
<rscale>  0 0.14044924E+03</rscale>
<asrwt>0</asrwt>
<pdfrwt beam="1">  1        1 0.24240817E-01 0.14047697E+03</pdfrwt>
<pdfrwt beam="2">  1       -1 0.28892218E-01 0.14047697E+03</pdfrwt>
<totfact> 0.21155885E+03</totfact>
</mgrwt>
</event>
<event>
 8    1  0.3177960E-004  0.9297257E+02  0.7546771E-02  0.1296484E+00
          2   -1    0    0  501    0  0.00000000000E+00  0.00000000000E+00  0.77989160127E+03  0.77989160127E+03  0.00000000000E+00 0. -1.
         -2   -1    0    0    0  501 -0.00000000000E+00 -0.00000000000E+00 -0.26345026661E+02  0.26345026661E+02  0.00000000000E+00 0.  1.
         23    2    1    2    0    0  0.12981426710E+02  0.14003677620E+02  0.68594925025E+03  0.69222126047E+03  0.90990544067E+02 0.  0.
         23    2    1    2    0    0 -0.12981426710E+02 -0.14003677620E+02  0.67597324363E+02  0.11401536746E+03  0.89808047131E+02 0.  0.
          5    1    4    4  502    0 -0.53348592838E+01  0.31220633085E+02  0.58979083819E+02  0.67110438696E+02  0.47000000000E+01 0.  1.
         -5    1    4    4    0  502 -0.76465674265E+01 -0.45224310705E+02  0.86182405435E+01  0.46904928763E+02  0.47000000000E+01 0.  1.
          5    1    3    3  503    0 -0.29640126102E+02  0.31708895963E+02  0.41927059110E+03  0.42153755434E+03  0.47000000000E+01 0. -1.
         -5    1    3    3    0  503  0.42621552813E+02 -0.17705218342E+02  0.26667865915E+03  0.27068370613E+03  0.47000000000E+01 0.  1.
<mgrwt>
<rscale>  0 0.92681973E+02</rscale>
<asrwt>0</asrwt>
<pdfrwt beam="1">  1        2 0.11998331E+00 0.92972574E+02</pdfrwt>
<pdfrwt beam="2">  1       -2 0.40530816E-02 0.92972574E+02</pdfrwt>
<totfact> 0.92556960E+03</totfact>
</mgrwt>
</event>
<event>
 8    1  0.3177960E-004  0.1235153E+03  0.7546771E-02  0.1239848E+00
          1   -1    0    0  501    0  0.00000000000E+00  0.00000000000E+00  0.27786471062E+03  0.27786471062E+03  0.00000000000E+00 0. -1.
         -1   -1    0    0    0  501 -0.00000000000E+00 -0.00000000000E+00 -0.52963508787E+02  0.52963508787E+02  0.00000000000E+00 0.  1.
         23    2    1    2    0    0  0.15683819932E+02 -0.81035914544E+02  0.13404497243E+03  0.18227473411E+03  0.91887008915E+02 0.  0.
         23    2    1    2    0    0 -0.15683819932E+02  0.81035914544E+02  0.90856229404E+02  0.14855348530E+03  0.83668882620E+02 0.  0.
          5    1    3    3  502    0  0.14053651558E+01 -0.98750947204E+02  0.96745385837E+02  0.13833106775E+03  0.47000000000E+01 0. -1.
         -5    1    4    4    0  503  0.17431355748E+02  0.68610107265E+02  0.27990032074E+02  0.76267495551E+02  0.47000000000E+01 0.  1.
          5    1    4    4  503    0 -0.33115175680E+02  0.12425807279E+02  0.62866197330E+02  0.72285989747E+02  0.47000000000E+01 0. -1.
         -5    1    3    3    0  502  0.14278454776E+02  0.17715032659E+02  0.37299586593E+02  0.43943666357E+02  0.47000000000E+01 0.  1.
<mgrwt>
<rscale>  0 0.12199095E+03</rscale>
<asrwt>0</asrwt>
<pdfrwt beam="1">  1        1 0.42748416E-01 0.12351528E+03</pdfrwt>
<pdfrwt beam="2">  1       -1 0.81482323E-02 0.12351528E+03</pdfrwt>
<totfact> 0.76285674E+03</totfact>
</mgrwt>
</event>
<event>
 8    1  0.3177960E-004  0.1124933E+03  0.7546771E-02  0.1256467E+00
          2   -1    0    0  501    0  0.00000000000E+00  0.00000000000E+00  0.63447652487E+03  0.63447652487E+03  0.00000000000E+00 0. -1.
         -2   -1    0    0    0  501 -0.00000000000E+00 -0.00000000000E+00 -0.31336859739E+02  0.31336859739E+02  0.00000000000E+00 0.  1.
         23    2    1    2    0    0 -0.33478785646E+02 -0.55933418494E+02  0.10015680988E+03  0.15061915610E+03  0.91680789846E+02 0.  0.
         23    2    1    2    0    0  0.33478785646E+02  0.55933418494E+02  0.50298285525E+03  0.51519422850E+03  0.90465264144E+02 0.  0.
          5    1    4    4  502    0  0.62936787134E+01  0.68507793504E+02  0.43910267528E+03  0.44448417025E+03  0.47000000000E+01 0. -1.
         -5    1    4    4    0  502  0.27185106932E+02 -0.12574375009E+02  0.63880179971E+02  0.70710058259E+02  0.47000000000E+01 0.  1.
          5    1    3    3  503    0  0.22212266828E+02  0.97129657465E+01  0.33619767284E+02  0.41714568839E+02  0.47000000000E+01 0. -1.
         -5    1    3    3    0  503 -0.55691052473E+02 -0.65646384241E+02  0.66537042593E+02  0.10890458726E+03  0.47000000000E+01 0.  1.
<mgrwt>
<rscale>  0 0.11224538E+03</rscale>
<asrwt>0</asrwt>
<pdfrwt beam="1">  1        2 0.97611764E-01 0.11249330E+03</pdfrwt>
<pdfrwt beam="2">  1       -2 0.48210558E-02 0.11249330E+03</pdfrwt>
<totfact> 0.92426119E+03</totfact>
</mgrwt>
</event>
<event>
 8    1  0.3177960E-004  0.1197912E+03  0.7546771E-02  0.1247716E+00
         -2   -1    0    0    0  501 -0.00000000000E+00  0.00000000000E+00  0.44729493708E+03  0.44729493708E+03  0.00000000000E+00 0.  1.
          2   -1    0    0  501    0  0.00000000000E+00 -0.00000000000E+00 -0.36024281897E+02  0.36024281897E+02  0.00000000000E+00 0. -1.
         23    2    1    2    0    0  0.36450909624E+02 -0.49446954373E+02  0.30122829613E+03  0.32065621839E+03  0.91149623651E+02 0.  0.
         23    2    1    2    0    0 -0.36450909624E+02  0.49446954373E+02  0.11004235905E+03  0.16266300059E+03  0.10284094936E+03 0.  0.
          5    1    4    4  502    0 -0.95641071456E+00  0.62135582657E+02  0.20845340306E+02  0.65714256947E+02  0.47000000000E+01 0. -1.
         -5    1    3    3    0  503  0.13252578846E+02 -0.73349755157E+02  0.18081109797E+03  0.19562862923E+03  0.47000000000E+01 0.  1.
          5    1    3    3  503    0  0.23198330779E+02  0.23902800784E+02  0.12041719816E+03  0.12502758915E+03  0.47000000000E+01 0. -1.
         -5    1    4    4    0  502 -0.35494498910E+02 -0.12688628284E+02  0.89197018742E+02  0.96948743639E+02  0.47000000000E+01 0.  1.
<mgrwt>
<rscale>  0 0.11724267E+03</rscale>
<asrwt>0</asrwt>
<pdfrwt beam="1">  1        2 0.55421975E-02 0.11979120E+03</pdfrwt>
<pdfrwt beam="2">  1       -2 0.68814602E-01 0.11979120E+03</pdfrwt>
<totfact> 0.25790736E+03</totfact>
</mgrwt>
</event>
<event>
 8    1  0.3177960E-004  0.1844730E+03  0.7546771E-02  0.1165087E+00
          1   -1    0    0  501    0  0.00000000000E+00  0.00000000000E+00  0.54069755927E+03  0.54069755927E+03  0.00000000000E+00 0. -1.
         -1   -1    0    0    0  501 -0.00000000000E+00 -0.00000000000E+00 -0.76039977764E+02  0.76039977764E+02  0.00000000000E+00 0.  1.
         23    2    1    2    0    0  0.12432799193E+03 -0.10218086870E+03  0.37389475988E+03  0.41692633548E+03  0.90177038337E+02 0.  0.
         23    2    1    2    0    0 -0.12432799193E+03  0.10218086870E+03  0.90762821626E+02  0.19981120156E+03  0.76080529517E+02 0.  0.
          5    1    3    3  502    0  0.12976079324E+03 -0.65935615264E+02  0.27186979453E+03  0.30841634847E+03  0.47000000000E+01 0. -1.
         -5    1    3    3    0  502 -0.54328013116E+01 -0.36245253441E+02  0.10202496535E+03  0.10850998701E+03  0.47000000000E+01 0.  1.
          5    1    4    4  503    0 -0.80831421923E+01  0.47785965557E+02  0.16247969557E+02  0.51331493321E+02  0.47000000000E+01 0. -1.
         -5    1    4    4    0  503 -0.11624484973E+03  0.54394903148E+02  0.74514852069E+02  0.14847970823E+03  0.47000000000E+01 0.  1.
<mgrwt>
<rscale>  0 0.18283488E+03</rscale>
<asrwt>0</asrwt>
<pdfrwt beam="1">  1        1 0.83184237E-01 0.18447297E+03</pdfrwt>
<pdfrwt beam="2">  1       -1 0.11698458E-01 0.18447297E+03</pdfrwt>
<totfact> 0.19200012E+03</totfact>
</mgrwt>
</event>
<event>
 8    1  0.3177960E-004  0.1021759E+03  0.7546771E-02  0.1277149E+00
          1   -1    0    0  501    0  0.00000000000E+00  0.00000000000E+00  0.31555661586E+03  0.31555661586E+03  0.00000000000E+00 0. -1.
         -1   -1    0    0    0  501 -0.00000000000E+00 -0.00000000000E+00 -0.20144938406E+03  0.20144938406E+03  0.00000000000E+00 0.  1.
         23    2    1    2    0    0  0.20853500478E+02  0.37646494115E+02 -0.17998018510E+03  0.20567448053E+03  0.89760781596E+02 0.  0.
         23    2    1    2    0    0 -0.20853500478E+02 -0.37646494115E+02  0.29408741690E+03  0.31133151938E+03  0.92670271301E+02 0.  0.
          5    1    4    4  502    0 -0.55354993552E+02 -0.37623030619E+02  0.18283187843E+03  0.19475434145E+03  0.47000000000E+01 0. -1.
         -5    1    4    4    0  502  0.34501493074E+02 -0.23463496102E-01  0.11125553847E+03  0.11657717793E+03  0.47000000000E+01 0.  1.
          5    1    3    3  503    0  0.48262074850E+02 -0.34072919843E+01 -0.72247958997E+02  0.87078671825E+02  0.47000000000E+01 0. -1.
         -5    1    3    3    0  503 -0.27408574372E+02  0.41053786099E+02 -0.10773222610E+03  0.11859580871E+03  0.47000000000E+01 0.  1.
<mgrwt>
<rscale>  0 0.10151159E+03</rscale>
<asrwt>0</asrwt>
<pdfrwt beam="1">  1        1 0.48547172E-01 0.10217586E+03</pdfrwt>
<pdfrwt beam="2">  1       -1 0.30992213E-01 0.10217586E+03</pdfrwt>
<totfact> 0.79007073E+02</totfact>
</mgrwt>
</event>
<event>
 8    1  0.3177960E-004  0.9315455E+02  0.7546771E-02  0.1297677E+00
         -2   -1    0    0    0  501 -0.00000000000E+00  0.00000000000E+00  0.18030236149E+02  0.18030236149E+02  0.00000000000E+00 0.  1.
          2   -1    0    0  501    0  0.00000000000E+00 -0.00000000000E+00 -0.46552112587E+03  0.46552112587E+03  0.00000000000E+00 0. -1.
         23    2    1    2    0    0  0.60993943839E+01 -0.19341381210E+01 -0.19658124526E+03  0.21590715703E+03  0.89054876166E+02 0.  0.
         23    2    1    2    0    0 -0.60993943839E+01  0.19341381210E+01 -0.25090964447E+03  0.26764420499E+03  0.92934532202E+02 0.  0.
          5    1    4    4  502    0 -0.37549923692E+02  0.19661885292E+02 -0.20321685163E+03  0.20764336081E+03  0.47000000000E+01 0. -1.
         -5    1    4    4    0  502  0.31450529308E+02 -0.17727747171E+02 -0.47692792838E+02  0.60000844179E+02  0.47000000000E+01 0.  1.
          5    1    3    3  503    0  0.28637911844E+02  0.22731477397E+02 -0.16704607423E+03  0.17106528279E+03  0.47000000000E+01 0. -1.
         -5    1    3    3    0  503 -0.22538517460E+02 -0.24665615518E+02 -0.29535171026E+02  0.44841874245E+02  0.47000000000E+01 0.  1.
<mgrwt>
<rscale>  0 0.92171580E+02</rscale>
<asrwt>0</asrwt>
<pdfrwt beam="1">  1        2 0.71618637E-01 0.93154553E+02</pdfrwt>
<pdfrwt beam="2">  1       -2 0.27738824E-02 0.93154553E+02</pdfrwt>
<totfact> 0.28831883E+04</totfact>
</mgrwt>
</event>
<event>
 8    1  0.3177960E-004  0.9346357E+02  0.7546771E-02  0.1302093E+00
          2   -1    0    0  501    0  0.00000000000E+00  0.00000000000E+00  0.58246067880E+03  0.58246067880E+03  0.00000000000E+00 0. -1.
         -2   -1    0    0    0  501 -0.00000000000E+00 -0.00000000000E+00 -0.74275293767E+02  0.74275293767E+02  0.00000000000E+00 0.  1.
         23    2    1    2    0    0  0.18581299742E+02 -0.84154465877E+01 -0.46776157627E+02  0.93959149345E+02  0.78893779108E+02 0.  0.
         23    2    1    2    0    0 -0.18581299742E+02  0.84154465877E+01  0.55496154266E+03  0.56277682323E+03  0.91210495469E+02 0.  0.
          5    1    4    4  502    0 -0.14335295656E+02  0.48178469261E+02  0.37385836467E+03  0.37725168315E+03  0.47000000000E+01 0. -1.
         -5    1    3    3    0  503  0.41356475191E+02 -0.26545408077E+02 -0.40399195911E+02  0.63790295190E+02  0.47000000000E+01 0.  1.
          5    1    3    3  503    0 -0.22775175449E+02  0.18129961489E+02 -0.63769617160E+01  0.30168854155E+02  0.47000000000E+01 0. -1.
         -5    1    4    4    0  502 -0.42460040854E+01 -0.39763022673E+02  0.18110317799E+03  0.18552514008E+03  0.47000000000E+01 0.  1.
<mgrwt>
<rscale>  0 0.90314055E+02</rscale>
<asrwt>0</asrwt>
<pdfrwt beam="1">  1        2 0.89609332E-01 0.93463570E+02</pdfrwt>
<pdfrwt beam="2">  1       -2 0.11426969E-01 0.93463570E+02</pdfrwt>
<totfact> 0.26956287E+03</totfact>
</mgrwt>
</event>
<event>
 8    1  0.3177960E-004  0.1021239E+03  0.7546771E-02  0.1284002E+00
         -2   -1    0    0    0  501 -0.00000000000E+00  0.00000000000E+00  0.15898539548E+02  0.15898539548E+02  0.00000000000E+00 0.  1.
          2   -1    0    0  501    0  0.00000000000E+00 -0.00000000000E+00 -0.57475051106E+03  0.57475051106E+03  0.00000000000E+00 0. -1.
         23    2    1    2    0    0 -0.16160742470E+02 -0.10438136651E+02 -0.26328136686E+03  0.28239399506E+03  0.10029539380E+03 0.  0.
         23    2    1    2    0    0  0.16160742470E+02  0.10438136651E+02 -0.29557060465E+03  0.30825505554E+03  0.85376065968E+02 0.  0.
          5    1    3    3  502    0  0.77346444882E+01  0.25542278365E+02 -0.21786000461E+03  0.21953884467E+03  0.47000000000E+01 0. -1.
         -5    1    4    4    0  503 -0.32493494379E+02  0.11460971552E+02 -0.80371466674E+02  0.87571934438E+02  0.47000000000E+01 0.  1.
          5    1    4    4  503    0  0.48654236849E+02 -0.10228349011E+01 -0.21519913798E+03  0.22068312110E+03  0.47000000000E+01 0. -1.
         -5    1    3    3    0  502 -0.23895386958E+02 -0.35980415016E+02 -0.45421362249E+02  0.62855150395E+02  0.47000000000E+01 0.  1.
<mgrwt>
<rscale>  0 0.98258117E+02</rscale>
<asrwt>0</asrwt>
<pdfrwt beam="1">  1        2 0.88423171E-01 0.10212390E+03</pdfrwt>
<pdfrwt beam="2">  1       -2 0.24459287E-02 0.10212390E+03</pdfrwt>
<totfact> 0.27764517E+04</totfact>
</mgrwt>
</event>
<event>
 8    1  0.3177960E-004  0.9500283E+02  0.7546771E-02  0.1291648E+00
          2   -1    0    0  501    0  0.00000000000E+00  0.00000000000E+00  0.26023619362E+02  0.26023619362E+02  0.00000000000E+00 0. -1.
         -2   -1    0    0    0  501 -0.00000000000E+00 -0.00000000000E+00 -0.49089759115E+03  0.49089759115E+03  0.00000000000E+00 0.  1.
         23    2    1    2    0    0  0.19693205811E+02 -0.14736577444E+02 -0.37467143413E+03  0.38652842166E+03  0.91763544653E+02 0.  0.
         23    2    1    2    0    0 -0.19693205811E+02  0.14736577444E+02 -0.90202537649E+02  0.13039278884E+03  0.90888902043E+02 0.  0.
          5    1    3    3  502    0  0.30439615051E+02 -0.49239560509E+02 -0.21086382469E+03  0.21871613349E+03  0.47000000000E+01 0. -1.
         -5    1    4    4    0  503  0.29505355433E+02  0.22566504340E+02 -0.63392649309E+02  0.73624256219E+02  0.47000000000E+01 0.  1.
          5    1    4    4  503    0 -0.49198561244E+02 -0.78299268960E+01 -0.26809888340E+02  0.56768532626E+02  0.47000000000E+01 0. -1.
         -5    1    3    3    0  502 -0.10746409240E+02  0.34502983065E+02 -0.16380760944E+03  0.16781228818E+03  0.47000000000E+01 0.  1.
<mgrwt>
<rscale>  0 0.94790983E+02</rscale>
<asrwt>0</asrwt>
<pdfrwt beam="1">  1        2 0.40036337E-02 0.95002827E+02</pdfrwt>
<pdfrwt beam="2">  1       -2 0.75522708E-01 0.95002827E+02</pdfrwt>
<totfact> 0.31739078E+03</totfact>
</mgrwt>
</event>
<event>
 8    1  0.3177960E-004  0.2054278E+03  0.7546771E-02  0.1147025E+00
          1   -1    0    0  501    0  0.00000000000E+00  0.00000000000E+00  0.86162957794E+02  0.86162957794E+02  0.00000000000E+00 0. -1.
         -1   -1    0    0    0  501 -0.00000000000E+00 -0.00000000000E+00 -0.46973736937E+03  0.46973736937E+03  0.00000000000E+00 0.  1.
         23    2    1    2    0    0  0.15696443426E+03  0.94138858164E+02 -0.18230247569E+03  0.26830519797E+03  0.72481227731E+02 0.  0.
         23    2    1    2    0    0 -0.15696443426E+03 -0.94138858164E+02 -0.20127193589E+03  0.28759512920E+03  0.93277049287E+02 0.  0.
          5    1    4    4  502    0  0.41992279830E+01 -0.22506286365E+02 -0.54148536409E+01  0.23991187581E+02  0.47000000000E+01 0. -1.
         -5    1    3    3    0  503  0.66450891549E+02  0.79553583008E+02 -0.11198898154E+03  0.15266995625E+03  0.47000000000E+01 0.  1.
          5    1    3    3  503    0  0.90513542713E+02  0.14585275156E+02 -0.70313494154E+02  0.11563524171E+03  0.47000000000E+01 0. -1.
         -5    1    4    4    0  502 -0.16116366224E+03 -0.71632571800E+02 -0.19585708225E+03  0.26360394162E+03  0.47000000000E+01 0.  1.
<mgrwt>
<rscale>  0 0.20325124E+03</rscale>
<asrwt>0</asrwt>
<pdfrwt beam="1">  1        1 0.13255840E-01 0.20542776E+03</pdfrwt>
<pdfrwt beam="2">  1       -1 0.72267288E-01 0.20542776E+03</pdfrwt>
<totfact> 0.87981793E+02</totfact>
</mgrwt>
</event>
<event>
 8    1  0.3177960E-004  0.9158107E+02  0.7546771E-02  0.1299197E+00
         -1   -1    0    0    0  501 -0.00000000000E+00  0.00000000000E+00  0.30748754284E+03  0.30748754284E+03  0.00000000000E+00 0.  1.
          1   -1    0    0  501    0  0.00000000000E+00 -0.00000000000E+00 -0.36079545552E+02  0.36079545552E+02  0.00000000000E+00 0. -1.
         23    2    1    2    0    0 -0.30311498294E+01  0.59721764447E+01  0.50412564187E+02  0.10434737150E+03  0.91115819433E+02 0.  0.
         23    2    1    2    0    0  0.30311498294E+01 -0.59721764447E+01  0.22099543310E+03  0.23921971689E+03  0.91335845847E+02 0.  0.
          5    1    4    4  502    0  0.15704968518E+02 -0.33490106465E+02  0.36444333922E+02  0.52139358859E+02  0.47000000000E+01 0. -1.
         -5    1    3    3    0  503 -0.19851945659E+02 -0.12562865276E+02  0.68854698124E+02  0.72903942172E+02  0.47000000000E+01 0.  1.
          5    1    3    3  503    0  0.16820795830E+02  0.18535041720E+02 -0.18442133937E+02  0.31443429331E+02  0.47000000000E+01 0. -1.
         -5    1    4    4    0  502 -0.12673818689E+02  0.27517930020E+02  0.18455109918E+03  0.18708035803E+03  0.47000000000E+01 0.  1.
<mgrwt>
<rscale>  0 0.91526157E+02</rscale>
<asrwt>0</asrwt>
<pdfrwt beam="1">  1        1 0.55506995E-02 0.91581065E+02</pdfrwt>
<pdfrwt beam="2">  1       -1 0.47305774E-01 0.91581065E+02</pdfrwt>
<totfact> 0.60331576E+03</totfact>
</mgrwt>
</event>
<event>
 8    1  0.3177960E-004  0.9791850E+02  0.7546771E-02  0.1290882E+00
         -1   -1    0    0    0  501 -0.00000000000E+00  0.00000000000E+00  0.92090418198E+01  0.92090418198E+01  0.00000000000E+00 0.  1.
          1   -1    0    0  501    0  0.00000000000E+00 -0.00000000000E+00 -0.10158331948E+04  0.10158331948E+04  0.00000000000E+00 0. -1.
         23    2    1    2    0    0  0.15281698001E+02 -0.28387514655E+02 -0.67809995065E+03  0.68513325420E+03  0.92458918741E+02 0.  0.
         23    2    1    2    0    0 -0.15281698001E+02  0.28387514655E+02 -0.32852420228E+03  0.33990898238E+03  0.81059136012E+02 0.  0.
          5    1    4    4  502    0 -0.33221980906E+02  0.45855370472E+02 -0.27254650285E+03  0.27840635990E+03  0.47000000000E+01 0. -1.
         -5    1    4    4    0  502  0.17940282905E+02 -0.17467855817E+02 -0.55977699433E+02  0.61502622476E+02  0.47000000000E+01 0.  1.
          5    1    3    3  503    0 -0.16321920590E+02  0.28190139483E+02 -0.23614920561E+03  0.23843159683E+03  0.47000000000E+01 0. -1.
         -5    1    3    3    0  503  0.31603618591E+02 -0.56577654138E+02 -0.44195074504E+03  0.44670165737E+03  0.47000000000E+01 0.  1.
<mgrwt>
<rscale>  0 0.95130855E+02</rscale>
<asrwt>0</asrwt>
<pdfrwt beam="1">  1        1 0.15628202E+00 0.97918502E+02</pdfrwt>
<pdfrwt beam="2">  1       -1 0.14167757E-02 0.97918502E+02</pdfrwt>
<totfact> 0.16479810E+04</totfact>
</mgrwt>
</event>
<event>
 8    1  0.3177960E-004  0.9700538E+02  0.7546771E-02  0.1289015E+00
          2   -1    0    0  501    0  0.00000000000E+00  0.00000000000E+00  0.52704490355E+02  0.52704490355E+02  0.00000000000E+00 0. -1.
         -2   -1    0    0    0  501 -0.00000000000E+00 -0.00000000000E+00 -0.17125892670E+03  0.17125892670E+03  0.00000000000E+00 0.  1.
         23    2    1    2    0    0  0.26646605630E+02  0.99523093014E+00 -0.64019483066E+02  0.11622623237E+03  0.93268487726E+02 0.  0.
         23    2    1    2    0    0 -0.26646605630E+02 -0.99523093014E+00 -0.54534953276E+02  0.10773718468E+03  0.89006784899E+02 0.  0.
          5    1    4    4  502    0 -0.97130969908E+01  0.37814832881E+02 -0.51814166679E+02  0.65046934652E+02  0.47000000000E+01 0. -1.
         -5    1    3    3    0  503 -0.21262367898E+02 -0.17113015672E+02  0.69741923257E+01  0.28559988666E+02  0.47000000000E+01 0.  1.
          5    1    3    3  503    0  0.47908973528E+02  0.18108246603E+02 -0.70993675392E+02  0.87666243704E+02  0.47000000000E+01 0. -1.
         -5    1    4    4    0  502 -0.16933508640E+02 -0.38810063811E+02 -0.27207865971E+01  0.42690250030E+02  0.47000000000E+01 0.  1.
<mgrwt>
<rscale>  0 0.95966262E+02</rscale>
<asrwt>0</asrwt>
<pdfrwt beam="1">  1        2 0.81083833E-02 0.97005376E+02</pdfrwt>
<pdfrwt beam="2">  1       -2 0.26347527E-01 0.97005376E+02</pdfrwt>
<totfact> 0.98312379E+03</totfact>
</mgrwt>
</event>
<event>
 8    1  0.3177960E-004  0.9629426E+02  0.7546771E-02  0.1290674E+00
         -1   -1    0    0    0  501 -0.00000000000E+00  0.00000000000E+00  0.31454384709E+02  0.31454384709E+02  0.00000000000E+00 0.  1.
          1   -1    0    0  501    0  0.00000000000E+00 -0.00000000000E+00 -0.34445554667E+03  0.34445554667E+03  0.00000000000E+00 0. -1.
         23    2    1    2    0    0 -0.30996911206E+01 -0.26511558208E+02 -0.23936112892E+03  0.25800452344E+03  0.92520880209E+02 0.  0.
         23    2    1    2    0    0  0.30996911206E+01  0.26511558208E+02 -0.73640033037E+02  0.11790540793E+03  0.88126953598E+02 0.  0.
          5    1    4    4  502    0 -0.30630851406E+02  0.23339799617E+02 -0.74163364572E+02  0.83697610173E+02  0.47000000000E+01 0. -1.
         -5    1    3    3    0  503  0.37917816831E+02  0.19709964591E+01 -0.15681340441E+03  0.16141307092E+03  0.47000000000E+01 0.  1.
          5    1    3    3  503    0 -0.41017507952E+02 -0.28482554667E+02 -0.82547724511E+02  0.96591452525E+02  0.47000000000E+01 0. -1.
         -5    1    4    4    0  502  0.33730542526E+02  0.31717585911E+01  0.52333153530E+00  0.34207797760E+02  0.47000000000E+01 0.  1.
<mgrwt>
<rscale>  0 0.95223094E+02</rscale>
<asrwt>0</asrwt>
<pdfrwt beam="1">  1        1 0.52993164E-01 0.96294258E+02</pdfrwt>
<pdfrwt beam="2">  1       -1 0.48391358E-02 0.96294258E+02</pdfrwt>
<totfact> 0.12438442E+04</totfact>
</mgrwt>
</event>
<event>
 8    1  0.3177960E-004  0.1143662E+03  0.7546771E-02  0.1252922E+00
         -1   -1    0    0    0  501 -0.00000000000E+00  0.00000000000E+00  0.44825212966E+02  0.44825212966E+02  0.00000000000E+00 0.  1.
          1   -1    0    0  501    0  0.00000000000E+00 -0.00000000000E+00 -0.51804519305E+03  0.51804519305E+03  0.00000000000E+00 0. -1.
         23    2    1    2    0    0  0.51048800612E+02 -0.46874621378E+02 -0.50376167036E+02  0.12496951329E+03  0.90974781524E+02 0.  0.
         23    2    1    2    0    0 -0.51048800612E+02  0.46874621378E+02 -0.42284381305E+03  0.43790089273E+03  0.90316617762E+02 0.  0.
          5    1    4    4  502    0 -0.16128740601E+02  0.48892446618E+02 -0.37446580472E+03  0.37801764048E+03  0.47000000000E+01 0. -1.
         -5    1    4    4    0  502 -0.34920060011E+02 -0.20178252392E+01 -0.48378008334E+02  0.59883252251E+02  0.47000000000E+01 0.  1.
          5    1    3    3  503    0  0.17003455864E+02  0.23735588072E+02 -0.33426796381E+02  0.44631114357E+02  0.47000000000E+01 0. -1.
         -5    1    3    3    0  503  0.34045344747E+02 -0.70610209450E+02 -0.16949370656E+02  0.80338398933E+02  0.47000000000E+01 0.  1.
<mgrwt>
<rscale>  0 0.11423523E+03</rscale>
<asrwt>0</asrwt>
<pdfrwt beam="1">  1        1 0.79699259E-01 0.11436617E+03</pdfrwt>
<pdfrwt beam="2">  1       -1 0.68961868E-02 0.11436617E+03</pdfrwt>
<totfact> 0.44598360E+03</totfact>
</mgrwt>
</event>
<event>
 8    1  0.3177960E-004  0.1032277E+03  0.7546771E-02  0.1273697E+00
         -2   -1    0    0    0  501 -0.00000000000E+00  0.00000000000E+00  0.25743070465E+02  0.25743070465E+02  0.00000000000E+00 0.  1.
          2   -1    0    0  501    0  0.00000000000E+00 -0.00000000000E+00 -0.41919402882E+03  0.41919402882E+03  0.00000000000E+00 0. -1.
         23    2    1    2    0    0 -0.19242622616E+02  0.63573872299E+00 -0.17104627793E+03  0.19978182913E+03  0.10141630721E+03 0.  0.
         23    2    1    2    0    0  0.19242622616E+02 -0.63573872299E+00 -0.22240468042E+03  0.24515527015E+03  0.10132414283E+03 0.  0.
          5    1    3    3  502    0  0.30197089629E+02  0.48717338937E+01 -0.12140993490E+02  0.33242920090E+02  0.47000000000E+01 0. -1.
         -5    1    4    4    0  503 -0.21286740004E+02  0.18935992697E+02 -0.14365619978E+02  0.32251483016E+02  0.47000000000E+01 0.  1.
          5    1    4    4  503    0  0.40529362620E+02 -0.19571731420E+02 -0.20803906044E+03  0.21290378713E+03  0.47000000000E+01 0. -1.
         -5    1    3    3    0  502 -0.49439712245E+02 -0.42359951708E+01 -0.15890528444E+03  0.16653890904E+03  0.47000000000E+01 0.  1.
<mgrwt>
<rscale>  0 0.10320502E+03</rscale>
<asrwt>0</asrwt>
<pdfrwt beam="1">  1        2 0.64491382E-01 0.10322766E+03</pdfrwt>
<pdfrwt beam="2">  1       -2 0.39604728E-02 0.10322766E+03</pdfrwt>
<totfact> 0.19354747E+04</totfact>
</mgrwt>
</event>
<event>
 8    1  0.1405259E-003  0.9388990E+02  0.7546771E-02  0.1294428E+00
          1   -1    0    0  501    0  0.00000000000E+00  0.00000000000E+00  0.73837147831E+03  0.73837147831E+03  0.00000000000E+00 0. -1.
         -1   -1    0    0    0  501 -0.00000000000E+00 -0.00000000000E+00 -0.46106066050E+02  0.46106066050E+02  0.00000000000E+00 0.  1.
         23    2    1    2    0    0 -0.20286254493E+01 -0.88568128286E+01  0.68518513554E+03  0.69158801619E+03  0.93449214652E+02 0.  0.
         23    2    1    2    0    0  0.20286254493E+01  0.88568128286E+01  0.70802767252E+01  0.92889528174E+02  0.92172532086E+02 0.  0.
          5    1    3    3  502    0 -0.71769766880E+01 -0.50568068841E+02  0.34740211077E+03  0.35116798708E+03  0.47000000000E+01 0. -1.
         -5    1    3    3    0  502  0.51483512387E+01  0.41711256013E+02  0.33778302476E+03  0.34042002911E+03  0.47000000000E+01 0.  1.
          5    1    4    4  503    0  0.88960289959E+01 -0.28066296965E+02  0.34910713256E+02  0.45909740331E+02  0.47000000000E+01 0. -1.
         -5    1    4    4    0  503 -0.68674035466E+01  0.36923109793E+02 -0.27830436530E+02  0.46979787843E+02  0.47000000000E+01 0.  1.
<mgrwt>
<rscale>  0 0.93570628E+02</rscale>
<asrwt>0</asrwt>
<pdfrwt beam="1">  1        1 0.11359560E+00 0.93889905E+02</pdfrwt>
<pdfrwt beam="2">  1       -1 0.70932415E-02 0.93889905E+02</pdfrwt>
<totfact> 0.26154406E+03</totfact>
</mgrwt>
</event>
<event>
 8    1  0.3177960E-004  0.1001502E+03  0.7546771E-02  0.1280134E+00
         -1   -1    0    0    0  501 -0.00000000000E+00  0.00000000000E+00  0.13655846627E+03  0.13655846627E+03  0.00000000000E+00 0.  1.
          1   -1    0    0  501    0  0.00000000000E+00 -0.00000000000E+00 -0.91588444456E+02  0.91588444456E+02  0.00000000000E+00 0. -1.
         23    2    1    2    0    0 -0.39679724560E+02 -0.12096597559E+01  0.73524729216E+02  0.12400553739E+03  0.91627199453E+02 0.  0.
         23    2    1    2    0    0  0.39679724560E+02  0.12096597559E+01 -0.28554707403E+02  0.10414137333E+03  0.91946237046E+02 0.  0.
          5    1    4    4  502    0  0.68387325509E+02 -0.86153416563E+01 -0.23792988250E+02  0.73070149117E+02  0.47000000000E+01 0. -1.
         -5    1    3    3    0  503  0.81438415469E+01  0.35524806820E+02  0.41965225181E+02  0.55780858538E+02  0.47000000000E+01 0.  1.
          5    1    3    3  503    0 -0.47823566107E+02 -0.36734466576E+02  0.31559504035E+02  0.68224678854E+02  0.47000000000E+01 0. -1.
         -5    1    4    4    0  502 -0.28707600949E+02  0.98250014121E+01 -0.47617191534E+01  0.31071224216E+02  0.47000000000E+01 0.  1.
<mgrwt>
<rscale>  0 0.10007687E+03</rscale>
<asrwt>0</asrwt>
<pdfrwt beam="1">  1        1 0.14090530E-01 0.10015016E+03</pdfrwt>
<pdfrwt beam="2">  1       -1 0.21008995E-01 0.10015016E+03</pdfrwt>
<totfact> 0.69622267E+03</totfact>
</mgrwt>
</event>
<event>
 8    1  0.3177960E-004  0.1366986E+03  0.7546771E-02  0.1229843E+00
         -4   -1    0    0    0  501 -0.00000000000E+00  0.00000000000E+00  0.24613176599E+02  0.24613176599E+02  0.00000000000E+00 0.  1.
          4   -1    0    0  501    0  0.00000000000E+00 -0.00000000000E+00 -0.68640225335E+03  0.68640225335E+03  0.00000000000E+00 0. -1.
         23    2    1    2    0    0 -0.39284392380E+02 -0.38739298871E+02 -0.16984010934E+03  0.20042723458E+03  0.91002290409E+02 0.  0.
         23    2    1    2    0    0  0.39284392380E+02  0.38739298871E+02 -0.49194896741E+03  0.51058819537E+03  0.12507006817E+03 0.  0.
          5    1    3    3  502    0 -0.41240808813E+02  0.11792325155E+02 -0.12651339066E+03  0.13366970959E+03  0.47000000000E+01 0. -1.
         -5    1    3    3    0  502  0.19564164336E+01 -0.50531624026E+02 -0.43326718675E+02  0.66757524992E+02  0.47000000000E+01 0.  1.
          5    1    4    4  503    0  0.51401353064E+01  0.81074067502E+02 -0.31983536601E+03  0.33002450934E+03  0.47000000000E+01 0. -1.
         -5    1    4    4    0  503  0.34144257073E+02 -0.42334768631E+02 -0.17211360141E+03  0.18056368604E+03  0.47000000000E+01 0. -1.
<mgrwt>
<rscale>  0 0.12840440E+03</rscale>
<asrwt>0</asrwt>
<pdfrwt beam="1">  1        4 0.10560034E+00 0.13669864E+03</pdfrwt>
<pdfrwt beam="2">  1       -4 0.37866428E-02 0.13669864E+03</pdfrwt>
<totfact> 0.46777358E+02</totfact>
</mgrwt>
</event>
<event>
 8    1  0.3177960E-004  0.1156082E+03  0.7546771E-02  0.1251517E+00
         -4   -1    0    0    0  501 -0.00000000000E+00  0.00000000000E+00  0.74102001493E+03  0.74102001493E+03  0.00000000000E+00 0.  1.
          4   -1    0    0  501    0  0.00000000000E+00 -0.00000000000E+00 -0.18368482517E+02  0.18368482517E+02  0.00000000000E+00 0. -1.
         23    2    1    2    0    0 -0.66982755672E+02  0.13299482891E+02  0.43805762635E+03  0.45305599608E+03  0.93282826822E+02 0.  0.
         23    2    1    2    0    0  0.66982755672E+02 -0.13299482891E+02  0.28459390606E+03  0.30633250136E+03  0.90456311121E+02 0.  0.
          5    1    3    3  502    0 -0.33726771044E+02  0.47667793056E+02  0.32455954889E+03  0.32980403932E+03  0.47000000000E+01 0. -1.
         -5    1    3    3    0  502 -0.33255984628E+02 -0.34368310165E+02  0.11349807746E+03  0.12325195676E+03  0.47000000000E+01 0.  1.
          5    1    4    4  503    0  0.92929406073E+01 -0.31297796403E+02  0.29882436006E+02  0.44507985649E+02  0.47000000000E+01 0. -1.
         -5    1    4    4    0  503  0.57689815064E+02  0.17998313512E+02  0.25471147006E+03  0.26182451571E+03  0.47000000000E+01 0.  1.
<mgrwt>
<rscale>  0 0.11503686E+03</rscale>
<asrwt>0</asrwt>
<pdfrwt beam="1">  1        4 0.28259210E-02 0.11560818E+03</pdfrwt>
<pdfrwt beam="2">  1       -4 0.11400306E+00 0.11560818E+03</pdfrwt>
<totfact> 0.59827607E+02</totfact>
</mgrwt>
</event>
<event>
 8    1  0.3177960E-004  0.1035805E+03  0.7546771E-02  0.1273033E+00
          3   -1    0    0  501    0  0.00000000000E+00  0.00000000000E+00  0.65772790394E+02  0.65772790394E+02  0.00000000000E+00 0. -1.
         -3   -1    0    0    0  501 -0.00000000000E+00 -0.00000000000E+00 -0.65424283213E+03  0.65424283213E+03  0.00000000000E+00 0.  1.
         23    2    1    2    0    0  0.43159811021E+02 -0.26628117523E+02 -0.60630612775E+03  0.61509027257E+03  0.90316648141E+02 0.  0.
         23    2    1    2    0    0 -0.43159811021E+02  0.26628117523E+02  0.17836086014E+02  0.10492534996E+03  0.90107586633E+02 0.  0.
          5    1    4    4  502    0 -0.67466739687E+02  0.62378580556E+01 -0.62208943968E+00  0.67920165138E+02  0.47000000000E+01 0. -1.
         -5    1    4    4    0  502  0.24306928666E+02  0.20390259468E+02  0.18458175453E+02  0.37005184818E+02  0.47000000000E+01 0.  1.
          5    1    3    3  503    0 -0.18135460300E+02 -0.32144626148E+02 -0.14607386227E+03  0.15073763680E+03  0.47000000000E+01 0. -1.
         -5    1    3    3    0  503  0.61295271321E+02  0.55165086244E+01 -0.46023226549E+03  0.46435263577E+03  0.47000000000E+01 0.  1.
<mgrwt>
<rscale>  0 0.10353492E+03</rscale>
<asrwt>0</asrwt>
<pdfrwt beam="1">  1        3 0.10118891E-01 0.10358051E+03</pdfrwt>
<pdfrwt beam="2">  1       -3 0.10065274E+00 0.10358051E+03</pdfrwt>
<totfact> 0.14612795E+02</totfact>
</mgrwt>
</event>
<event>
 8    1  0.3177960E-004  0.9855606E+02  0.7546771E-02  0.1283377E+00
         -1   -1    0    0    0  501 -0.00000000000E+00  0.00000000000E+00  0.70396363080E+02  0.70396363080E+02  0.00000000000E+00 0.  1.
          1   -1    0    0  501    0  0.00000000000E+00 -0.00000000000E+00 -0.37446151296E+03  0.37446151296E+03  0.00000000000E+00 0. -1.
         23    2    1    2    0    0  0.36447322582E+02  0.39346289398E+01  0.24735013949E+02  0.10161258873E+03  0.91484472157E+02 0.  0.
         23    2    1    2    0    0 -0.36447322582E+02 -0.39346289398E+01 -0.32880016383E+03  0.34324528730E+03  0.91454310422E+02 0.  0.
          5    1    4    4  502    0 -0.32606259090E+02 -0.35743128148E+02 -0.28305505752E+03  0.28719852877E+03  0.47000000000E+01 0. -1.
         -5    1    4    4    0  502 -0.38410634922E+01  0.31808499209E+02 -0.45745106305E+02  0.56046758528E+02  0.47000000000E+01 0.  1.
          5    1    3    3  503    0 -0.29102619698E+02  0.29483747231E+01 -0.39708929812E+01  0.29891694129E+02  0.47000000000E+01 0. -1.
         -5    1    3    3    0  503  0.65549942280E+02  0.98625421668E+00  0.28705906930E+02  0.71720894606E+02  0.47000000000E+01 0.  1.
<mgrwt>
<rscale>  0 0.98549062E+02</rscale>
<asrwt>0</asrwt>
<pdfrwt beam="1">  1        1 0.57609463E-01 0.98556062E+02</pdfrwt>
<pdfrwt beam="2">  1       -1 0.10830210E-01 0.98556062E+02</pdfrwt>
<totfact> 0.33847836E+03</totfact>
</mgrwt>
</event>
<event>
 8    1  0.3177960E-004  0.2130121E+03  0.7546771E-02  0.1139839E+00
          2   -1    0    0  501    0  0.00000000000E+00  0.00000000000E+00  0.45115700146E+03  0.45115700146E+03  0.00000000000E+00 0. -1.
         -2   -1    0    0    0  501 -0.00000000000E+00 -0.00000000000E+00 -0.99420774351E+02  0.99420774351E+02  0.00000000000E+00 0.  1.
         23    2    1    2    0    0 -0.90058224547E+02  0.16596523767E+03  0.19411972879E+03  0.28819547131E+03  0.98586087529E+02 0.  0.
         23    2    1    2    0    0  0.90058224547E+02 -0.16596523767E+03  0.15761649832E+03  0.26238230451E+03  0.91359560254E+02 0.  0.
          5    1    3    3  502    0 -0.98384911832E+02  0.84856577308E+02  0.13462267770E+03  0.18715123548E+03  0.47000000000E+01 0. -1.
         -5    1    3    3    0  502  0.83266872852E+01  0.81108660362E+02  0.59497051084E+02  0.10104423583E+03  0.47000000000E+01 0.  1.
          5    1    4    4  503    0  0.90947313132E+02 -0.12928211359E+03  0.16044895828E+03  0.22528035173E+03  0.47000000000E+01 0. -1.
         -5    1    4    4    0  503 -0.88908858546E+00 -0.36683124078E+02 -0.28324599547E+01  0.37101952779E+02  0.47000000000E+01 0.  1.
<mgrwt>
<rscale>  0 0.21219575E+03</rscale>
<asrwt>0</asrwt>
<pdfrwt beam="1">  1        2 0.69408768E-01 0.21301211E+03</pdfrwt>
<pdfrwt beam="2">  1       -2 0.15295504E-01 0.21301211E+03</pdfrwt>
<totfact> 0.22954332E+03</totfact>
</mgrwt>
</event>
<event>
 8    1  0.3177960E-004  0.1102758E+03  0.7546771E-02  0.1260256E+00
          2   -1    0    0  501    0  0.00000000000E+00  0.00000000000E+00  0.13592210883E+03  0.13592210883E+03  0.00000000000E+00 0. -1.
         -2   -1    0    0    0  501 -0.00000000000E+00 -0.00000000000E+00 -0.11989044808E+03  0.11989044808E+03  0.00000000000E+00 0.  1.
         23    2    1    2    0    0  0.42593264842E+02  0.45809264733E+02 -0.56766265236E+02  0.12402883708E+03  0.90818878063E+02 0.  0.
         23    2    1    2    0    0 -0.42593264842E+02 -0.45809264733E+02  0.72797925994E+02  0.13178371983E+03  0.90303575999E+02 0.  0.
          5    1    4    4  502    0  0.17179494528E+01 -0.37317798541E+02  0.77516866612E+02  0.86177282665E+02  0.47000000000E+01 0. -1.
         -5    1    4    4    0  502 -0.44311214295E+02 -0.84914661918E+01 -0.47189406184E+01  0.45606437165E+02  0.47000000000E+01 0.  1.
          5    1    3    3  503    0  0.47777988802E+02 -0.47906759881E+01 -0.79700673435E+00  0.48253621731E+02  0.47000000000E+01 0. -1.
         -5    1    3    3    0  503 -0.51847239605E+01  0.50599940721E+02 -0.55969258502E+02  0.75775215346E+02  0.47000000000E+01 0.  1.
<mgrwt>
<rscale>  0 0.11016961E+03</rscale>
<asrwt>0</asrwt>
<pdfrwt beam="1">  1        2 0.20911094E-01 0.11027576E+03</pdfrwt>
<pdfrwt beam="2">  1       -2 0.18444684E-01 0.11027576E+03</pdfrwt>
<totfact> 0.59669218E+03</totfact>
</mgrwt>
</event>
<event>
 8    1  0.3177960E-004  0.9424666E+02  0.7546771E-02  0.1294714E+00
         -1   -1    0    0    0  501 -0.00000000000E+00  0.00000000000E+00  0.37489583312E+03  0.37489583312E+03  0.00000000000E+00 0.  1.
          1   -1    0    0  501    0  0.00000000000E+00 -0.00000000000E+00 -0.36899183304E+02  0.36899183304E+02  0.00000000000E+00 0. -1.
         23    2    1    2    0    0  0.16585105095E+02 -0.78496717072E+01  0.29399646693E+03  0.30778324017E+03  0.89218368662E+02 0.  0.
         23    2    1    2    0    0 -0.16585105095E+02  0.78496717072E+01  0.44000182892E+02  0.10401177626E+03  0.92443228248E+02 0.  0.
          5    1    4    4  502    0 -0.33835802793E+02  0.22652532774E+02  0.62216729380E+02  0.74505101882E+02  0.47000000000E+01 0. -1.
         -5    1    4    4    0  502  0.17250697698E+02 -0.14802861067E+02 -0.18216546487E+02  0.29506674376E+02  0.47000000000E+01 0.  1.
          5    1    3    3  503    0 -0.30970291641E+02 -0.17474140826E+02  0.71300171908E+02  0.79814216003E+02  0.47000000000E+01 0. -1.
         -5    1    3    3    0  503  0.47555396736E+02  0.96244691193E+01  0.22269629502E+03  0.22796902417E+03  0.47000000000E+01 0.  1.
<mgrwt>
<rscale>  0 0.93446278E+02</rscale>
<asrwt>0</asrwt>
<pdfrwt beam="1">  1        1 0.56767977E-02 0.94246663E+02</pdfrwt>
<pdfrwt beam="2">  1       -1 0.57676279E-01 0.94246663E+02</pdfrwt>
<totfact> 0.40865717E+03</totfact>
</mgrwt>
</event>
<event>
 8    1  0.3177960E-004  0.1033896E+03  0.7546771E-02  0.1274035E+00
          1   -1    0    0  501    0  0.00000000000E+00  0.00000000000E+00  0.20310306750E+02  0.20310306750E+02  0.00000000000E+00 0. -1.
         -1   -1    0    0    0  501 -0.00000000000E+00 -0.00000000000E+00 -0.79525731267E+03  0.79525731267E+03  0.00000000000E+00 0.  1.
         23    2    1    2    0    0 -0.40990227573E+02  0.19729339664E+02 -0.14549136112E+03  0.17767749388E+03  0.91280392598E+02 0.  0.
         23    2    1    2    0    0  0.40990227573E+02 -0.19729339664E+02 -0.62945564481E+03  0.63789012554E+03  0.92843728288E+02 0.  0.
          5    1    3    3  502    0 -0.57374499882E+02 -0.13880995039E+02 -0.60257518019E+02  0.84484162645E+02  0.47000000000E+01 0. -1.
         -5    1    3    3    0  502  0.16384272310E+02  0.33610334703E+02 -0.85233843097E+02  0.93193331237E+02  0.47000000000E+01 0.  1.
          5    1    4    4  503    0  0.33695800574E+01 -0.52690203687E+02 -0.34004230073E+03  0.34414890371E+03  0.47000000000E+01 0. -1.
         -5    1    4    4    0  503  0.37620647515E+02  0.32960864023E+02 -0.28941334407E+03  0.29374122183E+03  0.47000000000E+01 0.  1.
<mgrwt>
<rscale>  0 0.10303739E+03</rscale>
<asrwt>0</asrwt>
<pdfrwt beam="1">  1        1 0.31246627E-02 0.10338957E+03</pdfrwt>
<pdfrwt beam="2">  1       -1 0.12234728E+00 0.10338957E+03</pdfrwt>
<totfact> 0.19436077E+03</totfact>
</mgrwt>
</event>
<event>
 8    1  0.3177960E-004  0.1045031E+03  0.7546771E-02  0.1272261E+00
          1   -1    0    0  501    0  0.00000000000E+00  0.00000000000E+00  0.56671974645E+02  0.56671974645E+02  0.00000000000E+00 0. -1.
         -1   -1    0    0    0  501 -0.00000000000E+00 -0.00000000000E+00 -0.37156996300E+03  0.37156996300E+03  0.00000000000E+00 0.  1.
         23    2    1    2    0    0  0.45874111596E+02  0.87164408685E+01 -0.80370351841E+01  0.10481172871E+03  0.93490609608E+02 0.  0.
         23    2    1    2    0    0 -0.45874111596E+02 -0.87164408685E+01 -0.30686095317E+03  0.32343020893E+03  0.90901292695E+02 0.  0.
          5    1    4    4  502    0  0.25328621654E+02  0.37544474523E+01 -0.12481895427E+03  0.12750488734E+03  0.47000000000E+01 0. -1.
         -5    1    4    4    0  502 -0.71202733249E+02 -0.12470888321E+02 -0.18204199890E+03  0.19592532159E+03  0.47000000000E+01 0.  1.
          5    1    3    3  503    0  0.35096051949E+02 -0.28860108311E+02  0.26177415932E+02  0.52649651652E+02  0.47000000000E+01 0. -1.
         -5    1    3    3    0  503  0.10778059646E+02  0.37576549180E+02 -0.34214451116E+02  0.52162077060E+02  0.47000000000E+01 0.  1.
<mgrwt>
<rscale>  0 0.10392081E+03</rscale>
<asrwt>0</asrwt>
<pdfrwt beam="1">  1        1 0.87187655E-02 0.10450313E+03</pdfrwt>
<pdfrwt beam="2">  1       -1 0.57164609E-01 0.10450313E+03</pdfrwt>
<totfact> 0.23574102E+03</totfact>
</mgrwt>
</event>
<event>
 8    1  0.3177960E-004  0.1162568E+03  0.7546771E-02  0.1249426E+00
          2   -1    0    0  501    0  0.00000000000E+00  0.00000000000E+00  0.20151440081E+03  0.20151440081E+03  0.00000000000E+00 0. -1.
         -2   -1    0    0    0  501 -0.00000000000E+00 -0.00000000000E+00 -0.67124373878E+02  0.67124373878E+02  0.00000000000E+00 0.  1.
         23    2    1    2    0    0 -0.48681639188E+02 -0.52273587621E+02  0.71998027248E+02  0.13674564015E+03  0.91723629530E+02 0.  0.
         23    2    1    2    0    0  0.48681639188E+02  0.52273587621E+02  0.62391999686E+02  0.13189313455E+03  0.91654827252E+02 0.  0.
          5    1    4    4  502    0  0.51484766476E+02 -0.10815959856E+02  0.26301818547E+02  0.59004591563E+02  0.47000000000E+01 0. -1.
         -5    1    3    3    0  503 -0.28736079304E+02  0.81229280770E+01 -0.10915599276E+02  0.32140076569E+02  0.47000000000E+01 0.  1.
          5    1    3    3  503    0 -0.19945559884E+02 -0.60396515698E+02  0.82913626525E+02  0.10460556358E+03  0.47000000000E+01 0. -1.
         -5    1    4    4    0  502 -0.28031272877E+01  0.63089547477E+02  0.36090181139E+02  0.72888542983E+02  0.47000000000E+01 0.  1.
<mgrwt>
<rscale>  0 0.11624327E+03</rscale>
<asrwt>0</asrwt>
<pdfrwt beam="1">  1        2 0.31002215E-01 0.11625685E+03</pdfrwt>
<pdfrwt beam="2">  1       -2 0.10326827E-01 0.11625685E+03</pdfrwt>
<totfact> 0.99256009E+03</totfact>
</mgrwt>
</event>
<event>
 8    1  0.3177960E-004  0.2026973E+03  0.7546771E-02  0.1147778E+00
         -1   -1    0    0    0  501 -0.00000000000E+00  0.00000000000E+00  0.77545020354E+02  0.77545020354E+02  0.00000000000E+00 0.  1.
          1   -1    0    0  501    0  0.00000000000E+00 -0.00000000000E+00 -0.14052121525E+04  0.14052121525E+04  0.00000000000E+00 0. -1.
         23    2    1    2    0    0 -0.17285777448E+03  0.54581314138E+02 -0.76580359963E+02  0.21535656755E+03  0.87492683148E+02 0.  0.
         23    2    1    2    0    0  0.17285777448E+03 -0.54581314138E+02 -0.12510867722E+04  0.12674006053E+04  0.90704204704E+02 0.  0.
          5    1    3    3  502    0 -0.37022347375E+02  0.19976592902E+02  0.18204848871E+02  0.46078465595E+02  0.47000000000E+01 0. -1.
         -5    1    3    3    0  502 -0.13583542710E+03  0.34604721235E+02 -0.94785208833E+02  0.16927810195E+03  0.47000000000E+01 0.  1.
          5    1    4    4  503    0  0.33223286520E+02 -0.35217634073E+02 -0.15989220315E+03  0.16712772106E+03  0.47000000000E+01 0.  1.
         -5    1    4    4    0  503  0.13963448796E+03 -0.19363680064E+02 -0.10911945691E+04  0.11002728843E+04  0.47000000000E+01 0. -1.
<mgrwt>
<rscale>  0 0.20234218E+03</rscale>
<asrwt>0</asrwt>
<pdfrwt beam="1">  1        1 0.21618647E+00 0.20269727E+03</pdfrwt>
<pdfrwt beam="2">  1       -1 0.11930004E-01 0.20269727E+03</pdfrwt>
<totfact> 0.38847935E+02</totfact>
</mgrwt>
</event>
<event>
 8    1  0.3177960E-004  0.1795529E+03  0.7546771E-02  0.1168360E+00
          2   -1    0    0  501    0  0.00000000000E+00  0.00000000000E+00  0.99815811042E+03  0.99815811042E+03  0.00000000000E+00 0. -1.
         -2   -1    0    0    0  501 -0.00000000000E+00 -0.00000000000E+00 -0.32246468778E+02  0.32246468778E+02  0.00000000000E+00 0.  1.
         23    2    1    2    0    0 -0.37750170070E+01 -0.15530709734E+03  0.46571800636E+03  0.49913175697E+03  0.90026130273E+02 0.  0.
         23    2    1    2    0    0  0.37750170070E+01  0.15530709734E+03  0.50019363528E+03  0.53127282223E+03  0.89008952479E+02 0.  0.
          5    1    4    4  502    0  0.22016984340E+02  0.15861539654E+02  0.17193038254E+03  0.17412203330E+03  0.47000000000E+01 0. -1.
         -5    1    4    4    0  502 -0.18241967333E+02  0.13944555769E+03  0.32826325274E+03  0.35715078893E+03  0.47000000000E+01 0.  1.
          5    1    3    3  503    0 -0.37320265186E+01 -0.12029596433E+03  0.43791686490E+03  0.45417872872E+03  0.47000000000E+01 0. -1.
         -5    1    3    3    0  503 -0.42990488335E-01 -0.35011133008E+02  0.27801141462E+02  0.44953028255E+02  0.47000000000E+01 0.  1.
<mgrwt>
<rscale>  0 0.17942582E+03</rscale>
<asrwt>0</asrwt>
<pdfrwt beam="1">  1        2 0.15356276E+00 0.17955292E+03</pdfrwt>
<pdfrwt beam="2">  1       -2 0.49609960E-02 0.17955292E+03</pdfrwt>
<totfact> 0.51411255E+03</totfact>
</mgrwt>
</event>
<event>
 8    1  0.3177960E-004  0.9459099E+02  0.7546771E-02  0.1292684E+00
         -2   -1    0    0    0  501 -0.00000000000E+00  0.00000000000E+00  0.18990443506E+03  0.18990443506E+03  0.00000000000E+00 0.  1.
          2   -1    0    0  501    0  0.00000000000E+00 -0.00000000000E+00 -0.78533601158E+02  0.78533601158E+02  0.00000000000E+00 0. -1.
         23    2    1    2    0    0  0.21950563605E+02 -0.21343709203E+01  0.14108391296E+03  0.16929005556E+03  0.90928926267E+02 0.  0.
         23    2    1    2    0    0 -0.21950563605E+02  0.21343709203E+01 -0.29713079062E+02  0.99147980659E+02  0.91984086773E+02 0.  0.
          5    1    3    3  502    0  0.37186751604E+02  0.28757035111E+02  0.38398968785E+02  0.60880147561E+02  0.47000000000E+01 0. -1.
         -5    1    4    4    0  503  0.30460923688E+01 -0.34908403589E+02 -0.39654926977E+02  0.53127003994E+02  0.47000000000E+01 0.  1.
          5    1    4    4  503    0 -0.24996655973E+02  0.37042774509E+02  0.99418479144E+01  0.46020976665E+02  0.47000000000E+01 0. -1.
         -5    1    3    3    0  502 -0.15236188000E+02 -0.30891406031E+02  0.10268494417E+03  0.10840990800E+03  0.47000000000E+01 0.  1.
<mgrwt>
<rscale>  0 0.94333499E+02</rscale>
<asrwt>0</asrwt>
<pdfrwt beam="1">  1        2 0.12082093E-01 0.94590988E+02</pdfrwt>
<pdfrwt beam="2">  1       -2 0.29216067E-01 0.94590988E+02</pdfrwt>
<totfact> 0.50367954E+03</totfact>
</mgrwt>
</event>
<event>
 8    1  0.3177960E-004  0.1236977E+03  0.7546771E-02  0.1248461E+00
         -1   -1    0    0    0  501 -0.00000000000E+00  0.00000000000E+00  0.11387543624E+03  0.11387543624E+03  0.00000000000E+00 0.  1.
          1   -1    0    0  501    0  0.00000000000E+00 -0.00000000000E+00 -0.10855343056E+03  0.10855343056E+03  0.00000000000E+00 0. -1.
         23    2    1    2    0    0  0.32703717681E+02 -0.12614262856E+02  0.82640894631E+01  0.98696152293E+02  0.91891144977E+02 0.  0.
         23    2    1    2    0    0 -0.32703717681E+02  0.12614262856E+02 -0.29420837854E+01  0.12373271451E+03  0.11862746734E+03 0.  0.
          5    1    4    4  502    0  0.43270881638E+01  0.48105009113E+02  0.34938204023E+02  0.59796184612E+02  0.47000000000E+01 0. -1.
         -5    1    3    3    0  503  0.15217775003E+01  0.38086444689E+02  0.65797982607E+01  0.38965071808E+02  0.47000000000E+01 0.  1.
          5    1    3    3  503    0  0.31181940181E+02 -0.50700707545E+02  0.16842912024E+01  0.59731080485E+02  0.47000000000E+01 0. -1.
         -5    1    4    4    0  502 -0.37030805845E+02 -0.35490746257E+02 -0.37880287809E+02  0.63936529902E+02  0.47000000000E+01 0.  1.
<mgrwt>
<rscale>  0 0.11680580E+03</rscale>
<asrwt>0</asrwt>
<pdfrwt beam="1">  1        1 0.16700528E-01 0.12369773E+03</pdfrwt>
<pdfrwt beam="2">  1       -1 0.17519298E-01 0.12369773E+03</pdfrwt>
<totfact> 0.75978237E+03</totfact>
</mgrwt>
</event>
<event>
 8    1  0.3177960E-004  0.1401913E+03  0.7546771E-02  0.1213364E+00
         -2   -1    0    0    0  501 -0.00000000000E+00  0.00000000000E+00  0.13905469580E+02  0.13905469580E+02  0.00000000000E+00 0.  1.
          2   -1    0    0  501    0  0.00000000000E+00 -0.00000000000E+00 -0.15674171068E+04  0.15674171068E+04  0.00000000000E+00 0. -1.
         23    2    1    2    0    0  0.23486806295E+02 -0.10421832345E+03 -0.10293931028E+04  0.10387787208E+04  0.89431436080E+02 0.  0.
         23    2    1    2    0    0 -0.23486806295E+02  0.10421832345E+03 -0.52411853449E+03  0.54254385562E+03  0.90777244139E+02 0.  0.
          5    1    4    4  502    0  0.32578975203E+02  0.31219287429E+02 -0.22581695230E+03  0.23032893756E+03  0.47000000000E+01 0. -1.
         -5    1    3    3    0  503  0.47631695401E+02 -0.24102918974E+02 -0.48866201538E+03  0.49159168461E+03  0.47000000000E+01 0.  1.
          5    1    3    3  503    0 -0.24144889106E+02 -0.80115404478E+02 -0.54073108739E+03  0.54718703619E+03  0.47000000000E+01 0. -1.
         -5    1    4    4    0  502 -0.56065781499E+02  0.72999036024E+02 -0.29830158219E+03  0.31221491805E+03  0.47000000000E+01 0.  1.
<mgrwt>
<rscale>  0 0.13997386E+03</rscale>
<asrwt>0</asrwt>
<pdfrwt beam="1">  1        2 0.24114104E+00 0.14019129E+03</pdfrwt>
<pdfrwt beam="2">  1       -2 0.21393035E-02 0.14019129E+03</pdfrwt>
<totfact> 0.86107546E+03</totfact>
</mgrwt>
</event>
<event>
 8    1  0.3177960E-004  0.1319543E+03  0.7546771E-02  0.1224594E+00
         -1   -1    0    0    0  501 -0.00000000000E+00  0.00000000000E+00  0.64132649254E+03  0.64132649254E+03  0.00000000000E+00 0.  1.
          1   -1    0    0  501    0  0.00000000000E+00 -0.00000000000E+00 -0.28626397489E+02  0.28626397489E+02  0.00000000000E+00 0. -1.
         23    2    1    2    0    0 -0.86188077913E+02  0.42391354276E+02  0.38258729607E+03  0.40470356096E+03  0.90479397933E+02 0.  0.
         23    2    1    2    0    0  0.86188077913E+02 -0.42391354276E+02  0.23011279898E+03  0.26524932907E+03  0.90442769876E+02 0.  0.
          5    1    4    4  502    0  0.87590484458E+02 -0.17343538625E+00  0.17397600619E+03  0.19483804500E+03  0.47000000000E+01 0. -1.
         -5    1    4    4    0  502 -0.14024065453E+01 -0.42217918890E+02  0.56136792788E+02  0.70411284068E+02  0.47000000000E+01 0.  1.
          5    1    3    3  503    0  0.40867417267E+01  0.39507108810E+02  0.90736584474E+02  0.99160127403E+02  0.47000000000E+01 0. -1.
         -5    1    3    3    0  503 -0.90274819640E+02  0.28842454660E+01  0.29185071159E+03  0.30554343356E+03  0.47000000000E+01 0.  1.
<mgrwt>
<rscale>  0 0.13194801E+03</rscale>
<asrwt>0</asrwt>
<pdfrwt beam="1">  1        1 0.44040616E-02 0.13195428E+03</pdfrwt>
<pdfrwt beam="2">  1       -1 0.98665603E-01 0.13195428E+03</pdfrwt>
<totfact> 0.20011991E+03</totfact>
</mgrwt>
</event>
<event>
 8    1  0.3177960E-004  0.1824534E+03  0.7546771E-02  0.1165646E+00
         -2   -1    0    0    0  501 -0.00000000000E+00  0.00000000000E+00  0.10645590802E+03  0.10645590802E+03  0.00000000000E+00 0.  1.
          2   -1    0    0  501    0  0.00000000000E+00 -0.00000000000E+00 -0.34102816806E+03  0.34102816806E+03  0.00000000000E+00 0. -1.
         23    2    1    2    0    0  0.77166560981E+02 -0.13870933056E+03 -0.18310855597E+03  0.25791148388E+03  0.88287222900E+02 0.  0.
         23    2    1    2    0    0 -0.77166560981E+02  0.13870933056E+03 -0.51463704075E+02  0.18957259220E+03  0.89968318643E+02 0.  0.
          5    1    4    4  502    0 -0.55342110194E+02  0.14424763724E+03 -0.58878861629E+02  0.16540538189E+03  0.47000000000E+01 0. -1.
         -5    1    4    4    0  502 -0.21824450787E+02 -0.55383066787E+01  0.74151575542E+01  0.24167210318E+02  0.47000000000E+01 0.  1.
          5    1    3    3  503    0  0.57488770809E+02 -0.37701217355E+02 -0.11613538569E+03  0.13504021019E+03  0.47000000000E+01 0. -1.
         -5    1    3    3    0  503  0.19677790172E+02 -0.10100811321E+03 -0.66973170280E+02  0.12287127368E+03  0.47000000000E+01 0.  1.
<mgrwt>
<rscale>  0 0.18224732E+03</rscale>
<asrwt>0</asrwt>
<pdfrwt beam="1">  1        2 0.52465872E-01 0.18245343E+03</pdfrwt>
<pdfrwt beam="2">  1       -2 0.16377832E-01 0.18245343E+03</pdfrwt>
<totfact> 0.27613920E+03</totfact>
</mgrwt>
</event>
<event>
 8    1  0.3177960E-004  0.9333480E+02  0.7546771E-02  0.1295750E+00
         -1   -1    0    0    0  501 -0.00000000000E+00  0.00000000000E+00  0.46593835571E+02  0.46593835571E+02  0.00000000000E+00 0.  1.
          1   -1    0    0  501    0  0.00000000000E+00 -0.00000000000E+00 -0.28824891582E+03  0.28824891582E+03  0.00000000000E+00 0. -1.
         23    2    1    2    0    0 -0.29419934299E+01 -0.19411352311E+02 -0.22081175171E+03  0.23920891890E+03  0.89875587682E+02 0.  0.
         23    2    1    2    0    0  0.29419934299E+01  0.19411352311E+02 -0.20843328539E+02  0.95633832498E+02  0.91246532262E+02 0.  0.
          5    1    3    3  502    0 -0.38762337817E+01  0.29187459443E+02 -0.30192288220E+02  0.42433444888E+02  0.47000000000E+01 0. -1.
         -5    1    4    4    0  503  0.41532017297E+02  0.76864440382E+01 -0.32373122701E+02  0.53423767708E+02  0.47000000000E+01 0.  1.
          5    1    4    4  503    0 -0.38590023867E+02  0.11724908273E+02  0.11529794162E+02  0.42210064789E+02  0.47000000000E+01 0. -1.
         -5    1    3    3    0  502  0.93424035179E+00 -0.48598811755E+02 -0.19061946349E+03  0.19677547401E+03  0.47000000000E+01 0.  1.
<mgrwt>
<rscale>  0 0.92998031E+02</rscale>
<asrwt>0</asrwt>
<pdfrwt beam="1">  1        1 0.44345986E-01 0.93334804E+02</pdfrwt>
<pdfrwt beam="2">  1       -1 0.71682825E-02 0.93334804E+02</pdfrwt>
<totfact> 0.86460342E+03</totfact>
</mgrwt>
</event>
<event>
 8    1  0.3177960E-004  0.1189277E+03  0.7546771E-02  0.1245695E+00
          2   -1    0    0  501    0  0.00000000000E+00  0.00000000000E+00  0.11170663740E+04  0.11170663740E+04  0.00000000000E+00 0. -1.
         -2   -1    0    0    0  501 -0.00000000000E+00 -0.00000000000E+00 -0.13924046472E+02  0.13924046472E+02  0.00000000000E+00 0.  1.
         23    2    1    2    0    0 -0.55863180051E+02  0.48536166762E+02  0.73114803993E+03  0.74044777916E+03  0.90603548484E+02 0.  0.
         23    2    1    2    0    0  0.55863180051E+02 -0.48536166762E+02  0.37199428761E+03  0.39054264132E+03  0.93098605301E+02 0.  0.
          5    1    4    4  502    0  0.69291546270E+02 -0.26426833650E+02  0.34480332988E+03  0.35271960850E+03  0.47000000000E+01 0. -1.
         -5    1    4    4    0  502 -0.13428366219E+02 -0.22109333113E+02  0.27190957724E+02  0.37823032823E+02  0.47000000000E+01 0.  1.
          5    1    3    3  503    0 -0.37339712948E+01 -0.25086915770E+02  0.12805454663E+03  0.13062676907E+03  0.47000000000E+01 0. -1.
         -5    1    3    3    0  503 -0.52129208756E+02  0.73623082533E+02  0.60309349330E+03  0.60982101009E+03  0.47000000000E+01 0.  1.
<mgrwt>
<rscale>  0 0.11843901E+03</rscale>
<asrwt>0</asrwt>
<pdfrwt beam="1">  1        2 0.17185629E+00 0.11892773E+03</pdfrwt>
<pdfrwt beam="2">  1       -2 0.21421619E-02 0.11892773E+03</pdfrwt>
<totfact> 0.14855057E+04</totfact>
</mgrwt>
</event>
<event>
 8    1  0.3177960E-004  0.1098005E+03  0.7546771E-02  0.1262737E+00
          2   -1    0    0  501    0  0.00000000000E+00  0.00000000000E+00  0.78700364659E+03  0.78700364659E+03  0.00000000000E+00 0. -1.
         -2   -1    0    0    0  501 -0.00000000000E+00 -0.00000000000E+00 -0.14868057823E+02  0.14868057823E+02  0.00000000000E+00 0.  1.
         23    2    1    2    0    0 -0.37730087888E+02 -0.38961403439E+02  0.42120262059E+03  0.43527897976E+03  0.95470373088E+02 0.  0.
         23    2    1    2    0    0  0.37730087888E+02  0.38961403439E+02  0.35093296818E+03  0.36659272466E+03  0.91075392537E+02 0.  0.
          5    1    4    4  502    0  0.40164271845E+02  0.66008649265E+02  0.27968309126E+03  0.29019826334E+03  0.47000000000E+01 0. -1.
         -5    1    4    4    0  502 -0.24341839571E+01 -0.27047245826E+02  0.71249876920E+02  0.76394461314E+02  0.47000000000E+01 0.  1.
          5    1    3    3  503    0 -0.40489969672E+02  0.22976950964E+02  0.15485167792E+03  0.16176683861E+03  0.47000000000E+01 0. -1.
         -5    1    3    3    0  503  0.27598817843E+01 -0.61938354403E+02  0.26635094267E+03  0.27351214115E+03  0.47000000000E+01 0.  1.
<mgrwt>
<rscale>  0 0.10883810E+03</rscale>
<asrwt>0</asrwt>
<pdfrwt beam="1">  1        2 0.12107745E+00 0.10980047E+03</pdfrwt>
<pdfrwt beam="2">  1       -2 0.22873941E-02 0.10980047E+03</pdfrwt>
<totfact> 0.21372633E+04</totfact>
</mgrwt>
</event>
<event>
 8    1  0.3177960E-004  0.9193480E+02  0.7546771E-02  0.1299022E+00
          1   -1    0    0  501    0  0.00000000000E+00  0.00000000000E+00  0.30562145167E+03  0.30562145167E+03  0.00000000000E+00 0. -1.
         -1   -1    0    0    0  501 -0.00000000000E+00 -0.00000000000E+00 -0.48892191036E+02  0.48892191036E+02  0.00000000000E+00 0.  1.
         23    2    1    2    0    0 -0.83285499832E+01  0.85562983284E+01  0.99294156484E+01  0.91146654799E+02  0.89813943239E+02 0.  0.
         23    2    1    2    0    0  0.83285499832E+01 -0.85562983284E+01  0.24679984498E+03  0.26336698790E+03  0.91156085086E+02 0.  0.
          5    1    3    3  502    0 -0.48037156275E+02  0.12649709517E+02  0.67934845303E+00  0.49901252972E+02  0.47000000000E+01 0. -1.
         -5    1    3    3    0  502  0.39708606292E+02 -0.40934111890E+01  0.92500671953E+01  0.41245401827E+02  0.47000000000E+01 0.  1.
          5    1    4    4  503    0  0.30487355333E+02 -0.39101066843E+02  0.17708262035E+03  0.18395302849E+03  0.47000000000E+01 0. -1.
         -5    1    4    4    0  503 -0.22158805350E+02  0.30544768515E+02  0.69717224638E+02  0.79413959411E+02  0.47000000000E+01 0.  1.
<mgrwt>
<rscale>  0 0.91600324E+02</rscale>
<asrwt>0</asrwt>
<pdfrwt beam="1">  1        1 0.47018684E-01 0.91934797E+02</pdfrwt>
<pdfrwt beam="2">  1       -1 0.75218757E-02 0.91934797E+02</pdfrwt>
<totfact> 0.74843384E+03</totfact>
</mgrwt>
</event>
<event>
 8    1  0.3177960E-004  0.9223996E+02  0.7546771E-02  0.1300789E+00
         -4   -1    0    0    0  501 -0.00000000000E+00  0.00000000000E+00  0.37172009249E+02  0.37172009249E+02  0.00000000000E+00 0.  1.
          4   -1    0    0  501    0  0.00000000000E+00 -0.00000000000E+00 -0.22556919786E+03  0.22556919786E+03  0.00000000000E+00 0. -1.
         23    2    1    2    0    0 -0.13247375289E+02  0.95491768225E+01 -0.12443375064E+03  0.15489341253E+03  0.90782879529E+02 0.  0.
         23    2    1    2    0    0  0.13247375289E+02 -0.95491768225E+01 -0.63963437969E+02  0.10784779458E+03  0.85282739573E+02 0.  0.
          5    1    4    4  502    0 -0.20726856533E+02  0.20120036095E+02  0.21095212782E+00  0.29266925616E+02  0.47000000000E+01 0. -1.
         -5    1    3    3    0  503 -0.40045170984E+02 -0.12985545142E+02 -0.24579909268E+02  0.48974503993E+02  0.47000000000E+01 0.  1.
          5    1    3    3  503    0  0.26797795694E+02  0.22534721964E+02 -0.99853841373E+02  0.10591890853E+03  0.47000000000E+01 0. -1.
         -5    1    4    4    0  502  0.33974231822E+02 -0.29669212918E+02 -0.64174390097E+02  0.78580868965E+02  0.47000000000E+01 0.  1.
<mgrwt>
<rscale>  0 0.90857233E+02</rscale>
<asrwt>0</asrwt>
<pdfrwt beam="1">  1        4 0.34702955E-01 0.92239964E+02</pdfrwt>
<pdfrwt beam="2">  1       -4 0.57187705E-02 0.92239964E+02</pdfrwt>
<totfact> 0.23036915E+03</totfact>
</mgrwt>
</event>
<event>
 8    1  0.3177960E-004  0.1406205E+03  0.7546771E-02  0.1212573E+00
         -2   -1    0    0    0  501 -0.00000000000E+00  0.00000000000E+00  0.10294879801E+03  0.10294879801E+03  0.00000000000E+00 0.  1.
          2   -1    0    0  501    0  0.00000000000E+00 -0.00000000000E+00 -0.19339056463E+03  0.19339056463E+03  0.00000000000E+00 0. -1.
         23    2    1    2    0    0 -0.17782716290E+02  0.10528179184E+03 -0.31676388281E+02  0.14414409158E+03  0.91507621933E+02 0.  0.
         23    2    1    2    0    0  0.17782716290E+02 -0.10528179184E+03 -0.58765378348E+02  0.15219527106E+03  0.91156733977E+02 0.  0.
          5    1    3    3  502    0  0.22618803335E+02  0.62705905976E+02  0.15610296316E+02  0.68625157629E+02  0.47000000000E+01 0. -1.
         -5    1    4    4    0  503  0.39548939259E+02 -0.38545260834E+02  0.70303762831E+01  0.55869239479E+02  0.47000000000E+01 0.  1.
          5    1    4    4  503    0 -0.21766222968E+02 -0.66736531003E+02 -0.65795754631E+02  0.96326031581E+02  0.47000000000E+01 0. -1.
         -5    1    3    3    0  502 -0.40401519626E+02  0.42575885861E+02 -0.47286684596E+02  0.75518933950E+02  0.47000000000E+01 0.  1.
<mgrwt>
<rscale>  0 0.14056345E+03</rscale>
<asrwt>0</asrwt>
<pdfrwt beam="1">  1        2 0.29752394E-01 0.14062050E+03</pdfrwt>
<pdfrwt beam="2">  1       -2 0.15838277E-01 0.14062050E+03</pdfrwt>
<totfact> 0.52941281E+03</totfact>
</mgrwt>
</event>
<event>
 8    1  0.3177960E-004  0.9354958E+02  0.7546771E-02  0.1295614E+00
         -1   -1    0    0    0  501 -0.00000000000E+00  0.00000000000E+00  0.33573703153E+03  0.33573703153E+03  0.00000000000E+00 0.  1.
          1   -1    0    0  501    0  0.00000000000E+00 -0.00000000000E+00 -0.27459570907E+02  0.27459570907E+02  0.00000000000E+00 0. -1.
         23    2    1    2    0    0 -0.15048623009E+02  0.17468368495E+02  0.10441528724E+03  0.13889477476E+03  0.88643111931E+02 0.  0.
         23    2    1    2    0    0  0.15048623009E+02 -0.17468368495E+02  0.20386217338E+03  0.22430182767E+03  0.90663770119E+02 0.  0.
          5    1    3    3  502    0 -0.26403868393E+02  0.46474793490E+02  0.39142465645E+02  0.66417567803E+02  0.47000000000E+01 0. -1.
         -5    1    4    4    0  503 -0.30958474900E+02 -0.32169395809E+02  0.92080629986E+02  0.10244134719E+03  0.47000000000E+01 0.  1.
          5    1    4    4  503    0  0.46007097909E+02  0.14701027314E+02  0.11178154339E+03  0.12186048049E+03  0.47000000000E+01 0. -1.
         -5    1    3    3    0  502  0.11355245384E+02 -0.29006424995E+02  0.65272821599E+02  0.72477206957E+02  0.47000000000E+01 0.  1.
<mgrwt>
<rscale>  0 0.93056453E+02</rscale>
<asrwt>0</asrwt>
<pdfrwt beam="1">  1        1 0.42245496E-02 0.93549581E+02</pdfrwt>
<pdfrwt beam="2">  1       -1 0.51651848E-01 0.93549581E+02</pdfrwt>
<totfact> 0.74625638E+03</totfact>
</mgrwt>
</event>
<event>
 8    1  0.3177960E-004  0.1000484E+03  0.7546771E-02  0.1280327E+00
         -1   -1    0    0    0  501 -0.00000000000E+00  0.00000000000E+00  0.17994912313E+02  0.17994912313E+02  0.00000000000E+00 0.  1.
          1   -1    0    0  501    0  0.00000000000E+00 -0.00000000000E+00 -0.70271370863E+03  0.70271370863E+03  0.00000000000E+00 0. -1.
         23    2    1    2    0    0  0.60713616359E+01 -0.40256377772E+02 -0.50731796609E+03  0.51704042027E+03  0.91114434046E+02 0.  0.
         23    2    1    2    0    0 -0.60713616359E+01  0.40256377772E+02 -0.17740083023E+03  0.20366820067E+03  0.91390612302E+02 0.  0.
          5    1    4    4  502    0 -0.20425542651E+02  0.57579470703E+02 -0.16801952146E+03  0.17884419988E+03  0.47000000000E+01 0. -1.
         -5    1    3    3    0  503 -0.54541957738E+00 -0.67573351879E+02 -0.41276662374E+03  0.41828797620E+03  0.47000000000E+01 0.  1.
          5    1    3    3  503    0  0.66167812133E+01  0.27316974106E+02 -0.94551342353E+02  0.98752444064E+02  0.47000000000E+01 0. -1.
         -5    1    4    4    0  502  0.14354181015E+02 -0.17323092931E+02 -0.93813087703E+01  0.24824000797E+02  0.47000000000E+01 0.  1.
<mgrwt>
<rscale>  0 0.99985282E+02</rscale>
<asrwt>0</asrwt>
<pdfrwt beam="1">  1        1 0.10810980E+00 0.10004840E+03</pdfrwt>
<pdfrwt beam="2">  1       -1 0.27684480E-02 0.10004840E+03</pdfrwt>
<totfact> 0.11134717E+04</totfact>
</mgrwt>
</event>
<event>
 8    1  0.3177960E-004  0.9617743E+02  0.7546771E-02  0.1289513E+00
         -1   -1    0    0    0  501 -0.00000000000E+00  0.00000000000E+00  0.58034480618E+03  0.58034480618E+03  0.00000000000E+00 0.  1.
          1   -1    0    0  501    0  0.00000000000E+00 -0.00000000000E+00 -0.26439739978E+02  0.26439739978E+02  0.00000000000E+00 0. -1.
         23    2    1    2    0    0  0.19305697789E+01 -0.29205901887E+02  0.84666081641E+02  0.12813447757E+03  0.91615430779E+02 0.  0.
         23    2    1    2    0    0 -0.19305697789E+01  0.29205901887E+02  0.46923898456E+03  0.47865006859E+03  0.89799508481E+02 0.  0.
          5    1    3    3  502    0  0.18990748625E+02  0.10209953388E+02  0.81921277533E+02  0.84841483922E+02  0.47000000000E+01 0. -1.
         -5    1    4    4    0  503 -0.23759141981E+02 -0.24845095027E+02  0.21420023038E+03  0.21699217559E+03  0.47000000000E+01 0.  1.
          5    1    4    4  503    0  0.21828572202E+02  0.54050996914E+02  0.25503875418E+03  0.26165789299E+03  0.47000000000E+01 0. -1.
         -5    1    3    3    0  502 -0.17060178847E+02 -0.39415855275E+02  0.27448041084E+01  0.43292993647E+02  0.47000000000E+01 0.  1.
<mgrwt>
<rscale>  0 0.95742450E+02</rscale>
<asrwt>0</asrwt>
<pdfrwt beam="1">  1        1 0.40676527E-02 0.96177435E+02</pdfrwt>
<pdfrwt beam="2">  1       -1 0.89283807E-01 0.96177435E+02</pdfrwt>
<totfact> 0.27142452E+03</totfact>
</mgrwt>
</event>
<event>
 8    1  0.3177960E-004  0.1077438E+03  0.7546771E-02  0.1265616E+00
         -4   -1    0    0    0  501 -0.00000000000E+00  0.00000000000E+00  0.10175517709E+03  0.10175517709E+03  0.00000000000E+00 0.  1.
          4   -1    0    0  501    0  0.00000000000E+00 -0.00000000000E+00 -0.11886316378E+03  0.11886316378E+03  0.00000000000E+00 0. -1.
         23    2    1    2    0    0 -0.48561667488E+02 -0.32530584463E+02  0.17420324173E+02  0.10747713122E+03  0.88495149957E+02 0.  0.
         23    2    1    2    0    0  0.48561667488E+02  0.32530584463E+02 -0.34528310865E+02  0.11314120965E+03  0.90511074429E+02 0.  0.
          5    1    4    4  502    0  0.34868260184E+02  0.59514854573E+02 -0.42937234241E+02  0.81384946810E+02  0.47000000000E+01 0. -1.
         -5    1    4    4    0  502  0.13693407304E+02 -0.26984270110E+02  0.84089233758E+01  0.31756262836E+02  0.47000000000E+01 0.  1.
          5    1    3    3  503    0 -0.28896854182E+01 -0.35353647640E+02 -0.25992838693E+02  0.44226104809E+02  0.47000000000E+01 0. -1.
         -5    1    3    3    0  503 -0.45671982070E+02  0.28230631772E+01  0.43413162865E+02  0.63251026409E+02  0.47000000000E+01 0.  1.
<mgrwt>
<rscale>  0 0.10731935E+03</rscale>
<asrwt>0</asrwt>
<pdfrwt beam="1">  1        4 0.18286641E-01 0.10774381E+03</pdfrwt>
<pdfrwt beam="2">  1       -4 0.15654643E-01 0.10774381E+03</pdfrwt>
<totfact> 0.14475375E+03</totfact>
</mgrwt>
</event>
<event>
 8    1  0.3177960E-004  0.1005939E+03  0.7546771E-02  0.1279743E+00
          3   -1    0    0  501    0  0.00000000000E+00  0.00000000000E+00  0.31877363222E+03  0.31877363222E+03  0.00000000000E+00 0. -1.
         -3   -1    0    0    0  501 -0.00000000000E+00 -0.00000000000E+00 -0.21171380535E+03  0.21171380535E+03  0.00000000000E+00 0.  1.
         23    2    1    2    0    0 -0.37015001946E+02 -0.17712452092E+02 -0.19135403072E+03  0.21557481727E+03  0.90400749104E+02 0.  0.
         23    2    1    2    0    0  0.37015001946E+02  0.17712452092E+02  0.29841385759E+03  0.31491262030E+03  0.91843816847E+02 0.  0.
          5    1    4    4  502    0  0.48463394753E+02 -0.11372586755E+02  0.26184601396E+03  0.26657730846E+03  0.47000000000E+01 0. -1.
         -5    1    4    4    0  502 -0.11448392807E+02  0.29085038847E+02  0.36567843636E+02  0.48335311841E+02  0.47000000000E+01 0.  1.
          5    1    3    3  503    0  0.27366310503E+02 -0.10727708017E+02 -0.93621855234E+02  0.98240218074E+02  0.47000000000E+01 0. -1.
         -5    1    3    3    0  503 -0.64381312449E+02 -0.69847440755E+01 -0.97732175488E+02  0.11733459919E+03  0.47000000000E+01 0.  1.
<mgrwt>
<rscale>  0 0.10026330E+03</rscale>
<asrwt>0</asrwt>
<pdfrwt beam="1">  1        3 0.49042097E-01 0.10059388E+03</pdfrwt>
<pdfrwt beam="2">  1       -3 0.32571355E-01 0.10059388E+03</pdfrwt>
<totfact> 0.87009396E+01</totfact>
</mgrwt>
</event>
<event>
 8    1  0.3177960E-004  0.9300678E+02  0.7546771E-02  0.1295730E+00
         -3   -1    0    0    0  501 -0.00000000000E+00  0.00000000000E+00  0.28373704204E+02  0.28373704204E+02  0.00000000000E+00 0.  1.
          3   -1    0    0  501    0  0.00000000000E+00 -0.00000000000E+00 -0.42567408785E+03  0.42567408785E+03  0.00000000000E+00 0. -1.
         23    2    1    2    0    0  0.15819223619E+02 -0.16008952375E+01 -0.77707591376E+02  0.12119707477E+03  0.91637604035E+02 0.  0.
         23    2    1    2    0    0 -0.15819223619E+02  0.16008952375E+01 -0.31959279227E+03  0.33285071728E+03  0.91636436128E+02 0.  0.
          5    1    3    3  502    0 -0.25992784787E+02  0.27913263250E+02 -0.18061075350E+02  0.42462543130E+02  0.47000000000E+01 0. -1.
         -5    1    3    3    0  502  0.41812008406E+02 -0.29514158487E+02 -0.59646516026E+02  0.78734531638E+02  0.47000000000E+01 0.  1.
          5    1    4    4  503    0 -0.48552580517E+02 -0.18178370591E+02 -0.21971551581E+03  0.22579814906E+03  0.47000000000E+01 0. -1.
         -5    1    4    4    0  503  0.32733356898E+02  0.19779265829E+02 -0.99877276460E+02  0.10705256822E+03  0.47000000000E+01 0.  1.
<mgrwt>
<rscale>  0 0.93006493E+02</rscale>
<asrwt>0</asrwt>
<pdfrwt beam="1">  1        3 0.65488321E-01 0.93006780E+02</pdfrwt>
<pdfrwt beam="2">  1       -3 0.43651852E-02 0.93006780E+02</pdfrwt>
<totfact> 0.13942526E+03</totfact>
</mgrwt>
</event>
<event>
 8    1  0.3177960E-004  0.3223632E+03  0.7546771E-02  0.1075324E+00
          2   -1    0    0  501    0  0.00000000000E+00  0.00000000000E+00  0.96941055273E+03  0.96941055273E+03  0.00000000000E+00 0. -1.
         -2   -1    0    0    0  501 -0.00000000000E+00 -0.00000000000E+00 -0.11004597464E+03  0.11004597464E+03  0.00000000000E+00 0.  1.
         23    2    1    2    0    0 -0.99539280348E+02  0.28561081774E+03  0.54076117347E+03  0.62621690863E+03  0.90792964368E+02 0.  0.
         23    2    1    2    0    0  0.99539280348E+02 -0.28561081774E+03  0.31860340462E+03  0.45323961875E+03  0.11151867571E+03 0.  0.
          5    1    4    4  502    0  0.11171151644E+02 -0.19306863634E+03  0.20783980482E+03  0.28393620311E+03  0.47000000000E+01 0. -1.
         -5    1    4    4    0  502  0.88368128704E+02 -0.92542181391E+02  0.11076359980E+03  0.16930341564E+03  0.47000000000E+01 0.  1.
          5    1    3    3  503    0 -0.55447295565E+02  0.25380035504E+03  0.42303230582E+03  0.49645487667E+03  0.47000000000E+01 0. -1.
         -5    1    3    3    0  503 -0.44091984783E+02  0.31810462695E+02  0.11772886766E+03  0.12976203196E+03  0.47000000000E+01 0.  1.
<mgrwt>
<rscale>  0 0.32070783E+03</rscale>
<asrwt>0</asrwt>
<pdfrwt beam="1">  1        2 0.14914008E+00 0.32236318E+03</pdfrwt>
<pdfrwt beam="2">  1       -2 0.16930151E-01 0.32236318E+03</pdfrwt>
<totfact> 0.76678046E+02</totfact>
</mgrwt>
</event>
<event>
 8    1  0.3177960E-004  0.1076288E+03  0.7546771E-02  0.1265409E+00
          1   -1    0    0  501    0  0.00000000000E+00  0.00000000000E+00  0.86611085878E+03  0.86611085878E+03  0.00000000000E+00 0. -1.
         -1   -1    0    0    0  501 -0.00000000000E+00 -0.00000000000E+00 -0.15641366279E+02  0.15641366279E+02  0.00000000000E+00 0.  1.
         23    2    1    2    0    0  0.19556957015E+02 -0.53932657065E+02  0.59805968407E+03  0.60766712987E+03  0.91064531756E+02 0.  0.
         23    2    1    2    0    0 -0.19556957015E+02  0.53932657065E+02  0.25240980843E+03  0.27408509519E+03  0.90115048403E+02 0.  0.
          5    1    4    4  502    0  0.18370470996E+02 -0.12341412410E+02  0.23031325336E+02  0.32284928553E+02  0.47000000000E+01 0. -1.
         -5    1    3    3    0  503 -0.31194078327E+02  0.96588526106E+00  0.22055474632E+03  0.22280145776E+03  0.47000000000E+01 0.  1.
          5    1    3    3  503    0  0.50751035342E+02 -0.54898542326E+02  0.37750493776E+03  0.38486567211E+03  0.47000000000E+01 0. -1.
         -5    1    4    4    0  502 -0.37927428010E+02  0.66274069476E+02  0.22937848309E+03  0.24180016664E+03  0.47000000000E+01 0.  1.
<mgrwt>
<rscale>  0 0.10742768E+03</rscale>
<asrwt>0</asrwt>
<pdfrwt beam="1">  1        1 0.13324779E+00 0.10762878E+03</pdfrwt>
<pdfrwt beam="2">  1       -1 0.24063647E-02 0.10762878E+03</pdfrwt>
<totfact> 0.10059125E+04</totfact>
</mgrwt>
</event>
<event>
 8    1  0.3177960E-004  0.1091526E+03  0.7546771E-02  0.1265383E+00
         -1   -1    0    0    0  501 -0.00000000000E+00  0.00000000000E+00  0.14461858299E+02  0.14461858299E+02  0.00000000000E+00 0.  1.
          1   -1    0    0  501    0  0.00000000000E+00 -0.00000000000E+00 -0.77420871543E+03  0.77420871543E+03  0.00000000000E+00 0. -1.
         23    2    1    2    0    0  0.38058123446E+01 -0.45798288571E+02 -0.37122091716E+03  0.38510309869E+03  0.91583076153E+02 0.  0.
         23    2    1    2    0    0 -0.38058123446E+01  0.45798288571E+02 -0.38852593997E+03  0.40356747504E+03  0.99006734307E+02 0.  0.
          5    1    4    4  502    0 -0.13263049841E+02  0.74620457537E+02 -0.31215745673E+03  0.32126078031E+03  0.47000000000E+01 0. -1.
         -5    1    4    4    0  502  0.94572374969E+01 -0.28822168966E+02 -0.76368483237E+02  0.82306694727E+02  0.47000000000E+01 0.  1.
          5    1    3    3  503    0  0.29834971001E+02 -0.23894091208E+02 -0.32626831622E+03  0.32853334269E+03  0.47000000000E+01 0. -1.
         -5    1    3    3    0  503 -0.26029158656E+02 -0.21904197363E+02 -0.44952600941E+02  0.56569756000E+02  0.47000000000E+01 0.  1.
<mgrwt>
<rscale>  0 0.10744134E+03</rscale>
<asrwt>0</asrwt>
<pdfrwt beam="1">  1        1 0.11910903E+00 0.10915265E+03</pdfrwt>
<pdfrwt beam="2">  1       -1 0.22249013E-02 0.10915265E+03</pdfrwt>
<totfact> 0.13350930E+04</totfact>
</mgrwt>
</event>
<event>
 8    1  0.3177960E-004  0.1269532E+03  0.7546771E-02  0.1250372E+00
         -2   -1    0    0    0  501 -0.00000000000E+00  0.00000000000E+00  0.21868198233E+02  0.21868198233E+02  0.00000000000E+00 0.  1.
          2   -1    0    0  501    0  0.00000000000E+00 -0.00000000000E+00 -0.10060937343E+04  0.10060937343E+04  0.00000000000E+00 0. -1.
         23    2    1    2    0    0  0.45380526329E+01  0.31800974158E+02 -0.18748402939E+03  0.22642297568E+03  0.12282184969E+03 0.  0.
         23    2    1    2    0    0 -0.45380526329E+01 -0.31800974158E+02 -0.79674150665E+03  0.80153895682E+03  0.81460266421E+02 0.  0.
          5    1    3    3  502    0  0.48064835782E+01 -0.35663315256E+02 -0.13781865430E+03  0.14251682642E+03  0.47000000000E+01 0. -1.
         -5    1    4    4    0  503 -0.30151123935E+02  0.14924369838E+02 -0.29062132100E+03  0.29259984503E+03  0.47000000000E+01 0.  1.
          5    1    4    4  503    0  0.25613071302E+02 -0.46725343996E+02 -0.50612018565E+03  0.50893911179E+03  0.47000000000E+01 0. -1.
         -5    1    3    3    0  502 -0.26843094530E+00  0.67464289414E+02 -0.49665375086E+02  0.83906149261E+02  0.47000000000E+01 0.  1.
<mgrwt>
<rscale>  0 0.11569525E+03</rscale>
<asrwt>0</asrwt>
<pdfrwt beam="1">  1        2 0.15478362E+00 0.12695315E+03</pdfrwt>
<pdfrwt beam="2">  1       -2 0.33643388E-02 0.12695315E+03</pdfrwt>
<totfact> 0.89416569E+03</totfact>
</mgrwt>
</event>
<event>
 8    1  0.3177960E-004  0.2026483E+03  0.7546771E-02  0.1147617E+00
          2   -1    0    0  501    0  0.00000000000E+00  0.00000000000E+00  0.37112970911E+03  0.37112970911E+03  0.00000000000E+00 0. -1.
         -2   -1    0    0    0  501 -0.00000000000E+00 -0.00000000000E+00 -0.11791572431E+03  0.11791572431E+03  0.00000000000E+00 0.  1.
         23    2    1    2    0    0 -0.12253599861E+03  0.13064422862E+03  0.64765689541E+02  0.21231613050E+03  0.93811296237E+02 0.  0.
         23    2    1    2    0    0  0.12253599861E+03 -0.13064422862E+03  0.18844829526E+03  0.27672930292E+03  0.94780597591E+02 0.  0.
          5    1    4    4  502    0  0.31157958674E+02 -0.70436361196E+02  0.13348088860E+03  0.15417956086E+03  0.47000000000E+01 0. -1.
         -5    1    3    3    0  503 -0.56538736775E+02  0.11661833505E+02  0.47847719571E+02  0.75127367750E+02  0.47000000000E+01 0.  1.
          5    1    3    3  503    0 -0.65997261835E+02  0.11898239512E+03  0.16917969969E+02  0.13718876275E+03  0.47000000000E+01 0. -1.
         -5    1    4    4    0  502  0.91378039936E+02 -0.60207867425E+02  0.54967406662E+02  0.12254974205E+03  0.47000000000E+01 0.  1.
<mgrwt>
<rscale>  0 0.20253536E+03</rscale>
<asrwt>0</asrwt>
<pdfrwt beam="1">  1        2 0.57096878E-01 0.20264833E+03</pdfrwt>
<pdfrwt beam="2">  1       -2 0.18140881E-01 0.20264833E+03</pdfrwt>
<totfact> 0.21320445E+03</totfact>
</mgrwt>
</event>
<event>
 8    1  0.3177960E-004  0.1070810E+03  0.7546771E-02  0.1267727E+00
         -2   -1    0    0    0  501 -0.00000000000E+00  0.00000000000E+00  0.66288820035E+02  0.66288820035E+02  0.00000000000E+00 0.  1.
          2   -1    0    0  501    0  0.00000000000E+00 -0.00000000000E+00 -0.31660551399E+03  0.31660551399E+03  0.00000000000E+00 0. -1.
         23    2    1    2    0    0  0.26199149877E+02 -0.41995039832E+02 -0.25544655613E+03  0.27569054030E+03  0.91117243953E+02 0.  0.
         23    2    1    2    0    0 -0.26199149877E+02  0.41995039832E+02  0.51298621789E+01  0.10720379372E+03  0.94954510573E+02 0.  0.
          5    1    3    3  502    0 -0.19245622851E+02 -0.45474363158E+02 -0.18592467255E+03  0.19242761124E+03  0.47000000000E+01 0. -1.
         -5    1    4    4    0  503  0.16712987728E+01 -0.26832769367E+02  0.16563414231E+02  0.31925341697E+02  0.47000000000E+01 0.  1.
          5    1    4    4  503    0 -0.27870448650E+02  0.68827809199E+02 -0.11433552052E+02  0.75278452027E+02  0.47000000000E+01 0. -1.
         -5    1    3    3    0  502  0.45444772728E+02  0.34793233259E+01 -0.69521883580E+02  0.83262929060E+02  0.47000000000E+01 0.  1.
<mgrwt>
<rscale>  0 0.10622387E+03</rscale>
<asrwt>0</asrwt>
<pdfrwt beam="1">  1        2 0.48708541E-01 0.10708099E+03</pdfrwt>
<pdfrwt beam="2">  1       -2 0.10198280E-01 0.10708099E+03</pdfrwt>
<totfact> 0.62335622E+03</totfact>
</mgrwt>
</event>
<event>
 8    1  0.3177960E-004  0.1541278E+03  0.7546771E-02  0.1199969E+00
         -3   -1    0    0    0  501 -0.00000000000E+00  0.00000000000E+00  0.26368241818E+03  0.26368241818E+03  0.00000000000E+00 0.  1.
          3   -1    0    0  501    0  0.00000000000E+00 -0.00000000000E+00 -0.86139869910E+02  0.86139869910E+02  0.00000000000E+00 0. -1.
         23    2    1    2    0    0  0.29186141306E+02 -0.10273677881E+03  0.45911515245E+02  0.14713508744E+03  0.90189745317E+02 0.  0.
         23    2    1    2    0    0 -0.29186141306E+02  0.10273677881E+03  0.13163103303E+03  0.20268720065E+03  0.11112468621E+03 0.  0.
          5    1    4    4  502    0 -0.71233055668E+02  0.60291476105E+02  0.89841280058E+02  0.12962544470E+03  0.47000000000E+01 0. -1.
         -5    1    3    3    0  503  0.19540676606E+02  0.46826368469E+01  0.32295786835E+02  0.38325878690E+02  0.47000000000E+01 0.  1.
          5    1    3    3  503    0  0.96454646998E+01 -0.10741941566E+03  0.13615728410E+02  0.10880920875E+03  0.47000000000E+01 0. -1.
         -5    1    4    4    0  502  0.42046914362E+02  0.42445302707E+02  0.41789752972E+02  0.73061755952E+02  0.47000000000E+01 0.  1.
<mgrwt>
<rscale>  0 0.15041068E+03</rscale>
<asrwt>0</asrwt>
<pdfrwt beam="1">  1        3 0.13252288E-01 0.15412778E+03</pdfrwt>
<pdfrwt beam="2">  1       -3 0.40566526E-01 0.15412778E+03</pdfrwt>
<totfact> 0.65395852E+02</totfact>
</mgrwt>
</event>
<event>
 8    1  0.3177960E-004  0.1203853E+03  0.7546771E-02  0.1247761E+00
          1   -1    0    0  501    0  0.00000000000E+00  0.00000000000E+00  0.20469047505E+02  0.20469047505E+02  0.00000000000E+00 0. -1.
         -1   -1    0    0    0  501 -0.00000000000E+00 -0.00000000000E+00 -0.63901511785E+03  0.63901511785E+03  0.00000000000E+00 0.  1.
         23    2    1    2    0    0 -0.31369409795E+02  0.43397602542E+02 -0.33761418391E+03  0.35843544021E+03  0.10782038693E+03 0.  0.
         23    2    1    2    0    0  0.31369409795E+02 -0.43397602542E+02 -0.28093188643E+03  0.30104872515E+03  0.94022435211E+02 0.  0.
          5    1    3    3  502    0  0.25706004048E+02  0.53895048434E+02 -0.13650198924E+03  0.14906494543E+03  0.47000000000E+01 0. -1.
         -5    1    4    4    0  503  0.35405223352E+02 -0.18639522508E-01 -0.23450242574E+03  0.23720667754E+03  0.47000000000E+01 0.  1.
          5    1    4    4  503    0 -0.40358135566E+01 -0.43378963020E+02 -0.46429460688E+02  0.63842047614E+02  0.47000000000E+01 0. -1.
         -5    1    3    3    0  502 -0.57075413843E+02 -0.10497445892E+02 -0.20111219467E+03  0.20937049477E+03  0.47000000000E+01 0.  1.
<mgrwt>
<rscale>  0 0.11721649E+03</rscale>
<asrwt>0</asrwt>
<pdfrwt beam="1">  1        1 0.31490841E-02 0.12038533E+03</pdfrwt>
<pdfrwt beam="2">  1       -1 0.98310022E-01 0.12038533E+03</pdfrwt>
<totfact> 0.31830307E+03</totfact>
</mgrwt>
</event>
<event>
 8    1  0.3177960E-004  0.1077247E+03  0.7546771E-02  0.1267232E+00
          1   -1    0    0  501    0  0.00000000000E+00  0.00000000000E+00  0.50533931952E+03  0.50533931952E+03  0.00000000000E+00 0. -1.
         -1   -1    0    0    0  501 -0.00000000000E+00 -0.00000000000E+00 -0.31360645508E+02  0.31360645508E+02  0.00000000000E+00 0.  1.
         23    2    1    2    0    0 -0.46654900009E+02 -0.26226830711E+02  0.93731536481E+02  0.14279427916E+03  0.93488389049E+02 0.  0.
         23    2    1    2    0    0  0.46654900009E+02  0.26226830711E+02  0.38024713753E+03  0.39390568586E+03  0.87802490913E+02 0.  0.
          5    1    4    4  502    0 -0.26092962346E+02  0.70149154442E+01  0.98459188857E+02  0.10220740479E+03  0.47000000000E+01 0. -1.
         -5    1    3    3    0  503 -0.40761546979E+02  0.28811497148E+02  0.30757115160E+02  0.58819182356E+02  0.47000000000E+01 0. -1.
          5    1    3    3  503    0 -0.58933530302E+01 -0.55038327859E+02  0.62974421320E+02  0.83975096809E+02  0.47000000000E+01 0.  1.
         -5    1    4    4    0  502  0.72747862354E+02  0.19211915267E+02  0.28178794868E+03  0.29169828108E+03  0.47000000000E+01 0.  1.
<mgrwt>
<rscale>  0 0.10647933E+03</rscale>
<asrwt>0</asrwt>
<pdfrwt beam="1">  1        1 0.77744504E-01 0.10772467E+03</pdfrwt>
<pdfrwt beam="2">  1       -1 0.48247151E-02 0.10772467E+03</pdfrwt>
<totfact> 0.77857909E+03</totfact>
</mgrwt>
</event>
<event>
 8    1  0.3177960E-004  0.1302707E+03  0.7546771E-02  0.1227331E+00
         -2   -1    0    0    0  501 -0.00000000000E+00  0.00000000000E+00  0.92825142899E+01  0.92825142899E+01  0.00000000000E+00 0.  1.
          2   -1    0    0  501    0  0.00000000000E+00 -0.00000000000E+00 -0.18744615747E+04  0.18744615747E+04  0.00000000000E+00 0. -1.
         23    2    1    2    0    0  0.57214490701E+02 -0.72577616977E+02 -0.10937698682E+04  0.11014125691E+04  0.90753039943E+02 0.  0.
         23    2    1    2    0    0 -0.57214490701E+02  0.72577616977E+02 -0.77140919216E+03  0.78233151989E+03  0.91812073408E+02 0.  0.
          5    1    3    3  502    0  0.23885495499E+02 -0.88738016683E+02 -0.80321789150E+03  0.80847141181E+03  0.47000000000E+01 0. -1.
         -5    1    3    3    0  502  0.33328995202E+02  0.16160399706E+02 -0.29055197672E+03  0.29294115726E+03  0.47000000000E+01 0.  1.
          5    1    4    4  503    0 -0.41811769724E+02 -0.11817509418E+02 -0.29825319565E+03  0.30143811360E+03  0.47000000000E+01 0. -1.
         -5    1    4    4    0  503 -0.15402720977E+02  0.84395126395E+02 -0.47315599651E+03  0.48089340628E+03  0.47000000000E+01 0.  1.
<mgrwt>
<rscale>  0 0.13008429E+03</rscale>
<asrwt>0</asrwt>
<pdfrwt beam="1">  1        2 0.28837822E+00 0.13027074E+03</pdfrwt>
<pdfrwt beam="2">  1       -2 0.14280815E-02 0.13027074E+03</pdfrwt>
<totfact> 0.10727881E+04</totfact>
</mgrwt>
</event>
<event>
 8    1  0.3177960E-004  0.1761926E+03  0.7546771E-02  0.1171734E+00
         -4   -1    0    0    0  501 -0.00000000000E+00  0.00000000000E+00  0.41460975204E+03  0.41460975204E+03  0.00000000000E+00 0.  1.
          4   -1    0    0  501    0  0.00000000000E+00 -0.00000000000E+00 -0.13486064859E+03  0.13486064859E+03  0.00000000000E+00 0. -1.
         23    2    1    2    0    0 -0.87252218740E+02 -0.12339958193E+03 -0.43687443354E+02  0.18152799210E+03  0.90572692993E+02 0.  0.
         23    2    1    2    0    0  0.87252218740E+02  0.12339958193E+03  0.32343654681E+03  0.36794240852E+03  0.89050601818E+02 0.  0.
          5    1    3    3  502    0 -0.18682014260E+02 -0.10257963209E+03 -0.25245545687E+02  0.10738261569E+03  0.47000000000E+01 0. -1.
         -5    1    4    4    0  503  0.20640557492E+02  0.84073530700E+02  0.23431035584E+03  0.24983559400E+03  0.47000000000E+01 0.  1.
          5    1    4    4  503    0  0.66611661248E+02  0.39326051226E+02  0.89126190970E+02  0.11810681452E+03  0.47000000000E+01 0. -1.
         -5    1    3    3    0  502 -0.68570204479E+02 -0.20819949838E+02 -0.18441897667E+02  0.74145376411E+02  0.47000000000E+01 0.  1.
<mgrwt>
<rscale>  0 0.17599785E+03</rscale>
<asrwt>0</asrwt>
<pdfrwt beam="1">  1        4 0.20747792E-01 0.17619256E+03</pdfrwt>
<pdfrwt beam="2">  1       -4 0.63786115E-01 0.17619256E+03</pdfrwt>
<totfact> 0.85861650E+01</totfact>
</mgrwt>
</event>
<event>
 8    1  0.3177960E-004  0.1077047E+03  0.7546771E-02  0.1269251E+00
          1   -1    0    0  501    0  0.00000000000E+00  0.00000000000E+00  0.22702975378E+03  0.22702975378E+03  0.00000000000E+00 0. -1.
         -1   -1    0    0    0  501 -0.00000000000E+00 -0.00000000000E+00 -0.47963545160E+02  0.47963545160E+02  0.00000000000E+00 0.  1.
         23    2    1    2    0    0  0.32064216009E+02 -0.16366314553E+02  0.66549263243E+02  0.11923593124E+03  0.92154395775E+02 0.  0.
         23    2    1    2    0    0 -0.32064216009E+02  0.16366314553E+02  0.11251694537E+03  0.15575736769E+03  0.10151021818E+03 0.  0.
          5    1    3    3  502    0 -0.27730438399E+02 -0.93033752274E+01  0.47368994904E+02  0.55869863814E+02  0.47000000000E+01 0.  1.
         -5    1    4    4    0  503 -0.14498614983E+02 -0.29405157415E+02  0.20490610319E+00  0.33121067397E+02  0.47000000000E+01 0.  1.
          5    1    4    4  503    0 -0.17565601026E+02  0.45771471968E+02  0.11231203927E+03  0.12263630030E+03  0.47000000000E+01 0. -1.
         -5    1    3    3    0  502  0.59794654408E+02 -0.70629393260E+01  0.19180268339E+02  0.63366067427E+02  0.47000000000E+01 0. -1.
<mgrwt>
<rscale>  0 0.10544230E+03</rscale>
<asrwt>0</asrwt>
<pdfrwt beam="1">  1        1 0.34927654E-01 0.10770466E+03</pdfrwt>
<pdfrwt beam="2">  1       -1 0.73790071E-02 0.10770466E+03</pdfrwt>
<totfact> 0.11227705E+04</totfact>
</mgrwt>
</event>
<event>
 8    1  0.3177960E-004  0.1175575E+03  0.7546771E-02  0.1247615E+00
         -1   -1    0    0    0  501 -0.00000000000E+00  0.00000000000E+00  0.95834513752E+02  0.95834513752E+02  0.00000000000E+00 0.  1.
          1   -1    0    0  501    0  0.00000000000E+00 -0.00000000000E+00 -0.17278111988E+03  0.17278111988E+03  0.00000000000E+00 0. -1.
         23    2    1    2    0    0  0.60492592891E+02  0.40834167262E+02 -0.94409928278E+02  0.15077463498E+03  0.92157327355E+02 0.  0.
         23    2    1    2    0    0 -0.60492592891E+02 -0.40834167262E+02  0.17463322147E+02  0.11784099866E+03  0.90855656584E+02 0.  0.
          5    1    4    4  502    0  0.44004694537E+01 -0.50094327114E+02  0.33047091585E+01  0.50614393635E+02  0.47000000000E+01 0. -1.
         -5    1    3    3    0  503  0.28080756840E+02  0.10006956803E+02 -0.10091384543E+03  0.10532977873E+03  0.47000000000E+01 0. -1.
          5    1    3    3  503    0  0.32411836051E+02  0.30827210458E+02  0.65039171505E+01  0.45444856245E+02  0.47000000000E+01 0.  1.
         -5    1    4    4    0  502 -0.64893062344E+02  0.92601598524E+01  0.14158612989E+02  0.67226605021E+02  0.47000000000E+01 0.  1.
<mgrwt>
<rscale>  0 0.11730222E+03</rscale>
<asrwt>0</asrwt>
<pdfrwt beam="1">  1        1 0.26581711E-01 0.11755746E+03</pdfrwt>
<pdfrwt beam="2">  1       -1 0.14743771E-01 0.11755746E+03</pdfrwt>
<totfact> 0.55180741E+03</totfact>
</mgrwt>
</event>
<event>
 8    1  0.3177960E-004  0.1025983E+03  0.7546771E-02  0.1276559E+00
         -2   -1    0    0    0  501 -0.00000000000E+00  0.00000000000E+00  0.46077281096E+02  0.46077281096E+02  0.00000000000E+00 0.  1.
          2   -1    0    0  501    0  0.00000000000E+00 -0.00000000000E+00 -0.22484374685E+03  0.22484374685E+03  0.00000000000E+00 0. -1.
         23    2    1    2    0    0  0.35940513447E+02 -0.65379423123E+01 -0.10737095522E+03  0.14850900019E+03  0.95874584315E+02 0.  0.
         23    2    1    2    0    0 -0.35940513447E+02  0.65379423123E+01 -0.71395510533E+02  0.12241202775E+03  0.92482000503E+02 0.  0.
          5    1    3    3  502    0 -0.16247253776E+02 -0.21350093001E+02 -0.85663171258E+02  0.89889202001E+02  0.47000000000E+01 0. -1.
         -5    1    3    3    0  502  0.52187767223E+02  0.14812150689E+02 -0.21707783962E+02  0.58619798194E+02  0.47000000000E+01 0.  1.
          5    1    4    4  503    0 -0.38298526601E+02  0.42050198823E+02 -0.21592690029E+02  0.61019100481E+02  0.47000000000E+01 0. -1.
         -5    1    4    4    0  503  0.23580131541E+01 -0.35512256510E+02 -0.49802820503E+02  0.61392927268E+02  0.47000000000E+01 0.  1.
<mgrwt>
<rscale>  0 0.10179821E+03</rscale>
<asrwt>0</asrwt>
<pdfrwt beam="1">  1        2 0.34591346E-01 0.10259825E+03</pdfrwt>
<pdfrwt beam="2">  1       -2 0.70888124E-02 0.10259825E+03</pdfrwt>
<totfact> 0.15608323E+04</totfact>
</mgrwt>
</event>
<event>
 8    1  0.3177960E-004  0.1456868E+03  0.7546771E-02  0.1206120E+00
          1   -1    0    0  501    0  0.00000000000E+00  0.00000000000E+00  0.35036989106E+03  0.35036989106E+03  0.00000000000E+00 0. -1.
         -1   -1    0    0    0  501 -0.00000000000E+00 -0.00000000000E+00 -0.60711918022E+02  0.60711918022E+02  0.00000000000E+00 0.  1.
         23    2    1    2    0    0  0.79013945300E+02 -0.80124617885E+02  0.16218391388E+03  0.21749907546E+03  0.91318497371E+02 0.  0.
         23    2    1    2    0    0 -0.79013945300E+02  0.80124617885E+02  0.12747405915E+03  0.19358273361E+03  0.92528271646E+02 0.  0.
          5    1    4    4  502    0 -0.81718926027E+02  0.18894018593E+02  0.78717563149E+02  0.11512389655E+03  0.47000000000E+01 0. -1.
         -5    1    4    4    0  502  0.27049807266E+01  0.61230599293E+02  0.48756496004E+02  0.78458837061E+02  0.47000000000E+01 0.  1.
          5    1    3    3  503    0 -0.19968421458E+02 -0.68922347485E+01  0.26563284921E+02  0.34262791205E+02  0.47000000000E+01 0. -1.
         -5    1    3    3    0  503  0.98982366758E+02 -0.73232383137E+02  0.13562062896E+03  0.18323628426E+03  0.47000000000E+01 0.  1.
<mgrwt>
<rscale>  0 0.14549507E+03</rscale>
<asrwt>0</asrwt>
<pdfrwt beam="1">  1        1 0.53903059E-01 0.14568678E+03</pdfrwt>
<pdfrwt beam="2">  1       -1 0.93402953E-02 0.14568678E+03</pdfrwt>
<totfact> 0.47015855E+03</totfact>
</mgrwt>
</event>
<event>
 8    1  0.3177960E-004  0.1866791E+03  0.7546771E-02  0.1165164E+00
         -1   -1    0    0    0  501 -0.00000000000E+00  0.00000000000E+00  0.10693865413E+04  0.10693865413E+04  0.00000000000E+00 0.  1.
          1   -1    0    0  501    0  0.00000000000E+00 -0.00000000000E+00 -0.37994006823E+02  0.37994006823E+02  0.00000000000E+00 0. -1.
         23    2    1    2    0    0  0.13291881962E+03 -0.57564681510E+02  0.78699913588E+03  0.80883665874E+03  0.11776245358E+03 0.  0.
         23    2    1    2    0    0 -0.13291881962E+03  0.57564681510E+02  0.24439339864E+03  0.29854388943E+03  0.91756282892E+02 0.  0.
          5    1    3    3  502    0 -0.18683273312E+02 -0.22299113770E+02  0.16705736001E+03  0.16963657244E+03  0.47000000000E+01 0. -1.
         -5    1    3    3    0  502  0.15160209293E+03 -0.35265567740E+02  0.61994177587E+03  0.63920008630E+03  0.47000000000E+01 0.  1.
          5    1    4    4  503    0 -0.29884536890E+02 -0.15813641884E+02  0.16632261578E+02  0.37972081059E+02  0.47000000000E+01 0. -1.
         -5    1    4    4    0  503 -0.10303428273E+03  0.73378323394E+02  0.22776113706E+03  0.26057180837E+03  0.47000000000E+01 0.  1.
<mgrwt>
<rscale>  0 0.18275356E+03</rscale>
<asrwt>0</asrwt>
<pdfrwt beam="1">  1        1 0.58452326E-02 0.18667914E+03</pdfrwt>
<pdfrwt beam="2">  1       -1 0.16452098E+00 0.18667914E+03</pdfrwt>
<totfact> 0.39509912E+02</totfact>
</mgrwt>
</event>
<event>
 8    1  0.3177960E-004  0.9597549E+02  0.7546771E-02  0.1290024E+00
          2   -1    0    0  501    0  0.00000000000E+00  0.00000000000E+00  0.57496072041E+03  0.57496072041E+03  0.00000000000E+00 0. -1.
         -2   -1    0    0    0  501 -0.00000000000E+00 -0.00000000000E+00 -0.19892280403E+02  0.19892280403E+02  0.00000000000E+00 0.  1.
         23    2    1    2    0    0 -0.25570009758E+02 -0.97434514297E+01  0.13913897867E+03  0.16799399382E+03  0.90075336972E+02 0.  0.
         23    2    1    2    0    0  0.25570009758E+02  0.97434514297E+01  0.41592946134E+03  0.42685900699E+03  0.91992036582E+02 0.  0.
          5    1    3    3  502    0 -0.21825088075E+02 -0.33893269889E+02  0.13714921834E+03  0.14302827100E+03  0.47000000000E+01 0. -1.
         -5    1    3    3    0  502 -0.37449216825E+01  0.24149818459E+02  0.19897603293E+01  0.24965722825E+02  0.47000000000E+01 0.  1.
          5    1    4    4  503    0 -0.54506387481E+01 -0.37047060962E+02  0.20992428972E+03  0.21328968939E+03  0.47000000000E+01 0. -1.
         -5    1    4    4    0  503  0.31020648506E+02  0.46790512392E+02  0.20600517162E+03  0.21356931759E+03  0.47000000000E+01 0.  1.
<mgrwt>
<rscale>  0 0.95513273E+02</rscale>
<asrwt>0</asrwt>
<pdfrwt beam="1">  1        2 0.88455483E-01 0.95975492E+02</pdfrwt>
<pdfrwt beam="2">  1       -2 0.30603513E-02 0.95975492E+02</pdfrwt>
<totfact> 0.19917799E+04</totfact>
</mgrwt>
</event>
<event>
 8    1  0.3177960E-004  0.1717722E+03  0.7546771E-02  0.1176314E+00
          1   -1    0    0  501    0  0.00000000000E+00  0.00000000000E+00  0.46108976842E+03  0.46108976842E+03  0.00000000000E+00 0. -1.
         -1   -1    0    0    0  501 -0.00000000000E+00 -0.00000000000E+00 -0.91642726986E+02  0.91642726986E+02  0.00000000000E+00 0.  1.
         23    2    1    2    0    0  0.12533715211E+03 -0.72806151448E+02  0.33815593965E+03  0.37928240375E+03  0.92171388644E+02 0.  0.
         23    2    1    2    0    0 -0.12533715211E+03  0.72806151448E+02  0.31291101783E+02  0.17345009166E+03  0.89975907083E+02 0.  0.
          5    1    3    3  502    0  0.40250767234E+02 -0.64231804350E+02  0.22430563476E+03  0.23681418187E+03  0.47000000000E+01 0. -1.
         -5    1    3    3    0  502  0.85086384881E+02 -0.85743470985E+01  0.11385030490E+03  0.14246822188E+03  0.47000000000E+01 0.  1.
          5    1    4    4  503    0 -0.84258196991E+02  0.48940209721E+02  0.63009801238E+02  0.11613316899E+03  0.47000000000E+01 0. -1.
         -5    1    4    4    0  503 -0.41078955124E+02  0.23865941727E+02 -0.31718699456E+02  0.57316922665E+02  0.47000000000E+01 0.  1.
<mgrwt>
<rscale>  0 0.17147949E+03</rscale>
<asrwt>0</asrwt>
<pdfrwt beam="1">  1        1 0.70936886E-01 0.17177224E+03</pdfrwt>
<pdfrwt beam="2">  1       -1 0.14098881E-01 0.17177224E+03</pdfrwt>
<totfact> 0.17669026E+03</totfact>
</mgrwt>
</event>
<event>
 8    1  0.3177960E-004  0.1060216E+03  0.7546771E-02  0.1268843E+00
         -2   -1    0    0    0  501 -0.00000000000E+00  0.00000000000E+00  0.39590378026E+03  0.39590378026E+03  0.00000000000E+00 0.  1.
          2   -1    0    0  501    0  0.00000000000E+00 -0.00000000000E+00 -0.28129004288E+02  0.28129004288E+02  0.00000000000E+00 0. -1.
         23    2    1    2    0    0  0.38218727782E+02  0.33101026921E+02  0.19706473860E+03  0.22307883676E+03  0.91505776181E+02 0.  0.
         23    2    1    2    0    0 -0.38218727782E+02 -0.33101026921E+02  0.17071003737E+03  0.20095394779E+03  0.93189179285E+02 0.  0.
          5    1    3    3  502    0  0.29058211091E+02 -0.28667561038E+02  0.92170844751E+02  0.10091463377E+03  0.47000000000E+01 0. -1.
         -5    1    4    4    0  503  0.26732009619E+02  0.80994568927E+01  0.36586612411E+02  0.46269555303E+02  0.47000000000E+01 0.  1.
          5    1    4    4  503    0 -0.64950737401E+02 -0.41200483814E+02  0.13412342496E+03  0.15468439249E+03  0.47000000000E+01 0. -1.
         -5    1    3    3    0  502  0.91605166918E+01  0.61768587959E+02  0.10489389385E+03  0.12216420299E+03  0.47000000000E+01 0.  1.
<mgrwt>
<rscale>  0 0.10565048E+03</rscale>
<asrwt>0</asrwt>
<pdfrwt beam="1">  1        2 0.43275394E-02 0.10602157E+03</pdfrwt>
<pdfrwt beam="2">  1       -2 0.60908270E-01 0.10602157E+03</pdfrwt>
<totfact> 0.45430661E+03</totfact>
</mgrwt>
</event>
<event>
 8    1  0.3177960E-004  0.1252441E+03  0.7546771E-02  0.1236045E+00
         -1   -1    0    0    0  501 -0.00000000000E+00  0.00000000000E+00  0.37363622525E+02  0.37363622525E+02  0.00000000000E+00 0.  1.
          1   -1    0    0  501    0  0.00000000000E+00 -0.00000000000E+00 -0.42386312750E+03  0.42386312750E+03  0.00000000000E+00 0. -1.
         23    2    1    2    0    0  0.81218299235E+02  0.28753625299E+02 -0.23469668978E+03  0.26442690857E+03  0.86115449747E+02 0.  0.
         23    2    1    2    0    0 -0.81218299235E+02 -0.28753625299E+02 -0.15180281520E+03  0.19679984146E+03  0.90900493928E+02 0.  0.
          5    1    3    3  502    0  0.28241802324E+02 -0.76144146231E+01 -0.17197793809E+03  0.17451097357E+03  0.47000000000E+01 0. -1.
         -5    1    4    4    0  503 -0.95540438662E+02 -0.35769137740E+01 -0.12050766488E+03  0.15389917812E+03  0.47000000000E+01 0.  1.
          5    1    4    4  503    0  0.14322139427E+02 -0.25176711525E+02 -0.31295150322E+02  0.42900663336E+02  0.47000000000E+01 0. -1.
         -5    1    3    3    0  502  0.52976496911E+02  0.36368039922E+02 -0.62718751688E+02  0.89915934995E+02  0.47000000000E+01 0.  1.
<mgrwt>
<rscale>  0 0.12437804E+03</rscale>
<asrwt>0</asrwt>
<pdfrwt beam="1">  1        1 0.65209718E-01 0.12524409E+03</pdfrwt>
<pdfrwt beam="2">  1       -1 0.57482491E-02 0.12524409E+03</pdfrwt>
<totfact> 0.76063643E+03</totfact>
</mgrwt>
</event>
<event>
 8    1  0.3177960E-004  0.1086817E+03  0.7546771E-02  0.1264150E+00
          2   -1    0    0  501    0  0.00000000000E+00  0.00000000000E+00  0.32890819999E+02  0.32890819999E+02  0.00000000000E+00 0. -1.
         -2   -1    0    0    0  501 -0.00000000000E+00 -0.00000000000E+00 -0.43715888456E+03  0.43715888456E+03  0.00000000000E+00 0.  1.
         23    2    1    2    0    0  0.33990122037E+02  0.49310614061E+02 -0.96259106887E+02  0.14342877323E+03  0.87858592495E+02 0.  0.
         23    2    1    2    0    0 -0.33990122037E+02 -0.49310614061E+02 -0.30800895767E+03  0.32662093133E+03  0.90690957226E+02 0.  0.
          5    1    3    3  502    0  0.13053085716E+02  0.68154101053E+02 -0.39739311118E+02  0.80104103423E+02  0.47000000000E+01 0. -1.
         -5    1    3    3    0  502  0.20937036321E+02 -0.18843486992E+02 -0.56519795769E+02  0.63324669803E+02  0.47000000000E+01 0.  1.
          5    1    4    4  503    0 -0.32941842002E+02  0.20737588685E+00 -0.32007271791E+02  0.46171023454E+02  0.47000000000E+01 0. -1.
         -5    1    4    4    0  503 -0.10482800347E+01 -0.49517989948E+02 -0.27600168588E+03  0.28044990788E+03  0.47000000000E+01 0.  1.
<mgrwt>
<rscale>  0 0.10808887E+03</rscale>
<asrwt>0</asrwt>
<pdfrwt beam="1">  1        2 0.50601262E-02 0.10868171E+03</pdfrwt>
<pdfrwt beam="2">  1       -2 0.67255212E-01 0.10868171E+03</pdfrwt>
<totfact> 0.30236070E+03</totfact>
</mgrwt>
</event>
<event>
 8    1  0.3177960E-004  0.9516572E+02  0.7546771E-02  0.1292734E+00
         -1   -1    0    0    0  501 -0.00000000000E+00  0.00000000000E+00  0.34897666100E+02  0.34897666100E+02  0.00000000000E+00 0.  1.
          1   -1    0    0  501    0  0.00000000000E+00 -0.00000000000E+00 -0.25654906748E+03  0.25654906748E+03  0.00000000000E+00 0. -1.
         23    2    1    2    0    0 -0.10074887659E+02  0.13152084278E-01 -0.90233029267E+02  0.13114310096E+03  0.94630913685E+02 0.  0.
         23    2    1    2    0    0  0.10074887659E+02 -0.13152084278E-01 -0.13141837211E+03  0.16030363262E+03  0.91241232824E+02 0.  0.
          5    1    3    3  502    0 -0.11559836253E+02 -0.29238885434E+02 -0.95821063601E+02  0.10095696343E+03  0.47000000000E+01 0. -1.
         -5    1    4    4    0  503  0.24989224512E+02  0.35386537152E+02 -0.10433367174E+03  0.11306756128E+03  0.47000000000E+01 0.  1.
          5    1    4    4  503    0 -0.14914336853E+02 -0.35399689236E+02 -0.27084700370E+02  0.47236071343E+02  0.47000000000E+01 0. -1.
         -5    1    3    3    0  502  0.14849485941E+01  0.29252037518E+02  0.55880343341E+01  0.30186137531E+02  0.47000000000E+01 0.  1.
<mgrwt>
<rscale>  0 0.94311808E+02</rscale>
<asrwt>0</asrwt>
<pdfrwt beam="1">  1        1 0.39469087E-01 0.95165715E+02</pdfrwt>
<pdfrwt beam="2">  1       -1 0.53688718E-02 0.95165715E+02</pdfrwt>
<totfact> 0.15302414E+04</totfact>
</mgrwt>
</event>
<event>
 8    1  0.3177960E-004  0.9795366E+02  0.7546771E-02  0.1285369E+00
         -3   -1    0    0    0  501 -0.00000000000E+00  0.00000000000E+00  0.11810051868E+02  0.11810051868E+02  0.00000000000E+00 0.  1.
          3   -1    0    0  501    0  0.00000000000E+00 -0.00000000000E+00 -0.86875720331E+03  0.86875720331E+03  0.00000000000E+00 0. -1.
         23    2    1    2    0    0  0.19087621356E+02  0.29072351097E+02 -0.30876621139E+03  0.32393130981E+03  0.91571727580E+02 0.  0.
         23    2    1    2    0    0 -0.19087621356E+02 -0.29072351097E+02 -0.54818094005E+03  0.55663594537E+03  0.90175904490E+02 0.  0.
          5    1    3    3  502    0 -0.36659796613E+02  0.15041296553E+02 -0.14035340895E+03  0.14591556015E+03  0.47000000000E+01 0. -1.
         -5    1    4    4    0  503 -0.12835084717E+02  0.24394090926E+02 -0.69492687023E+02  0.74907507110E+02  0.47000000000E+01 0.  1.
          5    1    4    4  503    0 -0.62525366388E+01 -0.53466442023E+02 -0.47868825303E+03  0.48172843826E+03  0.47000000000E+01 0. -1.
         -5    1    3    3    0  502  0.55747417969E+02  0.14031054544E+02 -0.16841280244E+03  0.17801574966E+03  0.47000000000E+01 0.  1.
<mgrwt>
<rscale>  0 0.97626121E+02</rscale>
<asrwt>0</asrwt>
<pdfrwt beam="1">  1        3 0.13365497E+00 0.97953663E+02</pdfrwt>
<pdfrwt beam="2">  1       -3 0.18169309E-02 0.97953663E+02</pdfrwt>
<totfact> 0.11037455E+03</totfact>
</mgrwt>
</event>
<event>
 8    1  0.3177960E-004  0.3097848E+03  0.7546771E-02  0.1080493E+00
         -2   -1    0    0    0  501 -0.00000000000E+00  0.00000000000E+00  0.99485115948E+02  0.99485115948E+02  0.00000000000E+00 0.  1.
          2   -1    0    0  501    0  0.00000000000E+00 -0.00000000000E+00 -0.96419780288E+03  0.96419780288E+03  0.00000000000E+00 0. -1.
         23    2    1    2    0    0 -0.23780023520E+03  0.17677804283E+03 -0.41832358076E+03  0.52053935454E+03  0.90372413448E+02 0.  0.
         23    2    1    2    0    0  0.23780023520E+03 -0.17677804283E+03 -0.44638910617E+03  0.54314356429E+03  0.89119408864E+02 0.  0.
          5    1    4    4  502    0  0.14686815120E+03 -0.15803139174E+03 -0.29525734192E+03  0.36570912290E+03  0.47000000000E+01 0. -1.
         -5    1    4    4    0  502  0.90932084005E+02 -0.18746651088E+02 -0.15113176424E+03  0.17743444139E+03  0.47000000000E+01 0.  1.
          5    1    3    3  503    0 -0.83747489369E+02  0.98658475140E+02 -0.23699038387E+03  0.27006234232E+03  0.47000000000E+01 0. -1.
         -5    1    3    3    0  503 -0.15405274583E+03  0.78119567685E+02 -0.18133319689E+03  0.25047701222E+03  0.47000000000E+01 0.  1.
<mgrwt>
<rscale>  0 0.30969392E+03</rscale>
<asrwt>0</asrwt>
<pdfrwt beam="1">  1        2 0.14833813E+00 0.30978477E+03</pdfrwt>
<pdfrwt beam="2">  1       -2 0.15305401E-01 0.30978477E+03</pdfrwt>
<totfact> 0.91554894E+02</totfact>
</mgrwt>
</event>
<event>
 8    1  0.3177960E-004  0.3357569E+03  0.7546771E-02  0.1068677E+00
          3   -1    0    0  501    0  0.00000000000E+00  0.00000000000E+00  0.39555295918E+03  0.39555295918E+03  0.00000000000E+00 0. -1.
         -3   -1    0    0    0  501 -0.00000000000E+00 -0.00000000000E+00 -0.44456918500E+03  0.44456918500E+03  0.00000000000E+00 0.  1.
         23    2    1    2    0    0  0.12782688147E+03 -0.29654202071E+03  0.22753292158E+03  0.40513697848E+03  0.89932526137E+02 0.  0.
         23    2    1    2    0    0 -0.12782688147E+03  0.29654202071E+03 -0.27654914740E+03  0.43498516569E+03  0.91955324879E+02 0.  0.
          5    1    4    4  502    0 -0.21939223273E+02  0.95339552729E+02 -0.37049274675E+02  0.10471723156E+03  0.47000000000E+01 0. -1.
         -5    1    3    3    0  503 -0.79107763335E+01 -0.19781708239E+02  0.36299879436E+02  0.42351713190E+02  0.47000000000E+01 0.  1.
          5    1    3    3  503    0  0.13573765780E+03 -0.27676031247E+03  0.19123304214E+03  0.36278526529E+03  0.47000000000E+01 0. -1.
         -5    1    4    4    0  502 -0.10588765820E+03  0.20120246798E+03 -0.23949987272E+03  0.33026793413E+03  0.47000000000E+01 0.  1.
<mgrwt>
<rscale>  0 0.33561968E+03</rscale>
<asrwt>0</asrwt>
<pdfrwt beam="1">  1        3 0.60854301E-01 0.33575685E+03</pdfrwt>
<pdfrwt beam="2">  1       -3 0.68395259E-01 0.33575685E+03</pdfrwt>
<totfact> 0.13952021E+01</totfact>
</mgrwt>
</event>
<event>
 8    1  0.3177960E-004  0.1132225E+03  0.7546771E-02  0.1256377E+00
          1   -1    0    0  501    0  0.00000000000E+00  0.00000000000E+00  0.48209124164E+03  0.48209124164E+03  0.00000000000E+00 0. -1.
         -1   -1    0    0    0  501 -0.00000000000E+00 -0.00000000000E+00 -0.26136958239E+02  0.26136958239E+02  0.00000000000E+00 0.  1.
         23    2    1    2    0    0  0.56670823863E+02  0.37268453791E+02  0.25568598863E+03  0.27817011393E+03  0.86039337373E+02 0.  0.
         23    2    1    2    0    0 -0.56670823863E+02 -0.37268453791E+02  0.20026829476E+03  0.23005808594E+03  0.90657669809E+02 0.  0.
          5    1    4    4  502    0  0.26209173480E+01  0.25866141300E+02  0.43547532680E+02  0.50935293030E+02  0.47000000000E+01 0. -1.
         -5    1    4    4    0  502 -0.59291741211E+02 -0.63134595091E+02  0.15672076208E+03  0.17912279291E+03  0.47000000000E+01 0.  1.
          5    1    3    3  503    0  0.78923679951E+02  0.35208037240E+02  0.20844494727E+03  0.22569877976E+03  0.47000000000E+01 0. -1.
         -5    1    3    3    0  503 -0.22252856088E+02  0.20604165512E+01  0.47241041362E+02  0.52471334168E+02  0.47000000000E+01 0.  1.
<mgrwt>
<rscale>  0 0.11229542E+03</rscale>
<asrwt>0</asrwt>
<pdfrwt beam="1">  1        1 0.74167877E-01 0.11322249E+03</pdfrwt>
<pdfrwt beam="2">  1       -1 0.40210708E-02 0.11322249E+03</pdfrwt>
<totfact> 0.10844440E+04</totfact>
</mgrwt>
</event>
<event>
 8    1  0.3177960E-004  0.9624073E+02  0.7546771E-02  0.1289444E+00
          2   -1    0    0  501    0  0.00000000000E+00  0.00000000000E+00  0.22133804731E+03  0.22133804731E+03  0.00000000000E+00 0. -1.
         -2   -1    0    0    0  501 -0.00000000000E+00 -0.00000000000E+00 -0.41059603656E+02  0.41059603656E+02  0.00000000000E+00 0.  1.
         23    2    1    2    0    0 -0.23001888828E+02 -0.83962203040E+01  0.93620795551E+02  0.13426515249E+03  0.93073596737E+02 0.  0.
         23    2    1    2    0    0  0.23001888828E+02  0.83962203040E+01  0.86657648101E+02  0.12813249847E+03  0.91152651002E+02 0.  0.
          5    1    3    3  502    0 -0.57251760122E+02  0.39867431315E+00  0.73580286998E+02  0.93349191817E+02  0.47000000000E+01 0. -1.
         -5    1    4    4    0  503  0.37695418962E+02  0.28940616203E+02  0.12088808205E+02  0.49261883447E+02  0.47000000000E+01 0.  1.
          5    1    4    4  503    0 -0.14693530134E+02 -0.20544395899E+02  0.74568839896E+02  0.78870615022E+02  0.47000000000E+01 0. -1.
         -5    1    3    3    0  502  0.34249871294E+02 -0.87948946171E+01  0.20040508553E+02  0.40915960676E+02  0.47000000000E+01 0.  1.
<mgrwt>
<rscale>  0 0.95773217E+02</rscale>
<asrwt>0</asrwt>
<pdfrwt beam="1">  1        2 0.34052007E-01 0.96240728E+02</pdfrwt>
<pdfrwt beam="2">  1       -2 0.63168622E-02 0.96240728E+02</pdfrwt>
<totfact> 0.18777280E+04</totfact>
</mgrwt>
</event>
<event>
 8    1  0.3348504E-004  0.1000373E+03  0.7546771E-02  0.1280226E+00
         -4   -1    0    0    0  501 -0.00000000000E+00  0.00000000000E+00  0.36152130989E+03  0.36152130989E+03  0.00000000000E+00 0.  1.
          4   -1    0    0  501    0  0.00000000000E+00 -0.00000000000E+00 -0.63713051934E+02  0.63713051934E+02  0.00000000000E+00 0. -1.
         23    2    1    2    0    0 -0.30570341834E+02  0.23392499485E+02 -0.11002975473E+02  0.10062406447E+03  0.92316748475E+02 0.  0.
         23    2    1    2    0    0  0.30570341834E+02 -0.23392499485E+02  0.30881123343E+03  0.32461029736E+03  0.92334784485E+02 0.  0.
          5    1    4    4  502    0 -0.14390060986E+02  0.25433435446E+02  0.57903798417E+02  0.65029788289E+02  0.47000000000E+01 0. -1.
         -5    1    4    4    0  502  0.44960402819E+02 -0.48825934931E+02  0.25090743501E+03  0.25958050907E+03  0.47000000000E+01 0.  1.
          5    1    3    3  503    0 -0.45951088099E+02  0.37890275629E+02 -0.34242301692E+02  0.68860734166E+02  0.47000000000E+01 0. -1.
         -5    1    3    3    0  503  0.15380746265E+02 -0.14497776144E+02  0.23239326219E+02  0.31763330303E+02  0.47000000000E+01 0.  1.
<mgrwt>
<rscale>  0 0.10003317E+03</rscale>
<asrwt>0</asrwt>
<pdfrwt beam="1">  1        4 0.98020082E-02 0.10003733E+03</pdfrwt>
<pdfrwt beam="2">  1       -4 0.55618662E-01 0.10003733E+03</pdfrwt>
<totfact> 0.38154842E+02</totfact>
</mgrwt>
</event>
<event>
 7    1  0.3177960E-004  0.4725673E+03  0.7546771E-02  0.1021198E+00
         -2   -1    0    0    0  501 -0.00000000000E+00  0.00000000000E+00  0.85360300683E+02  0.85360300683E+02  0.00000000000E+00 0.  1.
          2   -1    0    0  501    0  0.00000000000E+00 -0.00000000000E+00 -0.65405074676E+03  0.65405074676E+03  0.00000000000E+00 0. -1.
         23    2    1    2    0    0 -0.13141725099E+03  0.66403119518E+02 -0.96122445018E+02  0.19766767096E+03  0.90294604292E+02 0.  0.
          5    1    3    3  502    0  0.62385714235E+01  0.25529965897E+02 -0.27913783045E+02  0.38626004401E+02  0.47000000000E+01 0. -1.
         -5    1    1    2    0  503 -0.48245819559E+02 -0.53281996975E+02 -0.68900692202E+02  0.99679615231E+02  0.47000000000E+01 0.  1.
          5    1    1    2  503    0  0.17966307055E+03 -0.13121122543E+02 -0.40366730886E+03  0.44206376126E+03  0.47000000000E+01 0. -1.
         -5    1    3    3    0  502 -0.13765582242E+03  0.40873153621E+02 -0.68208661972E+02  0.15904166655E+03  0.47000000000E+01 0.  1.
<mgrwt>
<rscale>  0 0.47256732E+03</rscale>
<asrwt>0</asrwt>
<pdfrwt beam="1">  1        2 0.10062319E+00 0.47256732E+03</pdfrwt>
<pdfrwt beam="2">  1       -2 0.13132354E-01 0.47256732E+03</pdfrwt>
<totfact> 0.19517139E+03</totfact>
</mgrwt>
</event>
<event>
 8    1  0.3177960E-004  0.9536150E+02  0.7546771E-02  0.1290922E+00
         -1   -1    0    0    0  501 -0.00000000000E+00  0.00000000000E+00  0.28421695088E+03  0.28421695088E+03  0.00000000000E+00 0.  1.
          1   -1    0    0  501    0  0.00000000000E+00 -0.00000000000E+00 -0.46375907815E+02  0.46375907815E+02  0.00000000000E+00 0. -1.
         23    2    1    2    0    0 -0.13538616405E+01 -0.28670044968E+02  0.21159474239E+03  0.23168540550E+03  0.89899875952E+02 0.  0.
         23    2    1    2    0    0  0.13538616405E+01  0.28670044968E+02  0.26246300672E+02  0.98907453189E+02  0.90939604011E+02 0.  0.
          5    1    3    3  502    0  0.65892166048E+01  0.22345596444E+02  0.14397504563E+02  0.27787076017E+02  0.47000000000E+01 0. -1.
         -5    1    4    4    0  503  0.19615262869E+02 -0.17926819248E+02  0.38643911924E+02  0.47133547655E+02  0.47000000000E+01 0.  1.
          5    1    4    4  503    0 -0.18261401229E+02  0.46596864215E+02 -0.12397611252E+02  0.51773905534E+02  0.47000000000E+01 0. -1.
         -5    1    3    3    0  502 -0.79430782453E+01 -0.51015641412E+02  0.19719723783E+03  0.20389832949E+03  0.47000000000E+01 0.  1.
<mgrwt>
<rscale>  0 0.95112781E+02</rscale>
<asrwt>0</asrwt>
<pdfrwt beam="1">  1        1 0.71347552E-02 0.95361502E+02</pdfrwt>
<pdfrwt beam="2">  1       -1 0.43725684E-01 0.95361502E+02</pdfrwt>
<totfact> 0.49717509E+03</totfact>
</mgrwt>
</event>
<event>
 8    1  0.3177960E-004  0.1046210E+03  0.7546771E-02  0.1271625E+00
          1   -1    0    0  501    0  0.00000000000E+00  0.00000000000E+00  0.48295219819E+02  0.48295219819E+02  0.00000000000E+00 0. -1.
         -1   -1    0    0    0  501 -0.00000000000E+00 -0.00000000000E+00 -0.44048029463E+03  0.44048029463E+03  0.00000000000E+00 0.  1.
         23    2    1    2    0    0 -0.43029797477E+02 -0.22065793363E+02 -0.36839514023E+03  0.38296282999E+03  0.92774388157E+02 0.  0.
         23    2    1    2    0    0  0.43029797477E+02  0.22065793363E+02 -0.23789934583E+02  0.10581268446E+03  0.91059873153E+02 0.  0.
          5    1    4    4  502    0  0.45876532049E+02  0.53800827699E+02 -0.17639053115E+02  0.73023362348E+02  0.47000000000E+01 0. -1.
         -5    1    3    3    0  503 -0.43701187507E+02  0.25601278822E+02 -0.25224190017E+03  0.25731942302E+03  0.47000000000E+01 0.  1.
          5    1    3    3  503    0  0.67139003041E+00 -0.47667072184E+02 -0.11615324007E+03  0.12564340696E+03  0.47000000000E+01 0. -1.
         -5    1    4    4    0  502 -0.28467345720E+01 -0.31735034336E+02 -0.61508814679E+01  0.32789322117E+02  0.47000000000E+01 0.  1.
<mgrwt>
<rscale>  0 0.10423957E+03</rscale>
<asrwt>0</asrwt>
<pdfrwt beam="1">  1        1 0.74300335E-02 0.10462098E+03</pdfrwt>
<pdfrwt beam="2">  1       -1 0.67766202E-01 0.10462098E+03</pdfrwt>
<totfact> 0.21095395E+03</totfact>
</mgrwt>
</event>
<event>
 8    1  0.3177960E-004  0.1084996E+03  0.7546771E-02  0.1263622E+00
          1   -1    0    0  501    0  0.00000000000E+00  0.00000000000E+00  0.63672866872E+02  0.63672866872E+02  0.00000000000E+00 0. -1.
         -1   -1    0    0    0  501 -0.00000000000E+00 -0.00000000000E+00 -0.28799910536E+03  0.28799910536E+03  0.00000000000E+00 0.  1.
         23    2    1    2    0    0 -0.23524096608E+01 -0.57807746421E+02 -0.66685767685E+01  0.10870433208E+03  0.91787213265E+02 0.  0.
         23    2    1    2    0    0  0.23524096608E+01  0.57807746421E+02 -0.21765766172E+03  0.24296764016E+03  0.91165492809E+02 0.  0.
          5    1    3    3  502    0  0.40203261565E+02 -0.39991992425E+02 -0.20227381637E+02  0.60389557594E+02  0.47000000000E+01 0. -1.
         -5    1    4    4    0  503  0.20045447605E+02  0.47877871183E+02 -0.21586158126E+03  0.22206400605E+03  0.47000000000E+01 0.  1.
          5    1    4    4  503    0 -0.17693037944E+02  0.99298752383E+01 -0.17960804649E+01  0.20903634109E+02  0.47000000000E+01 0. -1.
         -5    1    3    3    0  502 -0.42555671226E+02 -0.17815753996E+02  0.13558804868E+02  0.48314774484E+02  0.47000000000E+01 0.  1.
<mgrwt>
<rscale>  0 0.10836799E+03</rscale>
<asrwt>0</asrwt>
<pdfrwt beam="1">  1        1 0.97958256E-02 0.10849959E+03</pdfrwt>
<pdfrwt beam="2">  1       -1 0.44307555E-01 0.10849959E+03</pdfrwt>
<totfact> 0.32181502E+03</totfact>
</mgrwt>
</event>
<event>
 8    1  0.3177960E-004  0.1815143E+03  0.7546771E-02  0.1166397E+00
         -2   -1    0    0    0  501 -0.00000000000E+00  0.00000000000E+00  0.35828815505E+03  0.35828815505E+03  0.00000000000E+00 0.  1.
          2   -1    0    0  501    0  0.00000000000E+00 -0.00000000000E+00 -0.49603731889E+03  0.49603731889E+03  0.00000000000E+00 0. -1.
         23    2    1    2    0    0 -0.15282765572E+03 -0.31929150326E+02  0.31670983438E+03  0.36503773370E+03  0.92583285954E+02 0.  0.
         23    2    1    2    0    0  0.15282765572E+03  0.31929150326E+02 -0.45445899822E+03  0.48928774025E+03  0.92161535908E+02 0.  0.
          5    1    3    3  502    0 -0.13097099489E+03  0.11838653752E+02  0.21492699626E+03  0.25201043420E+03  0.47000000000E+01 0. -1.
         -5    1    4    4    0  503  0.10348480368E+03 -0.24085275654E+02 -0.25698367384E+03  0.27812210218E+03  0.47000000000E+01 0.  1.
          5    1    4    4  503    0  0.49342852038E+02  0.56014425980E+02 -0.19747532438E+03  0.21116563807E+03  0.47000000000E+01 0. -1.
         -5    1    3    3    0  502 -0.21856660837E+02 -0.43767804078E+02  0.10178283812E+03  0.11302729950E+03  0.47000000000E+01 0.  1.
<mgrwt>
<rscale>  0 0.18146055E+03</rscale>
<asrwt>0</asrwt>
<pdfrwt beam="1">  1        2 0.76313434E-01 0.18151426E+03</pdfrwt>
<pdfrwt beam="2">  1       -2 0.55121254E-01 0.18151426E+03</pdfrwt>
<totfact> 0.20163071E+02</totfact>
</mgrwt>
</event>
<event>
 8    1  0.3177960E-004  0.1021934E+03  0.7546771E-02  0.1278602E+00
         -1   -1    0    0    0  501 -0.00000000000E+00  0.00000000000E+00  0.34799018773E+03  0.34799018773E+03  0.00000000000E+00 0.  1.
          1   -1    0    0  501    0  0.00000000000E+00 -0.00000000000E+00 -0.15015145741E+03  0.15015145741E+03  0.00000000000E+00 0. -1.
         23    2    1    2    0    0  0.17722423641E+02 -0.17455864587E+02  0.32263883187E+03  0.33683893387E+03  0.93519302994E+02 0.  0.
         23    2    1    2    0    0 -0.17722423641E+02  0.17455864587E+02 -0.12480010155E+03  0.16130271127E+03  0.99119664079E+02 0.  0.
          5    1    3    3  502    0  0.24688400412E+02  0.29387442853E+02  0.72046502225E+02  0.81767520417E+02  0.47000000000E+01 0. -1.
         -5    1    4    4    0  503  0.16358773978E+02  0.32571292161E+02 -0.66841865329E+01  0.37353271727E+02  0.47000000000E+01 0.  1.
          5    1    4    4  503    0 -0.34081197619E+02 -0.15115427574E+02 -0.11811591502E+03  0.12394943954E+03  0.47000000000E+01 0. -1.
         -5    1    3    3    0  502 -0.69659767703E+01 -0.46843307439E+02  0.25059232965E+03  0.25507141345E+03  0.47000000000E+01 0.  1.
<mgrwt>
<rscale>  0 0.10081002E+03</rscale>
<asrwt>0</asrwt>
<pdfrwt beam="1">  1        1 0.23100224E-01 0.10219344E+03</pdfrwt>
<pdfrwt beam="2">  1       -1 0.53536952E-01 0.10219344E+03</pdfrwt>
<totfact> 0.75826444E+02</totfact>
</mgrwt>
</event>
<event>
 8    1  0.3177960E-004  0.1221243E+03  0.7546771E-02  0.1239709E+00
         -1   -1    0    0    0  501 -0.00000000000E+00  0.00000000000E+00  0.11362909907E+03  0.11362909907E+03  0.00000000000E+00 0.  1.
          1   -1    0    0  501    0  0.00000000000E+00 -0.00000000000E+00 -0.13107272573E+03  0.13107272573E+03  0.00000000000E+00 0. -1.
         23    2    1    2    0    0 -0.80371890905E+02  0.21890928560E+01 -0.72234739872E+01  0.12215058107E+03  0.91674167050E+02 0.  0.
         23    2    1    2    0    0  0.80371890905E+02 -0.21890928560E+01 -0.10220152673E+02  0.12255124373E+03  0.91923461875E+02 0.  0.
          5    1    3    3  502    0 -0.71097269066E+02  0.38281983564E+02 -0.18420954341E+02  0.82956334858E+02  0.47000000000E+01 0. -1.
         -5    1    4    4    0  503  0.65948447029E+02 -0.35865721240E+02 -0.29609856401E+02  0.80835519555E+02  0.47000000000E+01 0.  1.
          5    1    4    4  503    0  0.14423443876E+02  0.33676628384E+02  0.19389703727E+02  0.41715724172E+02  0.47000000000E+01 0. -1.
         -5    1    3    3    0  502 -0.92746218395E+01 -0.36092890708E+02  0.11197480354E+02  0.39194246213E+02  0.47000000000E+01 0.  1.
<mgrwt>
<rscale>  0 0.12207744E+03</rscale>
<asrwt>0</asrwt>
<pdfrwt beam="1">  1        1 0.20165035E-01 0.12212435E+03</pdfrwt>
<pdfrwt beam="2">  1       -1 0.17481400E-01 0.12212435E+03</pdfrwt>
<totfact> 0.59902148E+03</totfact>
</mgrwt>
</event>
<event>
 8    1  0.3177960E-004  0.9879403E+02  0.7546771E-02  0.1284568E+00
         -1   -1    0    0    0  501 -0.00000000000E+00  0.00000000000E+00  0.11747603738E+03  0.11747603738E+03  0.00000000000E+00 0.  1.
          1   -1    0    0  501    0  0.00000000000E+00 -0.00000000000E+00 -0.14717289350E+03  0.14717289350E+03  0.00000000000E+00 0. -1.
         23    2    1    2    0    0  0.31794337112E+02 -0.14764967067E+02  0.74109382425E+02  0.12350085202E+03  0.92365446788E+02 0.  0.
         23    2    1    2    0    0 -0.31794337112E+02  0.14764967067E+02 -0.10380623854E+03  0.14114807887E+03  0.88984048470E+02 0.  0.
          5    1    3    3  502    0 -0.34705096830E+01 -0.44007554035E+02  0.11645594404E+02  0.45895741836E+02  0.47000000000E+01 0. -1.
         -5    1    4    4    0  503 -0.18421121055E+02  0.46649072435E+02 -0.27849431362E+02  0.57560007707E+02  0.47000000000E+01 0.  1.
          5    1    4    4  503    0 -0.13373216057E+02 -0.31884105369E+02 -0.75956807183E+02  0.83588071160E+02  0.47000000000E+01 0. -1.
         -5    1    3    3    0  502  0.35264846795E+02  0.29242586968E+02  0.62463788021E+02  0.77605110180E+02  0.47000000000E+01 0.  1.
<mgrwt>
<rscale>  0 0.97995948E+02</rscale>
<asrwt>0</asrwt>
<pdfrwt beam="1">  1        1 0.22641984E-01 0.98794028E+02</pdfrwt>
<pdfrwt beam="2">  1       -1 0.18073237E-01 0.98794028E+02</pdfrwt>
<totfact> 0.48406427E+03</totfact>
</mgrwt>
</event>
<event>
 8    1  0.3177960E-004  0.9502777E+02  0.7546771E-02  0.1292029E+00
         -1   -1    0    0    0  501 -0.00000000000E+00  0.00000000000E+00  0.45244760687E+03  0.45244760687E+03  0.00000000000E+00 0.  1.
          1   -1    0    0  501    0  0.00000000000E+00 -0.00000000000E+00 -0.21088661472E+02  0.21088661472E+02  0.00000000000E+00 0. -1.
         23    2    1    2    0    0  0.57987320654E+01 -0.16401759243E+02  0.27983823137E+03  0.29553292980E+03  0.93421806137E+02 0.  0.
         23    2    1    2    0    0 -0.57987320654E+01  0.16401759243E+02  0.15152071402E+03  0.17800333854E+03  0.91782453395E+02 0.  0.
          5    1    3    3  502    0 -0.87156388081E+01 -0.39808849510E+02  0.53200911163E+02  0.67179861623E+02  0.47000000000E+01 0.  1.
         -5    1    4    4    0  503  0.16999998021E+02 -0.26407528040E+02  0.10832958583E+03  0.11288820415E+03  0.47000000000E+01 0.  1.
          5    1    4    4  503    0 -0.22798730087E+02  0.42809287283E+02  0.43191128192E+02  0.65115134384E+02  0.47000000000E+01 0. -1.
         -5    1    3    3    0  502  0.14514370873E+02  0.23407090267E+02  0.22663732021E+03  0.22835306818E+03  0.47000000000E+01 0. -1.
<mgrwt>
<rscale>  0 0.94622391E+02</rscale>
<asrwt>0</asrwt>
<pdfrwt beam="1">  1        1 0.32444098E-02 0.95027769E+02</pdfrwt>
<pdfrwt beam="2">  1       -1 0.69607317E-01 0.95027769E+02</pdfrwt>
<totfact> 0.61082042E+03</totfact>
</mgrwt>
</event>
<event>
 8    1  0.3177960E-004  0.9412351E+02  0.7546771E-02  0.1293621E+00
          1   -1    0    0  501    0  0.00000000000E+00  0.00000000000E+00  0.17737143857E+03  0.17737143857E+03  0.00000000000E+00 0. -1.
         -1   -1    0    0    0  501 -0.00000000000E+00 -0.00000000000E+00 -0.51530008847E+02  0.51530008847E+02  0.00000000000E+00 0.  1.
         23    2    1    2    0    0 -0.12385344573E+02  0.19880740514E+02  0.40076757929E+02  0.10156404426E+03  0.90335308468E+02 0.  0.
         23    2    1    2    0    0  0.12385344573E+02 -0.19880740514E+02  0.85764671796E+02  0.12733740316E+03  0.91162463287E+02 0.  0.
          5    1    3    3  502    0  0.36995417660E+02 -0.21091712598E+01  0.25992929650E+02  0.45506394309E+02  0.47000000000E+01 0. -1.
         -5    1    3    3    0  502 -0.49380762233E+02  0.21989911774E+02  0.14083828280E+02  0.56057649947E+02  0.47000000000E+01 0.  1.
          5    1    4    4  503    0  0.15365502328E+02  0.26237986637E+02  0.72913726533E+02  0.79139320957E+02  0.47000000000E+01 0. -1.
         -5    1    4    4    0  503 -0.29801577553E+01 -0.46118727151E+02  0.12850945263E+02  0.48198082207E+02  0.47000000000E+01 0.  1.
<mgrwt>
<rscale>  0 0.93922642E+02</rscale>
<asrwt>0</asrwt>
<pdfrwt beam="1">  1        1 0.27287913E-01 0.94123511E+02</pdfrwt>
<pdfrwt beam="2">  1       -1 0.79276938E-02 0.94123511E+02</pdfrwt>
<totfact> 0.13500020E+04</totfact>
</mgrwt>
</event>
<event>
 8    1  0.3177960E-004  0.1058642E+03  0.7546771E-02  0.1268981E+00
         -1   -1    0    0    0  501 -0.00000000000E+00  0.00000000000E+00  0.30680099704E+02  0.30680099704E+02  0.00000000000E+00 0.  1.
          1   -1    0    0  501    0  0.00000000000E+00 -0.00000000000E+00 -0.67158580797E+03  0.67158580797E+03  0.00000000000E+00 0. -1.
         23    2    1    2    0    0  0.41675607544E+02 -0.25126520579E+02 -0.80894405124E+02  0.13233618161E+03  0.92740292657E+02 0.  0.
         23    2    1    2    0    0 -0.41675607544E+02  0.25126520579E+02 -0.56001130314E+03  0.56992972607E+03  0.94016140655E+02 0.  0.
          5    1    3    3  502    0  0.37798593463E+02  0.24525110991E+02 -0.66166305910E+02  0.80189056452E+02  0.47000000000E+01 0. -1.
         -5    1    3    3    0  502  0.38770140813E+01 -0.49651631570E+02 -0.14728099214E+02  0.52147125158E+02  0.47000000000E+01 0.  1.
          5    1    4    4  503    0 -0.45167779902E+02 -0.14408193153E+02 -0.45636197997E+03  0.45884209826E+03  0.47000000000E+01 0. -1.
         -5    1    4    4    0  503  0.34921723576E+01  0.39534713732E+02 -0.10364932318E+03  0.11108762781E+03  0.47000000000E+01 0.  1.
<mgrwt>
<rscale>  0 0.10558022E+03</rscale>
<asrwt>0</asrwt>
<pdfrwt beam="1">  1        1 0.10332090E+00 0.10586422E+03</pdfrwt>
<pdfrwt beam="2">  1       -1 0.47200152E-02 0.10586422E+03</pdfrwt>
<totfact> 0.54855125E+03</totfact>
</mgrwt>
</event>
<event>
 8    1  0.3177960E-004  0.1378311E+03  0.7546771E-02  0.1218509E+00
          1   -1    0    0  501    0  0.00000000000E+00  0.00000000000E+00  0.15633660468E+04  0.15633660468E+04  0.00000000000E+00 0. -1.
         -1   -1    0    0    0  501 -0.00000000000E+00 -0.00000000000E+00 -0.14465863721E+02  0.14465863721E+02  0.00000000000E+00 0.  1.
         23    2    1    2    0    0 -0.64742313842E+02 -0.60331817025E+02  0.43795671762E+03  0.45913343410E+03  0.10566895692E+03 0.  0.
         23    2    1    2    0    0  0.64742313842E+02  0.60331817025E+02  0.11109434654E+04  0.11186984764E+04  0.97259458892E+02 0.  0.
          5    1    3    3  502    0 -0.63519252659E+02  0.56599441700E+01  0.29136673431E+03  0.29830084527E+03  0.47000000000E+01 0. -1.
         -5    1    4    4    0  503  0.11553712237E+02 -0.25404099300E+02  0.16875985854E+03  0.17111644100E+03  0.47000000000E+01 0.  1.
          5    1    4    4  503    0  0.53188601605E+02  0.85735916324E+02  0.94218360688E+03  0.94758203537E+03  0.47000000000E+01 0. -1.
         -5    1    3    3    0  502 -0.12230611834E+01 -0.65991761195E+02  0.14658998331E+03  0.16083258884E+03  0.47000000000E+01 0.  1.
<mgrwt>
<rscale>  0 0.13621901E+03</rscale>
<asrwt>0</asrwt>
<pdfrwt beam="1">  1        1 0.24051772E+00 0.13783114E+03</pdfrwt>
<pdfrwt beam="2">  1       -1 0.22255187E-02 0.13783114E+03</pdfrwt>
<totfact> 0.37665652E+03</totfact>
</mgrwt>
</event>
<event>
 8    1  0.3177960E-004  0.9204826E+02  0.7546771E-02  0.1304112E+00
          3   -1    0    0  501    0  0.00000000000E+00  0.00000000000E+00  0.17503091896E+03  0.17503091896E+03  0.00000000000E+00 0. -1.
         -3   -1    0    0    0  501 -0.00000000000E+00 -0.00000000000E+00 -0.50456555387E+02  0.50456555387E+02  0.00000000000E+00 0.  1.
         23    2    1    2    0    0 -0.16843763635E+02  0.13593087421E+02  0.17065089780E+02  0.83956111330E+02  0.79302754942E+02 0.  0.
         23    2    1    2    0    0  0.16843763635E+02 -0.13593087421E+02  0.10750927379E+03  0.14153136301E+03  0.89467303338E+02 0.  0.
          5    1    4    4  502    0  0.28778079293E+02 -0.47404247421E+02  0.70009990304E+02  0.89436174246E+02  0.47000000000E+01 0. -1.
         -5    1    4    4    0  502 -0.11934315658E+02  0.33811160000E+02  0.37499283485E+02  0.52095188767E+02  0.47000000000E+01 0.  1.
          5    1    3    3  503    0 -0.39545421333E+02  0.20658306819E+01  0.34510086109E+02  0.52736553244E+02  0.47000000000E+01 0. -1.
         -5    1    3    3    0  503  0.22701657698E+02  0.11527256739E+02 -0.17444996329E+02  0.31219558086E+02  0.47000000000E+01 0.  1.
<mgrwt>
<rscale>  0 0.89481704E+02</rscale>
<asrwt>0</asrwt>
<pdfrwt beam="1">  1        3 0.26927833E-01 0.92048263E+02</pdfrwt>
<pdfrwt beam="2">  1       -3 0.77625471E-02 0.92048263E+02</pdfrwt>
<totfact> 0.31074101E+03</totfact>
</mgrwt>
</event>
<event>
 8    1  0.3177960E-004  0.1045451E+03  0.7546771E-02  0.1271850E+00
          1   -1    0    0  501    0  0.00000000000E+00  0.00000000000E+00  0.88281313648E+03  0.88281313648E+03  0.00000000000E+00 0. -1.
         -1   -1    0    0    0  501 -0.00000000000E+00 -0.00000000000E+00 -0.19708579569E+02  0.19708579569E+02  0.00000000000E+00 0.  1.
         23    2    1    2    0    0 -0.75998836060E+01  0.48920649526E+02  0.15059400115E+03  0.18238217253E+03  0.90187113788E+02 0.  0.
         23    2    1    2    0    0  0.75998836060E+01 -0.48920649526E+02  0.71251055576E+03  0.72013954352E+03  0.92079758292E+02 0.  0.
          5    1    4    4  502    0 -0.33288396403E+02 -0.46075813483E+02  0.52806587719E+03  0.53113723140E+03  0.47000000000E+01 0. -1.
         -5    1    3    3    0  503  0.39794732199E+02  0.23629076246E+02  0.50326148339E+02  0.68532949460E+02  0.47000000000E+01 0.  1.
          5    1    3    3  503    0 -0.47394615805E+02  0.25291573280E+02  0.10026785281E+03  0.11384922307E+03  0.47000000000E+01 0. -1.
         -5    1    4    4    0  502  0.40888280009E+02 -0.28448360430E+01  0.18444467857E+03  0.18900231213E+03  0.47000000000E+01 0.  1.
<mgrwt>
<rscale>  0 0.10412679E+03</rscale>
<asrwt>0</asrwt>
<pdfrwt beam="1">  1        1 0.13581738E+00 0.10454506E+03</pdfrwt>
<pdfrwt beam="2">  1       -1 0.30320898E-02 0.10454506E+03</pdfrwt>
<totfact> 0.69832369E+03</totfact>
</mgrwt>
</event>
<event>
 8    1  0.3177960E-004  0.1119321E+03  0.7546771E-02  0.1257315E+00
         -2   -1    0    0    0  501 -0.00000000000E+00  0.00000000000E+00  0.57460823213E+02  0.57460823213E+02  0.00000000000E+00 0.  1.
          2   -1    0    0  501    0  0.00000000000E+00 -0.00000000000E+00 -0.43342534934E+03  0.43342534934E+03  0.00000000000E+00 0. -1.
         23    2    1    2    0    0  0.39800702714E+02 -0.53338955062E+02 -0.14214054964E+02  0.11221454139E+03  0.89224009529E+02 0.  0.
         23    2    1    2    0    0 -0.39800702714E+02  0.53338955062E+02 -0.36175047116E+03  0.37867163117E+03  0.89998115529E+02 0.  0.
          5    1    4    4  502    0 -0.60315081693E+02  0.24293267984E+02 -0.30220768407E+03  0.30915958057E+03  0.47000000000E+01 0. -1.
         -5    1    3    3    0  503  0.27984477392E+02  0.20297885338E+02 -0.13710470672E+02  0.37486025798E+02  0.47000000000E+01 0.  1.
          5    1    3    3  503    0  0.11816225322E+02 -0.73636840400E+02 -0.50358429216E+00  0.74728515589E+02  0.47000000000E+01 0. -1.
         -5    1    4    4    0  502  0.20514378979E+02  0.29045687078E+02 -0.59542787093E+02  0.69512050592E+02  0.47000000000E+01 0.  1.
<mgrwt>
<rscale>  0 0.11177644E+03</rscale>
<asrwt>0</asrwt>
<pdfrwt beam="1">  1        2 0.66680824E-01 0.11193213E+03</pdfrwt>
<pdfrwt beam="2">  1       -2 0.88401265E-02 0.11193213E+03</pdfrwt>
<totfact> 0.56020301E+03</totfact>
</mgrwt>
</event>
<event>
 8    1  0.3177960E-004  0.1023809E+03  0.7546771E-02  0.1277200E+00
         -1   -1    0    0    0  501 -0.00000000000E+00  0.00000000000E+00  0.16522952499E+03  0.16522952499E+03  0.00000000000E+00 0.  1.
          1   -1    0    0  501    0  0.00000000000E+00 -0.00000000000E+00 -0.73484210973E+02  0.73484210973E+02  0.00000000000E+00 0. -1.
         23    2    1    2    0    0  0.16094189477E+02  0.42053237120E+02  0.93856449848E+02  0.13631108932E+03  0.88001035260E+02 0.  0.
         23    2    1    2    0    0 -0.16094189477E+02 -0.42053237120E+02 -0.21111358355E+01  0.10240264664E+03  0.91947525559E+02 0.  0.
          5    1    3    3  502    0 -0.44735942488E+01  0.60269431826E+02  0.89504102441E+02  0.10809945334E+03  0.47000000000E+01 0. -1.
         -5    1    3    3    0  502  0.20567783726E+02 -0.18216194706E+02  0.43523474070E+01  0.28211635984E+02  0.47000000000E+01 0.  1.
          5    1    4    4  503    0 -0.26069526021E+02  0.17202138454E+02  0.20914048509E+02  0.37881673397E+02  0.47000000000E+01 0. -1.
         -5    1    4    4    0  503  0.99753365447E+01 -0.59255375574E+02 -0.23025184344E+02  0.64520973239E+02  0.47000000000E+01 0.  1.
<mgrwt>
<rscale>  0 0.10148697E+03</rscale>
<asrwt>0</asrwt>
<pdfrwt beam="1">  1        1 0.11305263E-01 0.10238088E+03</pdfrwt>
<pdfrwt beam="2">  1       -1 0.25419927E-01 0.10238088E+03</pdfrwt>
<totfact> 0.68195611E+03</totfact>
</mgrwt>
</event>
<event>
 8    1  0.3177960E-004  0.1252882E+03  0.7546771E-02  0.1236785E+00
         -1   -1    0    0    0  501 -0.00000000000E+00  0.00000000000E+00  0.29580600077E+02  0.29580600077E+02  0.00000000000E+00 0.  1.
          1   -1    0    0  501    0  0.00000000000E+00 -0.00000000000E+00 -0.50836256707E+03  0.50836256707E+03  0.00000000000E+00 0. -1.
         23    2    1    2    0    0  0.53194015619E+02 -0.54554191506E+02 -0.25262623376E+03  0.28198783739E+03  0.99455333422E+02 0.  0.
         23    2    1    2    0    0 -0.53194015619E+02  0.54554191506E+02 -0.22615573324E+03  0.25595532976E+03  0.92525412975E+02 0.  0.
          5    1    3    3  502    0  0.24976867361E+02  0.51192572575E+01 -0.18700140088E+03  0.18879000140E+03  0.47000000000E+01 0. -1.
         -5    1    3    3    0  502  0.28217148259E+02 -0.59673448764E+02 -0.65624832878E+02  0.93197835991E+02  0.47000000000E+01 0.  1.
          5    1    4    4  503    0  0.21050644063E+02  0.37186382803E+02 -0.92661885416E+02  0.10214828286E+03  0.47000000000E+01 0. -1.
         -5    1    4    4    0  503 -0.74244659682E+02  0.17367808703E+02 -0.13349384782E+03  0.15380704690E+03  0.47000000000E+01 0.  1.
<mgrwt>
<rscale>  0 0.12390883E+03</rscale>
<asrwt>0</asrwt>
<pdfrwt beam="1">  1        1 0.78209624E-01 0.12528817E+03</pdfrwt>
<pdfrwt beam="2">  1       -1 0.45508616E-02 0.12528817E+03</pdfrwt>
<totfact> 0.85058347E+03</totfact>
</mgrwt>
</event>
<event>
 8    1  0.3177960E-004  0.9469744E+02  0.7546771E-02  0.1294486E+00
         -1   -1    0    0    0  501 -0.00000000000E+00  0.00000000000E+00  0.77151709559E+02  0.77151709559E+02  0.00000000000E+00 0.  1.
          1   -1    0    0  501    0  0.00000000000E+00 -0.00000000000E+00 -0.16966403516E+03  0.16966403516E+03  0.00000000000E+00 0. -1.
         23    2    1    2    0    0 -0.10981506729E+02 -0.12309023008E+02  0.27191183876E+02  0.94183716438E+02  0.88651601362E+02 0.  0.
         23    2    1    2    0    0  0.10981506729E+02  0.12309023008E+02 -0.11970350947E+03  0.15263202828E+03  0.93249666692E+02 0.  0.
          5    1    4    4  502    0 -0.32551795617E+02  0.30061315718E+02 -0.39495807473E+02  0.59542513455E+02  0.47000000000E+01 0.  1.
         -5    1    3    3    0  503 -0.48675502630E+02 -0.75903252869E+01  0.25966708636E+02  0.55886291267E+02  0.47000000000E+01 0.  1.
          5    1    3    3  503    0  0.37693995900E+02 -0.47186977216E+01  0.12244752400E+01  0.38297425171E+02  0.47000000000E+01 0. -1.
         -5    1    4    4    0  502  0.43533302347E+02 -0.17752292709E+02 -0.80207702000E+02  0.93089514822E+02  0.47000000000E+01 0. -1.
<mgrwt>
<rscale>  0 0.93545544E+02</rscale>
<asrwt>0</asrwt>
<pdfrwt beam="1">  1        1 0.26102159E-01 0.94697444E+02</pdfrwt>
<pdfrwt beam="2">  1       -1 0.11869494E-01 0.94697444E+02</pdfrwt>
<totfact> 0.77604001E+03</totfact>
</mgrwt>
</event>
<event>
 8    1  0.3177960E-004  0.1046335E+03  0.7546771E-02  0.1270974E+00
         -2   -1    0    0    0  501 -0.00000000000E+00  0.00000000000E+00  0.30463468697E+02  0.30463468697E+02  0.00000000000E+00 0.  1.
          2   -1    0    0  501    0  0.00000000000E+00 -0.00000000000E+00 -0.36621546830E+03  0.36621546830E+03  0.00000000000E+00 0. -1.
         23    2    1    2    0    0  0.44658640209E+02 -0.23801610677E+02 -0.13884962526E+03  0.17370201403E+03  0.91281216185E+02 0.  0.
         23    2    1    2    0    0 -0.44658640209E+02  0.23801610677E+02 -0.19690237435E+03  0.22297692297E+03  0.91581943289E+02 0.  0.
          5    1    4    4  502    0  0.13969777762E+02  0.33799723476E+02 -0.36692903904E+02  0.52019565499E+02  0.47000000000E+01 0. -1.
         -5    1    4    4    0  502 -0.58628417971E+02 -0.99981127989E+01 -0.16020947044E+03  0.17095735747E+03  0.47000000000E+01 0.  1.
          5    1    3    3  503    0  0.67438787305E+02 -0.10658513744E+02 -0.12743541732E+03  0.14464947126E+03  0.47000000000E+01 0. -1.
         -5    1    3    3    0  503 -0.22780147096E+02 -0.13143096933E+02 -0.11414207940E+02  0.29052542773E+02  0.47000000000E+01 0.  1.
<mgrwt>
<rscale>  0 0.10456763E+03</rscale>
<asrwt>0</asrwt>
<pdfrwt beam="1">  1        2 0.56340841E-01 0.10463347E+03</pdfrwt>
<pdfrwt beam="2">  1       -2 0.46866875E-02 0.10463347E+03</pdfrwt>
<totfact> 0.17423187E+04</totfact>
</mgrwt>
</event>
<event>
 8    1  0.3177960E-004  0.1026525E+03  0.7546771E-02  0.1276648E+00
         -4   -1    0    0    0  501 -0.00000000000E+00  0.00000000000E+00  0.44099911940E+02  0.44099911940E+02  0.00000000000E+00 0.  1.
          4   -1    0    0  501    0  0.00000000000E+00 -0.00000000000E+00 -0.28255060325E+03  0.28255060325E+03  0.00000000000E+00 0. -1.
         23    2    1    2    0    0  0.41192086192E+02  0.36712441333E+01 -0.51025853180E+02  0.11463499305E+03  0.93953594606E+02 0.  0.
         23    2    1    2    0    0 -0.41192086192E+02 -0.36712441333E+01 -0.18742483813E+03  0.21201552214E+03  0.90068005884E+02 0.  0.
          5    1    4    4  502    0  0.75865168558E+00 -0.22551109153E+02 -0.15206770063E+03  0.15380443313E+03  0.47000000000E+01 0. -1.
         -5    1    3    3    0  503  0.10343486747E+02 -0.40887219079E+02 -0.41600807702E+02  0.59426169350E+02  0.47000000000E+01 0.  1.
          5    1    3    3  503    0  0.30848599445E+02  0.44558463212E+02 -0.94250454775E+01  0.55208823695E+02  0.47000000000E+01 0. -1.
         -5    1    4    4    0  502 -0.41950737878E+02  0.18879865020E+02 -0.35357137496E+02  0.58211089008E+02  0.47000000000E+01 0.  1.
<mgrwt>
<rscale>  0 0.10175484E+03</rscale>
<asrwt>0</asrwt>
<pdfrwt beam="1">  1        4 0.43469325E-01 0.10265254E+03</pdfrwt>
<pdfrwt beam="2">  1       -4 0.67846017E-02 0.10265254E+03</pdfrwt>
<totfact> 0.11579265E+03</totfact>
</mgrwt>
</event>
<event>
 8    1  0.3177960E-004  0.1005133E+03  0.7546771E-02  0.1280138E+00
          1   -1    0    0  501    0  0.00000000000E+00  0.00000000000E+00  0.53202472867E+03  0.53202472867E+03  0.00000000000E+00 0. -1.
         -1   -1    0    0    0  501 -0.00000000000E+00 -0.00000000000E+00 -0.27430123298E+02  0.27430123298E+02  0.00000000000E+00 0.  1.
         23    2    1    2    0    0  0.35425853979E+02  0.19778271808E+02  0.41194306707E+03  0.42402832108E+03  0.91960618757E+02 0.  0.
         23    2    1    2    0    0 -0.35425853979E+02 -0.19778271808E+02  0.92651538301E+02  0.13542653089E+03  0.90054797504E+02 0.  0.
          5    1    3    3  502    0  0.52902395575E+02 -0.24411613073E+01  0.36627502715E+03  0.37011364233E+03  0.47000000000E+01 0. -1.
         -5    1    3    3    0  502 -0.17476541596E+02  0.22219433116E+02  0.45668039924E+02  0.53914678749E+02  0.47000000000E+01 0.  1.
          5    1    4    4  503    0  0.65099590540E+01 -0.29306309269E+02  0.86560658527E+02  0.91739178841E+02  0.47000000000E+01 0. -1.
         -5    1    4    4    0  503 -0.41935813033E+02  0.95280374609E+01  0.60908797746E+01  0.43687352049E+02  0.47000000000E+01 0.  1.
<mgrwt>
<rscale>  0 0.10007530E+03</rscale>
<asrwt>0</asrwt>
<pdfrwt beam="1">  1        1 0.81849950E-01 0.10051332E+03</pdfrwt>
<pdfrwt beam="2">  1       -1 0.42200194E-02 0.10051332E+03</pdfrwt>
<totfact> 0.88141262E+03</totfact>
</mgrwt>
</event>
<event>
 8    1  0.3177960E-004  0.1263619E+03  0.7546771E-02  0.1235271E+00
          1   -1    0    0  501    0  0.00000000000E+00  0.00000000000E+00  0.10382515325E+03  0.10382515325E+03  0.00000000000E+00 0. -1.
         -1   -1    0    0    0  501 -0.00000000000E+00 -0.00000000000E+00 -0.35078014936E+03  0.35078014936E+03  0.00000000000E+00 0.  1.
         23    2    1    2    0    0 -0.55968943321E+02  0.56271396883E+02  0.51085204715E+02  0.13088428739E+03  0.90675276794E+02 0.  0.
         23    2    1    2    0    0  0.55968943321E+02 -0.56271396883E+02 -0.29804020083E+03  0.32372101523E+03  0.98327725828E+02 0.  0.
          5    1    4    4  502    0 -0.21389246264E+02  0.10274418101E+02 -0.59444010747E+02  0.64177441027E+02  0.47000000000E+01 0. -1.
         -5    1    4    4    0  502  0.77358189585E+02 -0.66545814984E+02 -0.23859619008E+03  0.25954357420E+03  0.47000000000E+01 0.  1.
          5    1    3    3  503    0 -0.38052050311E+02 -0.18223459135E+02  0.27495969591E+02  0.50578368295E+02  0.47000000000E+01 0. -1.
         -5    1    3    3    0  503 -0.17916893010E+02  0.74494856017E+02  0.23589235125E+02  0.80305919097E+02  0.47000000000E+01 0.  1.
<mgrwt>
<rscale>  0 0.12487104E+03</rscale>
<asrwt>0</asrwt>
<pdfrwt beam="1">  1        1 0.15973100E-01 0.12636192E+03</pdfrwt>
<pdfrwt beam="2">  1       -1 0.53966177E-01 0.12636192E+03</pdfrwt>
<totfact> 0.11987426E+03</totfact>
</mgrwt>
</event>
<event>
 8    1  0.3177960E-004  0.9846181E+02  0.7546771E-02  0.1284984E+00
         -1   -1    0    0    0  501 -0.00000000000E+00  0.00000000000E+00  0.16095545931E+02  0.16095545931E+02  0.00000000000E+00 0.  1.
          1   -1    0    0  501    0  0.00000000000E+00 -0.00000000000E+00 -0.59570310639E+03  0.59570310639E+03  0.00000000000E+00 0. -1.
         23    2    1    2    0    0 -0.26774358414E+02  0.20225865649E+02 -0.32403212648E+03  0.33791267019E+03  0.89789764290E+02 0.  0.
         23    2    1    2    0    0  0.26774358414E+02 -0.20225865649E+02 -0.25557543398E+03  0.27388598213E+03  0.92567687918E+02 0.  0.
          5    1    3    3  502    0  0.36306243123E+01  0.45099864530E+02 -0.93133101595E+02  0.10364865569E+03  0.47000000000E+01 0. -1.
         -5    1    4    4    0  503 -0.97267721565E+01 -0.49894067941E+02 -0.12539376653E+03  0.13538727708E+03  0.47000000000E+01 0.  1.
          5    1    4    4  503    0  0.36501130570E+02  0.29668202292E+02 -0.13018166745E+03  0.13849870505E+03  0.47000000000E+01 0. -1.
         -5    1    3    3    0  502 -0.30404982726E+02 -0.24873998882E+02 -0.23089902489E+03  0.23426401450E+03  0.47000000000E+01 0.  1.
<mgrwt>
<rscale>  0 0.97803502E+02</rscale>
<asrwt>0</asrwt>
<pdfrwt beam="1">  1        1 0.91646626E-01 0.98461814E+02</pdfrwt>
<pdfrwt beam="2">  1       -1 0.24762380E-02 0.98461814E+02</pdfrwt>
<totfact> 0.16388363E+04</totfact>
</mgrwt>
</event>
<event>
 8    1  0.3177960E-004  0.9837164E+02  0.7546771E-02  0.1285532E+00
          1   -1    0    0  501    0  0.00000000000E+00  0.00000000000E+00  0.25861881268E+03  0.25861881268E+03  0.00000000000E+00 0. -1.
         -1   -1    0    0    0  501 -0.00000000000E+00 -0.00000000000E+00 -0.44310058293E+02  0.44310058293E+02  0.00000000000E+00 0.  1.
         23    2    1    2    0    0  0.33170751668E+02  0.84954984742E+01  0.43808520692E+02  0.10768549296E+03  0.92219882061E+02 0.  0.
         23    2    1    2    0    0 -0.33170751668E+02 -0.84954984742E+01  0.17050023369E+03  0.19524337801E+03  0.88753448997E+02 0.  0.
          5    1    3    3  502    0 -0.15390482743E+02  0.37641331922E+02  0.24264875516E+02  0.47587929265E+02  0.47000000000E+01 0. -1.
         -5    1    4    4    0  503  0.28410677623E+02  0.83675456114E+01  0.41160131439E+02  0.50925718872E+02  0.47000000000E+01 0.  1.
          5    1    4    4  503    0 -0.61581429292E+02 -0.16863044086E+02  0.12934010225E+03  0.14431765914E+03  0.47000000000E+01 0. -1.
         -5    1    3    3    0  502  0.48561234411E+02 -0.29145833447E+02  0.19543645176E+02  0.60097563692E+02  0.47000000000E+01 0.  1.
<mgrwt>
<rscale>  0 0.97550922E+02</rscale>
<asrwt>0</asrwt>
<pdfrwt beam="1">  1        1 0.39787509E-01 0.98371637E+02</pdfrwt>
<pdfrwt beam="2">  1       -1 0.68169322E-02 0.98371637E+02</pdfrwt>
<totfact> 0.10682910E+04</totfact>
</mgrwt>
</event>
<event>
 8    1  0.3177960E-004  0.1226135E+03  0.7546771E-02  0.1240224E+00
         -2   -1    0    0    0  501 -0.00000000000E+00  0.00000000000E+00  0.32411047604E+02  0.32411047604E+02  0.00000000000E+00 0. -1.
          2   -1    0    0  501    0  0.00000000000E+00 -0.00000000000E+00 -0.65225587762E+03  0.65225587762E+03  0.00000000000E+00 0.  1.
         23    2    1    2    0    0 -0.58576333685E+02  0.59187646313E+02 -0.50300320095E+03  0.51773187784E+03  0.89998404573E+02 0.  0.
         23    2    1    2    0    0  0.58576333685E+02 -0.59187646313E+02 -0.11684162906E+03  0.16693504738E+03  0.85328655310E+02 0.  0.
          5    1    4    4  502    0  0.17003122356E+02 -0.63439567426E+02 -0.34175815923E+02  0.74187339074E+02  0.47000000000E+01 0. -1.
         -5    1    3    3    0  503 -0.82119998091E+02  0.38193931602E+02 -0.37723706863E+03  0.38798500802E+03  0.47000000000E+01 0.  1.
          5    1    3    3  503    0  0.23543664406E+02  0.20993714711E+02 -0.12576613232E+03  0.12974686982E+03  0.47000000000E+01 0.  1.
         -5    1    4    4    0  502  0.41573211329E+02  0.42519211124E+01 -0.82665813142E+02  0.92747708305E+02  0.47000000000E+01 0.  1.
<mgrwt>
<rscale>  0 0.12175827E+03</rscale>
<asrwt>0</asrwt>
<pdfrwt beam="1">  1        2 0.10034705E+00 0.12261353E+03</pdfrwt>
<pdfrwt beam="2">  1       -2 0.49863154E-02 0.12261353E+03</pdfrwt>
<totfact> 0.85611650E+03</totfact>
</mgrwt>
</event>
<event>
 8    1  0.3177960E-004  0.1223114E+03  0.7546771E-02  0.1239474E+00
         -3   -1    0    0    0  501 -0.00000000000E+00  0.00000000000E+00  0.77396245602E+02  0.77396245602E+02  0.00000000000E+00 0.  1.
          3   -1    0    0  501    0  0.00000000000E+00 -0.00000000000E+00 -0.20258222609E+03  0.20258222609E+03  0.00000000000E+00 0. -1.
         23    2    1    2    0    0 -0.76648714256E+02 -0.23687339269E+02 -0.31817457102E+02  0.12638203293E+03  0.92325252415E+02 0.  0.
         23    2    1    2    0    0  0.76648714256E+02  0.23687339269E+02 -0.93368523383E+02  0.15359643875E+03  0.91858964727E+02 0.  0.
          5    1    4    4  502    0  0.44637893203E+02 -0.31026352415E+02 -0.62394307738E+02  0.82887367505E+02  0.47000000000E+01 0. -1.
         -5    1    4    4    0  502  0.32010821053E+02  0.54713691684E+02 -0.30974215644E+02  0.70709071250E+02  0.47000000000E+01 0.  1.
          5    1    3    3  503    0 -0.19707879495E+02 -0.25183849185E+02 -0.55731972573E+02  0.64426466152E+02  0.47000000000E+01 0. -1.
         -5    1    3    3    0  503 -0.56940834761E+02  0.14965099153E+01  0.23914515470E+02  0.61955566783E+02  0.47000000000E+01 0.  1.
<mgrwt>
<rscale>  0 0.12222336E+03</rscale>
<asrwt>0</asrwt>
<pdfrwt beam="1">  1        3 0.31166496E-01 0.12231136E+03</pdfrwt>
<pdfrwt beam="2">  1       -3 0.11907115E-01 0.12231136E+03</pdfrwt>
<totfact> 0.12448284E+03</totfact>
</mgrwt>
</event>
<event>
 8    1  0.3177960E-004  0.9801281E+02  0.7546771E-02  0.1285636E+00
         -1   -1    0    0    0  501 -0.00000000000E+00  0.00000000000E+00  0.44934723313E+02  0.44934723313E+02  0.00000000000E+00 0.  1.
          1   -1    0    0  501    0  0.00000000000E+00 -0.00000000000E+00 -0.44567236164E+03  0.44567236164E+03  0.00000000000E+00 0. -1.
         23    2    1    2    0    0 -0.15636292351E+02  0.32598324983E+02 -0.20781133458E+02  0.98212568404E+02  0.88919675295E+02 0.  0.
         23    2    1    2    0    0  0.15636292351E+02 -0.32598324983E+02 -0.37995650487E+03  0.39239451655E+03  0.91100859463E+02 0.  0.
          5    1    4    4  502    0  0.35333446491E+02 -0.14181506060E+02 -0.34887681063E+03  0.35097960988E+03  0.47000000000E+01 0. -1.
         -5    1    4    4    0  502 -0.19697154140E+02 -0.18416818923E+02 -0.31079694237E+02  0.41414906668E+02  0.47000000000E+01 0.  1.
          5    1    3    3  503    0  0.23561081852E+02 -0.19133543254E+02 -0.96435418796E+01  0.32191690783E+02  0.47000000000E+01 0. -1.
         -5    1    3    3    0  503 -0.39197374203E+02  0.51731868237E+02 -0.11137591578E+02  0.66020877621E+02  0.47000000000E+01 0.  1.
<mgrwt>
<rscale>  0 0.97502846E+02</rscale>
<asrwt>0</asrwt>
<pdfrwt beam="1">  1        1 0.68564978E-01 0.98012811E+02</pdfrwt>
<pdfrwt beam="2">  1       -1 0.69130344E-02 0.98012811E+02</pdfrwt>
<totfact> 0.53421862E+03</totfact>
</mgrwt>
</event>
<event>
 8    1  0.3177960E-004  0.1311597E+03  0.7546771E-02  0.1226555E+00
          2   -1    0    0  501    0  0.00000000000E+00  0.00000000000E+00  0.21603906079E+03  0.21603906079E+03  0.00000000000E+00 0. -1.
         -2   -1    0    0    0  501 -0.00000000000E+00 -0.00000000000E+00 -0.78775420024E+02  0.78775420024E+02  0.00000000000E+00 0.  1.
         23    2    1    2    0    0 -0.85736354872E+02 -0.38125712530E+02  0.79450283309E+02  0.15147833624E+03  0.88481898308E+02 0.  0.
         23    2    1    2    0    0  0.85736354872E+02  0.38125712530E+02  0.57813357459E+02  0.14333614458E+03  0.91643731589E+02 0.  0.
          5    1    4    4  502    0  0.19252966611E+02  0.39466465122E+02  0.62477733792E+02  0.76510364085E+02  0.47000000000E+01 0. -1.
         -5    1    3    3    0  503 -0.10111311080E+03 -0.18845235787E+02  0.56403673778E+02  0.11739875852E+03  0.47000000000E+01 0. -1.
          5    1    3    3  503    0  0.15376755925E+02 -0.19280476743E+02  0.23046609531E+02  0.34079577713E+02  0.47000000000E+01 0.  1.
         -5    1    4    4    0  502  0.66483388261E+02 -0.13407525919E+01 -0.46643763335E+01  0.66825780495E+02  0.47000000000E+01 0.  1.
<mgrwt>
<rscale>  0 0.13060889E+03</rscale>
<asrwt>0</asrwt>
<pdfrwt beam="1">  1        2 0.33236778E-01 0.13115970E+03</pdfrwt>
<pdfrwt beam="2">  1       -2 0.12119295E-01 0.13115970E+03</pdfrwt>
<totfact> 0.72154381E+03</totfact>
</mgrwt>
</event>
<event>
 8    1  0.3177960E-004  0.1027243E+03  0.7546771E-02  0.1275133E+00
          1   -1    0    0  501    0  0.00000000000E+00  0.00000000000E+00  0.29843028908E+02  0.29843028908E+02  0.00000000000E+00 0. -1.
         -1   -1    0    0    0  501 -0.00000000000E+00 -0.00000000000E+00 -0.61785631418E+03  0.61785631418E+03  0.00000000000E+00 0.  1.
         23    2    1    2    0    0 -0.36892917230E+02 -0.25844836325E+02 -0.50630808793E+03  0.51644378814E+03  0.91308616797E+02 0.  0.
         23    2    1    2    0    0  0.36892917230E+02  0.25844836325E+02 -0.81705197344E+02  0.13125555495E+03  0.92321387149E+02 0.  0.
          5    1    3    3  502    0  0.24710703727E+02  0.12525619293E+02 -0.11102584339E+03  0.11452658171E+03  0.47000000000E+01 0. -1.
         -5    1    3    3    0  502 -0.61603620956E+02 -0.38370455618E+02 -0.39528224454E+03  0.40191720643E+03  0.47000000000E+01 0.  1.
          5    1    4    4  503    0  0.61008483275E+02  0.41184803882E+02 -0.58917133277E+02  0.94400962367E+02  0.47000000000E+01 0. -1.
         -5    1    4    4    0  503 -0.24115566045E+02 -0.15339967557E+02 -0.22788064067E+02  0.36854592580E+02  0.47000000000E+01 0.  1.
<mgrwt>
<rscale>  0 0.10249623E+03</rscale>
<asrwt>0</asrwt>
<pdfrwt beam="1">  1        1 0.45912353E-02 0.10272430E+03</pdfrwt>
<pdfrwt beam="2">  1       -1 0.95054815E-01 0.10272430E+03</pdfrwt>
<totfact> 0.20234816E+03</totfact>
</mgrwt>
</event>
<event>
 8    1  0.3177960E-004  0.1479722E+03  0.7546771E-02  0.1207835E+00
         -2   -1    0    0    0  501 -0.00000000000E+00  0.00000000000E+00  0.40418751123E+03  0.40418751123E+03  0.00000000000E+00 0.  1.
          2   -1    0    0  501    0  0.00000000000E+00 -0.00000000000E+00 -0.13523102746E+03  0.13523102746E+03  0.00000000000E+00 0. -1.
         23    2    1    2    0    0  0.71011864574E+02  0.66771123326E+02  0.34728491226E+03  0.37199358508E+03  0.90946958384E+02 0.  0.
         23    2    1    2    0    0 -0.71011864574E+02 -0.66771123326E+02 -0.78328428484E+02  0.16742495361E+03  0.11133150750E+03 0.  0.
          5    1    3    3  502    0 -0.19296208493E+02  0.12850501050E+02  0.33452863003E+02  0.40971491095E+02  0.47000000000E+01 0. -1.
         -5    1    3    3    0  502  0.90308073067E+02  0.53920622276E+02  0.31383204926E+03  0.33102209399E+03  0.47000000000E+01 0.  1.
          5    1    4    4  503    0 -0.79684538003E+02 -0.28815777734E+02 -0.92680305775E+02  0.12566504574E+03  0.47000000000E+01 0. -1.
         -5    1    4    4    0  503  0.86726734297E+01 -0.37955345592E+02  0.14351877291E+02  0.41759907868E+02  0.47000000000E+01 0.  1.
<mgrwt>
<rscale>  0 0.14416287E+03</rscale>
<asrwt>0</asrwt>
<pdfrwt beam="1">  1        2 0.20804774E-01 0.14797220E+03</pdfrwt>
<pdfrwt beam="2">  1       -2 0.62182694E-01 0.14797220E+03</pdfrwt>
<totfact> 0.64570384E+02</totfact>
</mgrwt>
</event>
<event>
 8    1  0.3177960E-004  0.9963925E+02  0.7546771E-02  0.1282373E+00
          3   -1    0    0  501    0  0.00000000000E+00  0.00000000000E+00  0.76918091346E+03  0.76918091346E+03  0.00000000000E+00 0. -1.
         -3   -1    0    0    0  501 -0.00000000000E+00 -0.00000000000E+00 -0.18959283029E+02  0.18959283029E+02  0.00000000000E+00 0.  1.
         23    2    1    2    0    0 -0.14246693414E+02  0.60809637759E+00  0.60660639755E+03  0.61473514693E+03  0.98613595784E+02 0.  0.
         23    2    1    2    0    0  0.14246693414E+02 -0.60809637759E+00  0.14361523288E+03  0.17340504956E+03  0.96128237482E+02 0.  0.
          5    1    4    4  502    0  0.39391013360E+01  0.28320074589E+02  0.13901044397E+03  0.14199836857E+03  0.47000000000E+01 0. -1.
         -5    1    4    4    0  502  0.10307592078E+02 -0.28928170966E+02  0.46047889184E+01  0.31406680991E+02  0.47000000000E+01 0.  1.
          5    1    3    3  503    0  0.26693653297E+02  0.32517109186E+02  0.37247961997E+03  0.37487740771E+03  0.47000000000E+01 0. -1.
         -5    1    3    3    0  503 -0.40940346711E+02 -0.31909012808E+02  0.23412677758E+03  0.23985773922E+03  0.47000000000E+01 0.  1.
<mgrwt>
<rscale>  0 0.99018692E+02</rscale>
<asrwt>0</asrwt>
<pdfrwt beam="1">  1        3 0.11833550E+00 0.99639246E+02</pdfrwt>
<pdfrwt beam="2">  1       -3 0.29168134E-02 0.99639246E+02</pdfrwt>
<totfact> 0.71872517E+02</totfact>
</mgrwt>
</event>
<event>
 8    1  0.3177960E-004  0.1088186E+03  0.7546771E-02  0.1262812E+00
          1   -1    0    0  501    0  0.00000000000E+00  0.00000000000E+00  0.36701656126E+03  0.36701656126E+03  0.00000000000E+00 0. -1.
         -1   -1    0    0    0  501 -0.00000000000E+00 -0.00000000000E+00 -0.33657983775E+02  0.33657983775E+02  0.00000000000E+00 0.  1.
         23    2    1    2    0    0  0.41141021622E+02 -0.38383649290E+02  0.20785658287E+03  0.23461849580E+03  0.93142854453E+02 0.  0.
         23    2    1    2    0    0 -0.41141021622E+02  0.38383649290E+02  0.12550199461E+03  0.16605604923E+03  0.93048227508E+02 0.  0.
          5    1    3    3  502    0 -0.17305057014E+02  0.19451827154E+02  0.49724177386E+02  0.56324261154E+02  0.47000000000E+01 0. -1.
         -5    1    3    3    0  502  0.58446078636E+02 -0.57835476443E+02  0.15813240548E+03  0.17829423464E+03  0.47000000000E+01 0.  1.
          5    1    4    4  503    0 -0.23533905564E+02  0.23257253637E+02  0.13607571438E+03  0.14011935841E+03  0.47000000000E+01 0. -1.
         -5    1    4    4    0  503 -0.17607116058E+02  0.15126395652E+02 -0.10573719764E+02  0.25936690825E+02  0.47000000000E+01 0.  1.
<mgrwt>
<rscale>  0 0.10879831E+03</rscale>
<asrwt>0</asrwt>
<pdfrwt beam="1">  1        1 0.56464083E-01 0.10881856E+03</pdfrwt>
<pdfrwt beam="2">  1       -1 0.51781516E-02 0.10881856E+03</pdfrwt>
<totfact> 0.10521534E+04</totfact>
</mgrwt>
</event>
<event>
 8    1  0.3177960E-004  0.1634804E+03  0.7546771E-02  0.1185104E+00
          3   -1    0    0  501    0  0.00000000000E+00  0.00000000000E+00  0.15535139297E+03  0.15535139297E+03  0.00000000000E+00 0. -1.
         -3   -1    0    0    0  501 -0.00000000000E+00 -0.00000000000E+00 -0.17224650740E+03  0.17224650740E+03  0.00000000000E+00 0.  1.
         23    2    1    2    0    0  0.11817511910E+03 -0.63888250034E+02  0.57402174918E+01  0.16255791629E+03  0.91351293295E+02 0.  0.
         23    2    1    2    0    0 -0.11817511910E+03  0.63888250034E+02 -0.22635331923E+02  0.16503998409E+03  0.93159920731E+02 0.  0.
          5    1    4    4  502    0  0.50937848923E+01  0.36116521160E+02 -0.12380376205E+01  0.36796365071E+02  0.47000000000E+01 0. -1.
         -5    1    4    4    0  502 -0.12326890399E+03  0.27771728873E+02 -0.21397294302E+02  0.12824361902E+03  0.47000000000E+01 0.  1.
          5    1    3    3  503    0  0.30562384696E+02  0.10894129413E+02  0.30349979488E+02  0.44676086096E+02  0.47000000000E+01 0. -1.
         -5    1    3    3    0  503  0.87612734400E+02 -0.74782379447E+02 -0.24609761996E+02  0.11788183020E+03  0.47000000000E+01 0.  1.
<mgrwt>
<rscale>  0 0.16322382E+03</rscale>
<asrwt>0</asrwt>
<pdfrwt beam="1">  1        3 0.23900214E-01 0.16348039E+03</pdfrwt>
<pdfrwt beam="2">  1       -3 0.26499462E-01 0.16348039E+03</pdfrwt>
<totfact> 0.52391515E+02</totfact>
</mgrwt>
</event>
<event>
 8    1  0.3177960E-004  0.9968479E+02  0.7546771E-02  0.1284257E+00
         -4   -1    0    0    0  501 -0.00000000000E+00  0.00000000000E+00  0.11203595184E+03  0.11203595184E+03  0.00000000000E+00 0.  1.
          4   -1    0    0  501    0  0.00000000000E+00 -0.00000000000E+00 -0.16786124698E+03  0.16786124698E+03  0.00000000000E+00 0. -1.
         23    2    1    2    0    0  0.24869556483E+02  0.34103391863E+02 -0.12672357341E+03  0.15757130803E+03  0.83596153505E+02 0.  0.
         23    2    1    2    0    0 -0.24869556483E+02 -0.34103391863E+02  0.70898278279E+02  0.12232589079E+03  0.90307926105E+02 0.  0.
          5    1    3    3  502    0  0.51907927221E+02  0.31077649462E+02 -0.59890767957E+02  0.85259880900E+02  0.47000000000E+01 0. -1.
         -5    1    4    4    0  503 -0.36178119238E+02  0.11417669062E+02  0.64191162925E+02  0.74711544464E+02  0.47000000000E+01 0.  1.
          5    1    4    4  503    0  0.11308562755E+02 -0.45521060925E+02  0.67071153536E+01  0.47614346322E+02  0.47000000000E+01 0. -1.
         -5    1    3    3    0  502 -0.27038370738E+02  0.30257424013E+01 -0.66832805455E+02  0.72311427134E+02  0.47000000000E+01 0.  1.
<mgrwt>
<rscale>  0 0.98139924E+02</rscale>
<asrwt>0</asrwt>
<pdfrwt beam="1">  1        4 0.25824807E-01 0.99684792E+02</pdfrwt>
<pdfrwt beam="2">  1       -4 0.17236300E-01 0.99684792E+02</pdfrwt>
<totfact> 0.64386305E+02</totfact>
</mgrwt>
</event>
<event>
 8    1  0.3177960E-004  0.1168682E+03  0.7546771E-02  0.1249285E+00
         -1   -1    0    0    0  501 -0.00000000000E+00  0.00000000000E+00  0.94059910211E+01  0.94059910211E+01  0.00000000000E+00 0.  1.
          1   -1    0    0  501    0  0.00000000000E+00 -0.00000000000E+00 -0.15047471787E+04  0.15047471787E+04  0.00000000000E+00 0. -1.
         23    2    1    2    0    0 -0.70295029138E+02  0.65628663064E+01 -0.92811140538E+03  0.93544051290E+03  0.93132754873E+02 0.  0.
         23    2    1    2    0    0  0.70295029138E+02 -0.65628663064E+01 -0.56722978226E+03  0.57871265679E+03  0.90411564024E+02 0.  0.
          5    1    3    3  502    0 -0.91657440209E+02  0.14845626457E+02 -0.70413440837E+03  0.71024561527E+03  0.47000000000E+01 0. -1.
         -5    1    3    3    0  502  0.21362411072E+02 -0.82827601511E+01 -0.22397699702E+03  0.22519489762E+03  0.47000000000E+01 0.  1.
          5    1    4    4  503    0 -0.10111208711E+00  0.33325276848E+02 -0.16328739496E+03  0.16671966786E+03  0.47000000000E+01 0. -1.
         -5    1    4    4    0  503  0.70396141225E+02 -0.39888143154E+02 -0.40394238730E+03  0.41199298892E+03  0.47000000000E+01 0.  1.
<mgrwt>
<rscale>  0 0.11632522E+03</rscale>
<asrwt>0</asrwt>
<pdfrwt beam="1">  1        1 0.23149961E+00 0.11686818E+03</pdfrwt>
<pdfrwt beam="2">  1       -1 0.14470753E-02 0.11686818E+03</pdfrwt>
<totfact> 0.75860490E+03</totfact>
</mgrwt>
</event>
<event>
 8    1  0.3177960E-004  0.1146578E+03  0.7546771E-02  0.1256103E+00
          1   -1    0    0  501    0  0.00000000000E+00  0.00000000000E+00  0.97641497057E+02  0.97641497057E+02  0.00000000000E+00 0. -1.
         -1   -1    0    0    0  501 -0.00000000000E+00 -0.00000000000E+00 -0.56855712390E+03  0.56855712390E+03  0.00000000000E+00 0.  1.
         23    2    1    2    0    0  0.27255950030E+02  0.47042169791E+02 -0.52769655474E+03  0.53825145995E+03  0.91077591664E+02 0.  0.
         23    2    1    2    0    0 -0.27255950030E+02 -0.47042169791E+02  0.56780927905E+02  0.12794716100E+03  0.10094825250E+03 0.  0.
          5    1    3    3  502    0  0.14207126004E+02 -0.24456247444E+02 -0.87695314938E+02  0.92263257749E+02  0.47000000000E+01 0. -1.
         -5    1    4    4    0  503 -0.94494483979E+01  0.25070803544E+02 -0.89638290828E+01  0.28640487028E+02  0.47000000000E+01 0.  1.
          5    1    4    4  503    0 -0.17806501632E+02 -0.72112973335E+02  0.65744756988E+02  0.99306673970E+02  0.47000000000E+01 0. -1.
         -5    1    3    3    0  502  0.13048824026E+02  0.71498417235E+02 -0.44000123981E+03  0.44598820220E+03  0.47000000000E+01 0.  1.
<mgrwt>
<rscale>  0 0.11244791E+03</rscale>
<asrwt>0</asrwt>
<pdfrwt beam="1">  1        1 0.15021769E-01 0.11465776E+03</pdfrwt>
<pdfrwt beam="2">  1       -1 0.87470326E-01 0.11465776E+03</pdfrwt>
<totfact> 0.50194715E+02</totfact>
</mgrwt>
</event>
<event>
 8    1  0.3177960E-004  0.1104854E+03  0.7546771E-02  0.1259758E+00
         -2   -1    0    0    0  501 -0.00000000000E+00  0.00000000000E+00  0.23654707286E+02  0.23654707286E+02  0.00000000000E+00 0.  1.
          2   -1    0    0  501    0  0.00000000000E+00 -0.00000000000E+00 -0.68018144803E+03  0.68018144803E+03  0.00000000000E+00 0. -1.
         23    2    1    2    0    0  0.33403389137E+02  0.52831150992E+02 -0.50179504866E+03  0.51381446171E+03  0.91104957539E+02 0.  0.
         23    2    1    2    0    0 -0.33403389137E+02 -0.52831150992E+02 -0.15473169209E+03  0.19002169360E+03  0.90881409443E+02 0.  0.
          5    1    3    3  502    0 -0.19064317189E+01 -0.24231138025E+02 -0.14175913519E+03  0.14390456887E+03  0.47000000000E+01 0. -1.
         -5    1    4    4    0  503  0.27688800335E+02 -0.98189817347E+01 -0.19876325882E+02  0.35780447131E+02  0.47000000000E+01 0.  1.
          5    1    4    4  503    0 -0.61092189472E+02 -0.43012169257E+02 -0.13485536621E+03  0.15424124647E+03  0.47000000000E+01 0. -1.
         -5    1    3    3    0  502  0.35309820856E+02  0.77062289016E+02 -0.36003591346E+03  0.36990989284E+03  0.47000000000E+01 0.  1.
<mgrwt>
<rscale>  0 0.11043934E+03</rscale>
<asrwt>0</asrwt>
<pdfrwt beam="1">  1        2 0.10464330E+00 0.11048543E+03</pdfrwt>
<pdfrwt beam="2">  1       -2 0.36391857E-02 0.11048543E+03</pdfrwt>
<totfact> 0.12920751E+04</totfact>
</mgrwt>
</event>
<event>
 8    1  0.3177960E-004  0.9762393E+02  0.7546771E-02  0.1285985E+00
         -2   -1    0    0    0  501 -0.00000000000E+00  0.00000000000E+00  0.47618824612E+02  0.47618824612E+02  0.00000000000E+00 0.  1.
          2   -1    0    0  501    0  0.00000000000E+00 -0.00000000000E+00 -0.24155684359E+03  0.24155684359E+03  0.00000000000E+00 0. -1.
         23    2    1    2    0    0  0.32226491862E+02  0.65257132112E+01 -0.15801172493E+03  0.18515100584E+03  0.90730689615E+02 0.  0.
         23    2    1    2    0    0 -0.32226491862E+02 -0.65257132112E+01 -0.35926294047E+02  0.10402466236E+03  0.91920074328E+02 0.  0.
          5    1    4    4  502    0 -0.45403981821E+02 -0.38023327983E+02 -0.36180542114E+02  0.69558728164E+02  0.47000000000E+01 0. -1.
         -5    1    4    4    0  502  0.13177489959E+02  0.31497614772E+02  0.25424806751E+00  0.34465934196E+02  0.47000000000E+01 0.  1.
          5    1    3    3  503    0 -0.85197921660E+01 -0.24541655543E+02 -0.11528663366E+03  0.11827078090E+03  0.47000000000E+01 0. -1.
         -5    1    3    3    0  503  0.40746284028E+02  0.31067368754E+02 -0.42725091270E+02  0.66880224936E+02  0.47000000000E+01 0.  1.
<mgrwt>
<rscale>  0 0.97342954E+02</rscale>
<asrwt>0</asrwt>
<pdfrwt beam="1">  1        2 0.37162592E-01 0.97623930E+02</pdfrwt>
<pdfrwt beam="2">  1       -2 0.73259729E-02 0.97623930E+02</pdfrwt>
<totfact> 0.13695440E+04</totfact>
</mgrwt>
</event>
<event>
 8    1  0.3177960E-004  0.1225777E+03  0.7546771E-02  0.1243568E+00
          2   -1    0    0  501    0  0.00000000000E+00  0.00000000000E+00  0.33717175870E+03  0.33717175870E+03  0.00000000000E+00 0. -1.
         -2   -1    0    0    0  501 -0.00000000000E+00 -0.00000000000E+00 -0.42696923925E+02  0.42696923925E+02  0.00000000000E+00 0.  1.
         23    2    1    2    0    0  0.35296867928E+02  0.53209317206E+02  0.11215291607E+03  0.16614323226E+03  0.10463363092E+03 0.  0.
         23    2    1    2    0    0 -0.35296867928E+02 -0.53209317206E+02  0.18232191871E+03  0.21372545037E+03  0.91434051485E+02 0.  0.
          5    1    3    3  502    0 -0.25147994643E+02  0.18660325918E+02  0.85963177641E+02  0.91609973846E+02  0.47000000000E+01 0. -1.
         -5    1    3    3    0  502  0.60444862571E+02  0.34548991289E+02  0.26189738425E+02  0.74533258409E+02  0.47000000000E+01 0.  1.
          5    1    4    4  503    0 -0.38312067937E+02 -0.25962299263E+01  0.14636020506E+03  0.15138677149E+03  0.47000000000E+01 0. -1.
         -5    1    4    4    0  503  0.30152000082E+01 -0.50613087280E+02  0.35961713653E+02  0.62338678876E+02  0.47000000000E+01 0.  1.
<mgrwt>
<rscale>  0 0.11971522E+03</rscale>
<asrwt>0</asrwt>
<pdfrwt beam="1">  1        2 0.51872577E-01 0.12257772E+03</pdfrwt>
<pdfrwt beam="2">  1       -2 0.65687577E-02 0.12257772E+03</pdfrwt>
<totfact> 0.11605416E+04</totfact>
</mgrwt>
</event>
<event>
 8    1  0.3177960E-004  0.1011377E+03  0.7546771E-02  0.1278986E+00
         -1   -1    0    0    0  501 -0.00000000000E+00  0.00000000000E+00  0.14361178402E+02  0.14361178402E+02  0.00000000000E+00 0.  1.
          1   -1    0    0  501    0  0.00000000000E+00 -0.00000000000E+00 -0.74628259783E+03  0.74628259783E+03  0.00000000000E+00 0. -1.
         23    2    1    2    0    0 -0.17482665245E+02 -0.38696177835E+02 -0.45920442537E+03  0.46977716063E+03  0.89547968150E+02 0.  0.
         23    2    1    2    0    0  0.17482665245E+02  0.38696177835E+02 -0.27271699405E+03  0.29086661560E+03  0.91792110034E+02 0.  0.
          5    1    3    3  502    0 -0.44011521721E+02 -0.51618089322E+02 -0.35084371504E+03  0.35737213597E+03  0.47000000000E+01 0. -1.
         -5    1    3    3    0  502  0.26528856476E+02  0.12921911487E+02 -0.10836071034E+03  0.11240502465E+03  0.47000000000E+01 0.  1.
          5    1    4    4  503    0  0.13980578924E+02 -0.23704644056E+02 -0.33667626916E+02  0.43737464936E+02  0.47000000000E+01 0. -1.
         -5    1    4    4    0  503  0.35020863209E+01  0.62400821891E+02 -0.23904936714E+03  0.24712915067E+03  0.47000000000E+01 0.  1.
<mgrwt>
<rscale>  0 0.10062573E+03</rscale>
<asrwt>0</asrwt>
<pdfrwt beam="1">  1        1 0.11481274E+00 0.10113767E+03</pdfrwt>
<pdfrwt beam="2">  1       -1 0.22094114E-02 0.10113767E+03</pdfrwt>
<totfact> 0.14142320E+04</totfact>
</mgrwt>
</event>
<event>
 8    1  0.3177960E-004  0.1045157E+03  0.7546771E-02  0.1279934E+00
         -2   -1    0    0    0  501 -0.00000000000E+00  0.00000000000E+00  0.24471817709E+03  0.24471817709E+03  0.00000000000E+00 0.  1.
          2   -1    0    0  501    0  0.00000000000E+00 -0.00000000000E+00 -0.38463927884E+02  0.38463927884E+02  0.00000000000E+00 0. -1.
         23    2    1    2    0    0 -0.20470690504E+02  0.25690835704E+02  0.11099087593E+03  0.14176553021E+03  0.81850001887E+02 0.  0.
         23    2    1    2    0    0  0.20470690504E+02 -0.25690835704E+02  0.95263373281E+02  0.14141657476E+03  0.99219298120E+02 0.  0.
          5    1    3    3  502    0  0.11431892197E+02 -0.24697795783E+02  0.44013634576E+02  0.51961132632E+02  0.47000000000E+01 0.  1.
         -5    1    4    4    0  503  0.80794536338E+01 -0.63527647802E+02  0.62997500648E+02  0.89954514585E+02  0.47000000000E+01 0.  1.
          5    1    4    4  503    0  0.12391236871E+02  0.37836812097E+02  0.32265872633E+02  0.51462060177E+02  0.47000000000E+01 0. -1.
         -5    1    3    3    0  502 -0.31902582702E+02  0.50388631487E+02  0.66977241351E+02  0.89804397583E+02  0.47000000000E+01 0. -1.
<mgrwt>
<rscale>  0 0.10017242E+03</rscale>
<asrwt>0</asrwt>
<pdfrwt beam="1">  1        2 0.59175275E-02 0.10451573E+03</pdfrwt>
<pdfrwt beam="2">  1       -2 0.37648949E-01 0.10451573E+03</pdfrwt>
<totfact> 0.77406116E+03</totfact>
</mgrwt>
</event>
<event>
 8    1  0.3177960E-004  0.1934839E+03  0.7546771E-02  0.1155573E+00
         -1   -1    0    0    0  501 -0.00000000000E+00  0.00000000000E+00  0.50298475650E+02  0.50298475650E+02  0.00000000000E+00 0.  1.
          1   -1    0    0  501    0  0.00000000000E+00 -0.00000000000E+00 -0.76773944605E+03  0.76773944605E+03  0.00000000000E+00 0. -1.
         23    2    1    2    0    0  0.11639692310E+03  0.12544421698E+03 -0.28081185042E+03  0.34045965729E+03  0.88164548584E+02 0.  0.
         23    2    1    2    0    0 -0.11639692310E+03 -0.12544421698E+03 -0.43662911999E+03  0.47757826441E+03  0.90285740489E+02 0.  0.
          5    1    4    4  502    0 -0.20960191550E+02 -0.66641125685E+01 -0.16133047966E+03  0.16289061880E+03  0.47000000000E+01 0. -1.
         -5    1    4    4    0  502 -0.95436731551E+02 -0.11878010442E+03 -0.27529864033E+03  0.31468764561E+03  0.47000000000E+01 0.  1.
          5    1    3    3  503    0  0.72254636730E+02  0.11754924766E+03 -0.15902006054E+03  0.21058971439E+03  0.47000000000E+01 0. -1.
         -5    1    3    3    0  503  0.44142286371E+02  0.78949693217E+01 -0.12179178988E+03  0.12986994290E+03  0.47000000000E+01 0.  1.
<mgrwt>
<rscale>  0 0.19323824E+03</rscale>
<asrwt>0</asrwt>
<pdfrwt beam="1">  1        1 0.11811377E+00 0.19348388E+03</pdfrwt>
<pdfrwt beam="2">  1       -1 0.77382264E-02 0.19348388E+03</pdfrwt>
<totfact> 0.22096865E+03</totfact>
</mgrwt>
</event>
<event>
 8    1  0.3177960E-004  0.9582486E+02  0.7546771E-02  0.1290314E+00
          1   -1    0    0  501    0  0.00000000000E+00  0.00000000000E+00  0.65159127286E+03  0.65159127286E+03  0.00000000000E+00 0. -1.
         -1   -1    0    0    0  501 -0.00000000000E+00 -0.00000000000E+00 -0.16361093286E+02  0.16361093286E+02  0.00000000000E+00 0.  1.
         23    2    1    2    0    0  0.18715246324E+02 -0.23643750734E+02  0.45129603946E+03  0.46135725697E+03  0.90956670635E+02 0.  0.
         23    2    1    2    0    0 -0.18715246324E+02  0.23643750734E+02  0.18393414011E+03  0.20659510918E+03  0.89109392560E+02 0.  0.
          5    1    3    3  502    0  0.39262237453E+02 -0.47551503428E+02  0.24897120679E+03  0.25653736683E+03  0.47000000000E+01 0. -1.
         -5    1    4    4    0  503 -0.26881175741E+02 -0.15854981736E+02  0.19226576829E+02  0.36955775079E+02  0.47000000000E+01 0.  1.
          5    1    4    4  503    0  0.81659294170E+01  0.39498732470E+02  0.16470756328E+03  0.16963933410E+03  0.47000000000E+01 0. -1.
         -5    1    3    3    0  502 -0.20546991129E+02  0.23907752694E+02  0.20232483267E+03  0.20481989014E+03  0.47000000000E+01 0.  1.
<mgrwt>
<rscale>  0 0.95383915E+02</rscale>
<asrwt>0</asrwt>
<pdfrwt beam="1">  1        1 0.10024479E+00 0.95824858E+02</pdfrwt>
<pdfrwt beam="2">  1       -1 0.25170918E-02 0.95824858E+02</pdfrwt>
<totfact> 0.14138310E+04</totfact>
</mgrwt>
</event>
<event>
 8    1  0.3177960E-004  0.9501158E+02  0.7546771E-02  0.1291326E+00
         -2   -1    0    0    0  501 -0.00000000000E+00  0.00000000000E+00  0.14791400715E+02  0.14791400715E+02  0.00000000000E+00 0.  1.
          2   -1    0    0  501    0  0.00000000000E+00 -0.00000000000E+00 -0.72678549397E+03  0.72678549397E+03  0.00000000000E+00 0. -1.
         23    2    1    2    0    0 -0.27852787945E+02  0.82271595767E+00 -0.50521984967E+03  0.51401857604E+03  0.90507156409E+02 0.  0.
         23    2    1    2    0    0  0.27852787945E+02 -0.82271595767E+00 -0.20677424358E+03  0.22755831864E+03  0.90833616653E+02 0.  0.
          5    1    3    3  502    0 -0.55813309662E+02 -0.18629767197E+02 -0.35823191875E+03  0.36306251717E+03  0.47000000000E+01 0. -1.
         -5    1    3    3    0  502  0.27960521717E+02  0.19452483155E+02 -0.14698793091E+03  0.15095605887E+03  0.47000000000E+01 0.  1.
          5    1    4    4  503    0 -0.47069417449E+01  0.30709064519E+02 -0.15684305375E+03  0.15995948066E+03  0.47000000000E+01 0. -1.
         -5    1    4    4    0  503  0.32559729690E+02 -0.31531780477E+02 -0.49931189834E+02  0.67598837976E+02  0.47000000000E+01 0.  1.
<mgrwt>
<rscale>  0 0.94933471E+02</rscale>
<asrwt>0</asrwt>
<pdfrwt beam="1">  1        2 0.11181313E+00 0.95011581E+02</pdfrwt>
<pdfrwt beam="2">  1       -2 0.22756006E-02 0.95011581E+02</pdfrwt>
<totfact> 0.23386641E+04</totfact>
</mgrwt>
</event>
<event>
 8    1  0.3177960E-004  0.9301737E+02  0.7546771E-02  0.1296149E+00
          2   -1    0    0  501    0  0.00000000000E+00  0.00000000000E+00  0.39901096491E+02  0.39901096491E+02  0.00000000000E+00 0. -1.
         -2   -1    0    0    0  501 -0.00000000000E+00 -0.00000000000E+00 -0.32136548791E+03  0.32136548791E+03  0.00000000000E+00 0.  1.
         23    2    1    2    0    0  0.10111386672E+02  0.11912838838E+02 -0.37233143038E+02  0.10019250302E+03  0.91695555245E+02 0.  0.
         23    2    1    2    0    0 -0.10111386672E+02 -0.11912838838E+02 -0.24423124839E+03  0.26107408138E+03  0.90920940451E+02 0.  0.
          5    1    4    4  502    0 -0.44937892038E+02 -0.22733117641E+02 -0.18094337804E+03  0.18787976164E+03  0.47000000000E+01 0. -1.
         -5    1    4    4    0  502  0.34826505366E+02  0.10820278803E+02 -0.63287870348E+02  0.73194319742E+02  0.47000000000E+01 0.  1.
          5    1    3    3  503    0 -0.29386672002E+02  0.32039197453E+02 -0.27161409945E+01  0.43812716039E+02  0.47000000000E+01 0. -1.
         -5    1    3    3    0  503  0.39498058674E+02 -0.20126358615E+02 -0.34517002044E+02  0.56379786983E+02  0.47000000000E+01 0.  1.
<mgrwt>
<rscale>  0 0.92825899E+02</rscale>
<asrwt>0</asrwt>
<pdfrwt beam="1">  1        2 0.61386302E-02 0.93017368E+02</pdfrwt>
<pdfrwt beam="2">  1       -2 0.49440844E-01 0.93017368E+02</pdfrwt>
<totfact> 0.43470658E+03</totfact>
</mgrwt>
</event>
<event>
 8    1  0.3177960E-004  0.1147536E+03  0.7546771E-02  0.1252221E+00
         -1   -1    0    0    0  501 -0.00000000000E+00  0.00000000000E+00  0.96034525422E+02  0.96034525422E+02  0.00000000000E+00 0.  1.
          1   -1    0    0  501    0  0.00000000000E+00 -0.00000000000E+00 -0.15599533571E+03  0.15599533571E+03  0.00000000000E+00 0. -1.
         23    2    1    2    0    0  0.66731190077E+02  0.17837153708E+02  0.14453855847E+02  0.11566031305E+03  0.91636118886E+02 0.  0.
         23    2    1    2    0    0 -0.66731190077E+02 -0.17837153708E+02 -0.74414666131E+02  0.13636954808E+03  0.91037878525E+02 0.  0.
          5    1    4    4  502    0 -0.35959967616E+02 -0.17336885301E+02 -0.92153203213E+02  0.10053849872E+03  0.47000000000E+01 0. -1.
         -5    1    4    4    0  502 -0.30771222461E+02 -0.50026840664E+00  0.17738537082E+02  0.35831049357E+02  0.47000000000E+01 0.  1.
          5    1    3    3  503    0  0.44231004825E+02 -0.15742075589E+02 -0.29590994002E+02  0.55694808176E+02  0.47000000000E+01 0. -1.
         -5    1    3    3    0  503  0.22500185252E+02  0.33579229297E+02  0.44044849850E+02  0.59965504875E+02  0.47000000000E+01 0.  1.
<mgrwt>
<rscale>  0 0.11463415E+03</rscale>
<asrwt>0</asrwt>
<pdfrwt beam="1">  1        1 0.23999282E-01 0.11475362E+03</pdfrwt>
<pdfrwt beam="2">  1       -1 0.14774543E-01 0.11475362E+03</pdfrwt>
<totfact> 0.62384407E+03</totfact>
</mgrwt>
</event>
<event>
 8    1  0.3177960E-004  0.1152848E+03  0.7546771E-02  0.1251259E+00
         -1   -1    0    0    0  501 -0.00000000000E+00  0.00000000000E+00  0.68131675373E+02  0.68131675373E+02  0.00000000000E+00 0.  1.
          1   -1    0    0  501    0  0.00000000000E+00 -0.00000000000E+00 -0.38691703450E+03  0.38691703450E+03  0.00000000000E+00 0. -1.
         23    2    1    2    0    0  0.15871665863E+02 -0.69454118684E+02  0.96168832906E+00  0.11528878385E+03  0.90635503293E+02 0.  0.
         23    2    1    2    0    0 -0.15871665863E+02  0.69454118684E+02 -0.31974704745E+03  0.33975992602E+03  0.90126847255E+02 0.  0.
          5    1    3    3  502    0 -0.33385087492E+02 -0.35628743047E+02  0.19142956812E+02  0.52654669247E+02  0.47000000000E+01 0. -1.
         -5    1    4    4    0  503 -0.43134701153E+02  0.64647850661E+02 -0.16451699940E+03  0.18201065938E+03  0.47000000000E+01 0.  1.
          5    1    4    4  503    0  0.27263035290E+02  0.48062680238E+01 -0.15523004806E+03  0.15774926664E+03  0.47000000000E+01 0. -1.
         -5    1    3    3    0  502  0.49256753355E+02 -0.33825375637E+02 -0.18181268483E+02  0.62634114600E+02  0.47000000000E+01 0.  1.
<mgrwt>
<rscale>  0 0.11518478E+03</rscale>
<asrwt>0</asrwt>
<pdfrwt beam="1">  1        1 0.59525697E-01 0.11528477E+03</pdfrwt>
<pdfrwt beam="2">  1       -1 0.10481796E-01 0.11528477E+03</pdfrwt>
<totfact> 0.34429400E+03</totfact>
</mgrwt>
</event>
<event>
 8    1  0.3177960E-004  0.1704548E+03  0.7546771E-02  0.1178071E+00
         -1   -1    0    0    0  501 -0.00000000000E+00  0.00000000000E+00  0.84346701275E+03  0.84346701275E+03  0.00000000000E+00 0.  1.
          1   -1    0    0  501    0  0.00000000000E+00 -0.00000000000E+00 -0.39865875998E+02  0.39865875998E+02  0.00000000000E+00 0. -1.
         23    2    1    2    0    0 -0.13580762414E+03  0.41160064687E+02  0.56979556214E+03  0.59398899288E+03  0.89543728623E+02 0.  0.
         23    2    1    2    0    0  0.13580762414E+03 -0.41160064687E+02  0.23380557462E+03  0.28934389587E+03  0.94429771013E+02 0.  0.
          5    1    4    4  502    0  0.71539907525E+02 -0.12906873383E+02  0.19679001584E+03  0.20984028709E+03  0.47000000000E+01 0. -1.
         -5    1    3    3    0  503 -0.79913029204E+02  0.60653253455E+01  0.16134853221E+03  0.18021742217E+03  0.47000000000E+01 0.  1.
          5    1    3    3  503    0 -0.55894594937E+02  0.35094739341E+02  0.40844702993E+03  0.41377157071E+03  0.47000000000E+01 0. -1.
         -5    1    4    4    0  502  0.64267716616E+02 -0.28253191304E+02  0.37015558777E+02  0.79503608783E+02  0.47000000000E+01 0.  1.
<mgrwt>
<rscale>  0 0.16978652E+03</rscale>
<asrwt>0</asrwt>
<pdfrwt beam="1">  1        1 0.61332123E-02 0.17045481E+03</pdfrwt>
<pdfrwt beam="2">  1       -1 0.12976414E+00 0.17045481E+03</pdfrwt>
<totfact> 0.68142330E+02</totfact>
</mgrwt>
</event>
<event>
 8    1  0.3177960E-004  0.9444735E+02  0.7546771E-02  0.1292689E+00
          1   -1    0    0  501    0  0.00000000000E+00  0.00000000000E+00  0.56041398701E+03  0.56041398701E+03  0.00000000000E+00 0. -1.
         -1   -1    0    0    0  501 -0.00000000000E+00 -0.00000000000E+00 -0.23955909506E+02  0.23955909506E+02  0.00000000000E+00 0.  1.
         23    2    1    2    0    0  0.76584720987E+00 -0.18231094656E+02  0.43786654106E+03  0.44783934208E+03  0.92195494449E+02 0.  0.
         23    2    1    2    0    0 -0.76584720987E+00  0.18231094656E+02  0.98591536447E+02  0.13653055444E+03  0.92667911938E+02 0.  0.
          5    1    3    3  502    0 -0.18594707502E+02  0.33276734415E+02  0.16093236941E+03  0.16545217352E+03  0.47000000000E+01 0. -1.
         -5    1    3    3    0  502  0.19360554712E+02 -0.51507829071E+02  0.27693417165E+03  0.28238716855E+03  0.47000000000E+01 0.  1.
          5    1    4    4  503    0  0.33802061638E+01  0.55278095799E+02  0.47512752310E+02  0.73120758345E+02  0.47000000000E+01 0. -1.
         -5    1    4    4    0  503 -0.41460533737E+01 -0.37047001142E+02  0.51078784137E+02  0.63409796098E+02  0.47000000000E+01 0.  1.
<mgrwt>
<rscale>  0 0.94331264E+02</rscale>
<asrwt>0</asrwt>
<pdfrwt beam="1">  1        1 0.86217527E-01 0.94447346E+02</pdfrwt>
<pdfrwt beam="2">  1       -1 0.36855250E-02 0.94447346E+02</pdfrwt>
<totfact> 0.99780644E+03</totfact>
</mgrwt>
</event>
<event>
 8    1  0.3177960E-004  0.1118841E+03  0.7546771E-02  0.1258104E+00
         -1   -1    0    0    0  501 -0.00000000000E+00  0.00000000000E+00  0.14120950696E+03  0.14120950696E+03  0.00000000000E+00 0.  1.
          1   -1    0    0  501    0  0.00000000000E+00 -0.00000000000E+00 -0.19925772724E+03  0.19925772724E+03  0.00000000000E+00 0. -1.
         23    2    1    2    0    0  0.60606462025E+02 -0.11898346763E+02  0.98897827310E+02  0.14772358659E+03  0.90701509870E+02 0.  0.
         23    2    1    2    0    0 -0.60606462025E+02  0.11898346763E+02 -0.15694604758E+03  0.19274364761E+03  0.93291682091E+02 0.  0.
          5    1    3    3  502    0 -0.19182156816E+02 -0.88859719271E+01  0.15220245794E+01  0.21709956150E+02  0.47000000000E+01 0. -1.
         -5    1    3    3    0  502  0.79788618841E+02 -0.30123748360E+01  0.97375802731E+02  0.12601363044E+03  0.47000000000E+01 0.  1.
          5    1    4    4  503    0  0.95002284551E+01 -0.17650387351E+02 -0.86619100185E+02  0.89032292070E+02  0.47000000000E+01 0. -1.
         -5    1    4    4    0  503 -0.70106690480E+02  0.29548734114E+02 -0.70326947400E+02  0.10371135554E+03  0.47000000000E+01 0.  1.
<mgrwt>
<rscale>  0 0.11134257E+03</rscale>
<asrwt>0</asrwt>
<pdfrwt beam="1">  1        1 0.30655035E-01 0.11188410E+03</pdfrwt>
<pdfrwt beam="2">  1       -1 0.21724540E-01 0.11188410E+03</pdfrwt>
<totfact> 0.24961855E+03</totfact>
</mgrwt>
</event>
<event>
 8    1  0.3177960E-004  0.9793842E+02  0.7546771E-02  0.1284933E+00
         -1   -1    0    0    0  501 -0.00000000000E+00  0.00000000000E+00  0.13799867666E+03  0.13799867666E+03  0.00000000000E+00 0.  1.
          1   -1    0    0  501    0  0.00000000000E+00 -0.00000000000E+00 -0.36454039676E+03  0.36454039676E+03  0.00000000000E+00 0. -1.
         23    2    1    2    0    0  0.38297323639E+02  0.10797883778E+02  0.11284978083E+03  0.14942224562E+03  0.89491089850E+02 0.  0.
         23    2    1    2    0    0 -0.38297323639E+02 -0.10797883778E+02 -0.33939150093E+03  0.35311682779E+03  0.89003504835E+02 0.  0.
          5    1    3    3  502    0  0.50059444893E+02  0.37875552396E+02  0.52089314496E+02  0.81706133044E+02  0.47000000000E+01 0. -1.
         -5    1    4    4    0  503  0.55167767794E+01 -0.37969091627E+02 -0.83117036789E+02  0.91665798145E+02  0.47000000000E+01 0.  1.
          5    1    4    4  503    0 -0.43814100418E+02  0.27171207849E+02 -0.25627446414E+03  0.26145102965E+03  0.47000000000E+01 0. -1.
         -5    1    3    3    0  502 -0.11762121254E+02 -0.27077668618E+02  0.60760466331E+02  0.67716112580E+02  0.47000000000E+01 0.  1.
<mgrwt>
<rscale>  0 0.97826899E+02</rscale>
<asrwt>0</asrwt>
<pdfrwt beam="1">  1        1 0.56083137E-01 0.97938422E+02</pdfrwt>
<pdfrwt beam="2">  1       -1 0.21230566E-01 0.97938422E+02</pdfrwt>
<totfact> 0.12268407E+03</totfact>
</mgrwt>
</event>
<event>
 8    1  0.3177960E-004  0.2235867E+03  0.7546771E-02  0.1131293E+00
         -3   -1    0    0    0  501 -0.00000000000E+00  0.00000000000E+00  0.30473016324E+03  0.30473016324E+03  0.00000000000E+00 0.  1.
          3   -1    0    0  501    0  0.00000000000E+00 -0.00000000000E+00 -0.19140345261E+03  0.19140345261E+03  0.00000000000E+00 0. -1.
         23    2    1    2    0    0 -0.20161110258E+03 -0.31897808986E+02  0.15079570586E+03  0.26942909732E+03  0.90488599722E+02 0.  0.
         23    2    1    2    0    0  0.20161110258E+03  0.31897808986E+02 -0.37468995232E+02  0.22670451852E+03  0.91249691592E+02 0.  0.
          5    1    3    3  502    0 -0.59273813665E+01 -0.26380037271E+02  0.19604361172E+02  0.33726268593E+02  0.47000000000E+01 0. -1.
         -5    1    4    4    0  503  0.12523740996E+03 -0.45560035559E+00  0.18284806383E+02  0.12665322960E+03  0.47000000000E+01 0.  1.
          5    1    4    4  503    0  0.76373692617E+02  0.32353409342E+02 -0.55753801614E+02  0.10005128892E+03  0.47000000000E+01 0. -1.
         -5    1    3    3    0  502 -0.19568372121E+03 -0.55177717157E+01  0.13119134469E+03  0.23570282873E+03  0.47000000000E+01 0.  1.
<mgrwt>
<rscale>  0 0.22350928E+03</rscale>
<asrwt>0</asrwt>
<pdfrwt beam="1">  1        3 0.29446685E-01 0.22358670E+03</pdfrwt>
<pdfrwt beam="2">  1       -3 0.46881564E-01 0.22358670E+03</pdfrwt>
<totfact> 0.12464040E+02</totfact>
</mgrwt>
</event>
<event>
 8    1  0.3177960E-004  0.9365588E+02  0.7546771E-02  0.1295929E+00
          1   -1    0    0  501    0  0.00000000000E+00  0.00000000000E+00  0.42172326893E+03  0.42172326893E+03  0.00000000000E+00 0. -1.
         -1   -1    0    0    0  501 -0.00000000000E+00 -0.00000000000E+00 -0.22092522122E+02  0.22092522122E+02  0.00000000000E+00 0.  1.
         23    2    1    2    0    0 -0.13244017357E+02  0.19883385043E+02  0.13704263682E+03  0.16598827818E+03  0.90557557342E+02 0.  0.
         23    2    1    2    0    0  0.13244017357E+02 -0.19883385043E+02  0.26258811000E+03  0.27782751287E+03  0.87549177049E+02 0.  0.
          5    1    4    4  502    0  0.25852833638E+02  0.17067211482E+01  0.24611499033E+03  0.24751961613E+03  0.47000000000E+01 0. -1.
         -5    1    4    4    0  502 -0.12608816282E+02 -0.21590106191E+02  0.16473119662E+02  0.30307896740E+02  0.47000000000E+01 0.  1.
          5    1    3    3  503    0  0.38845251996E+02  0.10525303481E+02  0.60139143513E+02  0.72515806542E+02  0.47000000000E+01 0. -1.
         -5    1    3    3    0  503 -0.52089269352E+02  0.93580815625E+01  0.76903493303E+02  0.93472471639E+02  0.47000000000E+01 0.  1.
<mgrwt>
<rscale>  0 0.92920871E+02</rscale>
<asrwt>0</asrwt>
<pdfrwt beam="1">  1        1 0.64880497E-01 0.93655882E+02</pdfrwt>
<pdfrwt beam="2">  1       -1 0.33988498E-02 0.93655882E+02</pdfrwt>
<totfact> 0.16139814E+04</totfact>
</mgrwt>
</event>
<event>
 8    1  0.3177960E-004  0.1243735E+03  0.7546771E-02  0.1236246E+00
          2   -1    0    0  501    0  0.00000000000E+00  0.00000000000E+00  0.72544650665E+03  0.72544650665E+03  0.00000000000E+00 0. -1.
         -2   -1    0    0    0  501 -0.00000000000E+00 -0.00000000000E+00 -0.21588296013E+02  0.21588296013E+02  0.00000000000E+00 0.  1.
         23    2    1    2    0    0  0.39064099205E+02  0.72873729687E+02  0.30508951546E+03  0.32946679571E+03  0.92909486612E+02 0.  0.
         23    2    1    2    0    0 -0.39064099205E+02 -0.72873729687E+02  0.39876869517E+03  0.41756800695E+03  0.92249573757E+02 0.  0.
          5    1    4    4  502    0  0.26898328427E+02 -0.23794884306E+02  0.18444051852E+03  0.18796305877E+03  0.47000000000E+01 0. -1.
         -5    1    3    3    0  503  0.81582105615E+01  0.59007270156E+02  0.70581939665E+02  0.92478724785E+02  0.47000000000E+01 0.  1.
          5    1    3    3  503    0  0.30905888643E+02  0.13866459531E+02  0.23450757580E+03  0.23698807092E+03  0.47000000000E+01 0. -1.
         -5    1    4    4    0  502 -0.65962427632E+02 -0.49078845381E+02  0.21432817665E+03  0.22960494818E+03  0.47000000000E+01 0.  1.
<mgrwt>
<rscale>  0 0.12425023E+03</rscale>
<asrwt>0</asrwt>
<pdfrwt beam="1">  1        2 0.11160714E+00 0.12437346E+03</pdfrwt>
<pdfrwt beam="2">  1       -2 0.33212769E-02 0.12437346E+03</pdfrwt>
<totfact> 0.13819302E+04</totfact>
</mgrwt>
</event>
<event>
 8    1  0.3177960E-004  0.9446509E+02  0.7546771E-02  0.1293391E+00
         -4   -1    0    0    0  501 -0.00000000000E+00  0.00000000000E+00  0.43609209189E+03  0.43609209189E+03  0.00000000000E+00 0.  1.
          4   -1    0    0  501    0  0.00000000000E+00 -0.00000000000E+00 -0.21142683184E+02  0.21142683184E+02  0.00000000000E+00 0. -1.
         23    2    1    2    0    0  0.14481396849E+00  0.23542516569E+02  0.26046770180E+03  0.27706872323E+03  0.91484330095E+02 0.  0.
         23    2    1    2    0    0 -0.14481396849E+00 -0.23542516569E+02  0.15448170691E+03  0.18016605185E+03  0.89671274173E+02 0.  0.
          5    1    3    3  502    0 -0.91463993623E+01  0.47325749311E+02  0.71698796753E+02  0.86522775181E+02  0.47000000000E+01 0. -1.
         -5    1    4    4    0  503  0.41994743607E+02 -0.57313279794E+01  0.10097747061E+03  0.10961270994E+03  0.47000000000E+01 0.  1.
          5    1    4    4  503    0 -0.42139557576E+02 -0.17811188589E+02  0.53504236300E+02  0.70553341903E+02  0.47000000000E+01 0. -1.
         -5    1    3    3    0  502  0.92912133308E+01 -0.23783232742E+02  0.18876890505E+03  0.19054594805E+03  0.47000000000E+01 0.  1.
<mgrwt>
<rscale>  0 0.94023317E+02</rscale>
<asrwt>0</asrwt>
<pdfrwt beam="1">  1        4 0.32527208E-02 0.94465093E+02</pdfrwt>
<pdfrwt beam="2">  1       -4 0.67091085E-01 0.94465093E+02</pdfrwt>
<totfact> 0.15025209E+03</totfact>
</mgrwt>
</event>
<event>
 8    1  0.3177960E-004  0.9360258E+02  0.7546771E-02  0.1294670E+00
         -1   -1    0    0    0  501 -0.00000000000E+00  0.00000000000E+00  0.81631237694E+02  0.81631237694E+02  0.00000000000E+00 0.  1.
          1   -1    0    0  501    0  0.00000000000E+00 -0.00000000000E+00 -0.13262210037E+03  0.13262210037E+03  0.00000000000E+00 0. -1.
         23    2    1    2    0    0 -0.84702644367E+01 -0.11768910494E+02  0.21922641605E+02  0.95603337170E+02  0.91919221217E+02 0.  0.
         23    2    1    2    0    0  0.84702644367E+01  0.11768910494E+02 -0.72913504277E+02  0.11865000089E+03  0.92472649857E+02 0.  0.
          5    1    4    4  502    0  0.44191759643E+02 -0.11687131591E+02 -0.19078775153E+02  0.49755304506E+02  0.47000000000E+01 0. -1.
         -5    1    4    4    0  502 -0.35721495206E+02  0.23456042085E+02 -0.53834729124E+02  0.68894696385E+02  0.47000000000E+01 0.  1.
          5    1    3    3  503    0 -0.16002982451E+02  0.28796173131E+02 -0.18141616666E+02  0.37901494556E+02  0.47000000000E+01 0. -1.
         -5    1    3    3    0  503  0.75327180147E+01 -0.40565083625E+02  0.40064258271E+02  0.57701842614E+02  0.47000000000E+01 0.  1.
<mgrwt>
<rscale>  0 0.93465606E+02</rscale>
<asrwt>0</asrwt>
<pdfrwt beam="1">  1        1 0.20403400E-01 0.93602583E+02</pdfrwt>
<pdfrwt beam="2">  1       -1 0.12558652E-01 0.93602583E+02</pdfrwt>
<totfact> 0.96673315E+03</totfact>
</mgrwt>
</event>
<event>
 8    1  0.3177960E-004  0.9722273E+02  0.7546771E-02  0.1289039E+00
         -2   -1    0    0    0  501 -0.00000000000E+00  0.00000000000E+00  0.47809486886E+02  0.47809486886E+02  0.00000000000E+00 0.  1.
          2   -1    0    0  501    0  0.00000000000E+00 -0.00000000000E+00 -0.20956577271E+03  0.20956577271E+03  0.00000000000E+00 0. -1.
         23    2    1    2    0    0  0.17321839025E+02  0.11300444593E+01 -0.12430909195E+03  0.15781320985E+03  0.95660523495E+02 0.  0.
         23    2    1    2    0    0 -0.17321839025E+02 -0.11300444593E+01 -0.37447193879E+02  0.99562049747E+02  0.90603456406E+02 0.  0.
          5    1    3    3  502    0 -0.29440814336E+02  0.18491956735E+02 -0.91315184489E+02  0.97822629953E+02  0.47000000000E+01 0. -1.
         -5    1    4    4    0  503  0.26770954080E+01  0.39319905607E+02  0.15740536514E+01  0.39721398032E+02  0.47000000000E+01 0.  1.
          5    1    4    4  503    0 -0.19998934433E+02 -0.40449950066E+02 -0.39021247530E+02  0.59840651714E+02  0.47000000000E+01 0. -1.
         -5    1    3    3    0  502  0.46762653361E+02 -0.17361912275E+02 -0.32993907457E+02  0.59990579898E+02  0.47000000000E+01 0.  1.
<mgrwt>
<rscale>  0 0.95955312E+02</rscale>
<asrwt>0</asrwt>
<pdfrwt beam="1">  1        2 0.32240888E-01 0.97222728E+02</pdfrwt>
<pdfrwt beam="2">  1       -2 0.73553056E-02 0.97222728E+02</pdfrwt>
<totfact> 0.15819546E+04</totfact>
</mgrwt>
</event>
<event>
 8    1  0.3177960E-004  0.1008609E+03  0.7546771E-02  0.1278935E+00
          1   -1    0    0  501    0  0.00000000000E+00  0.00000000000E+00  0.34138977920E+02  0.34138977920E+02  0.00000000000E+00 0. -1.
         -1   -1    0    0    0  501 -0.00000000000E+00 -0.00000000000E+00 -0.53250441528E+03  0.53250441528E+03  0.00000000000E+00 0.  1.
         23    2    1    2    0    0  0.60112245571E+01 -0.40548632459E+02 -0.59593018899E+02  0.11642771994E+03  0.91234640651E+02 0.  0.
         23    2    1    2    0    0 -0.60112245571E+01  0.40548632459E+02 -0.43877241846E+03  0.45021567325E+03  0.92155253942E+02 0.  0.
          5    1    3    3  502    0 -0.25725096755E+02 -0.57456334854E+02 -0.44021238556E+02  0.76960837196E+02  0.47000000000E+01 0. -1.
         -5    1    3    3    0  502  0.31736321312E+02  0.16907702395E+02 -0.15571780343E+02  0.39466882747E+02  0.47000000000E+01 0.  1.
          5    1    4    4  503    0 -0.43584351030E+02 -0.20232348563E+01 -0.18957616648E+03  0.19458905938E+03  0.47000000000E+01 0. -1.
         -5    1    4    4    0  503  0.37573126473E+02  0.42571867315E+02 -0.24919625198E+03  0.25562661387E+03  0.47000000000E+01 0.  1.
<mgrwt>
<rscale>  0 0.10065011E+03</rscale>
<asrwt>0</asrwt>
<pdfrwt beam="1">  1        1 0.52521505E-02 0.10086088E+03</pdfrwt>
<pdfrwt beam="2">  1       -1 0.81923755E-01 0.10086088E+03</pdfrwt>
<totfact> 0.22995667E+03</totfact>
</mgrwt>
</event>
<event>
 8    1  0.3177960E-004  0.9703852E+02  0.7546771E-02  0.1287490E+00
         -1   -1    0    0    0  501 -0.00000000000E+00  0.00000000000E+00  0.45818164160E+02  0.45818164160E+02  0.00000000000E+00 0.  1.
          1   -1    0    0  501    0  0.00000000000E+00 -0.00000000000E+00 -0.21260008665E+03  0.21260008665E+03  0.00000000000E+00 0. -1.
         23    2    1    2    0    0 -0.18484374572E+02  0.17570027624E+02 -0.55588970144E+02  0.11183294416E+03  0.93627430931E+02 0.  0.
         23    2    1    2    0    0  0.18484374572E+02 -0.17570027624E+02 -0.11119295234E+03  0.14658530665E+03  0.92048908203E+02 0.  0.
          5    1    3    3  502    0 -0.53006240579E+02 -0.32934457524E+01 -0.17388758119E+02  0.56080007437E+02  0.47000000000E+01 0. -1.
         -5    1    4    4    0  503  0.13359944317E+01  0.34441428492E+02 -0.69066678773E+02  0.77332354125E+02  0.47000000000E+01 0.  1.
          5    1    4    4  503    0  0.17148380140E+02 -0.52011456116E+02 -0.42126273569E+02  0.69252952526E+02  0.47000000000E+01 0. -1.
         -5    1    3    3    0  502  0.34521866007E+02  0.20863473377E+02 -0.38200212026E+02  0.55752936719E+02  0.47000000000E+01 0.  1.
<mgrwt>
<rscale>  0 0.96655725E+02</rscale>
<asrwt>0</asrwt>
<pdfrwt beam="1">  1        1 0.32707706E-01 0.97038517E+02</pdfrwt>
<pdfrwt beam="2">  1       -1 0.70489483E-02 0.97038517E+02</pdfrwt>
<totfact> 0.12906022E+04</totfact>
</mgrwt>
</event>
<event>
 7    1  0.3177960E-004  0.1293287E+03  0.7546771E-02  0.1242748E+00
          2   -1    0    0  501    0  0.00000000000E+00  0.00000000000E+00  0.19935871553E+03  0.19935871553E+03  0.00000000000E+00 0. -1.
         -2   -1    0    0    0  501 -0.00000000000E+00 -0.00000000000E+00 -0.10041536958E+03  0.10041536958E+03  0.00000000000E+00 0.  1.
         23    2    1    2    0    0 -0.76469336969E+01 -0.10001554812E+00  0.13457992581E+03  0.16562537841E+03  0.96236811797E+02 0.  0.
          5    1    1    2  502    0 -0.21201001604E+02  0.34180387108E+02  0.32927364680E+02  0.52192745441E+02  0.47000000000E+01 0. -1.
         -5    1    3    3    0  503  0.13064905111E+02 -0.30304053440E+02  0.12222606831E+03  0.12668989373E+03  0.47000000000E+01 0.  1.
          5    1    3    3  503    0 -0.20711838808E+02  0.30204037892E+02  0.12353857501E+02  0.38935484676E+02  0.47000000000E+01 0. -1.
         -5    1    1    2    0  502  0.28847935301E+02 -0.34080371560E+02 -0.68563944532E+02  0.81955961263E+02  0.47000000000E+01 0.  1.
<mgrwt>
<rscale>  0 0.12021210E+03</rscale>
<asrwt>0</asrwt>
<pdfrwt beam="1">  1        2 0.30670572E-01 0.12932869E+03</pdfrwt>
<pdfrwt beam="2">  1       -2 0.15448518E-01 0.12932869E+03</pdfrwt>
<totfact> 0.53089081E+03</totfact>
</mgrwt>
</event>
<event>
 8    1  0.3177960E-004  0.1115544E+03  0.7546771E-02  0.1258523E+00
          2   -1    0    0  501    0  0.00000000000E+00  0.00000000000E+00  0.77999652640E+02  0.77999652640E+02  0.00000000000E+00 0. -1.
         -2   -1    0    0    0  501 -0.00000000000E+00 -0.00000000000E+00 -0.17481035317E+03  0.17481035317E+03  0.00000000000E+00 0.  1.
         23    2    1    2    0    0  0.53886152532E+02  0.31176659260E+02 -0.84527736625E+01  0.11187413883E+03  0.92567121798E+02 0.  0.
         23    2    1    2    0    0 -0.53886152532E+02 -0.31176659260E+02 -0.88357926870E+02  0.14093586699E+03  0.90443871242E+02 0.  0.
          5    1    3    3  502    0  0.49685503028E+02 -0.17687246757E+02 -0.26743878947E+02  0.59319583361E+02  0.47000000000E+01 0. -1.
         -5    1    4    4    0  503  0.72054828348E+01  0.19069713516E+02 -0.47235229053E+02  0.51660718347E+02  0.47000000000E+01 0.  1.
          5    1    4    4  503    0 -0.61091635366E+02 -0.50246372776E+02 -0.41122697817E+02  0.89275148640E+02  0.47000000000E+01 0. -1.
         -5    1    3    3    0  502  0.42006495035E+01  0.48863906017E+02  0.18291105284E+02  0.52554555464E+02  0.47000000000E+01 0.  1.
<mgrwt>
<rscale>  0 0.11111287E+03</rscale>
<asrwt>0</asrwt>
<pdfrwt beam="1">  1        2 0.11999947E-01 0.11155435E+03</pdfrwt>
<pdfrwt beam="2">  1       -2 0.26893900E-01 0.11155435E+03</pdfrwt>
<totfact> 0.59547591E+03</totfact>
</mgrwt>
</event>
<event>
 8    1  0.3177960E-004  0.1065412E+03  0.7546771E-02  0.1267678E+00
         -2   -1    0    0    0  501 -0.00000000000E+00  0.00000000000E+00  0.43363618550E+02  0.43363618550E+02  0.00000000000E+00 0.  1.
          2   -1    0    0  501    0  0.00000000000E+00 -0.00000000000E+00 -0.35451701221E+03  0.35451701221E+03  0.00000000000E+00 0. -1.
         23    2    1    2    0    0 -0.46135431902E+02  0.23187745893E+02 -0.52891038821E+02  0.11894741161E+03  0.93192677314E+02 0.  0.
         23    2    1    2    0    0  0.46135431902E+02 -0.23187745893E+02 -0.25826235484E+03  0.27893321915E+03  0.91859388095E+02 0.  0.
          5    1    3    3  502    0  0.73136053773E+01  0.29725683889E+02 -0.56862232017E+02  0.64749583290E+02  0.47000000000E+01 0. -1.
         -5    1    4    4    0  503  0.12737906777E+02 -0.16760689900E+02 -0.34811791231E+01  0.21849109892E+02  0.47000000000E+01 0.  1.
          5    1    4    4  503    0  0.33397525124E+02 -0.64270559932E+01 -0.25478117571E+03  0.25708410925E+03  0.47000000000E+01 0. -1.
         -5    1    3    3    0  502 -0.53449037279E+02 -0.65379379958E+01  0.39711931961E+01  0.54197828321E+02  0.47000000000E+01 0.  1.
<mgrwt>
<rscale>  0 0.10624892E+03</rscale>
<asrwt>0</asrwt>
<pdfrwt beam="1">  1        2 0.54541077E-01 0.10654119E+03</pdfrwt>
<pdfrwt beam="2">  1       -2 0.66713261E-02 0.10654119E+03</pdfrwt>
<totfact> 0.10630465E+04</totfact>
</mgrwt>
</event>
<event>
 7    1  0.4827408E-004  0.2222542E+03  0.7546771E-02  0.1159774E+00
          2   -1    0    0  501    0  0.00000000000E+00  0.00000000000E+00  0.50070866932E+03  0.50070866932E+03  0.00000000000E+00 0. -1.
         -2   -1    0    0    0  501 -0.00000000000E+00 -0.00000000000E+00 -0.64941374919E+02  0.64941374919E+02  0.00000000000E+00 0.  1.
         23    2    1    2    0    0 -0.50205551787E+02 -0.46750799068E+02  0.61905794284E+02  0.13071399231E+03  0.92453154492E+02 0.  0.
          5    1    3    3  502    0  0.23364278760E+02 -0.23471518275E+02  0.36094641385E+02  0.49210921845E+02  0.47000000000E+01 0.  1.
         -5    1    3    3    0  502 -0.73569830547E+02 -0.23279280793E+02  0.25811152899E+02  0.81503070463E+02  0.47000000000E+01 0. -1.
          5    1    1    2  503    0  0.45662825560E+02  0.10543633130E+02  0.39136732881E+03  0.39419124533E+03  0.47000000000E+01 0. -1.
         -5    1    1    2    0  503  0.45427262272E+01  0.36207165938E+02 -0.17505828689E+02  0.40744806601E+02  0.47000000000E+01 0.  1.
<mgrwt>
<rscale>  0 0.18855158E+03</rscale>
<asrwt>0</asrwt>
<pdfrwt beam="1">  1        2 0.77032100E-01 0.22225424E+03</pdfrwt>
<pdfrwt beam="2">  1       -2 0.99909811E-02 0.22225424E+03</pdfrwt>
<totfact> 0.40821961E+03</totfact>
</mgrwt>
</event>
<event>
 8    1  0.3177960E-004  0.1167132E+03  0.7546771E-02  0.1253621E+00
         -2   -1    0    0    0  501 -0.00000000000E+00  0.00000000000E+00  0.39875335656E+03  0.39875335656E+03  0.00000000000E+00 0. -1.
          2   -1    0    0  501    0  0.00000000000E+00 -0.00000000000E+00 -0.34311778902E+02  0.34311778902E+02  0.00000000000E+00 0.  1.
         23    2    1    2    0    0 -0.32148087667E+01  0.67352856405E+02  0.24125674924E+03  0.26336987218E+03  0.81314994047E+02 0.  0.
         23    2    1    2    0    0  0.32148087667E+01 -0.67352856405E+02  0.12318482842E+03  0.16969526329E+03  0.95264044462E+02 0.  0.
          5    1    3    3  502    0 -0.38922290804E+02  0.46127968675E+02  0.17346165793E+03  0.18372199375E+03  0.47000000000E+01 0. -1.
         -5    1    4    4    0  503  0.32016009982E+02 -0.50787257313E+01  0.52502919985E+01  0.33173391691E+02  0.47000000000E+01 0.  1.
          5    1    4    4  503    0 -0.28801201215E+02 -0.62274130673E+02  0.11793453642E+03  0.13652187160E+03  0.47000000000E+01 0. -1.
         -5    1    3    3    0  502  0.35707482038E+02  0.21224887730E+02  0.67795091306E+02  0.79647878427E+02  0.47000000000E+01 0.  1.
<mgrwt>
<rscale>  0 0.11383941E+03</rscale>
<asrwt>0</asrwt>
<pdfrwt beam="1">  1        2 0.52787355E-02 0.11671324E+03</pdfrwt>
<pdfrwt beam="2">  1       -2 0.61346667E-01 0.11671324E+03</pdfrwt>
<totfact> 0.34832186E+03</totfact>
</mgrwt>
</event>
<event>
 8    1  0.3177960E-004  0.1149505E+03  0.7546771E-02  0.1271855E+00
         -2   -1    0    0    0  501 -0.00000000000E+00  0.00000000000E+00  0.24446908709E+02  0.24446908709E+02  0.00000000000E+00 0.  1.
          2   -1    0    0  501    0  0.00000000000E+00 -0.00000000000E+00 -0.63295134821E+03  0.63295134821E+03  0.00000000000E+00 0. -1.
         23    2    1    2    0    0 -0.12536631394E+02 -0.18546695174E+02 -0.47483501662E+03  0.48109986736E+03  0.74078622609E+02 0.  0.
         23    2    1    2    0    0  0.12536631394E+02  0.18546695174E+02 -0.13366942287E+03  0.17629838956E+03  0.11274954777E+03 0.  0.
          5    1    4    4  502    0  0.28218980743E+02 -0.38479900352E+00 -0.14573259893E+03  0.14851444151E+03  0.47000000000E+01 0. -1.
         -5    1    3    3    0  503  0.54204925020E+01  0.23765926457E+02 -0.85451729697E+02  0.88984768963E+02  0.47000000000E+01 0.  1.
          5    1    3    3  503    0 -0.17957123896E+02 -0.42312621631E+02 -0.38938328693E+03  0.39211509839E+03  0.47000000000E+01 0. -1.
         -5    1    4    4    0  502 -0.15682349349E+02  0.18931494177E+02  0.12063176058E+02  0.27783948054E+02  0.47000000000E+01 0.  1.
<mgrwt>
<rscale>  0 0.10412390E+03</rscale>
<asrwt>0</asrwt>
<pdfrwt beam="1">  1        2 0.97377144E-01 0.11495046E+03</pdfrwt>
<pdfrwt beam="2">  1       -2 0.37610624E-02 0.11495046E+03</pdfrwt>
<totfact> 0.13415982E+04</totfact>
</mgrwt>
</event>
<event>
 8    1  0.3177960E-004  0.1020125E+03  0.7546771E-02  0.1277725E+00
         -1   -1    0    0    0  501 -0.00000000000E+00  0.00000000000E+00  0.21310623018E+03  0.21310623018E+03  0.00000000000E+00 0.  1.
          1   -1    0    0  501    0  0.00000000000E+00 -0.00000000000E+00 -0.47647287357E+02  0.47647287357E+02  0.00000000000E+00 0. -1.
         23    2    1    2    0    0 -0.54061544015E+01 -0.38504550072E+02  0.93973632016E+02  0.13869967944E+03  0.94311879853E+02 0.  0.
         23    2    1    2    0    0  0.54061544015E+01  0.38504550072E+02  0.71485310803E+02  0.12205383809E+03  0.90967922094E+02 0.  0.
          5    1    4    4  502    0 -0.42447988241E+02  0.21349726598E+02  0.37672896457E+02  0.60819237573E+02  0.47000000000E+01 0. -1.
         -5    1    4    4    0  502  0.47854142643E+02  0.17154823474E+02  0.33812414346E+02  0.61234600516E+02  0.47000000000E+01 0.  1.
          5    1    3    3  503    0 -0.27250608728E+02 -0.15849698439E+02 -0.71692586657E+01  0.32669510043E+02  0.47000000000E+01 0. -1.
         -5    1    3    3    0  503  0.21844454326E+02 -0.22654851633E+02  0.10114289068E+03  0.10603016940E+03  0.47000000000E+01 0.  1.
<mgrwt>
<rscale>  0 0.10123281E+03</rscale>
<asrwt>0</asrwt>
<pdfrwt beam="1">  1        1 0.73303520E-02 0.10201254E+03</pdfrwt>
<pdfrwt beam="2">  1       -1 0.32785573E-01 0.10201254E+03</pdfrwt>
<totfact> 0.79206996E+03</totfact>
</mgrwt>
</event>
<event>
 8    1  0.3177960E-004  0.1028376E+03  0.7546771E-02  0.1275324E+00
          1   -1    0    0  501    0  0.00000000000E+00  0.00000000000E+00  0.44067830286E+03  0.44067830286E+03  0.00000000000E+00 0. -1.
         -1   -1    0    0    0  501 -0.00000000000E+00 -0.00000000000E+00 -0.25977311007E+02  0.25977311007E+02  0.00000000000E+00 0.  1.
         23    2    1    2    0    0  0.20698828303E+02  0.41583717855E+02  0.13511306997E+03  0.16875466445E+03  0.89805055612E+02 0.  0.
         23    2    1    2    0    0 -0.20698828303E+02 -0.41583717855E+02  0.27958792189E+03  0.29790094942E+03  0.91749237147E+02 0.  0.
          5    1    3    3  502    0 -0.22714424157E+02  0.11925528339E+02  0.10455966703E+03  0.10776352472E+03  0.47000000000E+01 0. -1.
         -5    1    4    4    0  503 -0.21706231423E+02  0.28896196071E+01  0.98289664820E+01  0.24458310779E+02  0.47000000000E+01 0.  1.
          5    1    4    4  503    0  0.10074031200E+01 -0.44473337462E+02  0.26975895540E+03  0.27344263864E+03  0.47000000000E+01 0. -1.
         -5    1    3    3    0  502  0.43413252460E+02  0.29658189515E+02  0.30553402943E+02  0.60991139732E+02  0.47000000000E+01 0.  1.
<mgrwt>
<rscale>  0 0.10240215E+03</rscale>
<asrwt>0</asrwt>
<pdfrwt beam="1">  1        1 0.67796656E-01 0.10283759E+03</pdfrwt>
<pdfrwt beam="2">  1       -1 0.39965097E-02 0.10283759E+03</pdfrwt>
<totfact> 0.12173384E+04</totfact>
</mgrwt>
</event>
<event>
 8    1  0.3177960E-004  0.1144391E+03  0.7546771E-02  0.1253142E+00
         -1   -1    0    0    0  501 -0.00000000000E+00  0.00000000000E+00  0.69024736731E+02  0.69024736731E+02  0.00000000000E+00 0.  1.
          1   -1    0    0  501    0  0.00000000000E+00 -0.00000000000E+00 -0.23609681907E+03  0.23609681907E+03  0.00000000000E+00 0. -1.
         23    2    1    2    0    0  0.31143065770E+02 -0.60428971089E+02 -0.15308303508E+03  0.19113011384E+03  0.92058425435E+02 0.  0.
         23    2    1    2    0    0 -0.31143065770E+02  0.60428971089E+02 -0.13989047258E+02  0.11399144196E+03  0.90425683881E+02 0.  0.
          5    1    4    4  502    0  0.29840774752E+02  0.28016117170E+02  0.67046815272E+01  0.41742273698E+02  0.47000000000E+01 0. -1.
         -5    1    4    4    0  502 -0.60983840522E+02  0.32412853920E+02 -0.20693728785E+02  0.72249168266E+02  0.47000000000E+01 0.  1.
          5    1    3    3  503    0  0.34116809035E+02 -0.19886988144E+02 -0.14376080939E+03  0.14916001231E+03  0.47000000000E+01 0. -1.
         -5    1    3    3    0  503 -0.29737432654E+01 -0.40541982945E+02 -0.93222256879E+01  0.41970101524E+02  0.47000000000E+01 0.  1.
<mgrwt>
<rscale>  0 0.11411036E+03</rscale>
<asrwt>0</asrwt>
<pdfrwt beam="1">  1        1 0.36322587E-01 0.11443909E+03</pdfrwt>
<pdfrwt beam="2">  1       -1 0.10619190E-01 0.11443909E+03</pdfrwt>
<totfact> 0.62077224E+03</totfact>
</mgrwt>
</event>
<event>
 8    1  0.3177960E-004  0.9005795E+02  0.7546771E-02  0.1302828E+00
          2   -1    0    0  501    0  0.00000000000E+00  0.00000000000E+00  0.81714074795E+02  0.81714074795E+02  0.00000000000E+00 0. -1.
         -2   -1    0    0    0  501 -0.00000000000E+00 -0.00000000000E+00 -0.13211096546E+03  0.13211096546E+03  0.00000000000E+00 0.  1.
         23    2    1    2    0    0  0.15463941755E+02 -0.70520552931E+01 -0.78668442520E+02  0.11943375169E+03  0.88243029282E+02 0.  0.
         23    2    1    2    0    0 -0.15463941755E+02  0.70520552931E+01  0.28271551860E+02  0.94391288556E+02  0.88439638920E+02 0.  0.
          5    1    3    3  502    0  0.12382170521E+02 -0.43097229694E+02 -0.67701070489E+02  0.81340114946E+02  0.47000000000E+01 0. -1.
         -5    1    3    3    0  502  0.30817712340E+01  0.36045174400E+02 -0.10967372032E+02  0.38093636749E+02  0.47000000000E+01 0.  1.
          5    1    4    4  503    0  0.55801440151E+01  0.43752697888E+02  0.26748684208E+02  0.51797863726E+02  0.47000000000E+01 0. -1.
         -5    1    4    4    0  503 -0.21044085771E+02 -0.36700642595E+02  0.15228676514E+01  0.42593424830E+02  0.47000000000E+01 0.  1.
<mgrwt>
<rscale>  0 0.90009646E+02</rscale>
<asrwt>0</asrwt>
<pdfrwt beam="1">  1        2 0.12571396E-01 0.90057952E+02</pdfrwt>
<pdfrwt beam="2">  1       -2 0.20324764E-01 0.90057952E+02</pdfrwt>
<totfact> 0.89500863E+03</totfact>
</mgrwt>
</event>
<event>
 8    1  0.3177960E-004  0.1180691E+03  0.7546771E-02  0.1246531E+00
         -2   -1    0    0    0  501 -0.00000000000E+00  0.00000000000E+00  0.34397403416E+02  0.34397403416E+02  0.00000000000E+00 0.  1.
          2   -1    0    0  501    0  0.00000000000E+00 -0.00000000000E+00 -0.43886650559E+03  0.43886650559E+03  0.00000000000E+00 0. -1.
         23    2    1    2    0    0  0.23730700279E+02 -0.68754810880E+02 -0.26897562886E+03  0.29354524247E+03  0.92360978217E+02 0.  0.
         23    2    1    2    0    0 -0.23730700279E+02  0.68754810880E+02 -0.13549347331E+03  0.17971866654E+03  0.93005094688E+02 0.  0.
          5    1    4    4  502    0 -0.39019269404E+02 -0.52982847592E+00 -0.81339981917E+02  0.90338622755E+02  0.47000000000E+01 0. -1.
         -5    1    4    4    0  502  0.15288569125E+02  0.69284639356E+02 -0.54153491389E+02  0.89380043781E+02  0.47000000000E+01 0.  1.
          5    1    3    3  503    0 -0.85454012545E+01 -0.46843724097E+02 -0.24000189270E+03  0.24472506384E+03  0.47000000000E+01 0. -1.
         -5    1    3    3    0  503  0.32276101533E+02 -0.21911086784E+02 -0.28973736163E+02  0.48820178630E+02  0.47000000000E+01 0.  1.
<mgrwt>
<rscale>  0 0.11794224E+03</rscale>
<asrwt>0</asrwt>
<pdfrwt beam="1">  1        2 0.67517920E-01 0.11806912E+03</pdfrwt>
<pdfrwt beam="2">  1       -2 0.52919085E-02 0.11806912E+03</pdfrwt>
<totfact> 0.12118463E+04</totfact>
</mgrwt>
</event>
<event>
 8    1  0.3177960E-004  0.1022954E+03  0.7546771E-02  0.1275837E+00
         -2   -1    0    0    0  501 -0.00000000000E+00  0.00000000000E+00  0.14922430084E+02  0.14922430084E+02  0.00000000000E+00 0.  1.
          2   -1    0    0  501    0  0.00000000000E+00 -0.00000000000E+00 -0.74869169303E+03  0.74869169303E+03  0.00000000000E+00 0. -1.
         23    2    1    2    0    0 -0.22450916866E+02 -0.41362670815E+02 -0.26781529648E+03  0.28668691132E+03  0.90826416248E+02 0.  0.
         23    2    1    2    0    0  0.22450916866E+02  0.41362670815E+02 -0.46595396646E+03  0.47692721179E+03  0.90175120072E+02 0.  0.
          5    1    4    4  502    0  0.52870856899E+02  0.27376967989E+02 -0.19693054749E+03  0.20578764886E+03  0.47000000000E+01 0. -1.
         -5    1    3    3    0  503 -0.48910322886E+02  0.22935134599E+00 -0.17132635179E+03  0.17823322111E+03  0.47000000000E+01 0.  1.
          5    1    3    3  503    0  0.26459406020E+02 -0.41592022161E+02 -0.96488944689E+02  0.10845369022E+03  0.47000000000E+01 0. -1.
         -5    1    4    4    0  502 -0.30419940033E+02  0.13985702826E+02 -0.26902341897E+03  0.27113956293E+03  0.47000000000E+01 0.  1.
<mgrwt>
<rscale>  0 0.10215065E+03</rscale>
<asrwt>0</asrwt>
<pdfrwt beam="1">  1        2 0.11518337E+00 0.10229542E+03</pdfrwt>
<pdfrwt beam="2">  1       -2 0.22957579E-02 0.10229542E+03</pdfrwt>
<totfact> 0.22442117E+04</totfact>
</mgrwt>
</event>
<event>
 8    1  0.3177960E-004  0.2287005E+03  0.7546771E-02  0.1127752E+00
         -1   -1    0    0    0  501 -0.00000000000E+00  0.00000000000E+00  0.18591622594E+03  0.18591622594E+03  0.00000000000E+00 0.  1.
          1   -1    0    0  501    0  0.00000000000E+00 -0.00000000000E+00 -0.28346988507E+03  0.28346988507E+03  0.00000000000E+00 0. -1.
         23    2    1    2    0    0 -0.16483629142E+03 -0.12872869678E+03 -0.74677103247E+02  0.23954434112E+03  0.89792768459E+02 0.  0.
         23    2    1    2    0    0  0.16483629142E+03  0.12872869678E+03 -0.22876555885E+02  0.22984176990E+03  0.92530114223E+02 0.  0.
          5    1    3    3  502    0 -0.15701825651E+03 -0.10397477780E+03 -0.34552520678E+02  0.19152402978E+03  0.47000000000E+01 0. -1.
         -5    1    4    4    0  503  0.16856803436E+03  0.95105040460E+02 -0.26850369418E+02  0.19545634619E+03  0.47000000000E+01 0.  1.
          5    1    4    4  503    0 -0.37317429389E+01  0.33623656319E+02  0.39738135328E+01  0.34385423709E+02  0.47000000000E+01 0. -1.
         -5    1    3    3    0  502 -0.78180349070E+01 -0.24753918978E+02 -0.40124582569E+02  0.48020311337E+02  0.47000000000E+01 0.  1.
<mgrwt>
<rscale>  0 0.22842654E+03</rscale>
<asrwt>0</asrwt>
<pdfrwt beam="1">  1        1 0.43610751E-01 0.22870046E+03</pdfrwt>
<pdfrwt beam="2">  1       -1 0.28602496E-01 0.22870046E+03</pdfrwt>
<totfact> 0.10433605E+03</totfact>
</mgrwt>
</event>
<event>
 8    1  0.3177960E-004  0.1019006E+03  0.7546771E-02  0.1280657E+00
         -1   -1    0    0    0  501 -0.00000000000E+00  0.00000000000E+00  0.68553036312E+02  0.68553036312E+02  0.00000000000E+00 0.  1.
          1   -1    0    0  501    0  0.00000000000E+00 -0.00000000000E+00 -0.14445661927E+03  0.14445661927E+03  0.00000000000E+00 0. -1.
         23    2    1    2    0    0 -0.55222502262E+01 -0.24603192718E+02 -0.17249146258E+02  0.95433868383E+02  0.90411713004E+02 0.  0.
         23    2    1    2    0    0  0.55222502262E+01  0.24603192718E+02 -0.58654436700E+02  0.11757578720E+03  0.98731506883E+02 0.  0.
          5    1    4    4  502    0 -0.21446119127E+02  0.28051641844E+02 -0.76726799191E+02  0.84592684966E+02  0.47000000000E+01 0. -1.
         -5    1    4    4    0  502  0.26968369353E+02 -0.34484491260E+01  0.18072362490E+02  0.32983102233E+02  0.47000000000E+01 0.  1.
          5    1    3    3  503    0  0.29572495103E+02  0.20159498148E+02 -0.12343339770E+02  0.38149519904E+02  0.47000000000E+01 0. -1.
         -5    1    3    3    0  503 -0.35094745330E+02 -0.44762690866E+02 -0.49058064883E+01  0.57284348479E+02  0.47000000000E+01 0.  1.
<mgrwt>
<rscale>  0 0.99828593E+02</rscale>
<asrwt>0</asrwt>
<pdfrwt beam="1">  1        1 0.22224095E-01 0.10190055E+03</pdfrwt>
<pdfrwt beam="2">  1       -1 0.10546621E-01 0.10190055E+03</pdfrwt>
<totfact> 0.11423263E+04</totfact>
</mgrwt>
</event>
<event>
 8    1  0.3177960E-004  0.1179657E+03  0.7546771E-02  0.1248383E+00
         -1   -1    0    0    0  501 -0.00000000000E+00  0.00000000000E+00  0.41424666914E+03  0.41424666914E+03  0.00000000000E+00 0.  1.
          1   -1    0    0  501    0  0.00000000000E+00 -0.00000000000E+00 -0.32700400593E+02  0.32700400593E+02  0.00000000000E+00 0. -1.
         23    2    1    2    0    0 -0.96775378023E+01 -0.68988348957E+02  0.21736513470E+03  0.24731258876E+03  0.95199095305E+02 0.  0.
         23    2    1    2    0    0  0.96775378023E+01  0.68988348957E+02  0.16418113385E+03  0.19963448097E+03  0.89696344698E+02 0.  0.
          5    1    4    4  502    0 -0.24286662312E+02 -0.92208140516E+01  0.55142010413E+02  0.61135887091E+02  0.47000000000E+01 0.  1.
         -5    1    3    3    0  503 -0.44122847185E+02 -0.69838075458E+02  0.16255072315E+03  0.18239794413E+03  0.47000000000E+01 0.  1.
          5    1    3    3  503    0  0.34445309383E+02  0.84972650091E+00  0.54814411555E+02  0.64914644633E+02  0.47000000000E+01 0. -1.
         -5    1    4    4    0  502  0.33964200114E+02  0.78209163009E+02  0.10903912343E+03  0.13849859388E+03  0.47000000000E+01 0. -1.
<mgrwt>
<rscale>  0 0.11685148E+03</rscale>
<asrwt>0</asrwt>
<pdfrwt beam="1">  1        1 0.50308311E-02 0.11796574E+03</pdfrwt>
<pdfrwt beam="2">  1       -1 0.63730253E-01 0.11796574E+03</pdfrwt>
<totfact> 0.40475995E+03</totfact>
</mgrwt>
</event>
<event>
 8    1  0.3177960E-004  0.9538586E+02  0.7546771E-02  0.1291304E+00
         -1   -1    0    0    0  501 -0.00000000000E+00  0.00000000000E+00  0.25809705936E+03  0.25809705936E+03  0.00000000000E+00 0.  1.
          1   -1    0    0  501    0  0.00000000000E+00 -0.00000000000E+00 -0.34672016403E+02  0.34672016403E+02  0.00000000000E+00 0. -1.
         23    2    1    2    0    0 -0.28802738194E+02 -0.11397321498E+02  0.10425324051E+03  0.14012445192E+03  0.88355119843E+02 0.  0.
         23    2    1    2    0    0  0.28802738194E+02  0.11397321498E+02  0.11917180245E+03  0.15264462385E+03  0.90216218205E+02 0.  0.
          5    1    4    4  502    0  0.41892951210E+02  0.29448242274E+02  0.27764178687E+02  0.58439352771E+02  0.47000000000E+01 0. -1.
         -5    1    3    3    0  503 -0.22146891826E+02  0.34233750941E+02  0.24274046476E+02  0.47683895115E+02  0.47000000000E+01 0.  1.
          5    1    3    3  503    0 -0.66558463673E+01 -0.45631072439E+02  0.79979194037E+02  0.92440556800E+02  0.47000000000E+01 0. -1.
         -5    1    4    4    0  502 -0.13090213016E+02 -0.18050920776E+02  0.91407623762E+02  0.94205271081E+02  0.47000000000E+01 0.  1.
<mgrwt>
<rscale>  0 0.94943220E+02</rscale>
<asrwt>0</asrwt>
<pdfrwt beam="1">  1        1 0.53341565E-02 0.95385862E+02</pdfrwt>
<pdfrwt beam="2">  1       -1 0.39707239E-01 0.95385862E+02</pdfrwt>
<totfact> 0.86947723E+03</totfact>
</mgrwt>
</event>
<event>
 8    1  0.3177960E-004  0.9294949E+02  0.7546771E-02  0.1296378E+00
         -1   -1    0    0    0  501 -0.00000000000E+00  0.00000000000E+00  0.31353794415E+02  0.31353794415E+02  0.00000000000E+00 0.  1.
          1   -1    0    0  501    0  0.00000000000E+00 -0.00000000000E+00 -0.53854287187E+03  0.53854287187E+03  0.00000000000E+00 0. -1.
         23    2    1    2    0    0 -0.18192369666E+02  0.14154003112E+02 -0.45309194711E+03  0.46235082747E+03  0.89132917641E+02 0.  0.
         23    2    1    2    0    0  0.18192369666E+02 -0.14154003112E+02 -0.54097130344E+02  0.10754583882E+03  0.90046153815E+02 0.  0.
          5    1    3    3  502    0 -0.50623561924E+02  0.27125452642E+01 -0.34725428808E+03  0.35096685529E+03  0.47000000000E+01 0. -1.
         -5    1    4    4    0  503  0.37676191978E+02  0.25934074715E+02 -0.15880095124E+02  0.48645031549E+02  0.47000000000E+01 0.  1.
          5    1    4    4  503    0 -0.19483822312E+02 -0.40088077826E+02 -0.38217035219E+02  0.58900807266E+02  0.47000000000E+01 0. -1.
         -5    1    3    3    0  502  0.32431192258E+02  0.11441457848E+02 -0.10583765903E+03  0.11138397217E+03  0.47000000000E+01 0.  1.
<mgrwt>
<rscale>  0 0.92727590E+02</rscale>
<asrwt>0</asrwt>
<pdfrwt beam="1">  1        1 0.82852753E-01 0.92949491E+02</pdfrwt>
<pdfrwt beam="2">  1       -1 0.48236605E-02 0.92949491E+02</pdfrwt>
<totfact> 0.70963457E+03</totfact>
</mgrwt>
</event>
<event>
 8    1  0.3177960E-004  0.9936964E+02  0.7546771E-02  0.1283695E+00
          1   -1    0    0  501    0  0.00000000000E+00  0.00000000000E+00  0.47206835527E+03  0.47206835527E+03  0.00000000000E+00 0. -1.
         -1   -1    0    0    0  501 -0.00000000000E+00 -0.00000000000E+00 -0.21071829897E+02  0.21071829897E+02  0.00000000000E+00 0.  1.
         23    2    1    2    0    0 -0.12794876857E+02 -0.37661190459E+02  0.17734918028E+03  0.20329057527E+03  0.91061803772E+02 0.  0.
         23    2    1    2    0    0  0.12794876857E+02  0.37661190459E+02  0.27364734509E+03  0.28984960990E+03  0.86878379027E+02 0.  0.
          5    1    3    3  502    0 -0.58566108895E+01  0.30017754983E+02  0.49086084181E+02  0.58024987424E+02  0.47000000000E+01 0. -1.
         -5    1    3    3    0  502 -0.69382659680E+01 -0.67678945441E+02  0.12826309610E+03  0.14526558785E+03  0.47000000000E+01 0.  1.
          5    1    4    4  503    0 -0.27232786580E+02  0.11710638064E+02  0.19822002428E+03  0.20047950452E+03  0.47000000000E+01 0. -1.
         -5    1    4    4    0  503  0.40027663438E+02  0.25950552394E+02  0.75427320812E+02  0.89370105375E+02  0.47000000000E+01 0.  1.
<mgrwt>
<rscale>  0 0.98400819E+02</rscale>
<asrwt>0</asrwt>
<pdfrwt beam="1">  1        1 0.72625892E-01 0.99369644E+02</pdfrwt>
<pdfrwt beam="2">  1       -1 0.32418204E-02 0.99369644E+02</pdfrwt>
<totfact> 0.15071052E+04</totfact>
</mgrwt>
</event>
<event>
 8    1  0.3177960E-004  0.1059470E+03  0.7546771E-02  0.1268812E+00
          1   -1    0    0  501    0  0.00000000000E+00  0.00000000000E+00  0.17096245784E+03  0.17096245784E+03  0.00000000000E+00 0. -1.
         -1   -1    0    0    0  501 -0.00000000000E+00 -0.00000000000E+00 -0.65420075905E+02  0.65420075905E+02  0.00000000000E+00 0.  1.
         23    2    1    2    0    0 -0.25865992555E+02 -0.47747144928E+02  0.62347027457E+02  0.12196830493E+03  0.89667586981E+02 0.  0.
         23    2    1    2    0    0  0.25865992555E+02  0.47747144928E+02  0.43195354478E+02  0.11441422882E+03  0.90972180843E+02 0.  0.
          5    1    4    4  502    0  0.59849445792E+02  0.29347822170E+02  0.23931616143E+02  0.70979314444E+02  0.47000000000E+01 0. -1.
         -5    1    3    3    0  503  0.10713652938E+00 -0.63905509769E+02  0.15674743205E+02  0.65967516488E+02  0.47000000000E+01 0.  1.
          5    1    3    3  503    0 -0.25973129084E+02  0.16158364841E+02  0.46672284252E+02  0.56000788441E+02  0.47000000000E+01 0. -1.
         -5    1    4    4    0  502 -0.33983453237E+02  0.18399322757E+02  0.19263738334E+02  0.43434914371E+02  0.47000000000E+01 0.  1.
<mgrwt>
<rscale>  0 0.10566642E+03</rscale>
<asrwt>0</asrwt>
<pdfrwt beam="1">  1        1 0.26301917E-01 0.10594705E+03</pdfrwt>
<pdfrwt beam="2">  1       -1 0.10064627E-01 0.10594705E+03</pdfrwt>
<totfact> 0.99747736E+03</totfact>
</mgrwt>
</event>
<event>
 8    1  0.3177960E-004  0.1487040E+03  0.7546771E-02  0.1203646E+00
         -1   -1    0    0    0  501 -0.00000000000E+00  0.00000000000E+00  0.49196685901E+03  0.49196685901E+03  0.00000000000E+00 0.  1.
          1   -1    0    0  501    0  0.00000000000E+00 -0.00000000000E+00 -0.44260998551E+02  0.44260998551E+02  0.00000000000E+00 0. -1.
         23    2    1    2    0    0 -0.66244768625E+02 -0.91876316121E+02  0.18405572617E+03  0.23353281973E+03  0.88495427685E+02 0.  0.
         23    2    1    2    0    0  0.66244768625E+02  0.91876316121E+02  0.26365013429E+03  0.30269503783E+03  0.96349705667E+02 0.  0.
          5    1    3    3  502    0 -0.36632523286E+01 -0.42004328549E+02  0.12588400137E+02  0.44253145114E+02  0.47000000000E+01 0. -1.
         -5    1    3    3    0  502 -0.62581516297E+02 -0.49871987572E+02  0.17146732603E+03  0.18927967461E+03  0.47000000000E+01 0.  1.
          5    1    4    4  503    0  0.41493448243E+01  0.22334266390E+02  0.16596641183E+03  0.16757976123E+03  0.47000000000E+01 0. -1.
         -5    1    4    4    0  503  0.62095423801E+02  0.69542049731E+02  0.97683722464E+02  0.13511527661E+03  0.47000000000E+01 0.  1.
<mgrwt>
<rscale>  0 0.14744708E+03</rscale>
<asrwt>0</asrwt>
<pdfrwt beam="1">  1        1 0.68093847E-02 0.14870404E+03</pdfrwt>
<pdfrwt beam="2">  1       -1 0.75687205E-01 0.14870404E+03</pdfrwt>
<totfact> 0.19371701E+03</totfact>
</mgrwt>
</event>
<event>
 8    1  0.3177960E-004  0.9497462E+02  0.7546771E-02  0.1293320E+00
          1   -1    0    0  501    0  0.00000000000E+00  0.00000000000E+00  0.13722050300E+03  0.13722050300E+03  0.00000000000E+00 0. -1.
         -1   -1    0    0    0  501 -0.00000000000E+00 -0.00000000000E+00 -0.65159006448E+02  0.65159006448E+02  0.00000000000E+00 0.  1.
         23    2    1    2    0    0 -0.26940365601E+01  0.91479251759E+01  0.18025280128E+02  0.93108782943E+02  0.90848183082E+02 0.  0.
         23    2    1    2    0    0  0.26940365601E+01 -0.91479251759E+01  0.54036216421E+02  0.10927072650E+03  0.94494638034E+02 0.  0.
          5    1    3    3  502    0 -0.12312367671E+02 -0.30302295585E+02  0.35636834004E+02  0.48599356510E+02  0.47000000000E+01 0. -1.
         -5    1    4    4    0  503  0.26101984731E+02 -0.34811114823E+01 -0.18613969794E+02  0.32588366261E+02  0.47000000000E+01 0.  1.
          5    1    4    4  503    0 -0.23407948171E+02 -0.56668136936E+01  0.72650186216E+02  0.76682360241E+02  0.47000000000E+01 0. -1.
         -5    1    3    3    0  502  0.96183311104E+01  0.39450220761E+02 -0.17611553876E+02  0.44509426433E+02  0.47000000000E+01 0.  1.
<mgrwt>
<rscale>  0 0.94054515E+02</rscale>
<asrwt>0</asrwt>
<pdfrwt beam="1">  1        1 0.21110847E-01 0.94974623E+02</pdfrwt>
<pdfrwt beam="2">  1       -1 0.10024463E-01 0.94974623E+02</pdfrwt>
<totfact> 0.13069967E+04</totfact>
</mgrwt>
</event>
<event>
 8    1  0.3177960E-004  0.1176449E+03  0.7546771E-02  0.1258265E+00
          2   -1    0    0  501    0  0.00000000000E+00  0.00000000000E+00  0.55951915497E+03  0.55951915497E+03  0.00000000000E+00 0. -1.
         -2   -1    0    0    0  501 -0.00000000000E+00 -0.00000000000E+00 -0.56411386865E+02  0.56411386865E+02  0.00000000000E+00 0.  1.
         23    2    1    2    0    0 -0.23014708129E+02 -0.17828772013E+02  0.14720454426E+02  0.11856232328E+03  0.11398592378E+03 0.  0.
         23    2    1    2    0    0  0.23014708129E+02  0.17828772013E+02  0.48838731368E+03  0.49736821856E+03  0.89473095220E+02 0.  0.
          5    1    4    4  502    0 -0.34158015821E+02  0.11467998878E+02  0.18201506613E+03  0.18560673302E+03  0.47000000000E+01 0. -1.
         -5    1    3    3    0  503 -0.46950978516E+02 -0.19651642100E+01 -0.36477193692E+02  0.59673544503E+02  0.47000000000E+01 0.  1.
          5    1    3    3  503    0  0.23936270387E+02 -0.15863607803E+02  0.51197648117E+02  0.58888778772E+02  0.47000000000E+01 0. -1.
         -5    1    4    4    0  502  0.57172723951E+02  0.63607731346E+01  0.30637224755E+03  0.31176148554E+03  0.47000000000E+01 0.  1.
<mgrwt>
<rscale>  0 0.11125412E+03</rscale>
<asrwt>0</asrwt>
<pdfrwt beam="1">  1        2 0.86079866E-01 0.11764494E+03</pdfrwt>
<pdfrwt beam="2">  1       -2 0.86786753E-02 0.11764494E+03</pdfrwt>
<totfact> 0.43761734E+03</totfact>
</mgrwt>
</event>
<event>
 8    1  0.3177960E-004  0.1044497E+03  0.7546771E-02  0.1272079E+00
          2   -1    0    0  501    0  0.00000000000E+00  0.00000000000E+00  0.13324606874E+03  0.13324606874E+03  0.00000000000E+00 0. -1.
         -2   -1    0    0    0  501 -0.00000000000E+00 -0.00000000000E+00 -0.80866247076E+02  0.80866247076E+02  0.00000000000E+00 0.  1.
         23    2    1    2    0    0  0.11124243112E+02 -0.49051018782E+02  0.32996913649E+02  0.10787939956E+03  0.89551199379E+02 0.  0.
         23    2    1    2    0    0 -0.11124243112E+02  0.49051018782E+02  0.19382908015E+02  0.10623291626E+03  0.91542253331E+02 0.  0.
          5    1    4    4  502    0 -0.96713778891E+01  0.70059803135E+02  0.35526449131E+02  0.79285119369E+02  0.47000000000E+01 0. -1.
         -5    1    4    4    0  502 -0.14528652233E+01 -0.21008784353E+02 -0.16143541116E+02  0.26947796888E+02  0.47000000000E+01 0.  1.
          5    1    3    3  503    0  0.24344743665E+02  0.16223780734E+02 -0.64593430299E+01  0.30326402982E+02  0.47000000000E+01 0. -1.
         -5    1    3    3    0  503 -0.13220500553E+02 -0.65274799517E+02  0.39456256678E+02  0.77552996576E+02  0.47000000000E+01 0.  1.
<mgrwt>
<rscale>  0 0.10401180E+03</rscale>
<asrwt>0</asrwt>
<pdfrwt beam="1">  1        2 0.20499395E-01 0.10444968E+03</pdfrwt>
<pdfrwt beam="2">  1       -2 0.12440961E-01 0.10444968E+03</pdfrwt>
<totfact> 0.11526677E+04</totfact>
</mgrwt>
</event>
<event>
 8    1  0.3177960E-004  0.9458988E+02  0.7546771E-02  0.1292736E+00
          1   -1    0    0  501    0  0.00000000000E+00  0.00000000000E+00  0.16232226853E+03  0.16232226853E+03  0.00000000000E+00 0. -1.
         -1   -1    0    0    0  501 -0.00000000000E+00 -0.00000000000E+00 -0.61903071557E+02  0.61903071557E+02  0.00000000000E+00 0.  1.
         23    2    1    2    0    0 -0.17427960415E+02  0.56875477113E+01  0.11632941061E+02  0.95302524841E+02  0.92796357257E+02 0.  0.
         23    2    1    2    0    0  0.17427960415E+02 -0.56875477113E+01  0.88786255912E+02  0.12892281525E+03  0.91662484412E+02 0.  0.
          5    1    4    4  502    0 -0.34236316726E+02 -0.18590468781E+02  0.45905832169E+02  0.60391773774E+02  0.47000000000E+01 0. -1.
         -5    1    4    4    0  502  0.51664277141E+02  0.12902921070E+02  0.42880423744E+02  0.68531041471E+02  0.47000000000E+01 0.  1.
          5    1    3    3  503    0 -0.49728370512E+02 -0.15421520005E+02  0.19219537952E+02  0.55697529138E+02  0.47000000000E+01 0. -1.
         -5    1    3    3    0  503  0.32300410097E+02  0.21109067716E+02 -0.75865968910E+01  0.39604995703E+02  0.47000000000E+01 0.  1.
<mgrwt>
<rscale>  0 0.94310620E+02</rscale>
<asrwt>0</asrwt>
<pdfrwt beam="1">  1        1 0.24972656E-01 0.94589883E+02</pdfrwt>
<pdfrwt beam="2">  1       -1 0.95235496E-02 0.94589883E+02</pdfrwt>
<totfact> 0.11448108E+04</totfact>
</mgrwt>
</event>
<event>
 8    1  0.3177960E-004  0.1161565E+03  0.7546771E-02  0.1251778E+00
         -1   -1    0    0    0  501 -0.00000000000E+00  0.00000000000E+00  0.11979360164E+03  0.11979360164E+03  0.00000000000E+00 0.  1.
          1   -1    0    0  501    0  0.00000000000E+00 -0.00000000000E+00 -0.10965257174E+03  0.10965257174E+03  0.00000000000E+00 0. -1.
         23    2    1    2    0    0  0.35210645024E+02 -0.55878045148E+02  0.19925292764E+02  0.11785305044E+03  0.95551968863E+02 0.  0.
         23    2    1    2    0    0 -0.35210645024E+02  0.55878045148E+02 -0.97842628647E+01  0.11159312293E+03  0.89415590553E+02 0.  0.
          5    1    3    3  502    0  0.43911445572E+02 -0.14485868729E+02 -0.27602970823E+02  0.54056169336E+02  0.47000000000E+01 0. -1.
         -5    1    4    4    0  503 -0.31868400585E+02 -0.13762947250E+02  0.14076233862E+02  0.37752404329E+02  0.47000000000E+01 0.  1.
          5    1    4    4  503    0 -0.33422444388E+01  0.69640992399E+02 -0.23860496727E+02  0.73840718606E+02  0.47000000000E+01 0. -1.
         -5    1    3    3    0  502 -0.87008005481E+01 -0.41392176419E+02  0.47528263587E+02  0.63796881103E+02  0.47000000000E+01 0.  1.
<mgrwt>
<rscale>  0 0.11488755E+03</rscale>
<asrwt>0</asrwt>
<pdfrwt beam="1">  1        1 0.16869626E-01 0.11615646E+03</pdfrwt>
<pdfrwt beam="2">  1       -1 0.18429785E-01 0.11615646E+03</pdfrwt>
<totfact> 0.68887243E+03</totfact>
</mgrwt>
</event>
<event>
 8    1  0.3177960E-004  0.8942477E+02  0.7546771E-02  0.1304934E+00
         -1   -1    0    0    0  501 -0.00000000000E+00  0.00000000000E+00  0.44701281751E+03  0.44701281751E+03  0.00000000000E+00 0.  1.
          1   -1    0    0  501    0  0.00000000000E+00 -0.00000000000E+00 -0.17711328889E+02  0.17711328889E+02  0.00000000000E+00 0. -1.
         23    2    1    2    0    0  0.26084247219E+01 -0.40815342990E+00  0.20446954477E+03  0.22316940515E+03  0.89385782913E+02 0.  0.
         23    2    1    2    0    0 -0.26084247219E+01  0.40815342990E+00  0.22483194385E+03  0.24155474125E+03  0.88274116116E+02 0.  0.
          5    1    3    3  502    0  0.27798788672E+02  0.32254559034E+02  0.66627917955E+02  0.79211733229E+02  0.47000000000E+01 0. -1.
         -5    1    3    3    0  502 -0.25190363950E+02 -0.32662712463E+02  0.13784162682E+03  0.14395767192E+03  0.47000000000E+01 0.  1.
          5    1    4    4  503    0 -0.36136907374E+02  0.83465549931E+01  0.18473133208E+03  0.18847624812E+03  0.47000000000E+01 0. -1.
         -5    1    4    4    0  503  0.33528482652E+02 -0.79384015632E+01  0.40100611777E+02  0.53078493132E+02  0.47000000000E+01 0.  1.
<mgrwt>
<rscale>  0 0.89145667E+02</rscale>
<asrwt>0</asrwt>
<pdfrwt beam="1">  1        1 0.27248202E-02 0.89424765E+02</pdfrwt>
<pdfrwt beam="2">  1       -1 0.68771194E-01 0.89424765E+02</pdfrwt>
<totfact> 0.78986852E+03</totfact>
</mgrwt>
</event>
<event>
 8    1  0.3177960E-004  0.1059900E+03  0.7546771E-02  0.1268524E+00
         -1   -1    0    0    0  501 -0.00000000000E+00  0.00000000000E+00  0.39985335709E+02  0.39985335709E+02  0.00000000000E+00 0.  1.
          1   -1    0    0  501    0  0.00000000000E+00 -0.00000000000E+00 -0.29232866490E+03  0.29232866490E+03  0.00000000000E+00 0. -1.
         23    2    1    2    0    0 -0.17413554893E+02 -0.52554730621E+02 -0.16112972610E+03  0.19247912743E+03  0.89555537285E+02 0.  0.
         23    2    1    2    0    0  0.17413554893E+02  0.52554730621E+02 -0.91213603087E+02  0.13983487318E+03  0.90380522035E+02 0.  0.
          5    1    4    4  502    0 -0.34733568369E+02  0.16829096612E+02 -0.53304532839E+02  0.65978045482E+02  0.47000000000E+01 0. -1.
         -5    1    4    4    0  502  0.52147123262E+02  0.35725634010E+02 -0.37909070247E+02  0.73856827693E+02  0.47000000000E+01 0.  1.
          5    1    3    3  503    0 -0.22828294798E+02 -0.74767043339E+02 -0.14254949118E+03  0.16264590142E+03  0.47000000000E+01 0. -1.
         -5    1    3    3    0  503  0.54147399056E+01  0.22212312718E+02 -0.18580234924E+02  0.29833226013E+02  0.47000000000E+01 0.  1.
<mgrwt>
<rscale>  0 0.10581386E+03</rscale>
<asrwt>0</asrwt>
<pdfrwt beam="1">  1        1 0.44973640E-01 0.10598995E+03</pdfrwt>
<pdfrwt beam="2">  1       -1 0.61515902E-02 0.10598995E+03</pdfrwt>
<totfact> 0.10777084E+04</totfact>
</mgrwt>
</event>
<event>
 8    1  0.3177960E-004  0.9802871E+02  0.7546771E-02  0.1285635E+00
         -2   -1    0    0    0  501 -0.00000000000E+00  0.00000000000E+00  0.12206016171E+02  0.12206016171E+02  0.00000000000E+00 0.  1.
          2   -1    0    0  501    0  0.00000000000E+00 -0.00000000000E+00 -0.82897475175E+03  0.82897475175E+03  0.00000000000E+00 0. -1.
         23    2    1    2    0    0 -0.33104585833E+01 -0.35715893990E+02 -0.51587431950E+03  0.52472053598E+03  0.88987320110E+02 0.  0.
         23    2    1    2    0    0  0.33104585833E+01  0.35715893990E+02 -0.30089441608E+03  0.31646023194E+03  0.91230721538E+02 0.  0.
          5    1    3    3  502    0 -0.14586647087E+02 -0.62914188483E+02 -0.39173286945E+03  0.39704873302E+03  0.47000000000E+01 0. -1.
         -5    1    4    4    0  503  0.27116394086E+02  0.56048992963E+02 -0.15368967959E+03  0.16588971051E+03  0.47000000000E+01 0.  1.
          5    1    4    4  503    0 -0.23805935503E+02 -0.20333098973E+02 -0.14720473649E+03  0.15057052143E+03  0.47000000000E+01 0. -1.
         -5    1    3    3    0  502  0.11276188504E+02  0.27198294493E+02 -0.12414145004E+03  0.12767180295E+03  0.47000000000E+01 0.  1.
<mgrwt>
<rscale>  0 0.97503428E+02</rscale>
<asrwt>0</asrwt>
<pdfrwt beam="1">  1        2 0.12753458E+00 0.98028714E+02</pdfrwt>
<pdfrwt beam="2">  1       -2 0.18778486E-02 0.98028714E+02</pdfrwt>
<totfact> 0.26373524E+04</totfact>
</mgrwt>
</event>
<event>
 8    1  0.3177960E-004  0.1071812E+03  0.7546771E-02  0.1272683E+00
          2   -1    0    0  501    0  0.00000000000E+00  0.00000000000E+00  0.38148942695E+03  0.38148942695E+03  0.00000000000E+00 0. -1.
         -2   -1    0    0    0  501 -0.00000000000E+00 -0.00000000000E+00 -0.26574859757E+02  0.26574859757E+02  0.00000000000E+00 0.  1.
         23    2    1    2    0    0  0.55632476322E+02 -0.15089158871E+02  0.15588770604E+03  0.18201230927E+03  0.74194667550E+02 0.  0.
         23    2    1    2    0    0 -0.55632476322E+02  0.15089158871E+02  0.19902686116E+03  0.22605197744E+03  0.90361219047E+02 0.  0.
          5    1    3    3  502    0  0.48940005628E+02  0.69785239491E+01  0.14963786709E+03  0.15766231387E+03  0.47000000000E+01 0. -1.
         -5    1    4    4    0  503 -0.21173112062E+02 -0.37976133478E+02  0.80600099082E+02  0.91700345476E+02  0.47000000000E+01 0.  1.
          5    1    4    4  503    0 -0.34459364260E+02  0.53065292349E+02  0.11842676207E+03  0.13435163197E+03  0.47000000000E+01 0. -1.
         -5    1    3    3    0  502  0.66924706936E+01 -0.22067682820E+02  0.62498389537E+01  0.24349995400E+02  0.47000000000E+01 0.  1.
<mgrwt>
<rscale>  0 0.10370952E+03</rscale>
<asrwt>0</asrwt>
<pdfrwt beam="1">  1        2 0.58690677E-01 0.10718118E+03</pdfrwt>
<pdfrwt beam="2">  1       -2 0.40884402E-02 0.10718118E+03</pdfrwt>
<totfact> 0.20480482E+04</totfact>
</mgrwt>
</event>
<event>
 8    1  0.3177960E-004  0.9600295E+02  0.7546771E-02  0.1290528E+00
         -1   -1    0    0    0  501 -0.00000000000E+00  0.00000000000E+00  0.43712428824E+03  0.43712428824E+03  0.00000000000E+00 0.  1.
          1   -1    0    0  501    0  0.00000000000E+00 -0.00000000000E+00 -0.22838571854E+02  0.22838571854E+02  0.00000000000E+00 0. -1.
         23    2    1    2    0    0  0.25068114811E+02 -0.51614575744E+01  0.13583460086E+03  0.16633581770E+03  0.92528452031E+02 0.  0.
         23    2    1    2    0    0 -0.25068114811E+02  0.51614575744E+01  0.27845111553E+03  0.29362704240E+03  0.89592216527E+02 0.  0.
          5    1    3    3  502    0  0.74486016260E+01 -0.32579202060E+02  0.12815450138E+03  0.13252378012E+03  0.47000000000E+01 0. -1.
         -5    1    3    3    0  502  0.17619513185E+02  0.27417744485E+02  0.76800994806E+01  0.33812037584E+02  0.47000000000E+01 0.  1.
          5    1    4    4  503    0 -0.51899293755E+02 -0.25457997350E+01  0.98517229766E+02  0.11147982934E+03  0.47000000000E+01 0. -1.
         -5    1    4    4    0  503  0.26831178944E+02  0.77072573094E+01  0.17993388576E+03  0.18214721306E+03  0.47000000000E+01 0.  1.
<mgrwt>
<rscale>  0 0.95288336E+02</rscale>
<asrwt>0</asrwt>
<pdfrwt beam="1">  1        1 0.35136268E-02 0.96002945E+02</pdfrwt>
<pdfrwt beam="2">  1       -1 0.67249884E-01 0.96002945E+02</pdfrwt>
<totfact> 0.58617655E+03</totfact>
</mgrwt>
</event>
<event>
 7    1  0.3177960E-004  0.1957751E+03  0.7546771E-02  0.1168772E+00
          1   -1    0    0  501    0  0.00000000000E+00  0.00000000000E+00  0.12470841121E+03  0.12470841121E+03  0.00000000000E+00 0. -1.
         -1   -1    0    0    0  501 -0.00000000000E+00 -0.00000000000E+00 -0.41887467145E+03  0.41887467145E+03  0.00000000000E+00 0.  1.
         23    2    1    2    0    0 -0.83141253274E+02 -0.59363059356E+02 -0.31816897416E+03  0.34634204030E+03  0.91021271975E+02 0.  0.
          5    1    3    3  502    0 -0.26946352387E+02  0.12064736307E+02 -0.23756885517E+02  0.38185643619E+02  0.47000000000E+01 0. -1.
         -5    1    1    2    0  503 -0.22357898404E+02 -0.26006717085E+02 -0.34959269922E+02  0.49198226676E+02  0.47000000000E+01 0.  1.
          5    1    1    2  503    0  0.10549915168E+03  0.85369776440E+02  0.58961983842E+02  0.14804281567E+03  0.47000000000E+01 0. -1.
         -5    1    3    3    0  502 -0.56194900887E+02 -0.71427795662E+02 -0.29441208864E+03  0.30815639669E+03  0.47000000000E+01 0.  1.
<mgrwt>
<rscale>  0 0.17900294E+03</rscale>
<asrwt>0</asrwt>
<pdfrwt beam="1">  1        1 0.19185909E-01 0.19577512E+03</pdfrwt>
<pdfrwt beam="2">  1       -1 0.64442258E-01 0.19577512E+03</pdfrwt>
<totfact> 0.68129548E+02</totfact>
</mgrwt>
</event>
<event>
 7    1  0.3177960E-004  0.2313551E+03  0.7546771E-02  0.1159683E+00
          3   -1    0    0  501    0  0.00000000000E+00  0.00000000000E+00  0.14780191024E+04  0.14780191024E+04  0.00000000000E+00 0. -1.
         -3   -1    0    0    0  501 -0.00000000000E+00 -0.00000000000E+00 -0.19996570915E+02  0.19996570915E+02  0.00000000000E+00 0.  1.
         23    2    1    2    0    0 -0.46015647308E+02 -0.40432875124E+01  0.63125889303E+03  0.63949175452E+03  0.91258567219E+02 0.  0.
          5    1    3    3  502    0 -0.55078071435E+02  0.24793400226E+02  0.53668302080E+03  0.54009171578E+03  0.47000000000E+01 0. -1.
         -5    1    1    2    0  503 -0.17548204201E+02 -0.10052812273E+03  0.27573509191E+03  0.29405063142E+03  0.47000000000E+01 0.  1.
          5    1    1    2  503    0  0.63563851510E+02  0.10457141024E+03  0.55102854657E+03  0.56447328740E+03  0.47000000000E+01 0. -1.
         -5    1    3    3    0  502  0.90624241263E+01 -0.28836687738E+02  0.94575872238E+02  0.99400038734E+02  0.47000000000E+01 0.  1.
<mgrwt>
<rscale>  0 0.18865172E+03</rscale>
<asrwt>0</asrwt>
<pdfrwt beam="1">  1        3 0.22738747E+00 0.23135515E+03</pdfrwt>
<pdfrwt beam="2">  1       -3 0.30763967E-02 0.23135515E+03</pdfrwt>
<totfact> 0.13507313E+02</totfact>
</mgrwt>
</event>
<event>
 8    1  0.3177960E-004  0.9739094E+02  0.7546771E-02  0.1288426E+00
          3   -1    0    0  501    0  0.00000000000E+00  0.00000000000E+00  0.49925982490E+03  0.49925982490E+03  0.00000000000E+00 0. -1.
         -3   -1    0    0    0  501 -0.00000000000E+00 -0.00000000000E+00 -0.19372227402E+02  0.19372227402E+02  0.00000000000E+00 0.  1.
         23    2    1    2    0    0 -0.16805450177E+02 -0.47986591519E+01  0.17940147037E+03  0.20413202453E+03  0.95809945104E+02 0.  0.
         23    2    1    2    0    0  0.16805450177E+02  0.47986591519E+01  0.30048612713E+03  0.31450002778E+03  0.91175131420E+02 0.  0.
          5    1    4    4  502    0 -0.34978154350E+02 -0.99846068969E+01  0.90081403689E+02  0.97262083810E+02  0.47000000000E+01 0. -1.
         -5    1    4    4    0  502  0.51783604527E+02  0.14783266049E+02  0.21040472344E+03  0.21723794397E+03  0.47000000000E+01 0.  1.
          5    1    3    3  503    0 -0.53638661335E+02 -0.62854679216E+00  0.68661882324E+02  0.87258496120E+02  0.47000000000E+01 0. -1.
         -5    1    3    3    0  503  0.36833211158E+02 -0.41701123598E+01  0.11073958805E+03  0.11687352841E+03  0.47000000000E+01 0.  1.
<mgrwt>
<rscale>  0 0.96231438E+02</rscale>
<asrwt>0</asrwt>
<pdfrwt beam="1">  1        3 0.76809194E-01 0.97390943E+02</pdfrwt>
<pdfrwt beam="2">  1       -3 0.29803431E-02 0.97390943E+02</pdfrwt>
<totfact> 0.18138182E+03</totfact>
</mgrwt>
</event>
<event>
 8    1  0.3177960E-004  0.1747668E+03  0.7546771E-02  0.1173688E+00
         -1   -1    0    0    0  501 -0.00000000000E+00  0.00000000000E+00  0.29397531528E+03  0.29397531528E+03  0.00000000000E+00 0.  1.
          1   -1    0    0  501    0  0.00000000000E+00 -0.00000000000E+00 -0.11586587655E+03  0.11586587655E+03  0.00000000000E+00 0. -1.
         23    2    1    2    0    0  0.37293033980E+02 -0.14173472799E+03  0.16003800758E+03  0.23697171441E+03  0.95204653555E+02 0.  0.
         23    2    1    2    0    0 -0.37293033980E+02  0.14173472799E+03  0.18071431151E+02  0.17286947741E+03  0.89876449063E+02 0.  0.
          5    1    3    3  502    0 -0.24832599155E+02 -0.76451962124E+02  0.10084918345E+03  0.12905118479E+03  0.47000000000E+01 0. -1.
         -5    1    4    4    0  503 -0.23294635714E+02  0.40852278715E+02  0.47239167905E+02  0.66821985257E+02  0.47000000000E+01 0.  1.
          5    1    4    4  503    0 -0.13998398265E+02  0.10088244927E+03 -0.29167736754E+02  0.10604749216E+03  0.47000000000E+01 0. -1.
         -5    1    3    3    0  502  0.62125633135E+02 -0.65282765864E+02  0.59188824132E+02  0.10792052962E+03  0.47000000000E+01 0.  1.
<mgrwt>
<rscale>  0 0.17405128E+03</rscale>
<asrwt>0</asrwt>
<pdfrwt beam="1">  1        1 0.17825520E-01 0.17476679E+03</pdfrwt>
<pdfrwt beam="2">  1       -1 0.45226971E-01 0.17476679E+03</pdfrwt>
<totfact> 0.14498746E+03</totfact>
</mgrwt>
</event>
<event>
 8    1  0.3177960E-004  0.9526268E+02  0.7546771E-02  0.1291484E+00
         -2   -1    0    0    0  501 -0.00000000000E+00  0.00000000000E+00  0.93487918835E+02  0.93487918835E+02  0.00000000000E+00 0.  1.
          2   -1    0    0  501    0  0.00000000000E+00 -0.00000000000E+00 -0.95565994657E+02  0.95565994657E+02  0.00000000000E+00 0. -1.
         23    2    1    2    0    0  0.14427981142E+02 -0.22364496784E+01  0.20928030743E+01  0.95285665446E+02  0.94137186424E+02 0.  0.
         23    2    1    2    0    0 -0.14427981142E+02  0.22364496784E+01 -0.41708788959E+01  0.93768248046E+02  0.92530642297E+02 0.  0.
          5    1    3    3  502    0  0.41793716302E+02  0.13330016754E+02 -0.27363299264E+02  0.51915741501E+02  0.47000000000E+01 0. -1.
         -5    1    3    3    0  502 -0.27365735160E+02 -0.15566466432E+02  0.29456102338E+02  0.43369923945E+02  0.47000000000E+01 0.  1.
          5    1    4    4  503    0  0.24545426745E+02  0.62403459845E+01  0.31420048142E+02  0.40629168308E+02  0.47000000000E+01 0. -1.
         -5    1    4    4    0  503 -0.38973407887E+02 -0.40038963061E+01 -0.35590927038E+02  0.53139079738E+02  0.47000000000E+01 0.  1.
<mgrwt>
<rscale>  0 0.94863366E+02</rscale>
<asrwt>0</asrwt>
<pdfrwt beam="1">  1        2 0.14702461E-01 0.95262680E+02</pdfrwt>
<pdfrwt beam="2">  1       -2 0.14382757E-01 0.95262680E+02</pdfrwt>
<totfact> 0.13227128E+04</totfact>
</mgrwt>
</event>
<event>
 8    1  0.3177960E-004  0.1049011E+03  0.7546771E-02  0.1271161E+00
         -1   -1    0    0    0  501 -0.00000000000E+00  0.00000000000E+00  0.25300263101E+02  0.25300263101E+02  0.00000000000E+00 0.  1.
          1   -1    0    0  501    0  0.00000000000E+00 -0.00000000000E+00 -0.43325515024E+03  0.43325515024E+03  0.00000000000E+00 0. -1.
         23    2    1    2    0    0 -0.13777635906E+02  0.50141075255E+02 -0.22776126969E+03  0.25005126641E+03  0.89143082633E+02 0.  0.
         23    2    1    2    0    0  0.13777635906E+02 -0.50141075255E+02 -0.18019361745E+03  0.20850414693E+03  0.91105921000E+02 0.  0.
          5    1    3    3  502    0 -0.50150772998E+02  0.18863974669E+02 -0.10088874323E+03  0.11433100228E+03  0.47000000000E+01 0. -1.
         -5    1    3    3    0  502  0.36373137092E+02  0.31277100586E+02 -0.12687252647E+03  0.13572026413E+03  0.47000000000E+01 0.  1.
          5    1    4    4  503    0 -0.10557751592E+02  0.18201697910E+02 -0.10683083449E+02  0.24062132022E+02  0.47000000000E+01 0. -1.
         -5    1    4    4    0  503  0.24335387498E+02 -0.68342773164E+02 -0.16951053400E+03  0.18444201491E+03  0.47000000000E+01 0.  1.
<mgrwt>
<rscale>  0 0.10447345E+03</rscale>
<asrwt>0</asrwt>
<pdfrwt beam="1">  1        1 0.66654643E-01 0.10490109E+03</pdfrwt>
<pdfrwt beam="2">  1       -1 0.38923479E-02 0.10490109E+03</pdfrwt>
<totfact> 0.12947323E+04</totfact>
</mgrwt>
</event>
<event>
 8    1  0.3177960E-004  0.1163455E+03  0.7546771E-02  0.1249367E+00
          1   -1    0    0  501    0  0.00000000000E+00  0.00000000000E+00  0.22665875300E+03  0.22665875300E+03  0.00000000000E+00 0. -1.
         -1   -1    0    0    0  501 -0.00000000000E+00 -0.00000000000E+00 -0.61684135464E+02  0.61684135464E+02  0.00000000000E+00 0.  1.
         23    2    1    2    0    0  0.71122397470E+02  0.41072483959E+01  0.10900767639E+03  0.15923601617E+03  0.91641532190E+02 0.  0.
         23    2    1    2    0    0 -0.71122397470E+02 -0.41072483959E+01  0.55966941153E+02  0.12910687230E+03  0.91983808696E+02 0.  0.
          5    1    4    4  502    0 -0.53778174287E+02 -0.28673890147E+02  0.72208930550E+02  0.94607101515E+02  0.47000000000E+01 0. -1.
         -5    1    4    4    0  502 -0.17344223183E+02  0.24566641751E+02 -0.16241989397E+02  0.34499770787E+02  0.47000000000E+01 0.  1.
          5    1    3    3  503    0  0.38051923041E+02 -0.21495257911E+02  0.10858887688E+03  0.11714789431E+03  0.47000000000E+01 0. -1.
         -5    1    3    3    0  503  0.33070474428E+02  0.25602506307E+02  0.41879950559E+00  0.42088121853E+02  0.47000000000E+01 0.  1.
<mgrwt>
<rscale>  0 0.11627788E+03</rscale>
<asrwt>0</asrwt>
<pdfrwt beam="1">  1        1 0.34870577E-01 0.11634555E+03</pdfrwt>
<pdfrwt beam="2">  1       -1 0.94898671E-02 0.11634555E+03</pdfrwt>
<totfact> 0.77533958E+03</totfact>
</mgrwt>
</event>
<event>
 8    1  0.4111006E-004  0.1845594E+03  0.7546771E-02  0.1164412E+00
         -2   -1    0    0    0  501 -0.00000000000E+00  0.00000000000E+00  0.12293845848E+04  0.12293845848E+04  0.00000000000E+00 0.  1.
          2   -1    0    0  501    0  0.00000000000E+00 -0.00000000000E+00 -0.18043929437E+03  0.18043929437E+03  0.00000000000E+00 0. -1.
         23    2    1    2    0    0  0.23542886279E+01 -0.16014101057E+03 -0.12619452728E+03  0.22027952283E+03  0.83350606007E+02 0.  0.
         23    2    1    2    0    0 -0.23542886279E+01  0.16014101057E+03  0.11751398177E+04  0.11895443563E+04  0.91714222598E+02 0.  0.
          5    1    3    3  502    0 -0.20231162813E+02 -0.15529796023E+03 -0.10527752350E+03  0.18876494207E+03  0.47000000000E+01 0. -1.
         -5    1    4    4    0  503  0.25074866482E+02  0.79868575925E+02  0.34386447180E+03  0.35393869994E+03  0.47000000000E+01 0.  1.
          5    1    4    4  503    0 -0.27429155110E+02  0.80272434644E+02  0.83127534588E+03  0.83560565639E+03  0.47000000000E+01 0. -1.
         -5    1    3    3    0  502  0.22585451441E+02 -0.48430503378E+01 -0.20917003772E+02  0.31514580755E+02  0.47000000000E+01 0.  1.
<mgrwt>
<rscale>  0 0.18354860E+03</rscale>
<asrwt>0</asrwt>
<pdfrwt beam="1">  1        2 0.27759892E-01 0.18455943E+03</pdfrwt>
<pdfrwt beam="2">  1       -2 0.18913609E+00 0.18455943E+03</pdfrwt>
<totfact> 0.33142646E+01</totfact>
</mgrwt>
</event>
<event>
 8    1  0.3177960E-004  0.1160220E+03  0.7546771E-02  0.1250190E+00
          1   -1    0    0  501    0  0.00000000000E+00  0.00000000000E+00  0.63437438571E+03  0.63437438571E+03  0.00000000000E+00 0. -1.
         -1   -1    0    0    0  501 -0.00000000000E+00 -0.00000000000E+00 -0.10194175779E+03  0.10194175779E+03  0.00000000000E+00 0.  1.
         23    2    1    2    0    0 -0.57464938260E+02 -0.40042287542E+02 -0.61508236940E+02  0.13131781318E+03  0.92495950868E+02 0.  0.
         23    2    1    2    0    0  0.57464938260E+02  0.40042287542E+02  0.59394086486E+03  0.60499833032E+03  0.91387224580E+02 0.  0.
          5    1    3    3  502    0 -0.35567369597E+02 -0.29855419631E+01  0.18401795989E+02  0.40431019484E+02  0.47000000000E+01 0. -1.
         -5    1    4    4    0  503 -0.11032144312E+02  0.40454545582E+02  0.31083173105E+03  0.31368253616E+03  0.47000000000E+01 0.  1.
          5    1    4    4  503    0  0.68497082572E+02 -0.41225804043E+00  0.28310913382E+03  0.29131579416E+03  0.47000000000E+01 0. -1.
         -5    1    3    3    0  502 -0.21897568663E+02 -0.37056745578E+02 -0.79910032929E+02  0.90886793699E+02  0.47000000000E+01 0.  1.
<mgrwt>
<rscale>  0 0.11580088E+03</rscale>
<asrwt>0</asrwt>
<pdfrwt beam="1">  1        1 0.97596057E-01 0.11602200E+03</pdfrwt>
<pdfrwt beam="2">  1       -1 0.15683348E-01 0.11602200E+03</pdfrwt>
<totfact> 0.97204832E+02</totfact>
</mgrwt>
</event>
<event>
 8    1  0.3177960E-004  0.1094005E+03  0.7546771E-02  0.1263003E+00
          1   -1    0    0  501    0  0.00000000000E+00  0.00000000000E+00  0.13411609842E+03  0.13411609842E+03  0.00000000000E+00 0. -1.
         -1   -1    0    0    0  501 -0.00000000000E+00 -0.00000000000E+00 -0.90506951268E+02  0.90506951268E+02  0.00000000000E+00 0.  1.
         23    2    1    2    0    0 -0.50338544457E+02 -0.25581776353E+02  0.43707217923E+02  0.11522246005E+03  0.90429519865E+02 0.  0.
         23    2    1    2    0    0  0.50338544457E+02  0.25581776353E+02 -0.98070773918E-01  0.10940058963E+03  0.93702097385E+02 0.  0.
          5    1    3    3  502    0 -0.12358947758E+02  0.25800516111E+02 -0.10967493787E+02  0.30996550473E+02  0.47000000000E+01 0. -1.
         -5    1    3    3    0  502 -0.37979596699E+02 -0.51382292463E+02  0.54674711710E+02  0.84225909581E+02  0.47000000000E+01 0.  1.
          5    1    4    4  503    0  0.10481201650E+02  0.39387115831E+02  0.35308538513E+02  0.54129320829E+02  0.47000000000E+01 0. -1.
         -5    1    4    4    0  503  0.39857342807E+02 -0.13805339478E+02 -0.35406609287E+02  0.55271268802E+02  0.47000000000E+01 0.  1.
<mgrwt>
<rscale>  0 0.10869638E+03</rscale>
<asrwt>0</asrwt>
<pdfrwt beam="1">  1        1 0.20633246E-01 0.10940055E+03</pdfrwt>
<pdfrwt beam="2">  1       -1 0.13924146E-01 0.10940055E+03</pdfrwt>
<totfact> 0.82404103E+03</totfact>
</mgrwt>
</event>
<event>
 8    1  0.3177960E-004  0.9295356E+02  0.7546771E-02  0.1296736E+00
          1   -1    0    0  501    0  0.00000000000E+00  0.00000000000E+00  0.28977673718E+03  0.28977673718E+03  0.00000000000E+00 0. -1.
         -1   -1    0    0    0  501 -0.00000000000E+00 -0.00000000000E+00 -0.32054792073E+02  0.32054792073E+02  0.00000000000E+00 0.  1.
         23    2    1    2    0    0 -0.90010003921E+01 -0.57565214583E+01  0.82956523014E+02  0.12458791525E+03  0.92337470017E+02 0.  0.
         23    2    1    2    0    0  0.90010003921E+01  0.57565214583E+01  0.17476542209E+03  0.19724361400E+03  0.90818142225E+02 0.  0.
          5    1    4    4  502    0 -0.28457766816E+02  0.16306139581E+02  0.14300420490E+03  0.14679246336E+03  0.47000000000E+01 0. -1.
         -5    1    3    3    0  503 -0.49594552015E+02 -0.10398899883E+02  0.54557501917E+02  0.74608094224E+02  0.47000000000E+01 0.  1.
          5    1    3    3  503    0  0.40593551623E+02  0.46423784244E+01  0.28399021097E+02  0.49979821028E+02  0.47000000000E+01 0. -1.
         -5    1    4    4    0  502  0.37458767208E+02 -0.10549618122E+02  0.31761217191E+02  0.50451150639E+02  0.47000000000E+01 0.  1.
<mgrwt>
<rscale>  0 0.92573966E+02</rscale>
<asrwt>0</asrwt>
<pdfrwt beam="1">  1        1 0.44581035E-01 0.92953558E+02</pdfrwt>
<pdfrwt beam="2">  1       -1 0.49315067E-02 0.92953558E+02</pdfrwt>
<totfact> 0.14904533E+04</totfact>
</mgrwt>
</event>
<event>
 8    1  0.3177960E-004  0.9291443E+02  0.7546771E-02  0.1296298E+00
         -1   -1    0    0    0  501 -0.00000000000E+00  0.00000000000E+00  0.40718582294E+02  0.40718582294E+02  0.00000000000E+00 0.  1.
          1   -1    0    0  501    0  0.00000000000E+00 -0.00000000000E+00 -0.28101514657E+03  0.28101514657E+03  0.00000000000E+00 0. -1.
         23    2    1    2    0    0  0.12699843122E+02 -0.76920013830E+01 -0.20095314023E+03  0.22139389305E+03  0.91720436174E+02 0.  0.
         23    2    1    2    0    0 -0.12699843122E+02  0.76920013830E+01 -0.39343424045E+02  0.10033983581E+03  0.91102825063E+02 0.  0.
          5    1    4    4  502    0 -0.98670309265E+01 -0.41186323722E+02 -0.23519527411E+02  0.48671652229E+02  0.47000000000E+01 0. -1.
         -5    1    4    4    0  502 -0.28328121952E+01  0.48878325105E+02 -0.15823896634E+02  0.51668183582E+02  0.47000000000E+01 0.  1.
          5    1    3    3  503    0  0.46488208354E+02 -0.11617504327E+02 -0.63346870656E+02  0.79567807213E+02  0.47000000000E+01 0. -1.
         -5    1    3    3    0  503 -0.33788365232E+02  0.39255029444E+01 -0.13760626958E+03  0.14182608584E+03  0.47000000000E+01 0.  1.
<mgrwt>
<rscale>  0 0.92761648E+02</rscale>
<asrwt>0</asrwt>
<pdfrwt beam="1">  1        1 0.43233098E-01 0.92914430E+02</pdfrwt>
<pdfrwt beam="2">  1       -1 0.62643975E-02 0.92914430E+02</pdfrwt>
<totfact> 0.10885295E+04</totfact>
</mgrwt>
</event>
<event>
 8    1  0.3177960E-004  0.9846098E+02  0.7546771E-02  0.1290047E+00
         -1   -1    0    0    0  501 -0.00000000000E+00  0.00000000000E+00  0.83168355592E+02  0.83168355592E+02  0.00000000000E+00 0.  1.
          1   -1    0    0  501    0  0.00000000000E+00 -0.00000000000E+00 -0.10356756027E+03  0.10356756027E+03  0.00000000000E+00 0. -1.
         23    2    1    2    0    0  0.19592431844E+02  0.34776087679E+02 -0.88489340178E+01  0.87599778050E+02  0.77473723425E+02 0.  0.
         23    2    1    2    0    0 -0.19592431844E+02 -0.34776087679E+02 -0.11550270659E+02  0.99136137811E+02  0.90007363077E+02 0.  0.
          5    1    3    3  502    0 -0.26044589735E+01  0.55697459324E+02 -0.93573497567E+01  0.56733060698E+02  0.47000000000E+01 0. -1.
         -5    1    4    4    0  503  0.29191988935E+02 -0.73160154540E+01  0.18284886088E+02  0.35526375545E+02  0.47000000000E+01 0.  1.
          5    1    4    4  503    0 -0.48784420780E+02 -0.27460072225E+02 -0.29835156747E+02  0.63609762266E+02  0.47000000000E+01 0. -1.
         -5    1    3    3    0  502  0.22196890818E+02 -0.20921371645E+02  0.50841573895E+00  0.30866717352E+02  0.47000000000E+01 0.  1.
<mgrwt>
<rscale>  0 0.95503014E+02</rscale>
<asrwt>0</asrwt>
<pdfrwt beam="1">  1        1 0.15933471E-01 0.98460982E+02</pdfrwt>
<pdfrwt beam="2">  1       -1 0.12795132E-01 0.98460982E+02</pdfrwt>
<totfact> 0.12908990E+04</totfact>
</mgrwt>
</event>
<event>
 8    1  0.3177960E-004  0.1108722E+03  0.7546771E-02  0.1259712E+00
         -1   -1    0    0    0  501 -0.00000000000E+00  0.00000000000E+00  0.50019568200E+02  0.50019568200E+02  0.00000000000E+00 0.  1.
          1   -1    0    0  501    0  0.00000000000E+00 -0.00000000000E+00 -0.24587149144E+03  0.24587149144E+03  0.00000000000E+00 0. -1.
         23    2    1    2    0    0  0.64316757853E+02 -0.63558098287E+01 -0.11535766557E+03  0.15888018697E+03  0.88082240816E+02 0.  0.
         23    2    1    2    0    0 -0.64316757853E+02  0.63558098287E+01 -0.80494257663E+02  0.13701087266E+03  0.90086691867E+02 0.  0.
          5    1    3    3  502    0  0.46138175077E+02 -0.20267491129E+02 -0.12402632675E+03  0.13395567223E+03  0.47000000000E+01 0. -1.
         -5    1    4    4    0  503 -0.46048154820E+02  0.46939629265E+02 -0.51911240119E+02  0.83908451353E+02  0.47000000000E+01 0.  1.
          5    1    4    4  503    0 -0.18268603033E+02 -0.40583819437E+02 -0.28583017544E+02  0.53102421308E+02  0.47000000000E+01 0. -1.
         -5    1    3    3    0  502  0.18178582776E+02  0.13911681300E+02  0.86686611793E+01  0.24924514740E+02  0.47000000000E+01 0.  1.
<mgrwt>
<rscale>  0 0.11046439E+03</rscale>
<asrwt>0</asrwt>
<pdfrwt beam="1">  1        1 0.37826382E-01 0.11087224E+03</pdfrwt>
<pdfrwt beam="2">  1       -1 0.76953184E-02 0.11087224E+03</pdfrwt>
<totfact> 0.95837643E+03</totfact>
</mgrwt>
</event>
<event>
 8    1  0.3177960E-004  0.1184381E+03  0.7546771E-02  0.1249080E+00
          2   -1    0    0  501    0  0.00000000000E+00  0.00000000000E+00  0.45217087765E+03  0.45217087765E+03  0.00000000000E+00 0. -1.
         -2   -1    0    0    0  501 -0.00000000000E+00 -0.00000000000E+00 -0.40448374258E+02  0.40448374258E+02  0.00000000000E+00 0.  1.
         23    2    1    2    0    0  0.55126780177E+02  0.26689061018E+02  0.69979435720E+02  0.13093442903E+03  0.92170686293E+02 0.  0.
         23    2    1    2    0    0 -0.55126780177E+02 -0.26689061018E+02  0.34174306767E+03  0.36168482287E+03  0.10137218024E+03 0.  0.
          5    1    3    3  502    0  0.38015734583E+02  0.33666759093E+01  0.88344281470E+02  0.96350052678E+02  0.47000000000E+01 0. -1.
         -5    1    3    3    0  502  0.17111045594E+02  0.23322385108E+02 -0.18364845749E+02  0.34584376355E+02  0.47000000000E+01 0.  1.
          5    1    4    4  503    0 -0.83577969298E+02 -0.16059529802E+02  0.28047109447E+03  0.29313701622E+03  0.47000000000E+01 0. -1.
         -5    1    4    4    0  503  0.28451189120E+02 -0.10629531215E+02  0.61271973202E+02  0.68547806648E+02  0.47000000000E+01 0.  1.
<mgrwt>
<rscale>  0 0.11644504E+03</rscale>
<asrwt>0</asrwt>
<pdfrwt beam="1">  1        2 0.69564747E-01 0.11843811E+03</pdfrwt>
<pdfrwt beam="2">  1       -2 0.62228271E-02 0.11843811E+03</pdfrwt>
<totfact> 0.91949074E+03</totfact>
</mgrwt>
</event>
<event>
 8    1  0.3177960E-004  0.1022775E+03  0.7546771E-02  0.1275789E+00
          2   -1    0    0  501    0  0.00000000000E+00  0.00000000000E+00  0.47488142039E+03  0.47488142039E+03  0.00000000000E+00 0. -1.
         -2   -1    0    0    0  501 -0.00000000000E+00 -0.00000000000E+00 -0.26923265748E+02  0.26923265748E+02  0.00000000000E+00 0.  1.
         23    2    1    2    0    0  0.44363857516E+02  0.99033777079E+01  0.11639612503E+03  0.15494752691E+03  0.91621228048E+02 0.  0.
         23    2    1    2    0    0 -0.44363857516E+02 -0.99033777079E+01  0.33156202961E+03  0.34685715923E+03  0.91160740921E+02 0.  0.
          5    1    3    3  502    0 -0.14899647514E+02  0.29093211265E+02  0.69125756474E+02  0.76608580759E+02  0.47000000000E+01 0. -1.
         -5    1    4    4    0  503 -0.10419447679E+02  0.36055522431E+02  0.19690060653E+03  0.20050063451E+03  0.47000000000E+01 0.  1.
          5    1    4    4  503    0 -0.33944409838E+02 -0.45958900139E+02  0.13466142308E+03  0.14635652471E+03  0.47000000000E+01 0. -1.
         -5    1    3    3    0  502  0.59263505030E+02 -0.19189833557E+02  0.47270368559E+02  0.78338946151E+02  0.47000000000E+01 0.  1.
<mgrwt>
<rscale>  0 0.10217422E+03</rscale>
<asrwt>0</asrwt>
<pdfrwt beam="1">  1        2 0.73058674E-01 0.10227746E+03</pdfrwt>
<pdfrwt beam="2">  1       -2 0.41420412E-02 0.10227746E+03</pdfrwt>
<totfact> 0.15839629E+04</totfact>
</mgrwt>
</event>
<event>
 7    1  0.3177960E-004  0.1427090E+03  0.7546771E-02  0.1231025E+00
         -1   -1    0    0    0  501 -0.00000000000E+00  0.00000000000E+00  0.33593258995E+02  0.33593258995E+02  0.00000000000E+00 0.  1.
          1   -1    0    0  501    0  0.00000000000E+00 -0.00000000000E+00 -0.46884103805E+03  0.46884103805E+03  0.00000000000E+00 0. -1.
         23    2    1    2    0    0  0.36327723362E+01  0.36189755003E+01 -0.87079949404E+02  0.12615421649E+03  0.91135474601E+02 0.  0.
          5    1    1    2  502    0  0.37534835079E+02 -0.45674355271E+02 -0.27949715247E+03  0.28571972073E+03  0.47000000000E+01 0. -1.
         -5    1    1    2    0  502 -0.41167607415E+02  0.42055379771E+02 -0.68670677183E+02  0.90560359832E+02  0.47000000000E+01 0.  1.
          5    1    3    3  503    0 -0.25418001000E+02 -0.32184898370E+02 -0.58860405346E+02  0.71892835355E+02  0.47000000000E+01 0. -1.
         -5    1    3    3    0  503  0.29050773337E+02  0.35803873870E+02 -0.28219544058E+02  0.54261381132E+02  0.47000000000E+01 0.  1.
<mgrwt>
<rscale>  0 0.12762390E+03</rscale>
<asrwt>0</asrwt>
<pdfrwt beam="1">  1        1 0.72129383E-01 0.14270901E+03</pdfrwt>
<pdfrwt beam="2">  1       -1 0.51681942E-02 0.14270901E+03</pdfrwt>
<totfact> 0.78962118E+03</totfact>
</mgrwt>
</event>
<event>
 8    1  0.3177960E-004  0.9907737E+02  0.7546771E-02  0.1284837E+00
         -2   -1    0    0    0  501 -0.00000000000E+00  0.00000000000E+00  0.29545632506E+02  0.29545632506E+02  0.00000000000E+00 0.  1.
          2   -1    0    0  501    0  0.00000000000E+00 -0.00000000000E+00 -0.77505956183E+03  0.77505956183E+03  0.00000000000E+00 0. -1.
         23    2    1    2    0    0 -0.85325141894E+01 -0.18697884209E+02 -0.68587617343E+03  0.69299527426E+03  0.96922186252E+02 0.  0.
         23    2    1    2    0    0  0.85325141894E+01  0.18697884209E+02 -0.59637755890E+02  0.11160992008E+03  0.92074413709E+02 0.  0.
          5    1    4    4  502    0  0.27231084843E+02  0.30183651180E+02 -0.74284756041E+02  0.84810964859E+02  0.47000000000E+01 0. -1.
         -5    1    3    3    0  503  0.20011059908E+02  0.32695424211E+02 -0.33196364312E+03  0.33420260866E+03  0.47000000000E+01 0.  1.
          5    1    3    3  503    0 -0.28543574097E+02 -0.51393308420E+02 -0.35391253031E+03  0.35879266560E+03  0.47000000000E+01 0. -1.
         -5    1    4    4    0  502 -0.18698570653E+02 -0.11485766971E+02  0.14647000151E+02  0.26798955219E+02  0.47000000000E+01 0.  1.
<mgrwt>
<rscale>  0 0.97871283E+02</rscale>
<asrwt>0</asrwt>
<pdfrwt beam="1">  1        2 0.11923993E+00 0.99077368E+02</pdfrwt>
<pdfrwt beam="2">  1       -2 0.45454820E-02 0.99077368E+02</pdfrwt>
<totfact> 0.79055872E+03</totfact>
</mgrwt>
</event>
<event>
 8    1  0.3177960E-004  0.1206177E+03  0.7546771E-02  0.1243190E+00
          2   -1    0    0  501    0  0.00000000000E+00  0.00000000000E+00  0.21817446901E+02  0.21817446901E+02  0.00000000000E+00 0. -1.
         -2   -1    0    0    0  501 -0.00000000000E+00 -0.00000000000E+00 -0.66053036232E+03  0.66053036232E+03  0.00000000000E+00 0.  1.
         23    2    1    2    0    0  0.78277684494E+02  0.55149809188E+01 -0.36135462936E+03  0.38095381502E+03  0.91601474415E+02 0.  0.
         23    2    1    2    0    0 -0.78277684494E+02 -0.55149809188E+01 -0.27735828607E+03  0.30139399421E+03  0.88050610390E+02 0.  0.
          5    1    4    4  502    0 -0.10012033150E+02  0.24104302489E+02 -0.19354690861E+02  0.32832183366E+02  0.47000000000E+01 0. -1.
         -5    1    4    4    0  502 -0.68265651345E+02 -0.29619283408E+02 -0.25800359520E+03  0.26856181084E+03  0.47000000000E+01 0.  1.
          5    1    3    3  503    0  0.37249736999E+02  0.43638417568E+02 -0.11934151434E+03  0.13250034506E+03  0.47000000000E+01 0. -1.
         -5    1    3    3    0  503  0.41027947496E+02 -0.38123436649E+02 -0.24201311501E+03  0.24845346996E+03  0.47000000000E+01 0.  1.
<mgrwt>
<rscale>  0 0.11994361E+03</rscale>
<asrwt>0</asrwt>
<pdfrwt beam="1">  1        2 0.33565301E-02 0.12061775E+03</pdfrwt>
<pdfrwt beam="2">  1       -2 0.10162006E+00 0.12061775E+03</pdfrwt>
<totfact> 0.21098437E+03</totfact>
</mgrwt>
</event>
<event>
 8    1  0.3177960E-004  0.9774562E+02  0.7546771E-02  0.1285822E+00
          3   -1    0    0  501    0  0.00000000000E+00  0.00000000000E+00  0.19950371949E+03  0.19950371949E+03  0.00000000000E+00 0. -1.
         -3   -1    0    0    0  501 -0.00000000000E+00 -0.00000000000E+00 -0.10823206020E+03  0.10823206020E+03  0.00000000000E+00 0.  1.
         23    2    1    2    0    0 -0.40207089360E+01 -0.35764079787E+02 -0.69723996878E+02  0.12006515499E+03  0.90878876530E+02 0.  0.
         23    2    1    2    0    0  0.40207089360E+01  0.35764079787E+02  0.16099565617E+03  0.18767062470E+03  0.89473049388E+02 0.  0.
          5    1    4    4  502    0 -0.21957377776E+02  0.12652419049E+02  0.14804187531E+03  0.15026874921E+03  0.47000000000E+01 0. -1.
         -5    1    3    3    0  503 -0.28556478684E+02 -0.31072705823E+02 -0.81616745622E+02  0.92002003717E+02  0.47000000000E+01 0.  1.
          5    1    3    3  503    0  0.24535769748E+02 -0.46913739640E+01  0.11892748744E+02  0.28063151275E+02  0.47000000000E+01 0. -1.
         -5    1    4    4    0  502  0.25978086712E+02  0.23111660738E+02  0.12953780867E+02  0.37401875488E+02  0.47000000000E+01 0.  1.
<mgrwt>
<rscale>  0 0.97417550E+02</rscale>
<asrwt>0</asrwt>
<pdfrwt beam="1">  1        3 0.30692880E-01 0.97745617E+02</pdfrwt>
<pdfrwt beam="2">  1       -3 0.16651086E-01 0.97745617E+02</pdfrwt>
<totfact> 0.69883306E+02</totfact>
</mgrwt>
</event>
<event>
 8    1  0.3177960E-004  0.1314341E+03  0.7546771E-02  0.1234241E+00
          1   -1    0    0  501    0  0.00000000000E+00  0.00000000000E+00  0.12403899135E+04  0.12403899135E+04  0.00000000000E+00 0. -1.
         -1   -1    0    0    0  501 -0.00000000000E+00 -0.00000000000E+00 -0.21041570273E+02  0.21041570273E+02  0.00000000000E+00 0.  1.
         23    2    1    2    0    0  0.41843007604E+02  0.50848283244E+02  0.10602662739E+04  0.10683817234E+04  0.11374774779E+03 0.  0.
         23    2    1    2    0    0 -0.41843007604E+02 -0.50848283244E+02  0.15908206937E+03  0.19304976042E+03  0.87319642738E+02 0.  0.
          5    1    4    4  502    0 -0.67039252023E+02 -0.42613002210E+02  0.97575583160E+02  0.12590954570E+03  0.47000000000E+01 0.  1.
         -5    1    4    4    0  502  0.25196244419E+02 -0.82352810347E+01  0.61506486207E+02  0.67140214716E+02  0.47000000000E+01 0. -1.
          5    1    3    3  503    0  0.75151386864E+02  0.86117714099E+01  0.53372272823E+03  0.53907692789E+03  0.47000000000E+01 0. -1.
         -5    1    3    3    0  503 -0.33308379261E+02  0.42236511834E+02  0.52654354565E+03  0.52930479548E+03  0.47000000000E+01 0.  1.
<mgrwt>
<rscale>  0 0.12553146E+03</rscale>
<asrwt>0</asrwt>
<pdfrwt beam="1">  1        1 0.19082916E+00 0.13143415E+03</pdfrwt>
<pdfrwt beam="2">  1       -1 0.32371656E-02 0.13143415E+03</pdfrwt>
<totfact> 0.35612407E+03</totfact>
</mgrwt>
</event>
<event>
 8    1  0.3177960E-004  0.1142657E+03  0.7546771E-02  0.1253492E+00
          1   -1    0    0  501    0  0.00000000000E+00  0.00000000000E+00  0.10155632050E+03  0.10155632050E+03  0.00000000000E+00 0. -1.
         -1   -1    0    0    0  501 -0.00000000000E+00 -0.00000000000E+00 -0.12764735263E+03  0.12764735263E+03  0.00000000000E+00 0.  1.
         23    2    1    2    0    0  0.60330830141E+02 -0.29767719064E+02 -0.21377149858E+02  0.11624812473E+03  0.92361885017E+02 0.  0.
         23    2    1    2    0    0 -0.60330830141E+02  0.29767719064E+02 -0.47138822668E+01  0.11295554839E+03  0.90613514794E+02 0.  0.
          5    1    4    4  502    0 -0.81932167692E+02  0.90637427819E+01 -0.30663870196E+01  0.82622782967E+02  0.47000000000E+01 0. -1.
         -5    1    4    4    0  502  0.21601337551E+02  0.20703976282E+02 -0.16474952472E+01  0.30332765427E+02  0.47000000000E+01 0.  1.
          5    1    3    3  503    0  0.38727751718E+02 -0.50559329141E+00  0.32700684024E+02  0.50906965274E+02  0.47000000000E+01 0. -1.
         -5    1    3    3    0  503  0.21603078423E+02 -0.29262125772E+02 -0.54077833882E+02  0.65341159459E+02  0.47000000000E+01 0.  1.
<mgrwt>
<rscale>  0 0.11391190E+03</rscale>
<asrwt>0</asrwt>
<pdfrwt beam="1">  1        1 0.15624049E-01 0.11426567E+03</pdfrwt>
<pdfrwt beam="2">  1       -1 0.19638054E-01 0.11426567E+03</pdfrwt>
<totfact> 0.68614190E+03</totfact>
</mgrwt>
</event>
<event>
 8    1  0.3177960E-004  0.9174381E+02  0.7546771E-02  0.1299689E+00
         -3   -1    0    0    0  501 -0.00000000000E+00  0.00000000000E+00  0.33666135728E+02  0.33666135728E+02  0.00000000000E+00 0.  1.
          3   -1    0    0  501    0  0.00000000000E+00 -0.00000000000E+00 -0.41660502983E+03  0.41660502983E+03  0.00000000000E+00 0. -1.
         23    2    1    2    0    0  0.15933819191E+01  0.86006959154E+01 -0.33472918183E+03  0.34663187048E+03  0.89629892504E+02 0.  0.
         23    2    1    2    0    0 -0.15933819191E+01 -0.86006959154E+01 -0.48209712270E+02  0.10363929507E+03  0.91325879627E+02 0.  0.
          5    1    4    4  502    0  0.30569793782E+02  0.27226918125E+02 -0.33416644273E+02  0.53052610463E+02  0.47000000000E+01 0. -1.
         -5    1    3    3    0  503 -0.30466547670E+02 -0.70065520516E-01 -0.42603292248E+02  0.52586556709E+02  0.47000000000E+01 0.  1.
          5    1    3    3  503    0  0.32059929589E+02  0.86707614359E+01 -0.29212588958E+03  0.29404531377E+03  0.47000000000E+01 0. -1.
         -5    1    4    4    0  502 -0.32163175701E+02 -0.35827614040E+02 -0.14793067998E+02  0.50586684610E+02  0.47000000000E+01 0.  1.
<mgrwt>
<rscale>  0 0.91318840E+02</rscale>
<asrwt>0</asrwt>
<pdfrwt beam="1">  1        3 0.64093082E-01 0.91743812E+02</pdfrwt>
<pdfrwt beam="2">  1       -3 0.51794055E-02 0.91743812E+02</pdfrwt>
<totfact> 0.11127665E+03</totfact>
</mgrwt>
</event>
<event>
 8    1  0.3177960E-004  0.9162905E+02  0.7546771E-02  0.1307818E+00
          1   -1    0    0  501    0  0.00000000000E+00  0.00000000000E+00  0.67440893290E+02  0.67440893290E+02  0.00000000000E+00 0. -1.
         -1   -1    0    0    0  501 -0.00000000000E+00 -0.00000000000E+00 -0.10786256361E+03  0.10786256361E+03  0.00000000000E+00 0.  1.
         23    2    1    2    0    0 -0.46491193453E+01  0.14704511870E+02 -0.31587456134E+02  0.96920846800E+02  0.90321903099E+02 0.  0.
         23    2    1    2    0    0  0.46491193453E+01 -0.14704511870E+02 -0.88342141811E+01  0.78382610096E+02  0.76341032513E+02 0.  0.
          5    1    4    4  502    0  0.14716116922E+01  0.24334472438E+02  0.18004940950E+02  0.30669204235E+02  0.47000000000E+01 0. -1.
         -5    1    4    4    0  502  0.31775076532E+01 -0.39038984308E+02 -0.26839155131E+02  0.47713405861E+02  0.47000000000E+01 0.  1.
          5    1    3    3  503    0 -0.20182469912E+02 -0.33116385781E+02 -0.24014773893E+02  0.45856585831E+02  0.47000000000E+01 0. -1.
         -5    1    3    3    0  503  0.15533350566E+02  0.47820897651E+02 -0.75726822404E+01  0.51064260969E+02  0.47000000000E+01 0.  1.
<mgrwt>
<rscale>  0 0.87980377E+02</rscale>
<asrwt>0</asrwt>
<pdfrwt beam="1">  1        1 0.10375522E-01 0.91629052E+02</pdfrwt>
<pdfrwt beam="2">  1       -1 0.16594241E-01 0.91629052E+02</pdfrwt>
<totfact> 0.14914873E+04</totfact>
</mgrwt>
</event>
<event>
 8    1  0.3177960E-004  0.1093119E+03  0.7546771E-02  0.1269691E+00
         -1   -1    0    0    0  501 -0.00000000000E+00  0.00000000000E+00  0.31336113958E+03  0.31336113958E+03  0.00000000000E+00 0.  1.
          1   -1    0    0  501    0  0.00000000000E+00 -0.00000000000E+00 -0.33041345360E+02  0.33041345360E+02  0.00000000000E+00 0. -1.
         23    2    1    2    0    0  0.57867576003E+01  0.16084072986E+02  0.16112364399E+03  0.19470472277E+03  0.10796720080E+03 0.  0.
         23    2    1    2    0    0 -0.57867576003E+01 -0.16084072986E+02  0.11919615022E+03  0.15169776217E+03  0.92262152861E+02 0.  0.
          5    1    3    3  502    0 -0.10707366631E+02 -0.40232948287E+02  0.31758083767E+02  0.52573793021E+02  0.47000000000E+01 0. -1.
         -5    1    4    4    0  503 -0.18901873975E+02  0.26890552439E+02  0.94603784653E+02  0.10026140195E+03  0.47000000000E+01 0.  1.
          5    1    4    4  503    0  0.13115116374E+02 -0.42974625424E+02  0.24592365570E+02  0.51436360215E+02  0.47000000000E+01 0. -1.
         -5    1    3    3    0  502  0.16494124231E+02  0.56317021273E+02  0.12936556023E+03  0.14213092975E+03  0.47000000000E+01 0.  1.
<mgrwt>
<rscale>  0 0.10521768E+03</rscale>
<asrwt>0</asrwt>
<pdfrwt beam="1">  1        1 0.50832841E-02 0.10931194E+03</pdfrwt>
<pdfrwt beam="2">  1       -1 0.48209404E-01 0.10931194E+03</pdfrwt>
<totfact> 0.66660985E+03</totfact>
</mgrwt>
</event>
<event>
 8    1  0.3177960E-004  0.1032358E+03  0.7546771E-02  0.1277147E+00
         -1   -1    0    0    0  501 -0.00000000000E+00  0.00000000000E+00  0.42277037555E+03  0.42277037555E+03  0.00000000000E+00 0.  1.
          1   -1    0    0  501    0  0.00000000000E+00 -0.00000000000E+00 -0.72569124460E+02  0.72569124460E+02  0.00000000000E+00 0. -1.
         23    2    1    2    0    0 -0.22406540019E+02 -0.45156728709E+02 -0.30239291666E+02  0.10114077420E+03  0.82303452312E+02 0.  0.
         23    2    1    2    0    0  0.22406540019E+02  0.45156728709E+02  0.38044054276E+03  0.39419872581E+03  0.90091318520E+02 0.  0.
          5    1    4    4  502    0  0.23779427057E+02 -0.30829961132E+01  0.23238131590E+02  0.33720420756E+02  0.47000000000E+01 0. -1.
         -5    1    3    3    0  503 -0.40274918801E+02 -0.59413939366E+02 -0.15637985457E+02  0.73611968216E+02  0.47000000000E+01 0. -1.
          5    1    3    3  503    0  0.17868378782E+02  0.14257210657E+02 -0.14601306209E+02  0.27528805986E+02  0.47000000000E+01 0.  1.
         -5    1    4    4    0  502 -0.13728870379E+01  0.48239724822E+02  0.35720241117E+03  0.36047830506E+03  0.47000000000E+01 0.  1.
<mgrwt>
<rscale>  0 0.10151280E+03</rscale>
<asrwt>0</asrwt>
<pdfrwt beam="1">  1        1 0.11164481E-01 0.10323579E+03</pdfrwt>
<pdfrwt beam="2">  1       -1 0.65041595E-01 0.10323579E+03</pdfrwt>
<totfact> 0.13324994E+03</totfact>
</mgrwt>
</event>
<event>
 8    1  0.3177960E-004  0.1010817E+03  0.7546771E-02  0.1280918E+00
         -3   -1    0    0    0  501 -0.00000000000E+00  0.00000000000E+00  0.21882952163E+02  0.21882952163E+02  0.00000000000E+00 0.  1.
          3   -1    0    0  501    0  0.00000000000E+00 -0.00000000000E+00 -0.44271493334E+03  0.44271493334E+03  0.00000000000E+00 0. -1.
         23    2    1    2    0    0 -0.26670661204E+02 -0.16413813965E+02 -0.19773539372E+03  0.21967015297E+03  0.90415445123E+02 0.  0.
         23    2    1    2    0    0  0.26670661204E+02  0.16413813965E+02 -0.22309658745E+03  0.24492773253E+03  0.96108112939E+02 0.  0.
          5    1    4    4  502    0 -0.24238559339E+01  0.46660130671E+02 -0.58584598741E+02  0.75081875852E+02  0.47000000000E+01 0. -1.
         -5    1    4    4    0  502  0.29094517138E+02 -0.30246316706E+02 -0.16451198871E+03  0.16984585668E+03  0.47000000000E+01 0.  1.
          5    1    3    3  503    0 -0.51255269985E+02  0.16585007594E+02 -0.11880425391E+03  0.13053239416E+03  0.47000000000E+01 0. -1.
         -5    1    3    3    0  503  0.24584608781E+02 -0.32998821559E+02 -0.78931139806E+02  0.89137758802E+02  0.47000000000E+01 0.  1.
<mgrwt>
<rscale>  0 0.99704724E+02</rscale>
<asrwt>0</asrwt>
<pdfrwt beam="1">  1        3 0.68109984E-01 0.10108168E+03</pdfrwt>
<pdfrwt beam="2">  1       -3 0.33666083E-02 0.10108168E+03</pdfrwt>
<totfact> 0.19527006E+03</totfact>
</mgrwt>
</event>
<event>
 8    1  0.3177960E-004  0.1090754E+03  0.7546771E-02  0.1264782E+00
          1   -1    0    0  501    0  0.00000000000E+00  0.00000000000E+00  0.80583076000E+02  0.80583076000E+02  0.00000000000E+00 0. -1.
         -1   -1    0    0    0  501 -0.00000000000E+00 -0.00000000000E+00 -0.19858872212E+03  0.19858872212E+03  0.00000000000E+00 0.  1.
         23    2    1    2    0    0 -0.17804702436E+02  0.29320846883E+02  0.15319482285E+02  0.11014597168E+03  0.10354095349E+03 0.  0.
         23    2    1    2    0    0  0.17804702436E+02 -0.29320846883E+02 -0.13332512840E+03  0.16902582644E+03  0.98068448796E+02 0.  0.
          5    1    3    3  502    0  0.19012053960E+02  0.53356840464E+02 -0.12106504973E+02  0.58112546690E+02  0.47000000000E+01 0. -1.
         -5    1    3    3    0  502 -0.36816756396E+02 -0.24035993581E+02  0.27425987259E+02  0.52033424989E+02  0.47000000000E+01 0. -1.
          5    1    4    4  503    0  0.15279260391E+02  0.34989295517E+02 -0.39364826926E+02  0.55039860082E+02  0.47000000000E+01 0. -1.
         -5    1    4    4    0  503  0.25254420450E+01 -0.64310142400E+02 -0.93960301476E+02  0.11398596636E+03  0.47000000000E+01 0.  1.
<mgrwt>
<rscale>  0 0.10775655E+03</rscale>
<asrwt>0</asrwt>
<pdfrwt beam="1">  1        1 0.12397396E-01 0.10907543E+03</pdfrwt>
<pdfrwt beam="2">  1       -1 0.30552111E-01 0.10907543E+03</pdfrwt>
<totfact> 0.44831053E+03</totfact>
</mgrwt>
</event>
<event>
 8    1  0.3177960E-004  0.1007334E+03  0.7546771E-02  0.1280258E+00
         -2   -1    0    0    0  501 -0.00000000000E+00  0.00000000000E+00  0.80971332806E+02  0.80971332806E+02  0.00000000000E+00 0.  1.
          2   -1    0    0  501    0  0.00000000000E+00 -0.00000000000E+00 -0.25856386301E+03  0.25856386301E+03  0.00000000000E+00 0. -1.
         23    2    1    2    0    0  0.36320687567E+02  0.17253241919E+02  0.35253695899E+02  0.10405538434E+03  0.89262720289E+02 0.  0.
         23    2    1    2    0    0 -0.36320687567E+02 -0.17253241919E+02 -0.21284622610E+03  0.23547981147E+03  0.92359942314E+02 0.  0.
          5    1    3    3  502    0 -0.22774245210E+02  0.15272388320E+02 -0.98784182833E+01  0.29522622472E+02  0.47000000000E+01 0. -1.
         -5    1    3    3    0  502  0.59094932777E+02  0.19808535995E+01  0.45132114182E+02  0.74532761867E+02  0.47000000000E+01 0.  1.
          5    1    4    4  503    0 -0.63141583184E+02  0.34281318271E+01 -0.10845352322E+03  0.12562988623E+03  0.47000000000E+01 0. -1.
         -5    1    4    4    0  503  0.26820895617E+02 -0.20681373746E+02 -0.10439270288E+03  0.10984992524E+03  0.47000000000E+01 0.  1.
<mgrwt>
<rscale>  0 0.10001786E+03</rscale>
<asrwt>0</asrwt>
<pdfrwt beam="1">  1        2 0.39779056E-01 0.10073344E+03</pdfrwt>
<pdfrwt beam="2">  1       -2 0.12457128E-01 0.10073344E+03</pdfrwt>
<totfact> 0.56008389E+03</totfact>
</mgrwt>
</event>
<event>
 8    1  0.3177960E-004  0.1228991E+03  0.7546771E-02  0.1238843E+00
          2   -1    0    0  501    0  0.00000000000E+00  0.00000000000E+00  0.12267568802E+04  0.12267568802E+04  0.00000000000E+00 0. -1.
         -2   -1    0    0    0  501 -0.00000000000E+00 -0.00000000000E+00 -0.19167301743E+02  0.19167301743E+02  0.00000000000E+00 0.  1.
         23    2    1    2    0    0 -0.75766771307E+02 -0.29142019131E+02  0.22641932604E+03  0.25708686116E+03  0.90763880814E+02 0.  0.
         23    2    1    2    0    0  0.75766771307E+02  0.29142019131E+02  0.98117025246E+03  0.98883732083E+03  0.92273082989E+02 0.  0.
          5    1    3    3  502    0 -0.36416678614E+02 -0.53044485070E+01  0.20083932649E+03  0.20423720699E+03  0.47000000000E+01 0. -1.
         -5    1    3    3    0  502 -0.39350092692E+02 -0.23837570624E+02  0.25579999553E+02  0.52849654164E+02  0.47000000000E+01 0.  1.
          5    1    4    4  503    0  0.47232451495E+02  0.62070874141E+02  0.56807563955E+03  0.57342455488E+03  0.47000000000E+01 0. -1.
         -5    1    4    4    0  503  0.28534319812E+02 -0.32928855010E+02  0.41309461291E+03  0.41541276595E+03  0.47000000000E+01 0.  1.
<mgrwt>
<rscale>  0 0.12261584E+03</rscale>
<asrwt>0</asrwt>
<pdfrwt beam="1">  1        2 0.18873177E+00 0.12289908E+03</pdfrwt>
<pdfrwt beam="2">  1       -2 0.29488166E-02 0.12289908E+03</pdfrwt>
<totfact> 0.81192560E+03</totfact>
</mgrwt>
</event>
<event>
 8    1  0.3177960E-004  0.1034721E+03  0.7546771E-02  0.1277460E+00
          3   -1    0    0  501    0  0.00000000000E+00  0.00000000000E+00  0.37812539547E+02  0.37812539547E+02  0.00000000000E+00 0. -1.
         -3   -1    0    0    0  501 -0.00000000000E+00 -0.00000000000E+00 -0.37559941380E+03  0.37559941380E+03  0.00000000000E+00 0.  1.
         23    2    1    2    0    0  0.19342043092E+02  0.17077360069E+02 -0.50032606161E+02  0.10761954652E+03  0.91722157931E+02 0.  0.
         23    2    1    2    0    0 -0.19342043092E+02 -0.17077360069E+02 -0.28775426809E+03  0.30579240683E+03  0.10020342515E+03 0.  0.
          5    1    3    3  502    0 -0.36403075116E+02  0.68826464926E+01 -0.27831453723E+02  0.46575041782E+02  0.47000000000E+01 0. -1.
         -5    1    3    3    0  502  0.55745118208E+02  0.10194713576E+02 -0.22201152438E+02  0.61044504736E+02  0.47000000000E+01 0.  1.
          5    1    4    4  503    0 -0.53769156357E+02  0.12029529434E+02 -0.12190915011E+03  0.13386471766E+03  0.47000000000E+01 0. -1.
         -5    1    4    4    0  503  0.34427113265E+02 -0.29106889503E+02 -0.16584511798E+03  0.17192768917E+03  0.47000000000E+01 0.  1.
<mgrwt>
<rscale>  0 0.10136090E+03</rscale>
<asrwt>0</asrwt>
<pdfrwt beam="1">  1        3 0.58173141E-02 0.10347211E+03</pdfrwt>
<pdfrwt beam="2">  1       -3 0.57784522E-01 0.10347211E+03</pdfrwt>
<totfact> 0.11700537E+03</totfact>
</mgrwt>
</event>
<event>
 8    1  0.3177960E-004  0.1856494E+03  0.7546771E-02  0.1162592E+00
         -1   -1    0    0    0  501 -0.00000000000E+00  0.00000000000E+00  0.46161872964E+03  0.46161872964E+03  0.00000000000E+00 0.  1.
          1   -1    0    0  501    0  0.00000000000E+00 -0.00000000000E+00 -0.11048118368E+03  0.11048118368E+03  0.00000000000E+00 0. -1.
         23    2    1    2    0    0 -0.16135382949E+03  0.11529521901E+02  0.33881739537E+03  0.38604213285E+03  0.89795950685E+02 0.  0.
         23    2    1    2    0    0  0.16135382949E+03 -0.11529521901E+02  0.12320150596E+02  0.18605778047E+03  0.91091840457E+02 0.  0.
          5    1    4    4  502    0  0.13574426314E+03  0.24637388473E+02  0.23703943441E+02  0.14006238903E+03  0.47000000000E+01 0. -1.
         -5    1    4    4    0  502  0.25609566355E+02 -0.36166910374E+02 -0.11383792845E+02  0.45995391448E+02  0.47000000000E+01 0.  1.
          5    1    3    3  503    0 -0.46455051856E+02 -0.32580231791E+02  0.69102955785E+02  0.89536874218E+02  0.47000000000E+01 0. -1.
         -5    1    3    3    0  503 -0.11489877763E+03  0.44109753692E+02  0.26971443959E+03  0.29650525863E+03  0.47000000000E+01 0.  1.
<mgrwt>
<rscale>  0 0.18549113E+03</rscale>
<asrwt>0</asrwt>
<pdfrwt beam="1">  1        1 0.16997105E-01 0.18564943E+03</pdfrwt>
<pdfrwt beam="2">  1       -1 0.71018265E-01 0.18564943E+03</pdfrwt>
<totfact> 0.65749770E+02</totfact>
</mgrwt>
</event>
<event>
 8    1  0.3177960E-004  0.1179509E+03  0.7546771E-02  0.1246764E+00
          2   -1    0    0  501    0  0.00000000000E+00  0.00000000000E+00  0.13021437230E+03  0.13021437230E+03  0.00000000000E+00 0. -1.
         -2   -1    0    0    0  501 -0.00000000000E+00 -0.00000000000E+00 -0.35946387417E+03  0.35946387417E+03  0.00000000000E+00 0.  1.
         23    2    1    2    0    0 -0.46143734227E+02 -0.57841492154E+02 -0.32000756356E+03  0.34085134409E+03  0.91103872635E+02 0.  0.
         23    2    1    2    0    0  0.46143734227E+02  0.57841492154E+02  0.90758061690E+02  0.14882690237E+03  0.91856075932E+02 0.  0.
          5    1    4    4  502    0  0.27628029343E+02  0.40493093142E+02  0.10737887986E+03  0.11813260531E+03  0.47000000000E+01 0. -1.
         -5    1    4    4    0  502  0.18515704884E+02  0.17348399012E+02 -0.16620818169E+02  0.30694297064E+02  0.47000000000E+01 0.  1.
          5    1    3    3  503    0 -0.57818981023E+02 -0.30544365684E+02 -0.10523729454E+03  0.12398778571E+03  0.47000000000E+01 0. -1.
         -5    1    3    3    0  503  0.11675246795E+02 -0.27297126470E+02 -0.21477026902E+03  0.21686355838E+03  0.47000000000E+01 0.  1.
<mgrwt>
<rscale>  0 0.11780444E+03</rscale>
<asrwt>0</asrwt>
<pdfrwt beam="1">  1        2 0.20032981E-01 0.11795093E+03</pdfrwt>
<pdfrwt beam="2">  1       -2 0.55302133E-01 0.11795093E+03</pdfrwt>
<totfact> 0.85132685E+02</totfact>
</mgrwt>
</event>
<event>
 8    1  0.3177960E-004  0.9689709E+02  0.7546771E-02  0.1290074E+00
          1   -1    0    0  501    0  0.00000000000E+00  0.00000000000E+00  0.38798703332E+03  0.38798703332E+03  0.00000000000E+00 0. -1.
         -1   -1    0    0    0  501 -0.00000000000E+00 -0.00000000000E+00 -0.96358309912E+02  0.96358309912E+02  0.00000000000E+00 0.  1.
         23    2    1    2    0    0 -0.15841705003E+02  0.77946045530E+01 -0.64680368089E+02  0.11650148240E+03  0.95275022470E+02 0.  0.
         23    2    1    2    0    0  0.15841705003E+02 -0.77946045530E+01  0.35630909149E+03  0.36784386083E+03  0.89672859853E+02 0.  0.
          5    1    3    3  502    0 -0.16694937372E+02 -0.22092465397E+02  0.14589315266E+02  0.31650214551E+02  0.47000000000E+01 0. -1.
         -5    1    4    4    0  503  0.24985133161E+02  0.34512298809E+02  0.11696985534E+03  0.12457685462E+03  0.47000000000E+01 0.  1.
          5    1    4    4  503    0 -0.91434281582E+01 -0.42306903362E+02  0.23933923615E+03  0.24326700621E+03  0.47000000000E+01 0. -1.
         -5    1    3    3    0  502  0.85323236897E+00  0.29887069950E+02 -0.79269683355E+02  0.84851267845E+02  0.47000000000E+01 0.  1.
<mgrwt>
<rscale>  0 0.95491110E+02</rscale>
<asrwt>0</asrwt>
<pdfrwt beam="1">  1        1 0.59690312E-01 0.96897087E+02</pdfrwt>
<pdfrwt beam="2">  1       -1 0.14824356E-01 0.96897087E+02</pdfrwt>
<totfact> 0.19988428E+03</totfact>
</mgrwt>
</event>
<event>
 8    1  0.3177960E-004  0.9552243E+02  0.7546771E-02  0.1291841E+00
          2   -1    0    0  501    0  0.00000000000E+00  0.00000000000E+00  0.50514920865E+03  0.50514920865E+03  0.00000000000E+00 0. -1.
         -2   -1    0    0    0  501 -0.00000000000E+00 -0.00000000000E+00 -0.34750009453E+02  0.34750009453E+02  0.00000000000E+00 0.  1.
         23    2    1    2    0    0 -0.26487018249E+01  0.19022023112E+02  0.46817109478E+02  0.10637846122E+03  0.93571802838E+02 0.  0.
         23    2    1    2    0    0  0.26487018249E+01 -0.19022023112E+02  0.42358208971E+03  0.43352075688E+03  0.90275173418E+02 0.  0.
          5    1    4    4  502    0 -0.89157327771E+01 -0.52831773168E+02  0.20253272663E+03  0.20955257551E+03  0.47000000000E+01 0. -1.
         -5    1    4    4    0  502  0.11564434602E+02  0.33809750055E+02  0.22104936309E+03  0.22396818137E+03  0.47000000000E+01 0.  1.
          5    1    3    3  503    0 -0.25640592407E+02 -0.10523151039E+02  0.60122563722E+02  0.66370093832E+02  0.47000000000E+01 0. -1.
         -5    1    3    3    0  503  0.22991890583E+02  0.29545174151E+02 -0.13305454244E+02  0.40008367385E+02  0.47000000000E+01 0.  1.
<mgrwt>
<rscale>  0 0.94705275E+02</rscale>
<asrwt>0</asrwt>
<pdfrwt beam="1">  1        2 0.77715257E-01 0.95522433E+02</pdfrwt>
<pdfrwt beam="2">  1       -2 0.53461557E-02 0.95522433E+02</pdfrwt>
<totfact> 0.10085366E+04</totfact>
</mgrwt>
</event>
<event>
 8    1  0.3177960E-004  0.2098354E+03  0.7546771E-02  0.1144749E+00
         -1   -1    0    0    0  501 -0.00000000000E+00  0.00000000000E+00  0.85768129250E+02  0.85768129250E+02  0.00000000000E+00 0.  1.
          1   -1    0    0  501    0  0.00000000000E+00 -0.00000000000E+00 -0.57446589746E+03  0.57446589746E+03  0.00000000000E+00 0. -1.
         23    2    1    2    0    0 -0.86894768602E+02 -0.14958997420E+03 -0.11642125519E+03  0.23996830940E+03  0.11875613527E+03 0.  0.
         23    2    1    2    0    0  0.86894768602E+02  0.14958997420E+03 -0.37227651303E+03  0.42026571732E+03  0.90031160214E+02 0.  0.
          5    1    4    4  502    0  0.65135314870E+02  0.15775168118E+03 -0.31543936031E+03  0.35868131006E+03  0.47000000000E+01 0. -1.
         -5    1    4    4    0  502  0.21759453732E+02 -0.81617069798E+01 -0.56837152717E+02  0.61584407251E+02  0.47000000000E+01 0.  1.
          5    1    3    3  503    0 -0.25128903954E+02 -0.11884718065E+03 -0.11987492161E+03  0.17072844225E+03  0.47000000000E+01 0. -1.
         -5    1    3    3    0  503 -0.61765864648E+02 -0.30742793545E+02  0.34536664205E+01  0.69239867146E+02  0.47000000000E+01 0.  1.
<mgrwt>
<rscale>  0 0.20602967E+03</rscale>
<asrwt>0</asrwt>
<pdfrwt beam="1">  1        1 0.88379367E-01 0.20983537E+03</pdfrwt>
<pdfrwt beam="2">  1       -1 0.13195097E-01 0.20983537E+03</pdfrwt>
<totfact> 0.14690372E+03</totfact>
</mgrwt>
</event>
<event>
 8    1  0.3177960E-004  0.9463950E+02  0.7546771E-02  0.1293492E+00
          1   -1    0    0  501    0  0.00000000000E+00  0.00000000000E+00  0.39451946507E+03  0.39451946507E+03  0.00000000000E+00 0. -1.
         -1   -1    0    0    0  501 -0.00000000000E+00 -0.00000000000E+00 -0.55385128299E+02  0.55385128299E+02  0.00000000000E+00 0.  1.
         23    2    1    2    0    0  0.12111451597E+02 -0.22010801149E+02  0.34494899404E+03  0.35769602212E+03  0.91244030600E+02 0.  0.
         23    2    1    2    0    0 -0.12111451597E+02  0.22010801149E+02 -0.58146572688E+01  0.92208571255E+02  0.88529360930E+02 0.  0.
          5    1    4    4  502    0  0.24670667627E+02 -0.11604739572E+02  0.21639022927E+02  0.35123341739E+02  0.47000000000E+01 0. -1.
         -5    1    3    3    0  503  0.35942795009E+02  0.21555103261E+02  0.20019977443E+03  0.20459361347E+03  0.47000000000E+01 0.  1.
          5    1    3    3  503    0 -0.23831343412E+02 -0.43565904410E+02  0.14474921961E+03  0.15310240864E+03  0.47000000000E+01 0. -1.
         -5    1    4    4    0  502 -0.36782119224E+02  0.33615540721E+02 -0.27453680196E+02  0.57085229516E+02  0.47000000000E+01 0.  1.
<mgrwt>
<rscale>  0 0.93979009E+02</rscale>
<asrwt>0</asrwt>
<pdfrwt beam="1">  1        1 0.60695301E-01 0.94639504E+02</pdfrwt>
<pdfrwt beam="2">  1       -1 0.85207892E-02 0.94639504E+02</pdfrwt>
<totfact> 0.45459143E+03</totfact>
</mgrwt>
</event>
<event>
 8    1  0.3177960E-004  0.9504620E+02  0.7546771E-02  0.1292788E+00
         -1   -1    0    0    0  501 -0.00000000000E+00  0.00000000000E+00  0.10751457502E+03  0.10751457502E+03  0.00000000000E+00 0.  1.
          1   -1    0    0  501    0  0.00000000000E+00 -0.00000000000E+00 -0.10828876038E+03  0.10828876038E+03  0.00000000000E+00 0. -1.
         23    2    1    2    0    0  0.98426513421E+01  0.10718122177E+02  0.53385577047E+02  0.10640927826E+03  0.90890916682E+02 0.  0.
         23    2    1    2    0    0 -0.98426513421E+01 -0.10718122177E+02 -0.54159762413E+02  0.10939405714E+03  0.93925629861E+02 0.  0.
          5    1    4    4  502    0  0.39904823165E+02 -0.10592553833E+02 -0.39468182689E+02  0.57309899261E+02  0.47000000000E+01 0. -1.
         -5    1    4    4    0  502 -0.49747474508E+02 -0.12556834391E+00 -0.14691579724E+02  0.52084157880E+02  0.47000000000E+01 0.  1.
          5    1    3    3  503    0  0.44633182484E+02  0.34700864078E+01  0.37323601814E+01  0.45168384860E+02  0.47000000000E+01 0. -1.
         -5    1    3    3    0  503 -0.34790531142E+02  0.72480357693E+01  0.49653216866E+02  0.61240893403E+02  0.47000000000E+01 0.  1.
<mgrwt>
<rscale>  0 0.94287727E+02</rscale>
<asrwt>0</asrwt>
<pdfrwt beam="1">  1        1 0.16659809E-01 0.95046199E+02</pdfrwt>
<pdfrwt beam="2">  1       -1 0.16540704E-01 0.95046199E+02</pdfrwt>
<totfact> 0.81660164E+03</totfact>
</mgrwt>
</event>
<event>
 8    1  0.4104504E-004  0.9262888E+02  0.7546771E-02  0.1299533E+00
         -3   -1    0    0    0  501 -0.00000000000E+00  0.00000000000E+00  0.42503466322E+02  0.42503466322E+02  0.00000000000E+00 0.  1.
          3   -1    0    0  501    0  0.00000000000E+00 -0.00000000000E+00 -0.43646122727E+03  0.43646122727E+03  0.00000000000E+00 0. -1.
         23    2    1    2    0    0  0.14292165114E+02  0.10351221116E+02 -0.37874121516E+03  0.38990385619E+03  0.90932366322E+02 0.  0.
         23    2    1    2    0    0 -0.14292165114E+02 -0.10351221116E+02 -0.15216545793E+02  0.89060837411E+02  0.85958569859E+02 0.  0.
          5    1    3    3  502    0  0.42236028886E+02  0.25624891187E+02 -0.31062846998E+03  0.31456740700E+03  0.47000000000E+01 0. -1.
         -5    1    4    4    0  503 -0.21030662220E+02 -0.46177983192E+02 -0.10096762132E+02  0.51949297307E+02  0.47000000000E+01 0.  1.
          5    1    4    4  503    0  0.67384971059E+01  0.35826762077E+02 -0.51197836612E+01  0.37111540104E+02  0.47000000000E+01 0. -1.
         -5    1    3    3    0  502 -0.27943863771E+02 -0.15273670071E+02 -0.68112745182E+02  0.75336449187E+02  0.47000000000E+01 0.  1.
<mgrwt>
<rscale>  0 0.91384635E+02</rscale>
<asrwt>0</asrwt>
<pdfrwt beam="1">  1        3 0.67147878E-01 0.92628878E+02</pdfrwt>
<pdfrwt beam="2">  1       -3 0.65389951E-02 0.92628878E+02</pdfrwt>
<totfact> 0.70020920E+02</totfact>
</mgrwt>
</event>
<event>
 8    1  0.3177960E-004  0.1080184E+03  0.7546771E-02  0.1264625E+00
          3   -1    0    0  501    0  0.00000000000E+00  0.00000000000E+00  0.55540247296E+02  0.55540247296E+02  0.00000000000E+00 0. -1.
         -3   -1    0    0    0  501 -0.00000000000E+00 -0.00000000000E+00 -0.20881208411E+03  0.20881208411E+03  0.00000000000E+00 0.  1.
         23    2    1    2    0    0 -0.45634835032E+02 -0.36714161040E+02 -0.79563568345E+02  0.13358199617E+03  0.89907288380E+02 0.  0.
         23    2    1    2    0    0  0.45634835032E+02  0.36714161040E+02 -0.73708268470E+02  0.13077033524E+03  0.90760696052E+02 0.  0.
          5    1    3    3  502    0 -0.38583231382E+02 -0.65210578915E+02 -0.46086766656E+02  0.88809714599E+02  0.47000000000E+01 0.  1.
         -5    1    3    3    0  502 -0.70516036506E+01  0.28496417876E+02 -0.33476801689E+02  0.44772281571E+02  0.47000000000E+01 0. -1.
          5    1    4    4  503    0  0.69604120336E+02  0.43211027394E+02 -0.49864380160E+02  0.96023293346E+02  0.47000000000E+01 0. -1.
         -5    1    4    4    0  503 -0.23969285304E+02 -0.64968663545E+01 -0.23843888310E+02  0.34747041891E+02  0.47000000000E+01 0.  1.
<mgrwt>
<rscale>  0 0.10783892E+03</rscale>
<asrwt>0</asrwt>
<pdfrwt beam="1">  1        3 0.85446535E-02 0.10801839E+03</pdfrwt>
<pdfrwt beam="2">  1       -3 0.32124936E-01 0.10801839E+03</pdfrwt>
<totfact> 0.19882913E+03</totfact>
</mgrwt>
</event>
<event>
 8    1  0.3177960E-004  0.1079914E+03  0.7546771E-02  0.1264900E+00
         -4   -1    0    0    0  501 -0.00000000000E+00  0.00000000000E+00  0.10298838709E+02  0.10298838709E+02  0.00000000000E+00 0.  1.
          4   -1    0    0  501    0  0.00000000000E+00 -0.00000000000E+00 -0.11747193317E+04  0.11747193317E+04  0.00000000000E+00 0. -1.
         23    2    1    2    0    0 -0.74999125053E+01 -0.55269640987E+02 -0.45126756692E+03  0.46373511668E+03  0.91087098886E+02 0.  0.
         23    2    1    2    0    0  0.74999125053E+01  0.55269640987E+02 -0.71315292606E+03  0.72128305372E+03  0.92472513400E+02 0.  0.
          5    1    4    4  502    0  0.42875148989E+02  0.45645829313E+02 -0.56947096930E+03  0.57292328894E+03  0.47000000000E+01 0. -1.
         -5    1    3    3    0  503 -0.31988653807E+02 -0.27463673810E+02 -0.79625822409E+02  0.90221333098E+02  0.47000000000E+01 0.  1.
          5    1    3    3  503    0  0.24488741302E+02 -0.27805967177E+02 -0.37164174451E+03  0.37351378358E+03  0.47000000000E+01 0. -1.
         -5    1    4    4    0  502 -0.35375236484E+02  0.96238116734E+01 -0.14368195676E+03  0.14835976478E+03  0.47000000000E+01 0.  1.
<mgrwt>
<rscale>  0 0.10769422E+03</rscale>
<asrwt>0</asrwt>
<pdfrwt beam="1">  1        4 0.18072593E+00 0.10799142E+03</pdfrwt>
<pdfrwt beam="2">  1       -4 0.15844378E-02 0.10799142E+03</pdfrwt>
<totfact> 0.45161913E+02</totfact>
</mgrwt>
</event>
<event>
 7    1  0.3177960E-004  0.1800511E+03  0.7546771E-02  0.1174151E+00
         -2   -1    0    0    0  501 -0.00000000000E+00  0.00000000000E+00  0.52385460216E+02  0.52385460216E+02  0.00000000000E+00 0.  1.
          2   -1    0    0  501    0  0.00000000000E+00 -0.00000000000E+00 -0.53857199344E+03  0.53857199344E+03  0.00000000000E+00 0. -1.
         23    2    1    2    0    0 -0.12578326210E+03 -0.66299140392E+01 -0.23796450003E+03  0.28431012633E+03  0.91322285754E+02 0.  0.
          5    1    3    3  502    0 -0.69506208152E+02 -0.37704663014E+02 -0.18370155776E+03  0.20005276031E+03  0.47000000000E+01 0. -1.
         -5    1    1    2    0  503  0.14624685715E+03 -0.16884683119E+02 -0.18964353631E+03  0.24012496042E+03  0.47000000000E+01 0.  1.
          5    1    1    2  503    0 -0.20463595056E+02  0.23514597159E+02 -0.58578496879E+02  0.66522366906E+02  0.47000000000E+01 0. -1.
         -5    1    3    3    0  502 -0.56277053945E+02  0.31074748975E+02 -0.54262942270E+02  0.84257366019E+02  0.47000000000E+01 0.  1.
<mgrwt>
<rscale>  0 0.17359425E+03</rscale>
<asrwt>0</asrwt>
<pdfrwt beam="1">  1        2 0.82857232E-01 0.18005112E+03</pdfrwt>
<pdfrwt beam="2">  1       -2 0.80593013E-02 0.18005112E+03</pdfrwt>
<totfact> 0.52277574E+03</totfact>
</mgrwt>
</event>
<event>
 8    1  0.3177960E-004  0.1964697E+03  0.7546771E-02  0.1155173E+00
          3   -1    0    0  501    0  0.00000000000E+00  0.00000000000E+00  0.65858937599E+02  0.65858937599E+02  0.00000000000E+00 0. -1.
         -3   -1    0    0    0  501 -0.00000000000E+00 -0.00000000000E+00 -0.59598878097E+03  0.59598878097E+03  0.00000000000E+00 0.  1.
         23    2    1    2    0    0 -0.61337001625E+02 -0.14930907312E+03 -0.34573933494E+03  0.39240344225E+03  0.91593376853E+02 0.  0.
         23    2    1    2    0    0  0.61337001625E+02  0.14930907312E+03 -0.18439050843E+03  0.26944427632E+03  0.11200415776E+03 0.  0.
          5    1    4    4  502    0 -0.69094306549E+01  0.89429379460E+02 -0.38891660076E+02  0.97877501838E+02  0.47000000000E+01 0. -1.
         -5    1    4    4    0  502  0.68246432280E+02  0.59879693659E+02 -0.14549884836E+03  0.17156677448E+03  0.47000000000E+01 0.  1.
          5    1    3    3  503    0 -0.20352196344E+02 -0.72845526296E+01 -0.76934126376E+01  0.23421255326E+02  0.47000000000E+01 0. -1.
         -5    1    3    3    0  503 -0.40984805281E+02 -0.14202452049E+03 -0.33804592230E+03  0.36898218693E+03  0.47000000000E+01 0.  1.
<mgrwt>
<rscale>  0 0.19369222E+03</rscale>
<asrwt>0</asrwt>
<pdfrwt beam="1">  1        3 0.10132144E-01 0.19646974E+03</pdfrwt>
<pdfrwt beam="2">  1       -3 0.91690581E-01 0.19646974E+03</pdfrwt>
<totfact> 0.19387088E+02</totfact>
</mgrwt>
</event>
<event>
 8    1  0.3177960E-004  0.1232197E+03  0.7546771E-02  0.1242488E+00
          1   -1    0    0  501    0  0.00000000000E+00  0.00000000000E+00  0.43303472772E+03  0.43303472772E+03  0.00000000000E+00 0. -1.
         -1   -1    0    0    0  501 -0.00000000000E+00 -0.00000000000E+00 -0.36531569309E+02  0.36531569309E+02  0.00000000000E+00 0.  1.
         23    2    1    2    0    0 -0.45144317228E+02 -0.69496814328E+02  0.12375268553E+03  0.17463623140E+03  0.91188099885E+02 0.  0.
         23    2    1    2    0    0  0.45144317228E+02  0.69496814328E+02  0.27275047288E+03  0.29493006564E+03  0.75651216630E+02 0.  0.
          5    1    3    3  502    0  0.22407848405E+02 -0.25564741914E+02  0.69110329386E+02  0.77162136615E+02  0.47000000000E+01 0. -1.
         -5    1    3    3    0  502 -0.67552165634E+02 -0.43932072414E+02  0.54642356145E+02  0.97474094781E+02  0.47000000000E+01 0.  1.
          5    1    4    4  503    0  0.63693494937E+02  0.57757009189E+02  0.24195028496E+03  0.25681659565E+03  0.47000000000E+01 0. -1.
         -5    1    4    4    0  503 -0.18549177709E+02  0.11739805139E+02  0.30800187923E+02  0.38113469987E+02  0.47000000000E+01 0.  1.
<mgrwt>
<rscale>  0 0.12036971E+03</rscale>
<asrwt>0</asrwt>
<pdfrwt beam="1">  1        1 0.66620724E-01 0.12321967E+03</pdfrwt>
<pdfrwt beam="2">  1       -1 0.56202417E-02 0.12321967E+03</pdfrwt>
<totfact> 0.76457388E+03</totfact>
</mgrwt>
</event>
<event>
 8    1  0.3177960E-004  0.9611845E+02  0.7546771E-02  0.1290468E+00
         -1   -1    0    0    0  501 -0.00000000000E+00  0.00000000000E+00  0.31907448295E+02  0.31907448295E+02  0.00000000000E+00 0.  1.
          1   -1    0    0  501    0  0.00000000000E+00 -0.00000000000E+00 -0.35828799654E+03  0.35828799654E+03  0.00000000000E+00 0. -1.
         23    2    1    2    0    0  0.12899501040E+02  0.14172450498E+02 -0.69902681302E+02  0.11629828717E+03  0.90948618825E+02 0.  0.
         23    2    1    2    0    0 -0.12899501040E+02 -0.14172450498E+02 -0.25647786695E+03  0.27389715767E+03  0.94188647210E+02 0.  0.
          5    1    3    3  502    0 -0.10262449881E+02 -0.24034803139E+02 -0.66073231653E+02  0.71209209942E+02  0.47000000000E+01 0. -1.
         -5    1    4    4    0  503 -0.25502568012E+02  0.24527777360E+02 -0.40145116557E+02  0.53718834879E+02  0.47000000000E+01 0.  1.
          5    1    4    4  503    0  0.12603066972E+02 -0.38700227858E+02 -0.21633275039E+03  0.22017832279E+03  0.47000000000E+01 0. -1.
         -5    1    3    3    0  502  0.23161950921E+02  0.38207253637E+02 -0.38294496484E+01  0.45089077231E+02  0.47000000000E+01 0.  1.
<mgrwt>
<rscale>  0 0.95315257E+02</rscale>
<asrwt>0</asrwt>
<pdfrwt beam="1">  1        1 0.55121229E-01 0.96118452E+02</pdfrwt>
<pdfrwt beam="2">  1       -1 0.49088383E-02 0.96118452E+02</pdfrwt>
<totfact> 0.11601601E+04</totfact>
</mgrwt>
</event>
<event>
 8    1  0.3177960E-004  0.9395071E+02  0.7546771E-02  0.1294361E+00
         -2   -1    0    0    0  501 -0.00000000000E+00  0.00000000000E+00  0.42935258477E+03  0.42935258477E+03  0.00000000000E+00 0.  1.
          2   -1    0    0  501    0  0.00000000000E+00 -0.00000000000E+00 -0.30561346067E+02  0.30561346067E+02  0.00000000000E+00 0. -1.
         23    2    1    2    0    0  0.17448788864E+02  0.83412794414E+01  0.33393022654E+03  0.34689498628E+03  0.91938556282E+02 0.  0.
         23    2    1    2    0    0 -0.17448788864E+02 -0.83412794414E+01  0.64861012162E+02  0.11301894456E+03  0.90511290762E+02 0.  0.
          5    1    4    4  502    0 -0.12659643553E+01 -0.43481563876E+02  0.59236707976E+02  0.73643238893E+02  0.47000000000E+01 0. -1.
         -5    1    4    4    0  502 -0.16182824509E+02  0.35140284435E+02  0.56243041861E+01  0.39375705667E+02  0.47000000000E+01 0.  1.
          5    1    3    3  503    0 -0.26336019419E+02 -0.10833478009E+02  0.41519187977E+02  0.50565631954E+02  0.47000000000E+01 0. -1.
         -5    1    3    3    0  503  0.43784808283E+02  0.19174757451E+02  0.29241103857E+03  0.29632935432E+03  0.47000000000E+01 0.  1.
<mgrwt>
<rscale>  0 0.93599687E+02</rscale>
<asrwt>0</asrwt>
<pdfrwt beam="1">  1        2 0.47017458E-02 0.93950707E+02</pdfrwt>
<pdfrwt beam="2">  1       -2 0.66054240E-01 0.93950707E+02</pdfrwt>
<totfact> 0.34135866E+03</totfact>
</mgrwt>
</event>
<event>
 8    1  0.3177960E-004  0.1372544E+03  0.7546771E-02  0.1220699E+00
         -2   -1    0    0    0  501 -0.00000000000E+00  0.00000000000E+00  0.66071350807E+02  0.66071350807E+02  0.00000000000E+00 0.  1.
          2   -1    0    0  501    0  0.00000000000E+00 -0.00000000000E+00 -0.13133763379E+04  0.13133763379E+04  0.00000000000E+00 0. -1.
         23    2    1    2    0    0 -0.60828319186E+02  0.65515987058E+02 -0.25985577539E+01  0.12719656943E+03  0.90442168249E+02 0.  0.
         23    2    1    2    0    0  0.60828319186E+02 -0.65515987058E+02 -0.12447064293E+04  0.12522511193E+04  0.10414577050E+03 0.  0.
          5    1    3    3  502    0 -0.43711354837E+02  0.47854753405E+02 -0.44235209856E+02  0.78610455769E+02  0.47000000000E+01 0. -1.
         -5    1    3    3    0  502 -0.17116964348E+02  0.17661233653E+02  0.41636652102E+02  0.48586113663E+02  0.47000000000E+01 0.  1.
          5    1    4    4  503    0  0.86183838909E+02 -0.69934023503E+02 -0.10108677564E+04  0.10169533582E+04  0.47000000000E+01 0. -1.
         -5    1    4    4    0  503 -0.25355519723E+02  0.44180364445E+01 -0.23383867291E+03  0.23529776109E+03  0.47000000000E+01 0.  1.
<mgrwt>
<rscale>  0 0.13466071E+03</rscale>
<asrwt>0</asrwt>
<pdfrwt beam="1">  1        2 0.20205791E+00 0.13725440E+03</pdfrwt>
<pdfrwt beam="2">  1       -2 0.10164823E-01 0.13725440E+03</pdfrwt>
<totfact> 0.11256022E+03</totfact>
</mgrwt>
</event>
<event>
 8    1  0.3177960E-004  0.1030444E+03  0.7546771E-02  0.1275602E+00
         -2   -1    0    0    0  501 -0.00000000000E+00  0.00000000000E+00  0.76206724490E+01  0.76206724490E+01  0.00000000000E+00 0.  1.
          2   -1    0    0  501    0  0.00000000000E+00 -0.00000000000E+00 -0.13580996715E+04  0.13580996715E+04  0.00000000000E+00 0. -1.
         23    2    1    2    0    0  0.30734761414E+02  0.28431244389E+02 -0.61937401928E+03  0.62738936343E+03  0.90775968045E+02 0.  0.
         23    2    1    2    0    0 -0.30734761414E+02 -0.28431244389E+02 -0.73110497979E+03  0.73833098053E+03  0.94155106742E+02 0.  0.
          5    1    3    3  502    0 -0.32160145441E+02  0.11203483635E+02 -0.19466968914E+03  0.19768199429E+03  0.47000000000E+01 0. -1.
         -5    1    4    4    0  503  0.22079958610E+02 -0.37639072080E+02 -0.21543205365E+03  0.21985741757E+03  0.47000000000E+01 0.  1.
          5    1    4    4  503    0 -0.52814720024E+02  0.92078276912E+01 -0.51567292614E+03  0.51847356296E+03  0.47000000000E+01 0. -1.
         -5    1    3    3    0  502  0.62894906855E+02  0.17227760754E+02 -0.42470433014E+03  0.42970736914E+03  0.47000000000E+01 0.  1.
<mgrwt>
<rscale>  0 0.10226606E+03</rscale>
<asrwt>0</asrwt>
<pdfrwt beam="1">  1        2 0.20893830E+00 0.10304439E+03</pdfrwt>
<pdfrwt beam="2">  1       -2 0.11724118E-02 0.10304439E+03</pdfrwt>
<totfact> 0.25846292E+04</totfact>
</mgrwt>
</event>
<event>
 8    1  0.3177960E-004  0.9782250E+02  0.7546771E-02  0.1285641E+00
          2   -1    0    0  501    0  0.00000000000E+00  0.00000000000E+00  0.36725972694E+03  0.36725972694E+03  0.00000000000E+00 0. -1.
         -2   -1    0    0    0  501 -0.00000000000E+00 -0.00000000000E+00 -0.39629584087E+02  0.39629584087E+02  0.00000000000E+00 0.  1.
         23    2    1    2    0    0  0.32566752484E+02 -0.18784594789E+02  0.28506099165E+03  0.30137851574E+03  0.90309392758E+02 0.  0.
         23    2    1    2    0    0 -0.32566752484E+02  0.18784594789E+02  0.42569151206E+02  0.10551079529E+03  0.88920981325E+02 0.  0.
          5    1    4    4  502    0 -0.58774858720E+02  0.46997026000E+01  0.80464936267E+01  0.59694281818E+02  0.47000000000E+01 0. -1.
         -5    1    4    4    0  502  0.26208106236E+02  0.14084892189E+02  0.34522657579E+02  0.45816513473E+02  0.47000000000E+01 0.  1.
          5    1    3    3  503    0 -0.29057443544E+01  0.30012523064E+02  0.49340853546E+02  0.58015555841E+02  0.47000000000E+01 0. -1.
         -5    1    3    3    0  503  0.35472496838E+02 -0.48797117854E+02  0.23572013810E+03  0.24336295990E+03  0.47000000000E+01 0.  1.
<mgrwt>
<rscale>  0 0.97500838E+02</rscale>
<asrwt>0</asrwt>
<pdfrwt beam="1">  1        2 0.56501494E-01 0.97822496E+02</pdfrwt>
<pdfrwt beam="2">  1       -2 0.60968593E-02 0.97822496E+02</pdfrwt>
<totfact> 0.11650979E+04</totfact>
</mgrwt>
</event>
<event>
 8    1  0.3177960E-004  0.1052971E+03  0.7546771E-02  0.1285143E+00
         -3   -1    0    0    0  501 -0.00000000000E+00  0.00000000000E+00  0.21793673102E+03  0.21793673102E+03  0.00000000000E+00 0.  1.
          3   -1    0    0  501    0  0.00000000000E+00 -0.00000000000E+00 -0.48057521555E+02  0.48057521555E+02  0.00000000000E+00 0. -1.
         23    2    1    2    0    0  0.37475795174E+02 -0.37759976346E+02  0.16357473038E+02  0.79831942542E+02  0.57230421004E+02 0.  0.
         23    2    1    2    0    0 -0.37475795174E+02  0.37759976346E+02  0.15352173642E+03  0.18616231003E+03  0.90869307707E+02 0.  0.
          5    1    4    4  502    0 -0.25207650496E+02  0.56425957366E+02  0.48530749344E+02  0.78718726743E+02  0.47000000000E+01 0. -1.
         -5    1    3    3    0  503  0.18103454242E+02 -0.30114210320E+02  0.36212791214E+02  0.50675999903E+02  0.47000000000E+01 0.  1.
          5    1    3    3  503    0  0.19372340932E+02 -0.76457660259E+01 -0.19855318176E+02  0.29155942639E+02  0.47000000000E+01 0. -1.
         -5    1    4    4    0  502 -0.12268144677E+02 -0.18665981019E+02  0.10499098708E+03  0.10744358329E+03  0.47000000000E+01 0.  1.
<mgrwt>
<rscale>  0 0.97730056E+02</rscale>
<asrwt>0</asrwt>
<pdfrwt beam="1">  1        3 0.73934650E-02 0.10529711E+03</pdfrwt>
<pdfrwt beam="2">  1       -3 0.33528727E-01 0.10529711E+03</pdfrwt>
<totfact> 0.23085824E+03</totfact>
</mgrwt>
</event>
<event>
 8    1  0.3177960E-004  0.1075189E+03  0.7546771E-02  0.1270308E+00
          2   -1    0    0  501    0  0.00000000000E+00  0.00000000000E+00  0.44491924370E+03  0.44491924370E+03  0.00000000000E+00 0. -1.
         -2   -1    0    0    0  501 -0.00000000000E+00 -0.00000000000E+00 -0.31810371582E+02  0.31810371582E+02  0.00000000000E+00 0.  1.
         23    2    1    2    0    0 -0.48782584903E+02 -0.16609385212E+02  0.93130981267E+02  0.14224515614E+03  0.94364678272E+02 0.  0.
         23    2    1    2    0    0  0.48782584903E+02  0.16609385212E+02  0.31997789085E+03  0.33448445914E+03  0.82694561548E+02 0.  0.
          5    1    4    4  502    0  0.12121881817E+01  0.41950432794E+02  0.16562301334E+03  0.17092214824E+03  0.47000000000E+01 0. -1.
         -5    1    4    4    0  502  0.47570396721E+02 -0.25341047582E+02  0.15435487751E+03  0.16356231090E+03  0.47000000000E+01 0.  1.
          5    1    3    3  503    0 -0.34853748626E+02  0.17988735388E+02  0.96726464586E+02  0.10448194746E+03  0.47000000000E+01 0. -1.
         -5    1    3    3    0  503 -0.13928836278E+02 -0.34598120600E+02 -0.35954833189E+01  0.37763208674E+02  0.47000000000E+01 0.  1.
<mgrwt>
<rscale>  0 0.10490463E+03</rscale>
<asrwt>0</asrwt>
<pdfrwt beam="1">  1        2 0.68449110E-01 0.10751886E+03</pdfrwt>
<pdfrwt beam="2">  1       -2 0.48939036E-02 0.10751886E+03</pdfrwt>
<totfact> 0.13321491E+04</totfact>
</mgrwt>
</event>
<event>
 8    1  0.3177960E-004  0.1467236E+03  0.7546771E-02  0.1213962E+00
          1   -1    0    0  501    0  0.00000000000E+00  0.00000000000E+00  0.33825562414E+03  0.33825562414E+03  0.00000000000E+00 0. -1.
         -1   -1    0    0    0  501 -0.00000000000E+00 -0.00000000000E+00 -0.53472960948E+02  0.53472960948E+02  0.00000000000E+00 0.  1.
         23    2    1    2    0    0 -0.72366807416E+02  0.27575155477E+02  0.10316142525E+03  0.15824603299E+03  0.91663423906E+02 0.  0.
         23    2    1    2    0    0  0.72366807416E+02 -0.27575155477E+02  0.18162123794E+03  0.23348255209E+03  0.12462136272E+03 0.  0.
          5    1    3    3  502    0 -0.23920840812E+02  0.16519193896E+02  0.10424141647E+03  0.10832106581E+03  0.47000000000E+01 0. -1.
         -5    1    3    3    0  502 -0.48445966604E+02  0.11055961580E+02 -0.10799912145E+01  0.49924967177E+02  0.47000000000E+01 0.  1.
          5    1    4    4  503    0  0.41795223106E+02  0.37323604567E+02  0.13890925430E+03  0.14985914408E+03  0.47000000000E+01 0. -1.
         -5    1    4    4    0  503  0.30571584310E+02 -0.64898760044E+02  0.42711983636E+02  0.83623408018E+02  0.47000000000E+01 0. -1.
<mgrwt>
<rscale>  0 0.13953033E+03</rscale>
<asrwt>0</asrwt>
<pdfrwt beam="1">  1        1 0.52039325E-01 0.14672365E+03</pdfrwt>
<pdfrwt beam="2">  1       -1 0.82266096E-02 0.14672365E+03</pdfrwt>
<totfact> 0.59596961E+03</totfact>
</mgrwt>
</event>
<event>
 8    1  0.3177960E-004  0.9705457E+02  0.7546771E-02  0.1289169E+00
          2   -1    0    0  501    0  0.00000000000E+00  0.00000000000E+00  0.13732604685E+03  0.13732604685E+03  0.00000000000E+00 0. -1.
         -2   -1    0    0    0  501 -0.00000000000E+00 -0.00000000000E+00 -0.13350409509E+03  0.13350409509E+03  0.00000000000E+00 0.  1.
         23    2    1    2    0    0  0.19382812542E+02  0.16028337991E+00 -0.94759259471E+02  0.13564256946E+03  0.95099265415E+02 0.  0.
         23    2    1    2    0    0 -0.19382812542E+02 -0.16028337991E+00  0.98581211239E+02  0.13518757248E+03  0.90452780113E+02 0.  0.
          5    1    4    4  502    0 -0.35120899203E+02  0.23165560438E+02  0.97888531045E+02  0.10665071618E+03  0.47000000000E+01 0. -1.
         -5    1    3    3    0  503  0.36226514009E+02 -0.31235685492E+02 -0.86208623595E+02  0.98701799109E+02  0.47000000000E+01 0.  1.
          5    1    3    3  503    0 -0.16843701467E+02  0.31395968872E+02 -0.85506358765E+01  0.36940770355E+02  0.47000000000E+01 0. -1.
         -5    1    4    4    0  502  0.15738086661E+02 -0.23325843818E+02  0.69268019354E+00  0.28536856299E+02  0.47000000000E+01 0.  1.
<mgrwt>
<rscale>  0 0.95896968E+02</rscale>
<asrwt>0</asrwt>
<pdfrwt beam="1">  1        2 0.21127084E-01 0.97054569E+02</pdfrwt>
<pdfrwt beam="2">  1       -2 0.20539092E-01 0.97054569E+02</pdfrwt>
<totfact> 0.48802798E+03</totfact>
</mgrwt>
</event>
<event>
 8    1  0.3177960E-004  0.1039498E+03  0.7546771E-02  0.1273635E+00
         -1   -1    0    0    0  501 -0.00000000000E+00  0.00000000000E+00  0.16920477192E+03  0.16920477192E+03  0.00000000000E+00 0.  1.
          1   -1    0    0  501    0  0.00000000000E+00 -0.00000000000E+00 -0.62459136432E+02  0.62459136432E+02  0.00000000000E+00 0. -1.
         23    2    1    2    0    0 -0.45442778867E+02 -0.67335442174E+01  0.44311718769E+02  0.11040572181E+03  0.90086115578E+02 0.  0.
         23    2    1    2    0    0  0.45442778867E+02  0.67335442174E+01  0.62433916720E+02  0.12125818654E+03  0.93247879747E+02 0.  0.
          5    1    3    3  502    0 -0.12592067896E+01 -0.34938552156E+02  0.45733630341E+02  0.57757622637E+02  0.47000000000E+01 0.  1.
         -5    1    4    4    0  503  0.27011944534E+02 -0.41761211630E+02  0.19048445265E+02  0.53465663854E+02  0.47000000000E+01 0.  1.
          5    1    4    4  503    0  0.18430834333E+02  0.48494755847E+02  0.43385471455E+02  0.67792522687E+02  0.47000000000E+01 0. -1.
         -5    1    3    3    0  502 -0.44183572077E+02  0.28205007938E+02 -0.14219115724E+01  0.52648099176E+02  0.47000000000E+01 0. -1.
<mgrwt>
<rscale>  0 0.10323579E+03</rscale>
<asrwt>0</asrwt>
<pdfrwt beam="1">  1        1 0.96090980E-02 0.10394977E+03</pdfrwt>
<pdfrwt beam="2">  1       -1 0.26031503E-01 0.10394977E+03</pdfrwt>
<totfact> 0.81290559E+03</totfact>
</mgrwt>
</event>
<event>
 8    1  0.3177960E-004  0.1555477E+03  0.7546771E-02  0.1193973E+00
         -1   -1    0    0    0  501 -0.00000000000E+00  0.00000000000E+00  0.93842984643E+02  0.93842984643E+02  0.00000000000E+00 0.  1.
          1   -1    0    0  501    0  0.00000000000E+00 -0.00000000000E+00 -0.25783620504E+03  0.25783620504E+03  0.00000000000E+00 0. -1.
         23    2    1    2    0    0 -0.76631547665E+01 -0.12542473533E+03 -0.92477109731E+02  0.18096162924E+03  0.91678826668E+02 0.  0.
         23    2    1    2    0    0  0.76631547665E+01  0.12542473533E+03 -0.71516110663E+02  0.17071756044E+03  0.90773581975E+02 0.  0.
          5    1    3    3  502    0  0.21264924214E+02 -0.10859947790E+03 -0.96534431193E+02  0.14692525313E+03  0.47000000000E+01 0.  1.
         -5    1    3    3    0  502 -0.28928078981E+02 -0.16825257432E+02  0.40573214625E+01  0.34036376109E+02  0.47000000000E+01 0. -1.
          5    1    4    4  503    0 -0.16847550068E+02  0.14011749013E+02 -0.49642836345E+02  0.54467148393E+02  0.47000000000E+01 0. -1.
         -5    1    4    4    0  503  0.24510704835E+02  0.11141298632E+03 -0.21873274318E+02  0.11625041205E+03  0.47000000000E+01 0.  1.
<mgrwt>
<rscale>  0 0.15541460E+03</rscale>
<asrwt>0</asrwt>
<pdfrwt beam="1">  1        1 0.39667108E-01 0.15554773E+03</pdfrwt>
<pdfrwt beam="2">  1       -1 0.14437382E-01 0.15554773E+03</pdfrwt>
<totfact> 0.35249908E+03</totfact>
</mgrwt>
</event>
<event>
 8    1  0.3177960E-004  0.9658641E+02  0.7546771E-02  0.1288124E+00
         -1   -1    0    0    0  501 -0.00000000000E+00  0.00000000000E+00  0.11032338354E+03  0.11032338354E+03  0.00000000000E+00 0.  1.
          1   -1    0    0  501    0  0.00000000000E+00 -0.00000000000E+00 -0.97291158681E+02  0.97291158681E+02  0.00000000000E+00 0. -1.
         23    2    1    2    0    0  0.10102739031E+01  0.33143385222E+02  0.45147044101E+02  0.10582900571E+03  0.89788742174E+02 0.  0.
         23    2    1    2    0    0 -0.10102739031E+01 -0.33143385222E+02 -0.32114819239E+02  0.10178553651E+03  0.90716201373E+02 0.  0.
          5    1    3    3  502    0 -0.38394020250E+02 -0.69389814951E+01  0.19429915197E+02  0.43839044922E+02  0.47000000000E+01 0.  1.
         -5    1    4    4    0  503 -0.37096072753E+02 -0.42942163556E+02 -0.29186811263E+02  0.63985216857E+02  0.47000000000E+01 0.  1.
          5    1    4    4  503    0  0.36085798850E+02  0.97987783337E+01 -0.29280079754E+01  0.37800319657E+02  0.47000000000E+01 0. -1.
         -5    1    3    3    0  502  0.39404294153E+02  0.40082366717E+02  0.25717128904E+02  0.61989960788E+02  0.47000000000E+01 0. -1.
<mgrwt>
<rscale>  0 0.96368026E+02</rscale>
<asrwt>0</asrwt>
<pdfrwt beam="1">  1        1 0.14967871E-01 0.96586406E+02</pdfrwt>
<pdfrwt beam="2">  1       -1 0.16972828E-01 0.96586406E+02</pdfrwt>
<totfact> 0.90043539E+03</totfact>
</mgrwt>
</event>
<event>
 8    1  0.3177960E-004  0.1013823E+03  0.7546771E-02  0.1293829E+00
          1   -1    0    0  501    0  0.00000000000E+00  0.00000000000E+00  0.26410478296E+02  0.26410478296E+02  0.00000000000E+00 0. -1.
         -1   -1    0    0    0  501 -0.00000000000E+00 -0.00000000000E+00 -0.30650653960E+03  0.30650653960E+03  0.00000000000E+00 0.  1.
         23    2    1    2    0    0  0.39901789746E+02 -0.43961215622E+01 -0.19579991159E+03  0.22049031972E+03  0.93096170718E+02 0.  0.
         23    2    1    2    0    0 -0.39901789746E+02  0.43961215622E+01 -0.84296149721E+02  0.11242669818E+03  0.62629409196E+02 0.  0.
          5    1    3    3  502    0 -0.25506847376E+02  0.15941395673E+02 -0.40292972803E+02  0.50500901144E+02  0.47000000000E+01 0. -1.
         -5    1    4    4    0  503 -0.21906731292E+02 -0.28682238657E+02 -0.43242021823E+02  0.56520245413E+02  0.47000000000E+01 0.  1.
          5    1    4    4  503    0 -0.17995058454E+02  0.33078360219E+02 -0.41054127898E+02  0.55906452767E+02  0.47000000000E+01 0. -1.
         -5    1    3    3    0  502  0.65408637121E+02 -0.20337517235E+02 -0.15550693878E+03  0.16998941857E+03  0.47000000000E+01 0.  1.
<mgrwt>
<rscale>  0 0.93831964E+02</rscale>
<asrwt>0</asrwt>
<pdfrwt beam="1">  1        1 0.40631504E-02 0.10138232E+03</pdfrwt>
<pdfrwt beam="2">  1       -1 0.47154854E-01 0.10138232E+03</pdfrwt>
<totfact> 0.93447123E+03</totfact>
</mgrwt>
</event>
<event>
 8    1  0.3177960E-004  0.8888880E+02  0.7546771E-02  0.1306424E+00
          1   -1    0    0  501    0  0.00000000000E+00  0.00000000000E+00  0.12521167308E+03  0.12521167308E+03  0.00000000000E+00 0. -1.
         -1   -1    0    0    0  501 -0.00000000000E+00 -0.00000000000E+00 -0.62162806974E+02  0.62162806974E+02  0.00000000000E+00 0.  1.
         23    2    1    2    0    0 -0.13323680578E+02 -0.86220581111E+01  0.33596016397E+02  0.93733203366E+02  0.86054405728E+02 0.  0.
         23    2    1    2    0    0  0.13323680578E+02  0.86220581111E+01  0.29452849707E+02  0.93641276686E+02  0.87460608237E+02 0.  0.
          5    1    4    4  502    0 -0.73099868839E+00  0.44460340370E+02  0.31674503029E+02  0.54796171099E+02  0.47000000000E+01 0. -1.
         -5    1    4    4    0  502  0.14054679266E+02 -0.35838282259E+02 -0.22216533224E+01  0.38845105587E+02  0.47000000000E+01 0.  1.
          5    1    3    3  503    0  0.13697988400E+02  0.31359747406E+02  0.28870263468E+02  0.45018338001E+02  0.47000000000E+01 0. -1.
         -5    1    3    3    0  503 -0.27021668978E+02 -0.39981805518E+02  0.47257529285E+01  0.48714865365E+02  0.47000000000E+01 0.  1.
<mgrwt>
<rscale>  0 0.88540949E+02</rscale>
<asrwt>0</asrwt>
<pdfrwt beam="1">  1        1 0.19263334E-01 0.88888798E+02</pdfrwt>
<pdfrwt beam="2">  1       -1 0.95635088E-02 0.88888798E+02</pdfrwt>
<totfact> 0.15635583E+04</totfact>
</mgrwt>
</event>
<event>
 8    1  0.3177960E-004  0.1002934E+03  0.7546771E-02  0.1280367E+00
          1   -1    0    0  501    0  0.00000000000E+00  0.00000000000E+00  0.24597607275E+03  0.24597607275E+03  0.00000000000E+00 0. -1.
         -1   -1    0    0    0  501 -0.00000000000E+00 -0.00000000000E+00 -0.20439910581E+03  0.20439910581E+03  0.00000000000E+00 0.  1.
         23    2    1    2    0    0 -0.39687787720E+02 -0.86118141362E+00 -0.18096867312E+03  0.20627413528E+03  0.90683494123E+02 0.  0.
         23    2    1    2    0    0  0.39687787720E+02  0.86118141362E+00  0.22254564005E+03  0.24410104329E+03  0.92102634599E+02 0.  0.
          5    1    3    3  502    0 -0.63780553043E+02  0.15334611641E+02 -0.96054543608E+02  0.11641166011E+03  0.47000000000E+01 0. -1.
         -5    1    4    4    0  503  0.61805438199E+02 -0.17429644508E+02  0.18919146804E+03  0.19984795790E+03  0.47000000000E+01 0. -1.
          5    1    4    4  503    0 -0.22117650478E+02  0.18290825921E+02  0.33354172017E+02  0.44253085389E+02  0.47000000000E+01 0.  1.
         -5    1    3    3    0  502  0.24092765322E+02 -0.16195793054E+02 -0.84914129508E+02  0.89862475170E+02  0.47000000000E+01 0.  1.
<mgrwt>
<rscale>  0 0.99966349E+02</rscale>
<asrwt>0</asrwt>
<pdfrwt beam="1">  1        1 0.37842473E-01 0.10029336E+03</pdfrwt>
<pdfrwt beam="2">  1       -1 0.31446016E-01 0.10029336E+03</pdfrwt>
<totfact> 0.10457611E+03</totfact>
</mgrwt>
</event>
<event>
 8    1  0.3177960E-004  0.1031395E+03  0.7546771E-02  0.1284324E+00
         -1   -1    0    0    0  501 -0.00000000000E+00  0.00000000000E+00  0.27781791819E+03  0.27781791819E+03  0.00000000000E+00 0.  1.
          1   -1    0    0  501    0  0.00000000000E+00 -0.00000000000E+00 -0.10990702844E+03  0.10990702844E+03  0.00000000000E+00 0. -1.
         23    2    1    2    0    0  0.45166674028E+02 -0.50409396984E+01  0.24970277638E+03  0.27016521299E+03  0.92586857954E+02 0.  0.
         23    2    1    2    0    0 -0.45166674028E+02  0.50409396984E+01 -0.81791886622E+02  0.11755973364E+03  0.71168383008E+02 0.  0.
          5    1    3    3  502    0  0.40126547743E+02 -0.25596652723E+02  0.49641150273E+02  0.68932302042E+02  0.47000000000E+01 0. -1.
         -5    1    4    4    0  503  0.13488350923E+02  0.18303561309E+02 -0.15409656153E+02  0.27865811848E+02  0.47000000000E+01 0.  1.
          5    1    4    4  503    0 -0.58655024950E+02 -0.13262621611E+02 -0.66382230469E+02  0.89693921789E+02  0.47000000000E+01 0. -1.
         -5    1    3    3    0  502  0.50401262850E+01  0.20555713024E+02  0.20006162610E+03  0.20123291095E+03  0.47000000000E+01 0.  1.
<mgrwt>
<rscale>  0 0.98108804E+02</rscale>
<asrwt>0</asrwt>
<pdfrwt beam="1">  1        1 0.16908774E-01 0.10313955E+03</pdfrwt>
<pdfrwt beam="2">  1       -1 0.42741218E-01 0.10313955E+03</pdfrwt>
<totfact> 0.16853028E+03</totfact>
</mgrwt>
</event>
<event>
 8    1  0.3177960E-004  0.9257155E+02  0.7546771E-02  0.1303433E+00
          1   -1    0    0  501    0  0.00000000000E+00  0.00000000000E+00  0.15560923350E+03  0.15560923350E+03  0.00000000000E+00 0. -1.
         -1   -1    0    0    0  501 -0.00000000000E+00 -0.00000000000E+00 -0.50069503925E+02  0.50069503925E+02  0.00000000000E+00 0.  1.
         23    2    1    2    0    0 -0.16478760172E+02  0.16069355082E+02  0.40020135978E+02  0.10085188385E+03  0.89664471691E+02 0.  0.
         23    2    1    2    0    0  0.16478760172E+02 -0.16069355082E+02  0.65519593595E+02  0.10482685357E+03  0.78524380766E+02 0.  0.
          5    1    3    3  502    0  0.33759528041E+02 -0.17786995851E+01  0.31900250549E+02  0.46718149480E+02  0.47000000000E+01 0. -1.
         -5    1    3    3    0  502 -0.50238288212E+02  0.17848054667E+02  0.81198854286E+01  0.54133734374E+02  0.47000000000E+01 0.  1.
          5    1    4    4  503    0  0.10758764519E+02 -0.41020085963E+02  0.66238492258E+02  0.78791029458E+02  0.47000000000E+01 0. -1.
         -5    1    4    4    0  503  0.57199956528E+01  0.24950730882E+02 -0.71889866354E+00  0.26035824110E+02  0.47000000000E+01 0.  1.
<mgrwt>
<rscale>  0 0.89760212E+02</rscale>
<asrwt>0</asrwt>
<pdfrwt beam="1">  1        1 0.23939882E-01 0.92571546E+02</pdfrwt>
<pdfrwt beam="2">  1       -1 0.77030006E-02 0.92571546E+02</pdfrwt>
<totfact> 0.16545889E+04</totfact>
</mgrwt>
</event>
<event>
 8    1  0.3177960E-004  0.1044132E+03  0.7546771E-02  0.1272534E+00
          3   -1    0    0  501    0  0.00000000000E+00  0.00000000000E+00  0.43261285817E+02  0.43261285817E+02  0.00000000000E+00 0. -1.
         -3   -1    0    0    0  501 -0.00000000000E+00 -0.00000000000E+00 -0.29561499612E+03  0.29561499612E+03  0.00000000000E+00 0.  1.
         23    2    1    2    0    0  0.18063052336E+01  0.45480468525E+02 -0.58050583758E+02  0.11946546382E+03  0.93970160244E+02 0.  0.
         23    2    1    2    0    0 -0.18063052336E+01 -0.45480468525E+02 -0.19430312654E+03  0.21941081811E+03  0.91190275597E+02 0.  0.
          5    1    4    4  502    0 -0.44635543450E+02 -0.34911121806E+02 -0.96303565602E+02  0.11183731449E+03  0.47000000000E+01 0. -1.
         -5    1    3    3    0  503  0.37399763396E+02  0.14808174824E+02 -0.59788019603E+02  0.72213029515E+02  0.47000000000E+01 0.  1.
          5    1    3    3  503    0 -0.35593458162E+02  0.30672293701E+02  0.17374358454E+01  0.47252434309E+02  0.47000000000E+01 0. -1.
         -5    1    4    4    0  502  0.42829238217E+02 -0.10569346719E+02 -0.97999560941E+02  0.10757350362E+03  0.47000000000E+01 0.  1.
<mgrwt>
<rscale>  0 0.10378392E+03</rscale>
<asrwt>0</asrwt>
<pdfrwt beam="1">  1        3 0.66555824E-02 0.10441325E+03</pdfrwt>
<pdfrwt beam="2">  1       -3 0.45479230E-01 0.10441325E+03</pdfrwt>
<totfact> 0.15244587E+03</totfact>
</mgrwt>
</event>
<event>
 8    1  0.3177960E-004  0.3096578E+03  0.7546771E-02  0.1080547E+00
         -2   -1    0    0    0  501 -0.00000000000E+00  0.00000000000E+00  0.19889556496E+03  0.19889556496E+03  0.00000000000E+00 0.  1.
          2   -1    0    0  501    0  0.00000000000E+00 -0.00000000000E+00 -0.80279472558E+03  0.80279472558E+03  0.00000000000E+00 0. -1.
         23    2    1    2    0    0 -0.22980606884E+03  0.18578165827E+03  0.14747385446E+02  0.31000881165E+03  0.92532827142E+02 0.  0.
         23    2    1    2    0    0  0.22980606884E+03 -0.18578165827E+03 -0.61864654606E+03  0.69168147889E+03  0.91509919956E+02 0.  0.
          5    1    3    3  502    0 -0.22317292968E+02  0.74067193269E+00 -0.19289659892E+02  0.29879610759E+02  0.47000000000E+01 0. -1.
         -5    1    4    4    0  503  0.10078941848E+03 -0.13685934399E+03 -0.31014212808E+03  0.35369367611E+03  0.47000000000E+01 0.  1.
          5    1    4    4  503    0  0.12901665036E+03 -0.48922314281E+02 -0.30850441799E+03  0.33798780277E+03  0.47000000000E+01 0. -1.
         -5    1    3    3    0  502 -0.20748877587E+03  0.18504098634E+03  0.34037045339E+02  0.28012920089E+03  0.47000000000E+01 0.  1.
<mgrwt>
<rscale>  0 0.30958178E+03</rscale>
<asrwt>0</asrwt>
<pdfrwt beam="1">  1        2 0.12350688E+00 0.30965784E+03</pdfrwt>
<pdfrwt beam="2">  1       -2 0.30599318E-01 0.30965784E+03</pdfrwt>
<totfact> 0.34965430E+02</totfact>
</mgrwt>
</event>
<event>
 8    1  0.3177960E-004  0.1104733E+03  0.7546771E-02  0.1260033E+00
          1   -1    0    0  501    0  0.00000000000E+00  0.00000000000E+00  0.29874761602E+03  0.29874761602E+03  0.00000000000E+00 0. -1.
         -1   -1    0    0    0  501 -0.00000000000E+00 -0.00000000000E+00 -0.52801108682E+02  0.52801108682E+02  0.00000000000E+00 0.  1.
         23    2    1    2    0    0  0.13634716750E+02  0.59212380859E+02  0.38105277762E+02  0.11617174424E+03  0.91388458897E+02 0.  0.
         23    2    1    2    0    0 -0.13634716750E+02 -0.59212380859E+02  0.20784122958E+03  0.23537698046E+03  0.92262314461E+02 0.  0.
          5    1    3    3  502    0  0.39456688553E+02 -0.41888272418E+01  0.59651705935E+01  0.40398636183E+02  0.47000000000E+01 0. -1.
         -5    1    4    4    0  503 -0.23018742676E+01  0.22165804084E+02  0.20046707861E+02  0.30341094112E+02  0.47000000000E+01 0.  1.
          5    1    4    4  503    0 -0.11332842482E+02 -0.81378184943E+02  0.18779452172E+03  0.20503588635E+03  0.47000000000E+01 0. -1.
         -5    1    3    3    0  502 -0.25821971803E+02  0.63401208101E+02  0.32140107168E+02  0.75773108061E+02  0.47000000000E+01 0.  1.
<mgrwt>
<rscale>  0 0.11029064E+03</rscale>
<asrwt>0</asrwt>
<pdfrwt beam="1">  1        1 0.45961171E-01 0.11047328E+03</pdfrwt>
<pdfrwt beam="2">  1       -1 0.81232477E-02 0.11047328E+03</pdfrwt>
<totfact> 0.69550168E+03</totfact>
</mgrwt>
</event>
<event>
 8    1  0.3177960E-004  0.9581414E+02  0.7546771E-02  0.1294365E+00
         -2   -1    0    0    0  501 -0.00000000000E+00  0.00000000000E+00  0.18585505871E+02  0.18585505871E+02  0.00000000000E+00 0.  1.
          2   -1    0    0  501    0  0.00000000000E+00 -0.00000000000E+00 -0.80237365805E+03  0.80237365805E+03  0.00000000000E+00 0. -1.
         23    2    1    2    0    0  0.14819637616E+02 -0.20283606591E+02 -0.13064554889E+03  0.16201422324E+03  0.92462439587E+02 0.  0.
         23    2    1    2    0    0 -0.14819637616E+02  0.20283606591E+02 -0.65314260329E+03  0.65894494068E+03  0.83559130273E+02 0.  0.
          5    1    3    3  502    0 -0.38934907767E+02 -0.13054748752E+02 -0.58682644157E+02  0.71778104134E+02  0.47000000000E+01 0. -1.
         -5    1    3    3    0  502  0.53754545383E+02 -0.72288578391E+01 -0.71962904728E+02  0.90236119110E+02  0.47000000000E+01 0.  1.
          5    1    4    4  503    0 -0.12255848745E+02  0.52504593899E+02 -0.37333859760E+03  0.37724095307E+03  0.47000000000E+01 0. -1.
         -5    1    4    4    0  503 -0.25637888702E+01 -0.32220987308E+02 -0.27980400569E+03  0.28170398761E+03  0.47000000000E+01 0.  1.
<mgrwt>
<rscale>  0 0.93598292E+02</rscale>
<asrwt>0</asrwt>
<pdfrwt beam="1">  1        2 0.12344209E+00 0.95814138E+02</pdfrwt>
<pdfrwt beam="2">  1       -2 0.28593088E-02 0.95814138E+02</pdfrwt>
<totfact> 0.14925815E+04</totfact>
</mgrwt>
</event>
<event>
 8    1  0.3177960E-004  0.1024306E+03  0.7546771E-02  0.1277388E+00
          1   -1    0    0  501    0  0.00000000000E+00  0.00000000000E+00  0.18821186922E+03  0.18821186922E+03  0.00000000000E+00 0. -1.
         -1   -1    0    0    0  501 -0.00000000000E+00 -0.00000000000E+00 -0.65608059618E+02  0.65608059618E+02  0.00000000000E+00 0.  1.
         23    2    1    2    0    0 -0.21835795246E+02  0.29769381457E+02  0.11468673412E+03  0.15108384739E+03  0.91160649040E+02 0.  0.
         23    2    1    2    0    0  0.21835795246E+02 -0.29769381457E+02  0.79170754829E+01  0.10273608145E+03  0.95545823145E+02 0.  0.
          5    1    3    3  502    0 -0.53889421510E+02  0.33994422436E+02  0.61595561960E+02  0.88745668968E+02  0.47000000000E+01 0. -1.
         -5    1    4    4    0  503  0.57227878158E+02 -0.32017017388E+02  0.11652248148E+02  0.66768138568E+02  0.47000000000E+01 0.  1.
          5    1    4    4  503    0 -0.35392082912E+02  0.22476359315E+01 -0.37351726653E+01  0.35967942879E+02  0.47000000000E+01 0. -1.
         -5    1    3    3    0  502  0.32053626264E+02 -0.42250409793E+01  0.53091172160E+02  0.62338178424E+02  0.47000000000E+01 0.  1.
<mgrwt>
<rscale>  0 0.10139556E+03</rscale>
<asrwt>0</asrwt>
<pdfrwt beam="1">  1        1 0.28955672E-01 0.10243057E+03</pdfrwt>
<pdfrwt beam="2">  1       -1 0.10093548E-01 0.10243057E+03</pdfrwt>
<totfact> 0.87915509E+03</totfact>
</mgrwt>
</event>
<event>
 8    1  0.3177960E-004  0.9365636E+02  0.7546771E-02  0.1295011E+00
          2   -1    0    0  501    0  0.00000000000E+00  0.00000000000E+00  0.14441902259E+04  0.14441902259E+04  0.00000000000E+00 0. -1.
         -2   -1    0    0    0  501 -0.00000000000E+00 -0.00000000000E+00 -0.60464679808E+01  0.60464679808E+01  0.00000000000E+00 0.  1.
         23    2    1    2    0    0  0.21593017355E+02 -0.13955192394E+01  0.65203236010E+03  0.65872430627E+03  0.91122484504E+02 0.  0.
         23    2    1    2    0    0 -0.21593017355E+02  0.13955192394E+01  0.78611139785E+03  0.79151238764E+03  0.89735857305E+02 0.  0.
          5    1    4    4  502    0 -0.20275258868E+02 -0.42927837629E+02  0.40071074012E+03  0.40354067033E+03  0.47000000000E+01 0. -1.
         -5    1    3    3    0  503  0.48886642711E+02  0.16928579460E+02  0.51965763105E+03  0.52224766552E+03  0.47000000000E+01 0.  1.
          5    1    3    3  503    0 -0.27293625356E+02 -0.18324098699E+02  0.13237472905E+03  0.13647664075E+03  0.47000000000E+01 0. -1.
         -5    1    4    4    0  502 -0.13177584865E+01  0.44323356868E+02  0.38540065773E+03  0.38797171731E+03  0.47000000000E+01 0.  1.
<mgrwt>
<rscale>  0 0.93317381E+02</rscale>
<asrwt>0</asrwt>
<pdfrwt beam="1">  1        2 0.22218284E+00 0.93656356E+02</pdfrwt>
<pdfrwt beam="2">  1       -2 0.93022699E-03 0.93656356E+02</pdfrwt>
<totfact> 0.32126082E+04</totfact>
</mgrwt>
</event>
<event>
 8    1  0.3177960E-004  0.1425040E+03  0.7546771E-02  0.1210375E+00
         -2   -1    0    0    0  501 -0.00000000000E+00  0.00000000000E+00  0.16262778736E+03  0.16262778736E+03  0.00000000000E+00 0.  1.
          2   -1    0    0  501    0  0.00000000000E+00 -0.00000000000E+00 -0.15829198058E+03  0.15829198058E+03  0.00000000000E+00 0. -1.
         23    2    1    2    0    0 -0.97129447621E+02  0.47311320850E+02  0.76996221862E+02  0.16197468386E+03  0.92924105347E+02 0.  0.
         23    2    1    2    0    0  0.97129447621E+02 -0.47311320850E+02 -0.72660415082E+02  0.15894508409E+03  0.91167500571E+02 0.  0.
          5    1    4    4  502    0  0.10752583959E+03 -0.18199002053E+02 -0.48577424959E+02  0.11947747097E+03  0.47000000000E+01 0. -1.
         -5    1    4    4    0  502 -0.10396391967E+02 -0.29112318798E+02 -0.24082990122E+02  0.39467613114E+02  0.47000000000E+01 0.  1.
          5    1    3    3  503    0 -0.79435814409E+02 -0.11795312117E+01  0.14690026332E+02  0.80927910997E+02  0.47000000000E+01 0. -1.
         -5    1    3    3    0  503 -0.17693633212E+02  0.48490852062E+02  0.62306195531E+02  0.81046772863E+02  0.47000000000E+01 0.  1.
<mgrwt>
<rscale>  0 0.14221831E+03</rscale>
<asrwt>0</asrwt>
<pdfrwt beam="1">  1        2 0.24352613E-01 0.14250396E+03</pdfrwt>
<pdfrwt beam="2">  1       -2 0.25019659E-01 0.14250396E+03</pdfrwt>
<totfact> 0.30413704E+03</totfact>
</mgrwt>
</event>
<event>
 8    1  0.3177960E-004  0.1146873E+03  0.7546771E-02  0.1256692E+00
          1   -1    0    0  501    0  0.00000000000E+00  0.00000000000E+00  0.17497774278E+03  0.17497774278E+03  0.00000000000E+00 0. -1.
         -1   -1    0    0    0  501 -0.00000000000E+00 -0.00000000000E+00 -0.10194230081E+03  0.10194230081E+03  0.00000000000E+00 0.  1.
         23    2    1    2    0    0 -0.63905602136E+02  0.12663725226E+02 -0.43483902244E+02  0.11342709104E+03  0.82039986021E+02 0.  0.
         23    2    1    2    0    0  0.63905602136E+02 -0.12663725226E+02  0.11651934422E+03  0.16349295255E+03  0.94386927252E+02 0.  0.
          5    1    3    3  502    0 -0.40377481995E+02  0.31915853275E+02  0.91277636932E+01  0.52482080871E+02  0.47000000000E+01 0. -1.
         -5    1    4    4    0  503  0.17976792539E+02  0.35807607949E+02  0.17509760761E+02  0.43977625890E+02  0.47000000000E+01 0.  1.
          5    1    4    4  503    0  0.45928809597E+02 -0.48471333175E+02  0.99009583456E+02  0.11951532666E+03  0.47000000000E+01 0. -1.
         -5    1    3    3    0  502 -0.23528120141E+02 -0.19252128048E+02 -0.52611665938E+02  0.60945010169E+02  0.47000000000E+01 0.  1.
<mgrwt>
<rscale>  0 0.11212088E+03</rscale>
<asrwt>0</asrwt>
<pdfrwt beam="1">  1        1 0.26919653E-01 0.11468735E+03</pdfrwt>
<pdfrwt beam="2">  1       -1 0.15683431E-01 0.11468735E+03</pdfrwt>
<totfact> 0.49242195E+03</totfact>
</mgrwt>
</event>
<event>
 8    1  0.3177960E-004  0.1270381E+03  0.7546771E-02  0.1234558E+00
         -2   -1    0    0    0  501 -0.00000000000E+00  0.00000000000E+00  0.15923516729E+02  0.15923516729E+02  0.00000000000E+00 0.  1.
          2   -1    0    0  501    0  0.00000000000E+00 -0.00000000000E+00 -0.10482269133E+04  0.10482269133E+04  0.00000000000E+00 0. -1.
         23    2    1    2    0    0 -0.79580028891E+02  0.43876162277E+00 -0.65700648334E+03  0.66793525938E+03  0.90259725578E+02 0.  0.
         23    2    1    2    0    0  0.79580028891E+02 -0.43876162277E+00 -0.37529691325E+03  0.39621517066E+03  0.99022799710E+02 0.  0.
          5    1    4    4  502    0  0.61111534897E+02 -0.46287550536E+02 -0.24604669285E+03  0.25775612911E+03  0.47000000000E+01 0. -1.
         -5    1    3    3    0  503 -0.17771379592E+01  0.20207683177E+02 -0.34800210863E+02  0.40554325969E+02  0.47000000000E+01 0.  1.
          5    1    3    3  503    0 -0.77802890932E+02 -0.19768921554E+02 -0.62220627248E+03  0.62738093341E+03  0.47000000000E+01 0. -1.
         -5    1    4    4    0  502  0.18468493994E+02  0.45848788914E+02 -0.12925022040E+03  0.13845904155E+03  0.47000000000E+01 0.  1.
<mgrwt>
<rscale>  0 0.12532757E+03</rscale>
<asrwt>0</asrwt>
<pdfrwt beam="1">  1        2 0.16126569E+00 0.12703814E+03</pdfrwt>
<pdfrwt beam="2">  1       -2 0.24497716E-02 0.12703814E+03</pdfrwt>
<totfact> 0.13443534E+04</totfact>
</mgrwt>
</event>
<event>
 8    1  0.3177960E-004  0.9527872E+02  0.7546771E-02  0.1293765E+00
          1   -1    0    0  501    0  0.00000000000E+00  0.00000000000E+00  0.24740279242E+03  0.24740279242E+03  0.00000000000E+00 0. -1.
         -1   -1    0    0    0  501 -0.00000000000E+00 -0.00000000000E+00 -0.38245588420E+02  0.38245588420E+02  0.00000000000E+00 0.  1.
         23    2    1    2    0    0 -0.23198065993E+01 -0.26602637499E+02  0.15157408496E+03  0.17903278259E+03  0.91460112554E+02 0.  0.
         23    2    1    2    0    0  0.23198065993E+01  0.26602637499E+02  0.57583119041E+02  0.10661559824E+03  0.85662059081E+02 0.  0.
          5    1    3    3  502    0  0.20244613385E+01 -0.46774629798E+02  0.15067443011E+03  0.15785068364E+03  0.47000000000E+01 0. -1.
         -5    1    3    3    0  502 -0.43442679377E+01  0.20171992300E+02  0.89965484602E+00  0.21182098954E+02  0.47000000000E+01 0.  1.
          5    1    4    4  503    0  0.37440498492E+02  0.14725786143E+02  0.56125871412E+02  0.69215916859E+02  0.47000000000E+01 0. -1.
         -5    1    4    4    0  503 -0.35120691892E+02  0.11876851356E+02  0.14572476291E+01  0.37399681386E+02  0.47000000000E+01 0.  1.
<mgrwt>
<rscale>  0 0.93859585E+02</rscale>
<asrwt>0</asrwt>
<pdfrwt beam="1">  1        1 0.38061967E-01 0.95278718E+02</pdfrwt>
<pdfrwt beam="2">  1       -1 0.58839368E-02 0.95278718E+02</pdfrwt>
<totfact> 0.13981004E+04</totfact>
</mgrwt>
</event>
<event>
 8    1  0.3177960E-004  0.1203616E+03  0.7546771E-02  0.1253185E+00
          2   -1    0    0  501    0  0.00000000000E+00  0.00000000000E+00  0.55896055435E+03  0.55896055435E+03  0.00000000000E+00 0. -1.
         -2   -1    0    0    0  501 -0.00000000000E+00 -0.00000000000E+00 -0.21298760196E+02  0.21298760196E+02  0.00000000000E+00 0.  1.
         23    2    1    2    0    0  0.15896854112E+01  0.37768832223E+02  0.26349181190E+03  0.28083304013E+03  0.89499998344E+02 0.  0.
         23    2    1    2    0    0 -0.15896854112E+01 -0.37768832223E+02  0.27416998226E+03  0.29942627442E+03  0.11427118120E+03 0.  0.
          5    1    3    3  502    0 -0.21098946539E+02 -0.18438408540E+02  0.14386884776E+03  0.14664745415E+03  0.47000000000E+01 0. -1.
         -5    1    4    4    0  503  0.55032404231E+02 -0.12667473452E+02  0.10680632427E+03  0.12090786287E+03  0.47000000000E+01 0.  1.
          5    1    4    4  503    0 -0.56622089642E+02 -0.25101358771E+02  0.16736365798E+03  0.17851841155E+03  0.47000000000E+01 0. -1.
         -5    1    3    3    0  502  0.22688631950E+02  0.56207240763E+02  0.11962296414E+03  0.13418558597E+03  0.47000000000E+01 0.  1.
<mgrwt>
<rscale>  0 0.11408623E+03</rscale>
<asrwt>0</asrwt>
<pdfrwt beam="1">  1        2 0.85993920E-01 0.12036160E+03</pdfrwt>
<pdfrwt beam="2">  1       -2 0.32767328E-02 0.12036160E+03</pdfrwt>
<totfact> 0.18984364E+04</totfact>
</mgrwt>
</event>
<event>
 8    1  0.3177960E-004  0.1081394E+03  0.7546771E-02  0.1265091E+00
          1   -1    0    0  501    0  0.00000000000E+00  0.00000000000E+00  0.57576344404E+03  0.57576344404E+03  0.00000000000E+00 0. -1.
         -1   -1    0    0    0  501 -0.00000000000E+00 -0.00000000000E+00 -0.27866585806E+02  0.27866585806E+02  0.00000000000E+00 0.  1.
         23    2    1    2    0    0 -0.42614713021E+02  0.31238746877E+02  0.11462038176E+03  0.15758162544E+03  0.94351808077E+02 0.  0.
         23    2    1    2    0    0  0.42614713021E+02 -0.31238746877E+02  0.43327647647E+03  0.44604840441E+03  0.91862946499E+02 0.  0.
          5    1    3    3  502    0  0.30102015279E+02  0.62221053211E+01  0.32702729172E+02  0.45126537800E+02  0.47000000000E+01 0. -1.
         -5    1    4    4    0  503  0.63758750246E+01 -0.53015119477E+02  0.14385441828E+03  0.15351689919E+03  0.47000000000E+01 0.  1.
          5    1    4    4  503    0  0.36238837997E+02  0.21776372599E+02  0.28942205819E+03  0.29253150523E+03  0.47000000000E+01 0. -1.
         -5    1    3    3    0  502 -0.72716728300E+02  0.25016641556E+02  0.81917652589E+02  0.11245508764E+03  0.47000000000E+01 0.  1.
<mgrwt>
<rscale>  0 0.10759418E+03</rscale>
<asrwt>0</asrwt>
<pdfrwt beam="1">  1        1 0.88578983E-01 0.10813943E+03</pdfrwt>
<pdfrwt beam="2">  1       -1 0.42871675E-02 0.10813943E+03</pdfrwt>
<totfact> 0.78007174E+03</totfact>
</mgrwt>
</event>
<event>
 8    1  0.3177960E-004  0.1109147E+03  0.7546771E-02  0.1259704E+00
          1   -1    0    0  501    0  0.00000000000E+00  0.00000000000E+00  0.16590978221E+03  0.16590978221E+03  0.00000000000E+00 0. -1.
         -1   -1    0    0    0  501 -0.00000000000E+00 -0.00000000000E+00 -0.10942834810E+03  0.10942834810E+03  0.00000000000E+00 0.  1.
         23    2    1    2    0    0  0.22491658851E+02 -0.57327128445E+02 -0.51071036782E+02  0.12210783149E+03  0.92248562806E+02 0.  0.
         23    2    1    2    0    0 -0.22491658851E+02  0.57327128445E+02  0.10755247090E+03  0.15323029881E+03  0.90109467344E+02 0.  0.
          5    1    3    3  502    0  0.33474312800E+01 -0.78980110703E+02 -0.25394643729E+02  0.83162738730E+02  0.47000000000E+01 0. -1.
         -5    1    4    4    0  503  0.31527362458E+02  0.32801385627E+02  0.67346894691E+02  0.81410071288E+02  0.47000000000E+01 0.  1.
          5    1    4    4  503    0 -0.54019021308E+02  0.24525742818E+02  0.40205576205E+02  0.71820227526E+02  0.47000000000E+01 0. -1.
         -5    1    3    3    0  502  0.19144227571E+02  0.21652982258E+02 -0.25676393053E+02  0.38945092761E+02  0.47000000000E+01 0.  1.
<mgrwt>
<rscale>  0 0.11046886E+03</rscale>
<asrwt>0</asrwt>
<pdfrwt beam="1">  1        1 0.25524582E-01 0.11091470E+03</pdfrwt>
<pdfrwt beam="2">  1       -1 0.16835131E-01 0.11091470E+03</pdfrwt>
<totfact> 0.46979034E+03</totfact>
</mgrwt>
</event>
<event>
 8    1  0.3177960E-004  0.9551283E+02  0.7546771E-02  0.1290604E+00
          2   -1    0    0  501    0  0.00000000000E+00  0.00000000000E+00  0.45668017621E+02  0.45668017621E+02  0.00000000000E+00 0. -1.
         -2   -1    0    0    0  501 -0.00000000000E+00 -0.00000000000E+00 -0.33596065137E+03  0.33596065137E+03  0.00000000000E+00 0.  1.
         23    2    1    2    0    0 -0.26369585624E+02  0.68561185903E+01 -0.26805618173E+03  0.28456425691E+03  0.91544187906E+02 0.  0.
         23    2    1    2    0    0  0.26369585624E+02 -0.68561185903E+01 -0.22236452022E+02  0.97064412083E+02  0.90469215130E+02 0.  0.
          5    1    3    3  502    0 -0.16993026444E+02  0.32191850985E+02 -0.37824617386E+02  0.52705501591E+02  0.47000000000E+01 0. -1.
         -5    1    3    3    0  502 -0.93765591801E+01 -0.25335732395E+02 -0.23023156434E+03  0.23185875532E+03  0.47000000000E+01 0.  1.
          5    1    4    4  503    0  0.35088135435E+02  0.19602170496E+02  0.20865393455E+02  0.45528858765E+02  0.47000000000E+01 0. -1.
         -5    1    4    4    0  503 -0.87185498107E+01 -0.26458289086E+02 -0.43101845478E+02  0.51535553317E+02  0.47000000000E+01 0.  1.
<mgrwt>
<rscale>  0 0.95254325E+02</rscale>
<asrwt>0</asrwt>
<pdfrwt beam="1">  1        2 0.70258490E-02 0.95512825E+02</pdfrwt>
<pdfrwt beam="2">  1       -2 0.51686253E-01 0.95512825E+02</pdfrwt>
<totfact> 0.33654915E+03</totfact>
</mgrwt>
</event>
<event>
 8    1  0.3177960E-004  0.9521951E+02  0.7546771E-02  0.1291478E+00
         -1   -1    0    0    0  501 -0.00000000000E+00  0.00000000000E+00  0.11021861967E+03  0.11021861967E+03  0.00000000000E+00 0.  1.
          1   -1    0    0  501    0  0.00000000000E+00 -0.00000000000E+00 -0.96685500894E+02  0.96685500894E+02  0.00000000000E+00 0. -1.
         23    2    1    2    0    0 -0.21175155026E+02 -0.24062703783E+02  0.48323908346E+02  0.10552781867E+03  0.88167564854E+02 0.  0.
         23    2    1    2    0    0  0.21175155026E+02  0.24062703783E+02 -0.34790789567E+02  0.10137630189E+03  0.89662448345E+02 0.  0.
          5    1    3    3  502    0 -0.45338614444E+02  0.14102152479E+02  0.31112443102E+02  0.56960817937E+02  0.47000000000E+01 0. -1.
         -5    1    4    4    0  503  0.32941065767E+02 -0.12983042292E+02  0.14395569479E+02  0.38509682181E+02  0.47000000000E+01 0.  1.
          5    1    4    4  503    0 -0.11765910741E+02  0.37045746076E+02 -0.49186359046E+02  0.62866619713E+02  0.47000000000E+01 0. -1.
         -5    1    3    3    0  502  0.24163459418E+02 -0.38164856262E+02  0.17211465243E+02  0.48567000735E+02  0.47000000000E+01 0.  1.
<mgrwt>
<rscale>  0 0.94865975E+02</rscale>
<asrwt>0</asrwt>
<pdfrwt beam="1">  1        1 0.14874692E-01 0.95219512E+02</pdfrwt>
<pdfrwt beam="2">  1       -1 0.16956711E-01 0.95219512E+02</pdfrwt>
<totfact> 0.90787639E+03</totfact>
</mgrwt>
</event>
<event>
 8    1  0.3177960E-004  0.9448586E+02  0.7546771E-02  0.1293158E+00
          1   -1    0    0  501    0  0.00000000000E+00  0.00000000000E+00  0.59358698264E+03  0.59358698264E+03  0.00000000000E+00 0. -1.
         -1   -1    0    0    0  501 -0.00000000000E+00 -0.00000000000E+00 -0.21153260524E+02  0.21153260524E+02  0.00000000000E+00 0.  1.
         23    2    1    2    0    0 -0.72794011353E+01 -0.23101855602E+01  0.11640974575E+03  0.14903062799E+03  0.92739271810E+02 0.  0.
         23    2    1    2    0    0  0.72794011353E+01  0.23101855602E+01  0.45602397636E+03  0.46570961517E+03  0.94176706278E+02 0.  0.
          5    1    4    4  502    0 -0.25420625459E+02  0.37784696973E+02  0.23772449992E+03  0.24209279086E+03  0.47000000000E+01 0. -1.
         -5    1    4    4    0  502  0.32700026594E+02 -0.35474511413E+02  0.21829947644E+03  0.22361682430E+03  0.47000000000E+01 0.  1.
          5    1    3    3  503    0 -0.10752457289E+02 -0.44781468944E+02  0.38955159804E+02  0.60502807983E+02  0.47000000000E+01 0. -1.
         -5    1    3    3    0  503  0.34730561541E+01  0.42471283384E+02  0.77454585950E+02  0.88527820011E+02  0.47000000000E+01 0.  1.
<mgrwt>
<rscale>  0 0.94125645E+02</rscale>
<asrwt>0</asrwt>
<pdfrwt beam="1">  1        1 0.91321062E-01 0.94485865E+02</pdfrwt>
<pdfrwt beam="2">  1       -1 0.32543482E-02 0.94485865E+02</pdfrwt>
<totfact> 0.11069075E+04</totfact>
</mgrwt>
</event>
<event>
 8    1  0.3177960E-004  0.1083954E+03  0.7546771E-02  0.1264970E+00
          1   -1    0    0  501    0  0.00000000000E+00  0.00000000000E+00  0.27995337701E+02  0.27995337701E+02  0.00000000000E+00 0. -1.
         -1   -1    0    0    0  501 -0.00000000000E+00 -0.00000000000E+00 -0.63511226117E+03  0.63511226117E+03  0.00000000000E+00 0.  1.
         23    2    1    2    0    0 -0.39311292993E+02  0.45527920140E+02 -0.50427436901E+03  0.51579279902E+03  0.90174292416E+02 0.  0.
         23    2    1    2    0    0  0.39311292993E+02 -0.45527920140E+02 -0.10284255446E+03  0.14731479985E+03  0.86642310556E+02 0.  0.
          5    1    4    4  502    0  0.27336596313E+02  0.21605143162E+02 -0.48960695664E+02  0.60276956035E+02  0.47000000000E+01 0.  1.
         -5    1    4    4    0  502  0.11974696680E+02 -0.67133063302E+02 -0.53881858799E+02  0.87037843818E+02  0.47000000000E+01 0. -1.
          5    1    3    3  503    0 -0.47022579055E+02 -0.20820184224E+01 -0.12893551797E+03  0.13733868914E+03  0.47000000000E+01 0. -1.
         -5    1    3    3    0  503  0.77112860616E+01  0.47609938562E+02 -0.37533885104E+03  0.37845410988E+03  0.47000000000E+01 0.  1.
<mgrwt>
<rscale>  0 0.10765794E+03</rscale>
<asrwt>0</asrwt>
<pdfrwt beam="1">  1        1 0.43069753E-02 0.10839544E+03</pdfrwt>
<pdfrwt beam="2">  1       -1 0.97709573E-01 0.10839544E+03</pdfrwt>
<totfact> 0.20863392E+03</totfact>
</mgrwt>
</event>
<event>
 8    1  0.3177960E-004  0.9257891E+02  0.7546771E-02  0.1301557E+00
         -2   -1    0    0    0  501 -0.00000000000E+00  0.00000000000E+00  0.17323156930E+02  0.17323156930E+02  0.00000000000E+00 0.  1.
          2   -1    0    0  501    0  0.00000000000E+00 -0.00000000000E+00 -0.46018813011E+03  0.46018813011E+03  0.00000000000E+00 0. -1.
         23    2    1    2    0    0 -0.30676852149E+02 -0.32564003921E+01 -0.20226750088E+03  0.22244773878E+03  0.87287921132E+02 0.  0.
         23    2    1    2    0    0  0.30676852149E+02  0.32564003921E+01 -0.24059747231E+03  0.25506354827E+03  0.78858078672E+02 0.  0.
          5    1    4    4  502    0  0.49932498890E+01 -0.21945537119E+02 -0.19701052927E+03  0.19834761856E+03  0.47000000000E+01 0. -1.
         -5    1    4    4    0  502  0.25683602260E+02  0.25201937511E+02 -0.43586943036E+02  0.56715929707E+02  0.47000000000E+01 0.  1.
          5    1    3    3  503    0 -0.30039789552E+02 -0.42879813643E+02 -0.12024011410E+03  0.13122820738E+03  0.47000000000E+01 0. -1.
         -5    1    3    3    0  503 -0.63706259614E+00  0.39623413251E+02 -0.82027386781E+02  0.91219531399E+02  0.47000000000E+01 0.  1.
<mgrwt>
<rscale>  0 0.90536976E+02</rscale>
<asrwt>0</asrwt>
<pdfrwt beam="1">  1        2 0.70798179E-01 0.92578910E+02</pdfrwt>
<pdfrwt beam="2">  1       -2 0.26651009E-02 0.92578910E+02</pdfrwt>
<totfact> 0.30911907E+04</totfact>
</mgrwt>
</event>
<event>
 8    1  0.3177960E-004  0.9261245E+02  0.7546771E-02  0.1297251E+00
          1   -1    0    0  501    0  0.00000000000E+00  0.00000000000E+00  0.34266438473E+03  0.34266438473E+03  0.00000000000E+00 0. -1.
         -1   -1    0    0    0  501 -0.00000000000E+00 -0.00000000000E+00 -0.50539249229E+02  0.50539249229E+02  0.00000000000E+00 0.  1.
         23    2    1    2    0    0 -0.33290132553E+01 -0.14157809090E+02  0.52280524777E+01  0.91728921468E+02  0.90417568058E+02 0.  0.
         23    2    1    2    0    0  0.33290132553E+01  0.14157809090E+02  0.28689708302E+03  0.30147471249E+03  0.91463326730E+02 0.  0.
          5    1    4    4  502    0  0.45107889641E+02  0.17633833042E+02  0.12405224709E+03  0.13325435747E+03  0.47000000000E+01 0. -1.
         -5    1    4    4    0  502 -0.41778876385E+02 -0.34760239517E+01  0.16284483593E+03  0.16822035502E+03  0.47000000000E+01 0.  1.
          5    1    3    3  503    0  0.42795980212E+02 -0.12512402315E+02  0.65873351141E+01  0.45315991857E+02  0.47000000000E+01 0. -1.
         -5    1    3    3    0  503 -0.46124993468E+02 -0.16454067748E+01 -0.13592826364E+01  0.46412929612E+02  0.47000000000E+01 0.  1.
<mgrwt>
<rscale>  0 0.92353205E+02</rscale>
<asrwt>0</asrwt>
<pdfrwt beam="1">  1        1 0.52717596E-01 0.92612451E+02</pdfrwt>
<pdfrwt beam="2">  1       -1 0.77752693E-02 0.92612451E+02</pdfrwt>
<totfact> 0.61952970E+03</totfact>
</mgrwt>
</event>
<event>
 8    1  0.3177960E-004  0.1327720E+03  0.7546771E-02  0.1225413E+00
         -1   -1    0    0    0  501 -0.00000000000E+00  0.00000000000E+00  0.89988326958E+02  0.89988326958E+02  0.00000000000E+00 0.  1.
          1   -1    0    0  501    0  0.00000000000E+00 -0.00000000000E+00 -0.19689449990E+03  0.19689449990E+03  0.00000000000E+00 0. -1.
         23    2    1    2    0    0 -0.34217568336E+02  0.87335226549E+02 -0.85128070804E+02  0.15771869740E+03  0.93968693138E+02 0.  0.
         23    2    1    2    0    0  0.34217568336E+02 -0.87335226549E+02 -0.21778102142E+02  0.12916412947E+03  0.86086019938E+02 0.  0.
          5    1    4    4  502    0 -0.69036463962E+01 -0.84614544527E+02 -0.77512372301E+01  0.85378294417E+02  0.47000000000E+01 0. -1.
         -5    1    3    3    0  503  0.17948075737E+01  0.57240420122E+02  0.32384030993E+01  0.57552274365E+02  0.47000000000E+01 0.  1.
          5    1    3    3  503    0 -0.36012375910E+02  0.30094806427E+02 -0.88366473903E+02  0.10016642303E+03  0.47000000000E+01 0. -1.
         -5    1    4    4    0  502  0.41121214732E+02 -0.27206820224E+01 -0.14026864912E+02  0.43785835050E+02  0.47000000000E+01 0.  1.
<mgrwt>
<rscale>  0 0.13138617E+03</rscale>
<asrwt>0</asrwt>
<pdfrwt beam="1">  1        1 0.30291461E-01 0.13277198E+03</pdfrwt>
<pdfrwt beam="2">  1       -1 0.13844358E-01 0.13277198E+03</pdfrwt>
<totfact> 0.52151242E+03</totfact>
</mgrwt>
</event>
<event>
 8    1  0.3177960E-004  0.9581778E+02  0.7546771E-02  0.1289645E+00
         -1   -1    0    0    0  501 -0.00000000000E+00  0.00000000000E+00  0.73991175426E+02  0.73991175426E+02  0.00000000000E+00 0.  1.
          1   -1    0    0  501    0  0.00000000000E+00 -0.00000000000E+00 -0.12921975512E+03  0.12921975512E+03  0.00000000000E+00 0. -1.
         23    2    1    2    0    0  0.12857754497E+02  0.24330409625E+02 -0.61049264978E+01  0.96012066438E+02  0.91781022499E+02 0.  0.
         23    2    1    2    0    0 -0.12857754497E+02 -0.24330409625E+02 -0.49123653197E+02  0.10719886411E+03  0.91220460861E+02 0.  0.
          5    1    3    3  502    0 -0.23421442571E+02 -0.24857238977E+02 -0.82443161715E+00  0.34485011080E+02  0.47000000000E+01 0.  1.
         -5    1    3    3    0  502  0.36279197068E+02  0.49187648602E+02 -0.52804948807E+01  0.61527055358E+02  0.47000000000E+01 0. -1.
          5    1    4    4  503    0  0.34621935188E+02  0.87865154898E+01 -0.10784138839E+02  0.37606766693E+02  0.47000000000E+01 0. -1.
         -5    1    4    4    0  503 -0.47479689685E+02 -0.33116925115E+02 -0.38339514359E+02  0.69592097417E+02  0.47000000000E+01 0.  1.
<mgrwt>
<rscale>  0 0.95683294E+02</rscale>
<asrwt>0</asrwt>
<pdfrwt beam="1">  1        1 0.19879962E-01 0.95817779E+02</pdfrwt>
<pdfrwt beam="2">  1       -1 0.11383258E-01 0.95817779E+02</pdfrwt>
<totfact> 0.11630963E+04</totfact>
</mgrwt>
</event>
<event>
 8    1  0.3177960E-004  0.1057908E+03  0.7546771E-02  0.1269443E+00
         -1   -1    0    0    0  501 -0.00000000000E+00  0.00000000000E+00  0.44575599073E+02  0.44575599073E+02  0.00000000000E+00 0.  1.
          1   -1    0    0  501    0  0.00000000000E+00 -0.00000000000E+00 -0.33782049012E+03  0.33782049012E+03  0.00000000000E+00 0. -1.
         23    2    1    2    0    0 -0.36689282260E+02 -0.35461711961E+02 -0.48328741026E+02  0.11630720159E+03  0.92671794434E+02 0.  0.
         23    2    1    2    0    0  0.36689282260E+02  0.35461711961E+02 -0.24491615002E+03  0.26608888761E+03  0.90640714467E+02 0.  0.
          5    1    3    3  502    0  0.53573559845E+01  0.28313930253E+02 -0.11600174490E+02  0.31417096583E+02  0.47000000000E+01 0. -1.
         -5    1    4    4    0  503 -0.34981327668E+01  0.52444471641E+02 -0.83191905668E+02  0.98517220359E+02  0.47000000000E+01 0.  1.
          5    1    4    4  503    0  0.40187415027E+02 -0.16982759680E+02 -0.16172424435E+03  0.16757166725E+03  0.47000000000E+01 0. -1.
         -5    1    3    3    0  502 -0.42046638245E+02 -0.63775642215E+02 -0.36728566536E+02  0.84890105003E+02  0.47000000000E+01 0.  1.
<mgrwt>
<rscale>  0 0.10534435E+03</rscale>
<asrwt>0</asrwt>
<pdfrwt beam="1">  1        1 0.51972384E-01 0.10579082E+03</pdfrwt>
<pdfrwt beam="2">  1       -1 0.68577844E-02 0.10579082E+03</pdfrwt>
<totfact> 0.76754991E+03</totfact>
</mgrwt>
</event>
<event>
 8    1  0.3177960E-004  0.1556014E+03  0.7546771E-02  0.1194017E+00
          1   -1    0    0  501    0  0.00000000000E+00  0.00000000000E+00  0.60707321821E+02  0.60707321821E+02  0.00000000000E+00 0. -1.
         -1   -1    0    0    0  501 -0.00000000000E+00 -0.00000000000E+00 -0.39738674570E+03  0.39738674570E+03  0.00000000000E+00 0.  1.
         23    2    1    2    0    0 -0.56743159716E+02  0.11259209026E+03 -0.17943557252E+03  0.23750561734E+03  0.91186778755E+02 0.  0.
         23    2    1    2    0    0  0.56743159716E+02 -0.11259209026E+03 -0.15724385136E+03  0.22058845018E+03  0.89648595078E+02 0.  0.
          5    1    4    4  502    0 -0.14550016898E+02 -0.23093603850E+02 -0.21279040257E+01  0.27778327992E+02  0.47000000000E+01 0. -1.
         -5    1    3    3    0  503  0.19821818511E+02  0.55535216536E+02 -0.80835700517E+02  0.10016768562E+03  0.47000000000E+01 0.  1.
          5    1    3    3  503    0 -0.76564978227E+02  0.57056873722E+02 -0.98599872005E+02  0.13733793172E+03  0.47000000000E+01 0. -1.
         -5    1    4    4    0  502  0.71293176614E+02 -0.89498486408E+02 -0.15511594733E+03  0.19281012219E+03  0.47000000000E+01 0.  1.
<mgrwt>
<rscale>  0 0.15537681E+03</rscale>
<asrwt>0</asrwt>
<pdfrwt beam="1">  1        1 0.93395880E-02 0.15560139E+03</pdfrwt>
<pdfrwt beam="2">  1       -1 0.61136422E-01 0.15560139E+03</pdfrwt>
<totfact> 0.19299805E+03</totfact>
</mgrwt>
</event>
<event>
 8    1  0.3177960E-004  0.1330470E+03  0.7546771E-02  0.1224301E+00
         -2   -1    0    0    0  501 -0.00000000000E+00  0.00000000000E+00  0.17833717577E+03  0.17833717577E+03  0.00000000000E+00 0.  1.
          2   -1    0    0  501    0  0.00000000000E+00 -0.00000000000E+00 -0.10202328072E+03  0.10202328072E+03  0.00000000000E+00 0. -1.
         23    2    1    2    0    0  0.87517913521E+02  0.30817517135E+02  0.70892351729E+02  0.15075552621E+03  0.95354069650E+02 0.  0.
         23    2    1    2    0    0 -0.87517913521E+02 -0.30817517135E+02  0.54215433222E+01  0.12960493029E+03  0.90326852446E+02 0.  0.
          5    1    3    3  502    0  0.20352906400E+02 -0.31318901981E+02  0.51658694546E+01  0.37998560860E+02  0.47000000000E+01 0. -1.
         -5    1    4    4    0  503 -0.19837567059E+02  0.30731540467E+02 -0.57478584423E+01  0.37324047516E+02  0.47000000000E+01 0.  1.
          5    1    4    4  503    0 -0.67680346463E+02 -0.61549057602E+02  0.11169401764E+02  0.92280882770E+02  0.47000000000E+01 0. -1.
         -5    1    3    3    0  502  0.67165007121E+02  0.62136419115E+02  0.65726482274E+02  0.11275696535E+03  0.47000000000E+01 0.  1.
<mgrwt>
<rscale>  0 0.13214907E+03</rscale>
<asrwt>0</asrwt>
<pdfrwt beam="1">  1        2 0.15695889E-01 0.13304700E+03</pdfrwt>
<pdfrwt beam="2">  1       -2 0.27436489E-01 0.13304700E+03</pdfrwt>
<totfact> 0.42405018E+03</totfact>
</mgrwt>
</event>
<event>
 8    1  0.3177960E-004  0.9358207E+02  0.7546771E-02  0.1297797E+00
          1   -1    0    0  501    0  0.00000000000E+00  0.00000000000E+00  0.37299194408E+03  0.37299194408E+03  0.00000000000E+00 0. -1.
         -1   -1    0    0    0  501 -0.00000000000E+00 -0.00000000000E+00 -0.22274037176E+02  0.22274037176E+02  0.00000000000E+00 0.  1.
         23    2    1    2    0    0  0.23922309872E+01 -0.21148349334E+02  0.19982519147E+03  0.22065292133E+03  0.91129737708E+02 0.  0.
         23    2    1    2    0    0 -0.23922309872E+01  0.21148349334E+02  0.15089271543E+03  0.17461305993E+03  0.85253349955E+02 0.  0.
          5    1    3    3  502    0  0.38032674044E+02 -0.12184469759E+02  0.16491583831E+03  0.16974766367E+03  0.47000000000E+01 0. -1.
         -5    1    4    4    0  503 -0.36982769368E+02 -0.12305101069E+02  0.74354921749E+02  0.84082608967E+02  0.47000000000E+01 0.  1.
          5    1    4    4  503    0  0.34590538381E+02  0.33453450404E+02  0.76537793682E+02  0.90530450960E+02  0.47000000000E+01 0. -1.
         -5    1    3    3    0  502 -0.35640443057E+02 -0.89638795751E+01  0.34909353165E+02  0.50905257653E+02  0.47000000000E+01 0.  1.
<mgrwt>
<rscale>  0 0.92120113E+02</rscale>
<asrwt>0</asrwt>
<pdfrwt beam="1">  1        1 0.57383371E-01 0.93582074E+02</pdfrwt>
<pdfrwt beam="2">  1       -1 0.34267752E-02 0.93582074E+02</pdfrwt>
<totfact> 0.18578883E+04</totfact>
</mgrwt>
</event>
<event>
 8    1  0.3177960E-004  0.9383733E+02  0.7546771E-02  0.1294611E+00
          1   -1    0    0  501    0  0.00000000000E+00  0.00000000000E+00  0.38885777447E+02  0.38885777447E+02  0.00000000000E+00 0. -1.
         -1   -1    0    0    0  501 -0.00000000000E+00 -0.00000000000E+00 -0.23290915460E+03  0.23290915460E+03  0.00000000000E+00 0.  1.
         23    2    1    2    0    0 -0.16571340819E+02  0.24308507674E+02 -0.69855174530E+02  0.11698371700E+03  0.89106294686E+02 0.  0.
         23    2    1    2    0    0  0.16571340819E+02 -0.24308507674E+02 -0.12416820262E+03  0.15481121505E+03  0.87654189174E+02 0.  0.
          5    1    3    3  502    0  0.52341166313E+01 -0.28166827777E+02 -0.31085211273E+01  0.29197929165E+02  0.47000000000E+01 0. -1.
         -5    1    3    3    0  502 -0.21805457450E+02  0.52475335451E+02 -0.66746653403E+02  0.87785787835E+02  0.47000000000E+01 0.  1.
          5    1    4    4  503    0  0.45601342807E+02  0.10148218425E+02 -0.58018565075E+02  0.74637207184E+02  0.47000000000E+01 0. -1.
         -5    1    4    4    0  503 -0.29030001988E+02 -0.34456726100E+02 -0.66149637546E+02  0.80174007861E+02  0.47000000000E+01 0.  1.
<mgrwt>
<rscale>  0 0.93490974E+02</rscale>
<asrwt>0</asrwt>
<pdfrwt beam="1">  1        1 0.59824273E-02 0.93837331E+02</pdfrwt>
<pdfrwt beam="2">  1       -1 0.35832178E-01 0.93837331E+02</pdfrwt>
<totfact> 0.88759311E+03</totfact>
</mgrwt>
</event>
<event>
 8    1  0.3177960E-004  0.1135949E+03  0.7546771E-02  0.1254798E+00
         -1   -1    0    0    0  501 -0.00000000000E+00  0.00000000000E+00  0.56907996712E+02  0.56907996712E+02  0.00000000000E+00 0.  1.
          1   -1    0    0  501    0  0.00000000000E+00 -0.00000000000E+00 -0.28356859345E+03  0.28356859345E+03  0.00000000000E+00 0. -1.
         23    2    1    2    0    0  0.32486880895E+02 -0.58046893898E+02 -0.19238018245E+03  0.22341428884E+03  0.92081325682E+02 0.  0.
         23    2    1    2    0    0 -0.32486880895E+02  0.58046893898E+02 -0.34280414290E+02  0.11706230132E+03  0.90019977031E+02 0.  0.
          5    1    4    4  502    0  0.18585732776E+02  0.53527729031E+02 -0.32616582851E+02  0.65548292997E+02  0.47000000000E+01 0. -1.
         -5    1    4    4    0  502 -0.51072613671E+02  0.45191648671E+01 -0.16638314392E+01  0.51514008322E+02  0.47000000000E+01 0.  1.
          5    1    3    3  503    0  0.85751738276E+01 -0.62602618986E+02 -0.55268192444E+02  0.84079037852E+02  0.47000000000E+01 0. -1.
         -5    1    3    3    0  503  0.23911707067E+02  0.45557250886E+01 -0.13711199000E+03  0.13933525099E+03  0.47000000000E+01 0.  1.
<mgrwt>
<rscale>  0 0.11317652E+03</rscale>
<asrwt>0</asrwt>
<pdfrwt beam="1">  1        1 0.43625937E-01 0.11359494E+03</pdfrwt>
<pdfrwt beam="2">  1       -1 0.87550766E-02 0.11359494E+03</pdfrwt>
<totfact> 0.66376815E+03</totfact>
</mgrwt>
</event>
<event>
 8    1  0.3177960E-004  0.1560911E+03  0.7546771E-02  0.1195631E+00
         -1   -1    0    0    0  501 -0.00000000000E+00  0.00000000000E+00  0.82159236548E+02  0.82159236548E+02  0.00000000000E+00 0.  1.
          1   -1    0    0  501    0  0.00000000000E+00 -0.00000000000E+00 -0.30841310778E+03  0.30841310778E+03  0.00000000000E+00 0. -1.
         23    2    1    2    0    0  0.48554945835E+02  0.11414807592E+03 -0.17383261502E+03  0.23362839013E+03  0.94747457109E+02 0.  0.
         23    2    1    2    0    0 -0.48554945835E+02 -0.11414807592E+03 -0.52421256219E+02  0.15694395420E+03  0.80598080971E+02 0.  0.
          5    1    4    4  502    0 -0.29755399015E+02 -0.15725245820E+02 -0.44955975500E+02  0.56354208892E+02  0.47000000000E+01 0. -1.
         -5    1    3    3    0  503  0.38209783190E+02  0.42971053320E+00 -0.66518893448E+02  0.76857175125E+02  0.47000000000E+01 0.  1.
          5    1    3    3  503    0  0.10345162645E+02  0.11371836539E+03 -0.10731372157E+03  0.15677121500E+03  0.47000000000E+01 0. -1.
         -5    1    4    4    0  502 -0.18799546819E+02 -0.98422830102E+02 -0.74652807184E+01  0.10058974531E+03  0.47000000000E+01 0.  1.
<mgrwt>
<rscale>  0 0.15400971E+03</rscale>
<asrwt>0</asrwt>
<pdfrwt beam="1">  1        1 0.47448170E-01 0.15609115E+03</pdfrwt>
<pdfrwt beam="2">  1       -1 0.12639883E-01 0.15609115E+03</pdfrwt>
<totfact> 0.34734352E+03</totfact>
</mgrwt>
</event>
<event>
 8    1  0.3177960E-004  0.9486378E+02  0.7546771E-02  0.1294216E+00
         -2   -1    0    0    0  501 -0.00000000000E+00  0.00000000000E+00  0.80045340695E+02  0.80045340695E+02  0.00000000000E+00 0.  1.
          2   -1    0    0  501    0  0.00000000000E+00 -0.00000000000E+00 -0.44866780899E+03  0.44866780899E+03  0.00000000000E+00 0. -1.
         23    2    1    2    0    0 -0.84639491727E+01 -0.21786495957E+01  0.47510832172E+02  0.10190398835E+03  0.89726020298E+02 0.  0.
         23    2    1    2    0    0  0.84639491727E+01  0.21786495957E+01 -0.41613330046E+03  0.42680916133E+03  0.94460317018E+02 0.  0.
          5    1    4    4  502    0  0.24512131735E+02  0.33957077455E+02 -0.34034228350E+03  0.34294152220E+03  0.47000000000E+01 0. -1.
         -5    1    4    4    0  502 -0.16048182563E+02 -0.31778427859E+02 -0.75791016962E+02  0.83867639128E+02  0.47000000000E+01 0.  1.
          5    1    3    3  503    0  0.36428333752E+02 -0.17231095554E+02  0.32584817901E+02  0.52036472897E+02  0.47000000000E+01 0. -1.
         -5    1    3    3    0  503 -0.44892282925E+02  0.15052445958E+02  0.14926014271E+02  0.49867515454E+02  0.47000000000E+01 0.  1.
<mgrwt>
<rscale>  0 0.93662890E+02</rscale>
<asrwt>0</asrwt>
<pdfrwt beam="1">  1        2 0.69025817E-01 0.94863778E+02</pdfrwt>
<pdfrwt beam="2">  1       -2 0.12314668E-01 0.94863778E+02</pdfrwt>
<totfact> 0.31829313E+03</totfact>
</mgrwt>
</event>
<event>
 8    1  0.3177960E-004  0.9365687E+02  0.7546771E-02  0.1295071E+00
          2   -1    0    0  501    0  0.00000000000E+00  0.00000000000E+00  0.12989491305E+03  0.12989491305E+03  0.00000000000E+00 0. -1.
         -2   -1    0    0    0  501 -0.00000000000E+00 -0.00000000000E+00 -0.85762261184E+02  0.85762261184E+02  0.00000000000E+00 0.  1.
         23    2    1    2    0    0 -0.17069095119E+02  0.68232320391E+01  0.73053306037E+02  0.11763670142E+03  0.90353181982E+02 0.  0.
         23    2    1    2    0    0  0.17069095119E+02 -0.68232320391E+01 -0.28920654173E+02  0.98020472812E+02  0.91835169456E+02 0.  0.
          5    1    3    3  502    0 -0.53913817102E+02  0.55677280338E+01  0.36535523546E+02  0.65533455202E+02  0.47000000000E+01 0. -1.
         -5    1    3    3    0  502  0.36844721983E+02  0.12555040053E+01  0.36517782491E+02  0.52103246217E+02  0.47000000000E+01 0.  1.
          5    1    4    4  503    0 -0.20179544663E+02 -0.37797862460E+02 -0.23372233336E+02  0.49033088017E+02  0.47000000000E+01 0. -1.
         -5    1    4    4    0  503  0.37248639782E+02  0.30974630421E+02 -0.55484208374E+01  0.48987384796E+02  0.47000000000E+01 0.  1.
<mgrwt>
<rscale>  0 0.93291560E+02</rscale>
<asrwt>0</asrwt>
<pdfrwt beam="1">  1        2 0.19983833E-01 0.93656868E+02</pdfrwt>
<pdfrwt beam="2">  1       -2 0.13194194E-01 0.93656868E+02</pdfrwt>
<totfact> 0.10690719E+04</totfact>
</mgrwt>
</event>
<event>
 8    1  0.3177960E-004  0.1062082E+03  0.7546771E-02  0.1269603E+00
          3   -1    0    0  501    0  0.00000000000E+00  0.00000000000E+00  0.96766892425E+03  0.96766892425E+03  0.00000000000E+00 0. -1.
         -3   -1    0    0    0  501 -0.00000000000E+00 -0.00000000000E+00 -0.11492914480E+02  0.11492914480E+02  0.00000000000E+00 0.  1.
         23    2    1    2    0    0  0.25759139600E+02  0.42773924967E+02  0.55745455278E+03  0.56748195277E+03  0.93739246769E+02 0.  0.
         23    2    1    2    0    0 -0.25759139600E+02 -0.42773924967E+02  0.39872145700E+03  0.41167988596E+03  0.89489587679E+02 0.  0.
          5    1    3    3  502    0  0.43629780625E+02 -0.13588987469E+02  0.20626627978E+03  0.21131986776E+03  0.47000000000E+01 0. -1.
         -5    1    3    3    0  502 -0.17870641025E+02  0.56362912437E+02  0.35118827300E+03  0.35616208501E+03  0.47000000000E+01 0.  1.
          5    1    4    4  503    0  0.13106187264E+01  0.21214774385E+02  0.19857778605E+03  0.19976739345E+03  0.47000000000E+01 0. -1.
         -5    1    4    4    0  503 -0.27069758326E+02 -0.63988699352E+02  0.20014367094E+03  0.21191249250E+03  0.47000000000E+01 0.  1.
<mgrwt>
<rscale>  0 0.10526287E+03</rscale>
<asrwt>0</asrwt>
<pdfrwt beam="1">  1        3 0.14887208E+00 0.10620823E+03</pdfrwt>
<pdfrwt beam="2">  1       -3 0.17681415E-02 0.10620823E+03</pdfrwt>
<totfact> 0.89791969E+02</totfact>
</mgrwt>
</event>
<event>
 8    1  0.3177960E-004  0.9919726E+02  0.7546771E-02  0.1282010E+00
          1   -1    0    0  501    0  0.00000000000E+00  0.00000000000E+00  0.20458185758E+03  0.20458185758E+03  0.00000000000E+00 0. -1.
         -1   -1    0    0    0  501 -0.00000000000E+00 -0.00000000000E+00 -0.49820767443E+02  0.49820767443E+02  0.00000000000E+00 0.  1.
         23    2    1    2    0    0  0.41031026243E+02  0.45689570293E+01  0.53638943064E+02  0.11277071235E+03  0.90197987050E+02 0.  0.
         23    2    1    2    0    0 -0.41031026243E+02 -0.45689570293E+01  0.10112214708E+03  0.14163191268E+03  0.90163682136E+02 0.  0.
          5    1    4    4  502    0 -0.62742292508E+02 -0.22833094614E+02  0.86492281760E+02  0.10936612951E+03  0.47000000000E+01 0. -1.
         -5    1    3    3    0  503  0.26136962362E+02 -0.37380142370E+02  0.41486814026E+01  0.46040388818E+02  0.47000000000E+01 0.  1.
          5    1    3    3  503    0  0.14894063882E+02  0.41949099399E+02  0.49490261661E+02  0.66730323532E+02  0.47000000000E+01 0. -1.
         -5    1    4    4    0  502  0.21711266265E+02  0.18264137585E+02  0.14629865315E+02  0.32265783172E+02  0.47000000000E+01 0.  1.
<mgrwt>
<rscale>  0 0.99189466E+02</rscale>
<asrwt>0</asrwt>
<pdfrwt beam="1">  1        1 0.31474131E-01 0.99197265E+02</pdfrwt>
<pdfrwt beam="2">  1       -1 0.76647336E-02 0.99197265E+02</pdfrwt>
<totfact> 0.11967607E+04</totfact>
</mgrwt>
</event>
<event>
 8    1  0.3177960E-004  0.9392860E+02  0.7546771E-02  0.1294124E+00
          2   -1    0    0  501    0  0.00000000000E+00  0.00000000000E+00  0.43067941187E+03  0.43067941187E+03  0.00000000000E+00 0. -1.
         -2   -1    0    0    0  501 -0.00000000000E+00 -0.00000000000E+00 -0.82828830508E+02  0.82828830508E+02  0.00000000000E+00 0.  1.
         23    2    1    2    0    0 -0.18332714533E+02  0.68769845207E+01  0.39723096070E+03  0.40818502872E+03  0.91865119557E+02 0.  0.
         23    2    1    2    0    0  0.18332714533E+02 -0.68769845207E+01 -0.49380379345E+02  0.10532321366E+03  0.90946006687E+02 0.  0.
          5    1    4    4  502    0 -0.70783240100E+01 -0.34436875929E+02  0.82467978787E+01  0.36415666544E+02  0.47000000000E+01 0. -1.
         -5    1    4    4    0  502  0.25411038543E+02  0.27559891409E+02 -0.57627177223E+02  0.68907547112E+02  0.47000000000E+01 0.  1.
          5    1    3    3  503    0 -0.35083359445E+02  0.24093783125E+02  0.36604510148E+03  0.36854098661E+03  0.47000000000E+01 0. -1.
         -5    1    3    3    0  503  0.16750644911E+02 -0.17216798604E+02  0.31185859221E+02  0.39644042106E+02  0.47000000000E+01 0.  1.
<mgrwt>
<rscale>  0 0.93703106E+02</rscale>
<asrwt>0</asrwt>
<pdfrwt beam="1">  1        2 0.66258370E-01 0.93928598E+02</pdfrwt>
<pdfrwt beam="2">  1       -2 0.12742897E-01 0.93928598E+02</pdfrwt>
<totfact> 0.31473045E+03</totfact>
</mgrwt>
</event>
<event>
 8    1  0.3177960E-004  0.1092303E+03  0.7546771E-02  0.1262038E+00
          2   -1    0    0  501    0  0.00000000000E+00  0.00000000000E+00  0.72923020464E+02  0.72923020464E+02  0.00000000000E+00 0. -1.
         -2   -1    0    0    0  501 -0.00000000000E+00 -0.00000000000E+00 -0.16378780365E+03  0.16378780365E+03  0.00000000000E+00 0.  1.
         23    2    1    2    0    0 -0.62323951985E+02  0.55886016086E+00 -0.50385731851E+02  0.12022126739E+03  0.89609395946E+02 0.  0.
         23    2    1    2    0    0  0.62323951985E+02 -0.55886016086E+00 -0.40479051332E+02  0.11648955673E+03  0.89703265904E+02 0.  0.
          5    1    4    4  502    0  0.80436520365E+02 -0.15954047461E+02 -0.19459379426E+02  0.84411627673E+02  0.47000000000E+01 0. -1.
         -5    1    3    3    0  503 -0.73253689223E+02 -0.18750149967E+02 -0.58933419279E+02  0.95983899777E+02  0.47000000000E+01 0.  1.
          5    1    3    3  503    0  0.10929737237E+02  0.19309010128E+02  0.85476874279E+01  0.24237367608E+02  0.47000000000E+01 0. -1.
         -5    1    4    4    0  502 -0.18112568380E+02  0.15395187300E+02 -0.21019671906E+02  0.32077929053E+02  0.47000000000E+01 0.  1.
<mgrwt>
<rscale>  0 0.10921105E+03</rscale>
<asrwt>0</asrwt>
<pdfrwt beam="1">  1        2 0.11218926E-01 0.10923032E+03</pdfrwt>
<pdfrwt beam="2">  1       -2 0.25198123E-01 0.10923032E+03</pdfrwt>
<totfact> 0.72220112E+03</totfact>
</mgrwt>
</event>
<event>
 8    1  0.3177960E-004  0.1015535E+03  0.7546771E-02  0.1282134E+00
          1   -1    0    0  501    0  0.00000000000E+00  0.00000000000E+00  0.25606667918E+03  0.25606667918E+03  0.00000000000E+00 0. -1.
         -1   -1    0    0    0  501 -0.00000000000E+00 -0.00000000000E+00 -0.58463979585E+02  0.58463979585E+02  0.00000000000E+00 0.  1.
         23    2    1    2    0    0 -0.69767563925E+01 -0.14085708065E+02  0.19179897629E+03  0.21281148068E+03  0.90855911766E+02 0.  0.
         23    2    1    2    0    0  0.69767563925E+01  0.14085708065E+02  0.58037233044E+01  0.10171917808E+03  0.10032958529E+03 0.  0.
          5    1    4    4  502    0  0.14160233693E+02  0.43719896175E+02 -0.29517471383E+02  0.54820731996E+02  0.47000000000E+01 0. -1.
         -5    1    4    4    0  502 -0.71834773004E+01 -0.29634188110E+02  0.35321194688E+02  0.46898446086E+02  0.47000000000E+01 0.  1.
          5    1    3    3  503    0  0.15103584652E+02 -0.34711105987E+02  0.17246610845E+03  0.17663416349E+03  0.47000000000E+01 0. -1.
         -5    1    3    3    0  503 -0.22080341045E+02  0.20625397922E+02  0.19332867835E+02  0.36177317186E+02  0.47000000000E+01 0.  1.
<mgrwt>
<rscale>  0 0.99131220E+02</rscale>
<asrwt>0</asrwt>
<pdfrwt beam="1">  1        1 0.39394873E-01 0.10155347E+03</pdfrwt>
<pdfrwt beam="2">  1       -1 0.89944585E-02 0.10155347E+03</pdfrwt>
<totfact> 0.71634806E+03</totfact>
</mgrwt>
</event>
<event>
 8    1  0.3177960E-004  0.9937483E+02  0.7546771E-02  0.1283296E+00
         -3   -1    0    0    0  501 -0.00000000000E+00  0.00000000000E+00  0.29992034378E+02  0.29992034378E+02  0.00000000000E+00 0.  1.
          3   -1    0    0  501    0  0.00000000000E+00 -0.00000000000E+00 -0.36710476894E+03  0.36710476894E+03  0.00000000000E+00 0. -1.
         23    2    1    2    0    0 -0.38167413890E+02 -0.17648292001E+01 -0.94376492029E+02  0.13480642985E+03  0.88351486546E+02 0.  0.
         23    2    1    2    0    0  0.38167413890E+02  0.17648292001E+01 -0.24273624253E+03  0.26229037347E+03  0.91735982426E+02 0.  0.
          5    1    4    4  502    0  0.32757532899E+02 -0.21728304009E+02 -0.23222264635E+03  0.23557296669E+03  0.47000000000E+01 0. -1.
         -5    1    4    4    0  502  0.54098809918E+01  0.23493133210E+02 -0.10513596177E+02  0.26717406778E+02  0.47000000000E+01 0.  1.
          5    1    3    3  503    0 -0.14406451811E+02 -0.32621190395E+02 -0.87995990141E+02  0.95063516648E+02  0.47000000000E+01 0. -1.
         -5    1    3    3    0  503 -0.23760962079E+02  0.30856361195E+02 -0.63805018885E+01  0.39742913198E+02  0.47000000000E+01 0.  1.
<mgrwt>
<rscale>  0 0.98586616E+02</rscale>
<asrwt>0</asrwt>
<pdfrwt beam="1">  1        3 0.56477654E-01 0.99374829E+02</pdfrwt>
<pdfrwt beam="2">  1       -3 0.46141593E-02 0.99374829E+02</pdfrwt>
<totfact> 0.17530404E+03</totfact>
</mgrwt>
</event>
<event>
 8    1  0.3177960E-004  0.9427976E+02  0.7546771E-02  0.1293771E+00
          2   -1    0    0  501    0  0.00000000000E+00  0.00000000000E+00  0.27123801153E+03  0.27123801153E+03  0.00000000000E+00 0. -1.
         -2   -1    0    0    0  501 -0.00000000000E+00 -0.00000000000E+00 -0.41090108258E+02  0.41090108258E+02  0.00000000000E+00 0.  1.
         23    2    1    2    0    0 -0.10764583055E+02 -0.13799536316E+02  0.18694143274E+03  0.20861952315E+03  0.90932407372E+02 0.  0.
         23    2    1    2    0    0  0.10764583055E+02  0.13799536316E+02  0.43206470530E+02  0.10370859664E+03  0.92641084145E+02 0.  0.
          5    1    4    4  502    0  0.47526361670E+02 -0.62247812021E+01  0.37828346083E+02  0.61241952304E+02  0.47000000000E+01 0. -1.
         -5    1    3    3    0  503  0.44420952312E+01 -0.49909434375E+02  0.78767575319E+02  0.93472481359E+02  0.47000000000E+01 0.  1.
          5    1    3    3  503    0 -0.15206678286E+02  0.36109898058E+02  0.10817385742E+03  0.11514704179E+03  0.47000000000E+01 0. -1.
         -5    1    4    4    0  502 -0.36761778615E+02  0.20024317518E+02  0.53781244473E+01  0.42466644341E+02  0.47000000000E+01 0.  1.
<mgrwt>
<rscale>  0 0.93857325E+02</rscale>
<asrwt>0</asrwt>
<pdfrwt beam="1">  1        2 0.41728924E-01 0.94279764E+02</pdfrwt>
<pdfrwt beam="2">  1       -2 0.63215553E-02 0.94279764E+02</pdfrwt>
<totfact> 0.15107036E+04</totfact>
</mgrwt>
</event>
<event>
 8    1  0.3177960E-004  0.1365106E+03  0.7546771E-02  0.1218124E+00
         -3   -1    0    0    0  501 -0.00000000000E+00  0.00000000000E+00  0.14767747677E+03  0.14767747677E+03  0.00000000000E+00 0.  1.
          3   -1    0    0  501    0  0.00000000000E+00 -0.00000000000E+00 -0.12613783439E+03  0.12613783439E+03  0.00000000000E+00 0. -1.
         23    2    1    2    0    0 -0.16950336246E+01  0.10161637116E+03  0.11754625054E+02  0.13695449464E+03  0.91047253481E+02 0.  0.
         23    2    1    2    0    0  0.16950336246E+01 -0.10161637116E+03  0.97850173265E+01  0.13686081653E+03  0.91139324718E+02 0.  0.
          5    1    3    3  502    0  0.21360069498E+02 -0.77151799441E+01 -0.53983033265E+01  0.23811935019E+02  0.47000000000E+01 0. -1.
         -5    1    4    4    0  503 -0.29259006616E+02 -0.21514480965E+01  0.13237537607E+02  0.32527536011E+02  0.47000000000E+01 0.  1.
          5    1    4    4  503    0  0.30954040241E+02 -0.99464923061E+02 -0.34525202805E+01  0.10433328051E+03  0.47000000000E+01 0. -1.
         -5    1    3    3    0  502 -0.23055103123E+02  0.10933155110E+03  0.17152928380E+02  0.11314255962E+03  0.47000000000E+01 0.  1.
<mgrwt>
<rscale>  0 0.13649521E+03</rscale>
<asrwt>0</asrwt>
<pdfrwt beam="1">  1        3 0.19405821E-01 0.13651057E+03</pdfrwt>
<pdfrwt beam="2">  1       -3 0.22719612E-01 0.13651057E+03</pdfrwt>
<totfact> 0.97636457E+02</totfact>
</mgrwt>
</event>
<event>
 8    1  0.3177960E-004  0.1169422E+03  0.7546771E-02  0.1253131E+00
          1   -1    0    0  501    0  0.00000000000E+00  0.00000000000E+00  0.29990366007E+02  0.29990366007E+02  0.00000000000E+00 0. -1.
         -1   -1    0    0    0  501 -0.00000000000E+00 -0.00000000000E+00 -0.42597592345E+03  0.42597592345E+03  0.00000000000E+00 0.  1.
         23    2    1    2    0    0  0.16462209838E+02 -0.52652361335E+02 -0.22597970284E+03  0.24962318917E+03  0.90562878534E+02 0.  0.
         23    2    1    2    0    0 -0.16462209838E+02  0.52652361335E+02 -0.17000585460E+03  0.20634310028E+03  0.10311260316E+03 0.  0.
          5    1    4    4  502    0  0.40389626606E+02  0.40755584481E+02 -0.98602292007E+02  0.11417898928E+03  0.47000000000E+01 0. -1.
         -5    1    3    3    0  503 -0.11807941343E+02 -0.36865694990E+02 -0.20929364308E+03  0.21289534044E+03  0.47000000000E+01 0.  1.
          5    1    3    3  503    0  0.28270151181E+02 -0.15786666345E+02 -0.16686059757E+02  0.36727848729E+02  0.47000000000E+01 0. -1.
         -5    1    4    4    0  502 -0.56851836444E+02  0.11896776854E+02 -0.71403562593E+02  0.92164111006E+02  0.47000000000E+01 0.  1.
<mgrwt>
<rscale>  0 0.11411639E+03</rscale>
<asrwt>0</asrwt>
<pdfrwt beam="1">  1        1 0.46139027E-02 0.11694223E+03</pdfrwt>
<pdfrwt beam="2">  1       -1 0.65534755E-01 0.11694223E+03</pdfrwt>
<totfact> 0.43129866E+03</totfact>
</mgrwt>
</event>
<event>
 8    1  0.3177960E-004  0.9534840E+02  0.7546771E-02  0.1294495E+00
          1   -1    0    0  501    0  0.00000000000E+00  0.00000000000E+00  0.54159220269E+02  0.54159220269E+02  0.00000000000E+00 0. -1.
         -1   -1    0    0    0  501 -0.00000000000E+00 -0.00000000000E+00 -0.15613378845E+03  0.15613378845E+03  0.00000000000E+00 0.  1.
         23    2    1    2    0    0 -0.13703326218E+02 -0.31841162129E+02 -0.47554783415E+02  0.10654940521E+03  0.88823856985E+02 0.  0.
         23    2    1    2    0    0  0.13703326218E+02  0.31841162129E+02 -0.54419784771E+02  0.10374360351E+03  0.81237808566E+02 0.  0.
          5    1    4    4  502    0  0.45374578489E+02  0.30801868219E+02 -0.42583133057E+02  0.69591814747E+02  0.47000000000E+01 0. -1.
         -5    1    3    3    0  503 -0.20449591008E+02  0.24406555696E+02 -0.36454842827E+02  0.48630353678E+02  0.47000000000E+01 0.  1.
          5    1    3    3  503    0  0.67462647904E+01 -0.56247717825E+02 -0.11099940588E+02  0.57919051531E+02  0.47000000000E+01 0. -1.
         -5    1    4    4    0  502 -0.31671252271E+02  0.10392939096E+01 -0.11836651714E+02  0.34151788768E+02  0.47000000000E+01 0.  1.
<mgrwt>
<rscale>  0 0.93541732E+02</rscale>
<asrwt>0</asrwt>
<pdfrwt beam="1">  1        1 0.83321878E-02 0.95348405E+02</pdfrwt>
<pdfrwt beam="2">  1       -1 0.24020583E-01 0.95348405E+02</pdfrwt>
<totfact> 0.11099188E+04</totfact>
</mgrwt>
</event>
<event>
 8    1  0.3177960E-004  0.1095299E+03  0.7546771E-02  0.1262816E+00
          1   -1    0    0  501    0  0.00000000000E+00  0.00000000000E+00  0.21235698921E+02  0.21235698921E+02  0.00000000000E+00 0. -1.
         -1   -1    0    0    0  501 -0.00000000000E+00 -0.00000000000E+00 -0.65951293315E+03  0.65951293315E+03  0.00000000000E+00 0.  1.
         23    2    1    2    0    0 -0.27306313452E+02 -0.50454376172E+02 -0.46138233525E+03  0.47420507073E+03  0.93303327864E+02 0.  0.
         23    2    1    2    0    0  0.27306313452E+02  0.50454376172E+02 -0.17689489898E+03  0.20654356135E+03  0.89873013858E+02 0.  0.
          5    1    3    3  502    0  0.21148935852E+01 -0.64225923700E+02 -0.18538640846E+03  0.19626424150E+03  0.47000000000E+01 0. -1.
         -5    1    4    4    0  503  0.14701643969E+02 -0.25222932589E+02 -0.54787453638E+02  0.62258250376E+02  0.47000000000E+01 0.  1.
          5    1    4    4  503    0  0.12604669483E+02  0.75677308762E+02 -0.12210744534E+03  0.14428531097E+03  0.47000000000E+01 0. -1.
         -5    1    3    3    0  502 -0.29421207037E+02  0.13771547528E+02 -0.27599592679E+03  0.27794082923E+03  0.47000000000E+01 0.  1.
<mgrwt>
<rscale>  0 0.10879577E+03</rscale>
<asrwt>0</asrwt>
<pdfrwt beam="1">  1        1 0.32670306E-02 0.10952986E+03</pdfrwt>
<pdfrwt beam="2">  1       -1 0.10146353E+00 0.10952986E+03</pdfrwt>
<totfact> 0.28071172E+03</totfact>
</mgrwt>
</event>
<event>
 8    1  0.3177960E-004  0.9698260E+02  0.7546771E-02  0.1286780E+00
          1   -1    0    0  501    0  0.00000000000E+00  0.00000000000E+00  0.62953201806E+03  0.62953201806E+03  0.00000000000E+00 0. -1.
         -1   -1    0    0    0  501 -0.00000000000E+00 -0.00000000000E+00 -0.24224292766E+02  0.24224292766E+02  0.00000000000E+00 0.  1.
         23    2    1    2    0    0  0.77254584801E+01  0.29877762789E+02  0.50504793201E+03  0.51427525602E+03  0.91941622291E+02 0.  0.
         23    2    1    2    0    0 -0.77254584801E+01 -0.29877762789E+02  0.10025979328E+03  0.13948105480E+03  0.91927009536E+02 0.  0.
          5    1    3    3  502    0 -0.81835401657E+01  0.56581852507E+02  0.21472561659E+03  0.22225583633E+03  0.47000000000E+01 0. -1.
         -5    1    4    4    0  503 -0.27902948038E+02 -0.55806381473E+02  0.75594385651E+02  0.98130157772E+02  0.47000000000E+01 0.  1.
          5    1    4    4  503    0  0.20177489558E+02  0.25928618684E+02  0.24665407630E+02  0.41350897031E+02  0.47000000000E+01 0. -1.
         -5    1    3    3    0  502  0.15908998646E+02 -0.26704089718E+02  0.29032231542E+03  0.29201941969E+03  0.47000000000E+01 0.  1.
<mgrwt>
<rscale>  0 0.96979140E+02</rscale>
<asrwt>0</asrwt>
<pdfrwt beam="1">  1        1 0.96851067E-01 0.96982603E+02</pdfrwt>
<pdfrwt beam="2">  1       -1 0.37268148E-02 0.96982603E+02</pdfrwt>
<totfact> 0.84182207E+03</totfact>
</mgrwt>
</event>
<event>
 8    1  0.3177960E-004  0.1047496E+03  0.7546771E-02  0.1273918E+00
         -3   -1    0    0    0  501 -0.00000000000E+00  0.00000000000E+00  0.81428002576E+02  0.81428002576E+02  0.00000000000E+00 0.  1.
          3   -1    0    0  501    0  0.00000000000E+00 -0.00000000000E+00 -0.13090368741E+03  0.13090368741E+03  0.00000000000E+00 0. -1.
         23    2    1    2    0    0  0.55199261814E+00  0.44003617243E+02 -0.43290011760E+02  0.10739960419E+03  0.87886442844E+02 0.  0.
         23    2    1    2    0    0 -0.55199261814E+00 -0.44003617243E+02 -0.61856730701E+01  0.10493208579E+03  0.95057125198E+02 0.  0.
          5    1    4    4  502    0 -0.40722506160E+02 -0.22930955496E+02 -0.27675341813E+02  0.54517573060E+02  0.47000000000E+01 0. -1.
         -5    1    4    4    0  502  0.40170513542E+02 -0.21072661747E+02  0.21489668743E+02  0.50414512732E+02  0.47000000000E+01 0.  1.
          5    1    3    3  503    0 -0.21667925048E+02  0.57949823169E+02 -0.70950118804E+01  0.62450862082E+02  0.47000000000E+01 0. -1.
         -5    1    3    3    0  503  0.22219917666E+02 -0.13946205926E+02 -0.36194999880E+02  0.44948742108E+02  0.47000000000E+01 0.  1.
<mgrwt>
<rscale>  0 0.10309559E+03</rscale>
<asrwt>0</asrwt>
<pdfrwt beam="1">  1        3 0.20139029E-01 0.10474961E+03</pdfrwt>
<pdfrwt beam="2">  1       -3 0.12527385E-01 0.10474961E+03</pdfrwt>
<totfact> 0.24402700E+03</totfact>
</mgrwt>
</event>
<event>
 8    1  0.3177960E-004  0.9193891E+02  0.7546771E-02  0.1299523E+00
         -2   -1    0    0    0  501 -0.00000000000E+00  0.00000000000E+00  0.38860773458E+02  0.38860773458E+02  0.00000000000E+00 0.  1.
          2   -1    0    0  501    0  0.00000000000E+00 -0.00000000000E+00 -0.30069449528E+03  0.30069449528E+03  0.00000000000E+00 0. -1.
         23    2    1    2    0    0  0.42317431270E+01 -0.11449700190E+02 -0.22402939028E+03  0.24216096162E+03  0.91124970997E+02 0.  0.
         23    2    1    2    0    0 -0.42317431270E+01  0.11449700190E+02 -0.37804331551E+02  0.97394307126E+02  0.88924014148E+02 0.  0.
          5    1    4    4  502    0 -0.31663811471E+02 -0.52382647018E+01 -0.52546211081E+02  0.61751361709E+02  0.47000000000E+01 0. -1.
         -5    1    3    3    0  503  0.25968159816E+02 -0.32095804893E+02 -0.47789845590E+02  0.63328077166E+02  0.47000000000E+01 0.  1.
          5    1    3    3  503    0 -0.21736416689E+02  0.20646104703E+02 -0.17623954469E+03  0.17883288445E+03  0.47000000000E+01 0. -1.
         -5    1    4    4    0  502  0.27432068344E+02  0.16687964892E+02  0.14741879531E+02  0.35642945416E+02  0.47000000000E+01 0.  1.
<mgrwt>
<rscale>  0 0.91388745E+02</rscale>
<asrwt>0</asrwt>
<pdfrwt beam="1">  1        2 0.46260692E-01 0.91938912E+02</pdfrwt>
<pdfrwt beam="2">  1       -2 0.59785805E-02 0.91938912E+02</pdfrwt>
<totfact> 0.14713667E+04</totfact>
</mgrwt>
</event>
<event>
 8    1  0.3177960E-004  0.1605352E+03  0.7546771E-02  0.1193518E+00
         -1   -1    0    0    0  501 -0.00000000000E+00  0.00000000000E+00  0.77882603127E+03  0.77882603127E+03  0.00000000000E+00 0.  1.
          1   -1    0    0  501    0  0.00000000000E+00 -0.00000000000E+00 -0.29589503473E+02  0.29589503473E+02  0.00000000000E+00 0. -1.
         23    2    1    2    0    0 -0.82829283034E+02  0.70886492572E+02  0.42329872511E+03  0.45271774594E+03  0.11783871118E+03 0.  0.
         23    2    1    2    0    0  0.82829283034E+02 -0.70886492572E+02  0.32593780269E+03  0.35569778880E+03  0.91650863509E+02 0.  0.
          5    1    3    3  502    0 -0.33900650602E+02  0.36137869698E+02  0.36679726085E+03  0.37015877716E+03  0.47000000000E+01 0.  1.
         -5    1    4    4    0  503  0.57870771673E+01 -0.63795570669E+02  0.16521558204E+03  0.17726151203E+03  0.47000000000E+01 0.  1.
          5    1    4    4  503    0  0.77042205866E+02 -0.70909219028E+01  0.16072222065E+03  0.17843627678E+03  0.47000000000E+01 0. -1.
         -5    1    3    3    0  502 -0.48928632432E+02  0.34748622874E+02  0.56501464260E+02  0.82558968785E+02  0.47000000000E+01 0. -1.
<mgrwt>
<rscale>  0 0.15580300E+03</rscale>
<asrwt>0</asrwt>
<pdfrwt beam="1">  1        1 0.45522319E-02 0.16053519E+03</pdfrwt>
<pdfrwt beam="2">  1       -1 0.11981937E+00 0.16053519E+03</pdfrwt>
<totfact> 0.12402015E+03</totfact>
</mgrwt>
</event>
<event>
 8    1  0.3177960E-004  0.9755452E+02  0.7546771E-02  0.1286174E+00
         -1   -1    0    0    0  501 -0.00000000000E+00  0.00000000000E+00  0.18839590762E+02  0.18839590762E+02  0.00000000000E+00 0.  1.
          1   -1    0    0  501    0  0.00000000000E+00 -0.00000000000E+00 -0.56328252209E+03  0.56328252209E+03  0.00000000000E+00 0. -1.
         23    2    1    2    0    0 -0.16455067753E+02  0.25736931843E+02 -0.17243389605E+03  0.19753453248E+03  0.91396302451E+02 0.  0.
         23    2    1    2    0    0  0.16455067753E+02 -0.25736931843E+02 -0.37200903528E+03  0.38458758036E+03  0.92648398416E+02 0.  0.
          5    1    4    4  502    0  0.22383058506E+02 -0.57935136804E+02 -0.20176248589E+03  0.21115793165E+03  0.47000000000E+01 0. -1.
         -5    1    4    4    0  502 -0.59279907531E+01  0.32198204962E+02 -0.17024654938E+03  0.17342964872E+03  0.47000000000E+01 0.  1.
          5    1    3    3  503    0 -0.21197136412E+02 -0.96315869449E+01 -0.15629355684E+03  0.15808811457E+03  0.47000000000E+01 0. -1.
         -5    1    3    3    0  503  0.47420686592E+01  0.35368518787E+02 -0.16140339210E+02  0.39446417914E+02  0.47000000000E+01 0.  1.
<mgrwt>
<rscale>  0 0.97256072E+02</rscale>
<asrwt>0</asrwt>
<pdfrwt beam="1">  1        1 0.86658842E-01 0.97554521E+02</pdfrwt>
<pdfrwt beam="2">  1       -1 0.28983988E-02 0.97554521E+02</pdfrwt>
<totfact> 0.14065399E+04</totfact>
</mgrwt>
</event>
<event>
 8    1  0.3177960E-004  0.1201424E+03  0.7546771E-02  0.1242941E+00
          1   -1    0    0  501    0  0.00000000000E+00  0.00000000000E+00  0.94779735687E+03  0.94779735687E+03  0.00000000000E+00 0. -1.
         -1   -1    0    0    0  501 -0.00000000000E+00 -0.00000000000E+00 -0.15511631445E+02  0.15511631445E+02  0.00000000000E+00 0.  1.
         23    2    1    2    0    0 -0.59251720352E+01  0.78020669963E+02  0.39878209086E+03  0.41648691779E+03  0.91169425238E+02 0.  0.
         23    2    1    2    0    0  0.59251720352E+01 -0.78020669963E+02  0.53350363457E+03  0.54682207052E+03  0.90917083702E+02 0.  0.
          5    1    4    4  502    0  0.44742728063E+02 -0.29961703330E+02  0.18038689735E+03  0.18831127984E+03  0.47000000000E+01 0. -1.
         -5    1    4    4    0  502 -0.38817556028E+02 -0.48058966633E+02  0.35311673722E+03  0.35851079068E+03  0.47000000000E+01 0.  1.
          5    1    3    3  503    0 -0.32268795395E+02  0.41182225847E+02  0.32897992372E+03  0.33314731140E+03  0.47000000000E+01 0. -1.
         -5    1    3    3    0  503  0.26343623360E+02  0.36838444116E+02  0.69802167137E+02  0.83339606392E+02  0.47000000000E+01 0.  1.
<mgrwt>
<rscale>  0 0.12009453E+03</rscale>
<asrwt>0</asrwt>
<pdfrwt beam="1">  1        1 0.14581493E+00 0.12014240E+03</pdfrwt>
<pdfrwt beam="2">  1       -1 0.23864056E-02 0.12014240E+03</pdfrwt>
<totfact> 0.88848779E+03</totfact>
</mgrwt>
</event>
<event>
 8    1  0.3177960E-004  0.9424470E+02  0.7546771E-02  0.1293277E+00
          1   -1    0    0  501    0  0.00000000000E+00  0.00000000000E+00  0.21321138101E+03  0.21321138101E+03  0.00000000000E+00 0. -1.
         -1   -1    0    0    0  501 -0.00000000000E+00 -0.00000000000E+00 -0.42163479432E+02  0.42163479432E+02  0.00000000000E+00 0.  1.
         23    2    1    2    0    0  0.11877561630E+02 -0.88932179809E+01  0.10348765667E+03  0.13997056062E+03  0.93069312678E+02 0.  0.
         23    2    1    2    0    0 -0.11877561630E+02  0.88932179809E+01  0.67560244909E+02  0.11540429982E+03  0.92377486044E+02 0.  0.
          5    1    3    3  502    0  0.94727961023E+01  0.28300635693E+02  0.97319197717E+02  0.10190081497E+03  0.47000000000E+01 0. -1.
         -5    1    4    4    0  503  0.27967760620E+02 -0.27419171044E+02  0.28389269194E+02  0.48600896908E+02  0.47000000000E+01 0.  1.
          5    1    4    4  503    0 -0.39845322250E+02  0.36312389025E+02  0.39170975715E+02  0.66803402910E+02  0.47000000000E+01 0. -1.
         -5    1    3    3    0  502  0.24047655273E+01 -0.37193853674E+02  0.61684589485E+01  0.38069745654E+02  0.47000000000E+01 0.  1.
<mgrwt>
<rscale>  0 0.94073446E+02</rscale>
<asrwt>0</asrwt>
<pdfrwt beam="1">  1        1 0.32801750E-01 0.94244696E+02</pdfrwt>
<pdfrwt beam="2">  1       -1 0.64866893E-02 0.94244696E+02</pdfrwt>
<totfact> 0.14507380E+04</totfact>
</mgrwt>
</event>
<event>
 8    1  0.3177960E-004  0.1320309E+03  0.7546771E-02  0.1226233E+00
          1   -1    0    0  501    0  0.00000000000E+00  0.00000000000E+00  0.24533204213E+02  0.24533204213E+02  0.00000000000E+00 0. -1.
         -1   -1    0    0    0  501 -0.00000000000E+00 -0.00000000000E+00 -0.70496941937E+03  0.70496941937E+03  0.00000000000E+00 0.  1.
         23    2    1    2    0    0  0.78010216121E+02 -0.39357094604E+02 -0.28524586837E+03  0.31432049951E+03  0.98982807967E+02 0.  0.
         23    2    1    2    0    0 -0.78010216121E+02  0.39357094604E+02 -0.39519034678E+03  0.41518212407E+03  0.92553828898E+02 0.  0.
          5    1    4    4  502    0 -0.58874860179E+02 -0.54694169527E+01 -0.10250801121E+03  0.11843203133E+03  0.47000000000E+01 0. -1.
         -5    1    3    3    0  503 -0.16549244949E+02  0.14880954764E+02 -0.55528887026E+02  0.60007229709E+02  0.47000000000E+01 0.  1.
          5    1    3    3  503    0  0.94559461070E+02 -0.54238049368E+02 -0.22971698135E+03  0.25431326980E+03  0.47000000000E+01 0. -1.
         -5    1    4    4    0  502 -0.19135355942E+02  0.44826511557E+02 -0.29268233558E+03  0.29675009274E+03  0.47000000000E+01 0.  1.
<mgrwt>
<rscale>  0 0.13082743E+03</rscale>
<asrwt>0</asrwt>
<pdfrwt beam="1">  1        1 0.37743391E-02 0.13203095E+03</pdfrwt>
<pdfrwt beam="2">  1       -1 0.10845683E+00 0.13203095E+03</pdfrwt>
<totfact> 0.20042387E+03</totfact>
</mgrwt>
</event>
<event>
 8    1  0.3177960E-004  0.1013269E+03  0.7546771E-02  0.1280673E+00
          1   -1    0    0  501    0  0.00000000000E+00  0.00000000000E+00  0.57231050784E+02  0.57231050784E+02  0.00000000000E+00 0. -1.
         -1   -1    0    0    0  501 -0.00000000000E+00 -0.00000000000E+00 -0.17159321718E+03  0.17159321718E+03  0.00000000000E+00 0.  1.
         23    2    1    2    0    0  0.31814070713E+02 -0.21351254183E+02 -0.69220884259E+02  0.11789691598E+03  0.87407899130E+02 0.  0.
         23    2    1    2    0    0 -0.31814070713E+02  0.21351254183E+02 -0.45141282137E+02  0.11092735198E+03  0.93803682837E+02 0.  0.
          5    1    3    3  502    0 -0.12784499465E+02 -0.42890668510E+02 -0.39942040875E+02  0.60170669774E+02  0.47000000000E+01 0. -1.
         -5    1    4    4    0  503  0.94316630902E+01  0.46812537016E+02 -0.39017143442E+02  0.61844946219E+02  0.47000000000E+01 0.  1.
          5    1    4    4  503    0 -0.41245733803E+02 -0.25461282833E+02 -0.61241386950E+01  0.49082405760E+02  0.47000000000E+01 0. -1.
         -5    1    3    3    0  502  0.44598570178E+02  0.21539414327E+02 -0.29278843384E+02  0.57726246209E+02  0.47000000000E+01 0.  1.
<mgrwt>
<rscale>  0 0.99821105E+02</rscale>
<asrwt>0</asrwt>
<pdfrwt beam="1">  1        1 0.88047772E-02 0.10132691E+03</pdfrwt>
<pdfrwt beam="2">  1       -1 0.26398956E-01 0.10132691E+03</pdfrwt>
<totfact> 0.88963172E+03</totfact>
</mgrwt>
</event>
<event>
 8    1  0.3177960E-004  0.9514780E+02  0.7546771E-02  0.1292377E+00
          4   -1    0    0  501    0  0.00000000000E+00  0.00000000000E+00  0.64820156797E+02  0.64820156797E+02  0.00000000000E+00 0. -1.
         -4   -1    0    0    0  501 -0.00000000000E+00 -0.00000000000E+00 -0.13658078111E+03  0.13658078111E+03  0.00000000000E+00 0.  1.
         23    2    1    2    0    0  0.12744065430E+02  0.88507634358E+01 -0.43225523079E+02  0.10206637105E+03  0.91150156537E+02 0.  0.
         23    2    1    2    0    0 -0.12744065430E+02 -0.88507634358E+01 -0.28535101231E+02  0.99334566854E+02  0.93874154871E+02 0.  0.
          5    1    4    4  502    0 -0.44077071070E+02 -0.31315101345E+02 -0.64481739038E+01  0.54654301871E+02  0.47000000000E+01 0. -1.
         -5    1    4    4    0  502  0.31333005640E+02  0.22464337909E+02 -0.22086927327E+02  0.44680264982E+02  0.47000000000E+01 0.  1.
          5    1    3    3  503    0  0.14293896610E+02 -0.37039915969E+02 -0.17582420762E+01  0.40018149264E+02  0.47000000000E+01 0. -1.
         -5    1    3    3    0  503 -0.15498311801E+01  0.45890679405E+02 -0.41467281003E+02  0.62048221785E+02  0.47000000000E+01 0.  1.
<mgrwt>
<rscale>  0 0.94468954E+02</rscale>
<asrwt>0</asrwt>
<pdfrwt beam="1">  1        4 0.99723319E-02 0.95147802E+02</pdfrwt>
<pdfrwt beam="2">  1       -4 0.21012428E-01 0.95147802E+02</pdfrwt>
<totfact> 0.23641736E+03</totfact>
</mgrwt>
</event>
<event>
 8    1  0.3796279E-004  0.1006720E+03  0.7546771E-02  0.1292638E+00
         -3   -1    0    0    0  501 -0.00000000000E+00  0.00000000000E+00  0.27317969407E+03  0.27317969407E+03  0.00000000000E+00 0.  1.
          3   -1    0    0  501    0  0.00000000000E+00 -0.00000000000E+00 -0.78378587609E+02  0.78378587609E+02  0.00000000000E+00 0. -1.
         23    2    1    2    0    0  0.15124693456E+02 -0.38227964198E+02 -0.46196093628E+02  0.90379230524E+02  0.65910489642E+02 0.  0.
         23    2    1    2    0    0 -0.15124693456E+02  0.38227964198E+02  0.24099720008E+03  0.26117905115E+03  0.91895118002E+02 0.  0.
          5    1    3    3  502    0 -0.21342787507E+02 -0.33396717857E+02 -0.17951163207E+02  0.43762879278E+02  0.47000000000E+01 0. -1.
         -5    1    4    4    0  503 -0.93923647586E+01  0.62280772496E+02  0.21841630874E+03  0.22736509200E+03  0.47000000000E+01 0.  1.
          5    1    4    4  503    0 -0.57323286978E+01 -0.24052808298E+02  0.22580891347E+02  0.33813959149E+02  0.47000000000E+01 0. -1.
         -5    1    3    3    0  502  0.36467480964E+02 -0.48312463410E+01 -0.28244930421E+02  0.46616351247E+02  0.47000000000E+01 0.  1.
<mgrwt>
<rscale>  0 0.94353939E+02</rscale>
<asrwt>0</asrwt>
<pdfrwt beam="1">  1        3 0.12058244E-01 0.10067197E+03</pdfrwt>
<pdfrwt beam="2">  1       -3 0.42027645E-01 0.10067197E+03</pdfrwt>
<totfact> 0.67018395E+02</totfact>
</mgrwt>
</event>
<event>
 8    1  0.3177960E-004  0.1160621E+03  0.7546771E-02  0.1249865E+00
         -2   -1    0    0    0  501 -0.00000000000E+00  0.00000000000E+00  0.10983439513E+02  0.10983439513E+02  0.00000000000E+00 0.  1.
          2   -1    0    0  501    0  0.00000000000E+00 -0.00000000000E+00 -0.12233325298E+04  0.12233325298E+04  0.00000000000E+00 0. -1.
         23    2    1    2    0    0  0.57700189097E+02  0.33449817443E+02 -0.60517967027E+03  0.61615328168E+03  0.94626799136E+02 0.  0.
         23    2    1    2    0    0 -0.57700189097E+02 -0.33449817443E+02 -0.60716942003E+03  0.61816268764E+03  0.94985270763E+02 0.  0.
          5    1    4    4  502    0 -0.78962433698E+02 -0.44695786618E+02 -0.50385414232E+03  0.51198033752E+03  0.47000000000E+01 0. -1.
         -5    1    4    4    0  502  0.21262244600E+02  0.11245969175E+02 -0.10331527771E+03  0.10618235012E+03  0.47000000000E+01 0.  1.
          5    1    3    3  503    0  0.34150349671E+02  0.66167594323E+02 -0.42039159005E+03  0.42696085992E+03  0.47000000000E+01 0. -1.
         -5    1    3    3    0  503  0.23549839426E+02 -0.32717776881E+02 -0.18478808022E+03  0.18919242176E+03  0.47000000000E+01 0.  1.
<mgrwt>
<rscale>  0 0.11598870E+03</rscale>
<asrwt>0</asrwt>
<pdfrwt beam="1">  1        2 0.18820496E+00 0.11606207E+03</pdfrwt>
<pdfrwt beam="2">  1       -2 0.16897603E-02 0.11606207E+03</pdfrwt>
<totfact> 0.18239428E+04</totfact>
</mgrwt>
</event>
<event>
 8    1  0.3177960E-004  0.1223584E+03  0.7546771E-02  0.1239481E+00
         -2   -1    0    0    0  501 -0.00000000000E+00  0.00000000000E+00  0.24093550572E+03  0.24093550572E+03  0.00000000000E+00 0.  1.
          2   -1    0    0  501    0  0.00000000000E+00 -0.00000000000E+00 -0.71212118983E+02  0.71212118983E+02  0.00000000000E+00 0. -1.
         23    2    1    2    0    0  0.74448680046E+02  0.32192032209E+02  0.14126483928E+03  0.18652336279E+03  0.90864058634E+02 0.  0.
         23    2    1    2    0    0 -0.74448680046E+02 -0.32192032209E+02  0.28458547454E+02  0.12562426191E+03  0.91611316762E+02 0.  0.
          5    1    4    4  502    0 -0.53381473883E+02 -0.60715798657E+01 -0.27246446216E+02  0.60422716484E+02  0.47000000000E+01 0. -1.
         -5    1    4    4    0  502 -0.21067206163E+02 -0.26120452343E+02  0.55704993670E+02  0.65201545425E+02  0.47000000000E+01 0.  1.
          5    1    3    3  503    0  0.39487611220E+02 -0.30164327589E+02  0.52241865810E+02  0.72252755256E+02  0.47000000000E+01 0. -1.
         -5    1    3    3    0  503  0.34961068825E+02  0.62356359798E+02  0.89022973469E+02  0.11427060753E+03  0.47000000000E+01 0.  1.
<mgrwt>
<rscale>  0 0.12221849E+03</rscale>
<asrwt>0</asrwt>
<pdfrwt beam="1">  1        2 0.10955711E-01 0.12235835E+03</pdfrwt>
<pdfrwt beam="2">  1       -2 0.37067000E-01 0.12235835E+03</pdfrwt>
<totfact> 0.37435630E+03</totfact>
</mgrwt>
</event>
<event>
 8    1  0.3177960E-004  0.9236769E+02  0.7546771E-02  0.1298133E+00
          1   -1    0    0  501    0  0.00000000000E+00  0.00000000000E+00  0.16385264802E+03  0.16385264802E+03  0.00000000000E+00 0. -1.
         -1   -1    0    0    0  501 -0.00000000000E+00 -0.00000000000E+00 -0.54079582531E+03  0.54079582531E+03  0.00000000000E+00 0.  1.
         23    2    1    2    0    0 -0.61271605689E+01  0.84494241905E+01 -0.52355115548E+03  0.53136925110E+03  0.90213822389E+02 0.  0.
         23    2    1    2    0    0  0.61271605689E+01 -0.84494241905E+01  0.14660797819E+03  0.17327922222E+03  0.91776111926E+02 0.  0.
          5    1    4    4  502    0  0.12075573423E+02 -0.30979892057E+02  0.14566837041E+03  0.14948892041E+03  0.47000000000E+01 0. -1.
         -5    1    3    3    0  503 -0.39758668795E+02  0.20546085821E+02 -0.40408155497E+03  0.40657949586E+03  0.47000000000E+01 0.  1.
          5    1    3    3  503    0  0.33631508226E+02 -0.12096661630E+02 -0.11946960051E+03  0.12478975525E+03  0.47000000000E+01 0. -1.
         -5    1    4    4    0  502 -0.59484128540E+01  0.22530467867E+02  0.93960777408E+00  0.23790301817E+02  0.47000000000E+01 0.  1.
<mgrwt>
<rscale>  0 0.91977190E+02</rscale>
<asrwt>0</asrwt>
<pdfrwt beam="1">  1        1 0.25208099E-01 0.92367687E+02</pdfrwt>
<pdfrwt beam="2">  1       -1 0.83199359E-01 0.92367687E+02</pdfrwt>
<totfact> 0.28949744E+02</totfact>
</mgrwt>
</event>
<event>
 8    1  0.3177960E-004  0.1030101E+03  0.7546771E-02  0.1275074E+00
         -1   -1    0    0    0  501 -0.00000000000E+00  0.00000000000E+00  0.43205487230E+03  0.43205487230E+03  0.00000000000E+00 0.  1.
          1   -1    0    0  501    0  0.00000000000E+00 -0.00000000000E+00 -0.27871349120E+02  0.27871349120E+02  0.00000000000E+00 0. -1.
         23    2    1    2    0    0 -0.21139428747E+02 -0.39886994465E+02  0.28500487310E+03  0.30239964265E+03  0.90442901392E+02 0.  0.
         23    2    1    2    0    0  0.21139428747E+02  0.39886994465E+02  0.11917865008E+03  0.15752657877E+03  0.92591709170E+02 0.  0.
          5    1    4    4  502    0  0.36179429595E+02  0.17879618144E+02  0.58953060705E+01  0.41054555222E+02  0.47000000000E+01 0. -1.
         -5    1    3    3    0  503 -0.52921472444E+02 -0.38223694681E+02  0.15077172343E+03  0.16436525079E+03  0.47000000000E+01 0.  1.
          5    1    3    3  503    0  0.31782043697E+02 -0.16632997842E+01  0.13423314967E+03  0.13803439186E+03  0.47000000000E+01 0. -1.
         -5    1    4    4    0  502 -0.15040000848E+02  0.22007376321E+02  0.11328334401E+03  0.11647202354E+03  0.47000000000E+01 0.  1.
<mgrwt>
<rscale>  0 0.10252487E+03</rscale>
<asrwt>0</asrwt>
<pdfrwt beam="1">  1        1 0.42879002E-02 0.10301006E+03</pdfrwt>
<pdfrwt beam="2">  1       -1 0.66469975E-01 0.10301006E+03</pdfrwt>
<totfact> 0.45948053E+03</totfact>
</mgrwt>
</event>
<event>
 8    1  0.3177960E-004  0.1000322E+03  0.7546771E-02  0.1281761E+00
          2   -1    0    0  501    0  0.00000000000E+00  0.00000000000E+00  0.31726465445E+03  0.31726465445E+03  0.00000000000E+00 0. -1.
         -2   -1    0    0    0  501 -0.00000000000E+00 -0.00000000000E+00 -0.34700898898E+02  0.34700898898E+02  0.00000000000E+00 0.  1.
         23    2    1    2    0    0 -0.36269603066E+02  0.13762988725E+02  0.79277506454E+02  0.12540047869E+03  0.89081159972E+02 0.  0.
         23    2    1    2    0    0  0.36269603066E+02 -0.13762988725E+02  0.20328624909E+03  0.22656507465E+03  0.92203741874E+02 0.  0.
          5    1    3    3  502    0 -0.15514159940E+02  0.42063281919E+02  0.77854041235E+02  0.89963051199E+02  0.47000000000E+01 0. -1.
         -5    1    4    4    0  503 -0.24235806620E+02  0.49893011599E+01  0.18739818084E+02  0.31393283205E+02  0.47000000000E+01 0. -1.
          5    1    4    4  503    0  0.60505409686E+02 -0.18752289885E+02  0.18454643101E+03  0.19517179145E+03  0.47000000000E+01 0.  1.
         -5    1    3    3    0  502 -0.20755443126E+02 -0.28300293193E+02  0.14234652184E+01  0.35437427495E+02  0.47000000000E+01 0.  1.
<mgrwt>
<rscale>  0 0.99306643E+02</rscale>
<asrwt>0</asrwt>
<pdfrwt beam="1">  1        2 0.48809945E-01 0.10003216E+03</pdfrwt>
<pdfrwt beam="2">  1       -2 0.53386001E-02 0.10003216E+03</pdfrwt>
<totfact> 0.16613185E+04</totfact>
</mgrwt>
</event>
<event>
 8    1  0.3177960E-004  0.1252245E+03  0.7546771E-02  0.1236637E+00
          1   -1    0    0  501    0  0.00000000000E+00  0.00000000000E+00  0.55475876901E+03  0.55475876901E+03  0.00000000000E+00 0. -1.
         -1   -1    0    0    0  501 -0.00000000000E+00 -0.00000000000E+00 -0.27189695735E+02  0.27189695735E+02  0.00000000000E+00 0.  1.
         23    2    1    2    0    0  0.34910332062E+02  0.71115020009E+02  0.25892072140E+03  0.28554820556E+03  0.90673923358E+02 0.  0.
         23    2    1    2    0    0 -0.34910332062E+02 -0.71115020009E+02  0.26864835188E+03  0.29640025918E+03  0.96979891318E+02 0.  0.
          5    1    3    3  502    0 -0.14601365084E+02  0.63405970468E+02  0.10506337920E+03  0.12366859182E+03  0.47000000000E+01 0. -1.
         -5    1    3    3    0  502  0.49511697146E+02  0.77090495411E+01  0.15385734219E+03  0.16187961374E+03  0.47000000000E+01 0.  1.
          5    1    4    4  503    0  0.42810176270E+01  0.20934142059E+02  0.78445775925E+02  0.81439518516E+02  0.47000000000E+01 0. -1.
         -5    1    4    4    0  503 -0.39191349689E+02 -0.92049162068E+02  0.19020257595E+03  0.21496074067E+03  0.47000000000E+01 0.  1.
<mgrwt>
<rscale>  0 0.12400234E+03</rscale>
<asrwt>0</asrwt>
<pdfrwt beam="1">  1        1 0.85347495E-01 0.12522451E+03</pdfrwt>
<pdfrwt beam="2">  1       -1 0.41830305E-02 0.12522451E+03</pdfrwt>
<totfact> 0.85809689E+03</totfact>
</mgrwt>
</event>
<event>
 8    1  0.3177960E-004  0.1267148E+03  0.7546771E-02  0.1232992E+00
          1   -1    0    0  501    0  0.00000000000E+00  0.00000000000E+00  0.26357884239E+02  0.26357884239E+02  0.00000000000E+00 0. -1.
         -1   -1    0    0    0  501 -0.00000000000E+00 -0.00000000000E+00 -0.72816698902E+03  0.72816698902E+03  0.00000000000E+00 0.  1.
         23    2    1    2    0    0  0.73759580052E+02 -0.45456444890E+02 -0.50966719525E+03  0.52518309742E+03  0.92465517172E+02 0.  0.
         23    2    1    2    0    0 -0.73759580052E+02  0.45456444890E+02 -0.19214190953E+03  0.22934177584E+03  0.90401176528E+02 0.  0.
          5    1    3    3  502    0 -0.22234352547E+01 -0.48324382686E+02 -0.24476782066E+03  0.24954672039E+03  0.47000000000E+01 0. -1.
         -5    1    3    3    0  502  0.75983015307E+02  0.28679377959E+01 -0.26489937459E+03  0.27563637703E+03  0.47000000000E+01 0.  1.
          5    1    4    4  503    0 -0.62169110272E+02  0.65409848386E+02 -0.10243790243E+03  0.13659817126E+03  0.47000000000E+01 0. -1.
         -5    1    4    4    0  503 -0.11590469780E+02 -0.19953403496E+02 -0.89704007102E+02  0.92743604582E+02  0.47000000000E+01 0.  1.
<mgrwt>
<rscale>  0 0.12633850E+03</rscale>
<asrwt>0</asrwt>
<pdfrwt beam="1">  1        1 0.40550589E-02 0.12671478E+03</pdfrwt>
<pdfrwt beam="2">  1       -1 0.11202570E+00 0.12671478E+03</pdfrwt>
<totfact> 0.16838695E+03</totfact>
</mgrwt>
</event>
<event>
 8    1  0.3177960E-004  0.1225639E+03  0.7546771E-02  0.1239413E+00
          3   -1    0    0  501    0  0.00000000000E+00  0.00000000000E+00  0.62010414129E+02  0.62010414129E+02  0.00000000000E+00 0. -1.
         -3   -1    0    0    0  501 -0.00000000000E+00 -0.00000000000E+00 -0.29523839389E+03  0.29523839389E+03  0.00000000000E+00 0.  1.
         23    2    1    2    0    0  0.43416436343E+02  0.69888802601E+02 -0.19443574113E+03  0.22984163135E+03  0.90843196766E+02 0.  0.
         23    2    1    2    0    0 -0.43416436343E+02 -0.69888802601E+02 -0.38792238636E+02  0.12740717667E+03  0.89209412150E+02 0.  0.
          5    1    4    4  502    0 -0.23217891511E+02 -0.89070454286E+02 -0.36267229658E+02  0.99045536295E+02  0.47000000000E+01 0. -1.
         -5    1    3    3    0  503  0.40480937479E+02  0.22244598392E+02 -0.16957545573E+03  0.17581653405E+03  0.47000000000E+01 0.  1.
          5    1    3    3  503    0  0.29354988638E+01  0.47644204209E+02 -0.24860285391E+02  0.54025097298E+02  0.47000000000E+01 0. -1.
         -5    1    4    4    0  502 -0.20198544832E+02  0.19181651685E+02 -0.25250089784E+01  0.28361640380E+02  0.47000000000E+01 0.  1.
<mgrwt>
<rscale>  0 0.12226132E+03</rscale>
<asrwt>0</asrwt>
<pdfrwt beam="1">  1        3 0.95400636E-02 0.12256393E+03</pdfrwt>
<pdfrwt beam="2">  1       -3 0.45421292E-01 0.12256393E+03</pdfrwt>
<totfact> 0.87700265E+02</totfact>
</mgrwt>
</event>
<event>
 8    1  0.3177960E-004  0.1075224E+03  0.7546771E-02  0.1265936E+00
          2   -1    0    0  501    0  0.00000000000E+00  0.00000000000E+00  0.29795819146E+03  0.29795819146E+03  0.00000000000E+00 0. -1.
         -2   -1    0    0    0  501 -0.00000000000E+00 -0.00000000000E+00 -0.45178694258E+02  0.45178694258E+02  0.00000000000E+00 0.  1.
         23    2    1    2    0    0 -0.47940678770E+02  0.31918053955E+02  0.19421329465E+03  0.22199069419E+03  0.90796440665E+02 0.  0.
         23    2    1    2    0    0  0.47940678770E+02 -0.31918053955E+02  0.58566202548E+02  0.12114619153E+03  0.89046778669E+02 0.  0.
          5    1    3    3  502    0 -0.93053738665E+01  0.30068603695E+02  0.17622363597E+03  0.17907420469E+03  0.47000000000E+01 0. -1.
         -5    1    3    3    0  502 -0.38635304904E+02  0.18494502597E+01  0.17989658680E+02  0.42916489496E+02  0.47000000000E+01 0.  1.
          5    1    4    4  503    0  0.42374459139E+02  0.23671634758E+02  0.18154590768E+02  0.52034798408E+02  0.47000000000E+01 0. -1.
         -5    1    4    4    0  503  0.55662196314E+01 -0.55589688713E+02  0.40411611779E+02  0.69111393118E+02  0.47000000000E+01 0.  1.
<mgrwt>
<rscale>  0 0.10715215E+03</rscale>
<asrwt>0</asrwt>
<pdfrwt beam="1">  1        2 0.45839720E-01 0.10752239E+03</pdfrwt>
<pdfrwt beam="2">  1       -2 0.69505685E-02 0.10752239E+03</pdfrwt>
<totfact> 0.12001532E+04</totfact>
</mgrwt>
</event>
<event>
 8    1  0.3177960E-004  0.9653337E+02  0.7546771E-02  0.1289078E+00
          2   -1    0    0  501    0  0.00000000000E+00  0.00000000000E+00  0.42091260061E+02  0.42091260061E+02  0.00000000000E+00 0. -1.
         -2   -1    0    0    0  501 -0.00000000000E+00 -0.00000000000E+00 -0.21601207293E+03  0.21601207293E+03  0.00000000000E+00 0.  1.
         23    2    1    2    0    0 -0.11058790978E+02 -0.24722231930E+02 -0.87845338088E+02  0.13052009320E+03  0.92656385079E+02 0.  0.
         23    2    1    2    0    0  0.11058790978E+02  0.24722231930E+02 -0.86075474780E+02  0.12758323979E+03  0.90194290876E+02 0.  0.
          5    1    4    4  502    0  0.14543639921E+02 -0.25550344678E+02 -0.67316616140E+02  0.73606755015E+02  0.47000000000E+01 0. -1.
         -5    1    3    3    0  503 -0.49633966341E+02 -0.38657269510E+01 -0.61046528366E+02  0.78912882884E+02  0.47000000000E+01 0.  1.
          5    1    3    3  503    0  0.38575175362E+02 -0.20856504979E+02 -0.26798809722E+02  0.51607210317E+02  0.47000000000E+01 0. -1.
         -5    1    4    4    0  502 -0.34848489427E+01  0.50272576608E+02 -0.18758858640E+02  0.53976484773E+02  0.47000000000E+01 0.  1.
<mgrwt>
<rscale>  0 0.95937709E+02</rscale>
<asrwt>0</asrwt>
<pdfrwt beam="1">  1        2 0.64755785E-02 0.96533369E+02</pdfrwt>
<pdfrwt beam="2">  1       -2 0.33232627E-01 0.96533369E+02</pdfrwt>
<totfact> 0.86156706E+03</totfact>
</mgrwt>
</event>
<event>
 8    1  0.3177960E-004  0.9377212E+02  0.7546771E-02  0.1294369E+00
         -4   -1    0    0    0  501 -0.00000000000E+00  0.00000000000E+00  0.35260201834E+03  0.35260201834E+03  0.00000000000E+00 0.  1.
          4   -1    0    0  501    0  0.00000000000E+00 -0.00000000000E+00 -0.30191648901E+02  0.30191648901E+02  0.00000000000E+00 0. -1.
         23    2    1    2    0    0 -0.15045907747E+02  0.10399950806E+02  0.24195102871E+03  0.25923430238E+03  0.91255602122E+02 0.  0.
         23    2    1    2    0    0  0.15045907747E+02 -0.10399950806E+02  0.80459340730E+02  0.12355936486E+03  0.91971043368E+02 0.  0.
          5    1    4    4  502    0 -0.16808371587E+01  0.39875858989E+02  0.29086502206E+02  0.49608708452E+02  0.47000000000E+01 0. -1.
         -5    1    3    3    0  503  0.27724730032E+02 -0.24071072944E+02  0.11550632292E+03  0.12129253003E+03  0.47000000000E+01 0.  1.
          5    1    3    3  503    0 -0.42770637779E+02  0.34471023750E+02  0.12644470579E+03  0.13794177234E+03  0.47000000000E+01 0. -1.
         -5    1    4    4    0  502  0.16726744906E+02 -0.50275809796E+02  0.51372838524E+02  0.73950656412E+02  0.47000000000E+01 0.  1.
<mgrwt>
<rscale>  0 0.93596230E+02</rscale>
<asrwt>0</asrwt>
<pdfrwt beam="1">  1        4 0.46448693E-02 0.93772123E+02</pdfrwt>
<pdfrwt beam="2">  1       -4 0.54246461E-01 0.93772123E+02</pdfrwt>
<totfact> 0.13334748E+03</totfact>
</mgrwt>
</event>
<event>
 8    1  0.3177960E-004  0.1001785E+03  0.7546771E-02  0.1291469E+00
          1   -1    0    0  501    0  0.00000000000E+00  0.00000000000E+00  0.66192864018E+02  0.66192864018E+02  0.00000000000E+00 0. -1.
         -1   -1    0    0    0  501 -0.00000000000E+00 -0.00000000000E+00 -0.12821983990E+03  0.12821983990E+03  0.00000000000E+00 0.  1.
         23    2    1    2    0    0  0.26537396881E+01  0.41113101031E+02 -0.15501290757E+02  0.10137070319E+03  0.91314840191E+02 0.  0.
         23    2    1    2    0    0 -0.26537396881E+01 -0.41113101031E+02 -0.46525685123E+02  0.93042000728E+02  0.69244820113E+02 0.  0.
          5    1    3    3  502    0 -0.18455204947E+02  0.29073101453E+02 -0.48780875006E+02  0.59895772673E+02  0.47000000000E+01 0.  1.
         -5    1    4    4    0  503 -0.31646156491E+02 -0.27600275595E+02 -0.43383062833E+02  0.60559347539E+02  0.47000000000E+01 0. -1.
          5    1    4    4  503    0  0.28992416803E+02 -0.13512825436E+02 -0.31426222899E+01  0.32482653189E+02  0.47000000000E+01 0.  1.
         -5    1    3    3    0  502  0.21108944635E+02  0.12039999578E+02  0.33279584249E+02  0.41474930515E+02  0.47000000000E+01 0. -1.
<mgrwt>
<rscale>  0 0.94870159E+02</rscale>
<asrwt>0</asrwt>
<pdfrwt beam="1">  1        1 0.10183518E-01 0.10017849E+03</pdfrwt>
<pdfrwt beam="2">  1       -1 0.19726129E-01 0.10017849E+03</pdfrwt>
<totfact> 0.11743135E+04</totfact>
</mgrwt>
</event>
<event>
 8    1  0.3177960E-004  0.9203484E+02  0.7546771E-02  0.1298477E+00
          1   -1    0    0  501    0  0.00000000000E+00  0.00000000000E+00  0.64998844997E+02  0.64998844997E+02  0.00000000000E+00 0. -1.
         -1   -1    0    0    0  501 -0.00000000000E+00 -0.00000000000E+00 -0.13342937059E+03  0.13342937059E+03  0.00000000000E+00 0.  1.
         23    2    1    2    0    0  0.81978822662E+01 -0.16636125792E+02 -0.52091299504E+02  0.10575403034E+03  0.90146799694E+02 0.  0.
         23    2    1    2    0    0 -0.81978822662E+01  0.16636125792E+02 -0.16339226090E+02  0.92674185243E+02  0.89317234318E+02 0.  0.
          5    1    4    4  502    0 -0.56592189098E+01 -0.34691899791E+02  0.68156244141E+01  0.36112288849E+02  0.47000000000E+01 0. -1.
         -5    1    3    3    0  503  0.20545761966E+02 -0.45145716640E+02 -0.63021468833E+01  0.50220226214E+02  0.47000000000E+01 0.  1.
          5    1    3    3  503    0 -0.12347879700E+02  0.28509590848E+02 -0.45789152620E+02  0.55533804129E+02  0.47000000000E+01 0. -1.
         -5    1    4    4    0  502 -0.25386633564E+01  0.51328025583E+02 -0.23154850504E+02  0.56561896394E+02  0.47000000000E+01 0.  1.
<mgrwt>
<rscale>  0 0.91831064E+02</rscale>
<asrwt>0</asrwt>
<pdfrwt beam="1">  1        1 0.99998224E-02 0.92034838E+02</pdfrwt>
<pdfrwt beam="2">  1       -1 0.20527595E-01 0.92034838E+02</pdfrwt>
<totfact> 0.11195684E+04</totfact>
</mgrwt>
</event>
<event>
 8    1  0.3177960E-004  0.1026937E+03  0.7546771E-02  0.1275788E+00
          1   -1    0    0  501    0  0.00000000000E+00  0.00000000000E+00  0.50483411195E+03  0.50483411195E+03  0.00000000000E+00 0. -1.
         -1   -1    0    0    0  501 -0.00000000000E+00 -0.00000000000E+00 -0.35796637634E+02  0.35796637634E+02  0.00000000000E+00 0.  1.
         23    2    1    2    0    0 -0.18134055971E+01  0.44643150712E+02  0.56304627617E+02  0.11531391801E+03  0.90170889146E+02 0.  0.
         23    2    1    2    0    0  0.18134055971E+01 -0.44643150712E+02  0.41273284670E+03  0.42531683158E+03  0.92464615581E+02 0.  0.
          5    1    3    3  502    0  0.38608770732E+02  0.85630893203E+01  0.44393227553E+02  0.59639016832E+02  0.47000000000E+01 0. -1.
         -5    1    4    4    0  503 -0.30674800005E+01  0.28335725596E+02  0.98402212362E+02  0.10255441568E+03  0.47000000000E+01 0.  1.
          5    1    4    4  503    0  0.48808855977E+01 -0.72978876308E+02  0.31433063434E+03  0.32276241590E+03  0.47000000000E+01 0. -1.
         -5    1    3    3    0  502 -0.40422176329E+02  0.36080061391E+02  0.11911400064E+02  0.55674901173E+02  0.47000000000E+01 0.  1.
<mgrwt>
<rscale>  0 0.10217474E+03</rscale>
<asrwt>0</asrwt>
<pdfrwt beam="1">  1        1 0.77666782E-01 0.10269374E+03</pdfrwt>
<pdfrwt beam="2">  1       -1 0.55071754E-02 0.10269374E+03</pdfrwt>
<totfact> 0.63963908E+03</totfact>
</mgrwt>
</event>
<event>
 8    1  0.3177960E-004  0.9201162E+02  0.7546771E-02  0.1298567E+00
         -4   -1    0    0    0  501 -0.00000000000E+00  0.00000000000E+00  0.47552952103E+03  0.47552952103E+03  0.00000000000E+00 0.  1.
          4   -1    0    0  501    0  0.00000000000E+00 -0.00000000000E+00 -0.17650126667E+02  0.17650126667E+02  0.00000000000E+00 0. -1.
         23    2    1    2    0    0 -0.92207245450E+01 -0.35736470077E+01  0.22071136270E+03  0.23878858454E+03  0.90601819898E+02 0.  0.
         23    2    1    2    0    0  0.92207245450E+01  0.35736470077E+01  0.23716803167E+03  0.25439106316E+03  0.91478659020E+02 0.  0.
          5    1    3    3  502    0  0.34119962848E+02  0.18807088866E+02  0.12858442575E+03  0.13443929114E+03  0.47000000000E+01 0. -1.
         -5    1    4    4    0  503 -0.29182625712E+02  0.12503216160E+02  0.19019593655E+03  0.19288478514E+03  0.47000000000E+01 0.  1.
          5    1    4    4  503    0  0.38403350257E+02 -0.89295691527E+01  0.46972095116E+02  0.61506278019E+02  0.47000000000E+01 0. -1.
         -5    1    3    3    0  502 -0.43340687393E+02 -0.22380735874E+02  0.92126936942E+02  0.10434929340E+03  0.47000000000E+01 0.  1.
<mgrwt>
<rscale>  0 0.91792911E+02</rscale>
<asrwt>0</asrwt>
<pdfrwt beam="1">  1        4 0.27154045E-02 0.92011618E+02</pdfrwt>
<pdfrwt beam="2">  1       -4 0.73158378E-01 0.92011618E+02</pdfrwt>
<totfact> 0.16417254E+03</totfact>
</mgrwt>
</event>
<event>
 8    1  0.3177960E-004  0.9218842E+02  0.7546771E-02  0.1300855E+00
         -1   -1    0    0    0  501 -0.00000000000E+00  0.00000000000E+00  0.10727021233E+03  0.10727021233E+03  0.00000000000E+00 0.  1.
          1   -1    0    0  501    0  0.00000000000E+00 -0.00000000000E+00 -0.76008823621E+02  0.76008823621E+02  0.00000000000E+00 0. -1.
         23    2    1    2    0    0 -0.26746803985E+01  0.20209885818E+02  0.27993482073E+02  0.96344904574E+02  0.89906129928E+02 0.  0.
         23    2    1    2    0    0  0.26746803985E+01 -0.20209885818E+02  0.32679066381E+01  0.86934131379E+02  0.84446850651E+02 0.  0.
          5    1    4    4  502    0  0.28977655340E+02 -0.11009532835E+02 -0.29924533959E+02  0.43341458846E+02  0.47000000000E+01 0. -1.
         -5    1    3    3    0  503  0.40137504985E+02  0.14833806629E+02 -0.27814811710E+01  0.43138008334E+02  0.47000000000E+01 0.  1.
          5    1    3    3  503    0 -0.42812185384E+02  0.53760791890E+01  0.30774963244E+02  0.53206896239E+02  0.47000000000E+01 0. -1.
         -5    1    4    4    0  502 -0.26302974941E+02 -0.92003529835E+01  0.33192440597E+02  0.43592672533E+02  0.47000000000E+01 0.  1.
<mgrwt>
<rscale>  0 0.90829748E+02</rscale>
<asrwt>0</asrwt>
<pdfrwt beam="1">  1        1 0.11693665E-01 0.92188424E+02</pdfrwt>
<pdfrwt beam="2">  1       -1 0.16503110E-01 0.92188424E+02</pdfrwt>
<totfact> 0.12880680E+04</totfact>
</mgrwt>
</event>
<event>
 8    1  0.3177960E-004  0.1010242E+03  0.7546771E-02  0.1279936E+00
         -3   -1    0    0    0  501 -0.00000000000E+00  0.00000000000E+00  0.22629603182E+03  0.22629603182E+03  0.00000000000E+00 0.  1.
          3   -1    0    0  501    0  0.00000000000E+00 -0.00000000000E+00 -0.48793708907E+02  0.48793708907E+02  0.00000000000E+00 0. -1.
         23    2    1    2    0    0  0.30829026692E+02  0.19119312372E+02  0.13223891238E+03  0.16438892200E+03  0.90667583726E+02 0.  0.
         23    2    1    2    0    0 -0.30829026692E+02 -0.19119312372E+02  0.45263410540E+02  0.11070081873E+03  0.94286361372E+02 0.  0.
          5    1    3    3  502    0 -0.30444207630E+02 -0.57673879794E+01  0.43758674764E+02  0.53824010994E+02  0.47000000000E+01 0. -1.
         -5    1    3    3    0  502  0.61273234322E+02  0.24886700352E+02  0.88480237612E+02  0.11056491101E+03  0.47000000000E+01 0.  1.
          5    1    4    4  503    0 -0.16730619728E+02 -0.47977232985E+02 -0.45659521407E+01  0.51231498517E+02  0.47000000000E+01 0. -1.
         -5    1    4    4    0  503 -0.14098406964E+02  0.28857920613E+02  0.49829362681E+02  0.59469320209E+02  0.47000000000E+01 0.  1.
<mgrwt>
<rscale>  0 0.10017129E+03</rscale>
<asrwt>0</asrwt>
<pdfrwt beam="1">  1        3 0.75067246E-02 0.10102423E+03</pdfrwt>
<pdfrwt beam="2">  1       -3 0.34814774E-01 0.10102423E+03</pdfrwt>
<totfact> 0.20826276E+03</totfact>
</mgrwt>
</event>
<event>
 7    1  0.3177960E-004  0.3586287E+03  0.7546771E-02  0.1059128E+00
          1   -1    0    0  501    0  0.00000000000E+00  0.00000000000E+00  0.97231470051E+02  0.97231470051E+02  0.00000000000E+00 0. -1.
         -1   -1    0    0    0  501 -0.00000000000E+00 -0.00000000000E+00 -0.33069173941E+03  0.33069173941E+03  0.00000000000E+00 0.  1.
         23    2    1    2    0    0  0.65706565858E+02  0.62926334590E+02 -0.93119613523E+02  0.15846696683E+03  0.90351761306E+02 0.  0.
          5    1    1    2  502    0 -0.63980746966E+02 -0.11025597083E+03 -0.68619160567E+01  0.12774619751E+03  0.47000000000E+01 0. -1.
         -5    1    3    3    0  503  0.59900525329E+02  0.27340816277E+02 -0.10156994696E+03  0.12113685358E+03  0.47000000000E+01 0.  1.
          5    1    3    3  503    0  0.58060405290E+01  0.35585518313E+02  0.84503334341E+01  0.37330113252E+02  0.47000000000E+01 0. -1.
         -5    1    1    2    0  502 -0.17258188926E+01  0.47329636236E+02 -0.13347873978E+03  0.14171004513E+03  0.47000000000E+01 0.  1.
<mgrwt>
<rscale>  0 0.35862874E+03</rscale>
<asrwt>0</asrwt>
<pdfrwt beam="1">  1        1 0.14958687E-01 0.35862874E+03</pdfrwt>
<pdfrwt beam="2">  1       -1 0.50875653E-01 0.35862874E+03</pdfrwt>
<totfact> 0.14931618E+03</totfact>
</mgrwt>
</event>
<event>
 8    1  0.3177960E-004  0.1136673E+03  0.7546771E-02  0.1254662E+00
          1   -1    0    0  501    0  0.00000000000E+00  0.00000000000E+00  0.88585810764E+03  0.88585810764E+03  0.00000000000E+00 0. -1.
         -1   -1    0    0    0  501 -0.00000000000E+00 -0.00000000000E+00 -0.50713310308E+02  0.50713310308E+02  0.00000000000E+00 0.  1.
         23    2    1    2    0    0  0.11603384371E+02 -0.65669306270E+02  0.20306271800E+02  0.11384297912E+03  0.90004349366E+02 0.  0.
         23    2    1    2    0    0 -0.11603384371E+02  0.65669306270E+02  0.81483852554E+03  0.82272843883E+03  0.92049796609E+02 0.  0.
          5    1    4    4  502    0 -0.12776770905E+02  0.88403807242E+02  0.59892668893E+03  0.60556894547E+03  0.47000000000E+01 0. -1.
         -5    1    4    4    0  502  0.11733865347E+01 -0.22734500972E+02  0.21591183661E+03  0.21715949336E+03  0.47000000000E+01 0.  1.
          5    1    3    3  503    0 -0.10856590429E+01 -0.86488382383E+02  0.10965838028E+02  0.87314137151E+02  0.47000000000E+01 0.  1.
         -5    1    3    3    0  503  0.12689043414E+02  0.20819076113E+02  0.93404337716E+01  0.26528841965E+02  0.47000000000E+01 0. -1.
<mgrwt>
<rscale>  0 0.11325256E+03</rscale>
<asrwt>0</asrwt>
<pdfrwt beam="1">  1        1 0.13628585E+00 0.11366733E+03</pdfrwt>
<pdfrwt beam="2">  1       -1 0.78020484E-02 0.11366733E+03</pdfrwt>
<totfact> 0.17357329E+03</totfact>
</mgrwt>
</event>
<event>
 8    1  0.3177960E-004  0.9560190E+02  0.7546771E-02  0.1290045E+00
          3   -1    0    0  501    0  0.00000000000E+00  0.00000000000E+00  0.84413320913E+02  0.84413320913E+02  0.00000000000E+00 0. -1.
         -3   -1    0    0    0  501 -0.00000000000E+00 -0.00000000000E+00 -0.10785875558E+03  0.10785875558E+03  0.00000000000E+00 0.  1.
         23    2    1    2    0    0 -0.13735174853E+02 -0.25000615035E+02 -0.13270790046E+02  0.96518584754E+02  0.91247123539E+02 0.  0.
         23    2    1    2    0    0  0.13735174853E+02  0.25000615035E+02 -0.10174644626E+02  0.95753491744E+02  0.90837888612E+02 0.  0.
          5    1    4    4  502    0  0.24462332684E+02 -0.12803890375E+01  0.34526096897E+02  0.42593268052E+02  0.47000000000E+01 0. -1.
         -5    1    3    3    0  503 -0.51699230688E+02 -0.51973318687E+01 -0.11395255046E+02  0.53401915226E+02  0.47000000000E+01 0.  1.
          5    1    3    3  503    0  0.37964055835E+02 -0.19803283167E+02 -0.18755349999E+01  0.43116669528E+02  0.47000000000E+01 0. -1.
         -5    1    4    4    0  502 -0.10727157831E+02  0.26281004073E+02 -0.44700741523E+02  0.53160223691E+02  0.47000000000E+01 0.  1.
<mgrwt>
<rscale>  0 0.95504121E+02</rscale>
<asrwt>0</asrwt>
<pdfrwt beam="1">  1        3 0.12986665E-01 0.95601900E+02</pdfrwt>
<pdfrwt beam="2">  1       -3 0.16593655E-01 0.95601900E+02</pdfrwt>
<totfact> 0.31540024E+03</totfact>
</mgrwt>
</event>
<event>
 8    1  0.3177960E-004  0.1132394E+03  0.7546771E-02  0.1255305E+00
         -1   -1    0    0    0  501 -0.00000000000E+00  0.00000000000E+00  0.31970443049E+02  0.31970443049E+02  0.00000000000E+00 0.  1.
          1   -1    0    0  501    0  0.00000000000E+00 -0.00000000000E+00 -0.39858909983E+03  0.39858909983E+03  0.00000000000E+00 0. -1.
         23    2    1    2    0    0  0.64511717692E+02 -0.41353120204E+01 -0.16782683133E+03  0.20245743161E+03  0.92974748047E+02 0.  0.
         23    2    1    2    0    0 -0.64511717692E+02  0.41353120204E+01 -0.19879182545E+03  0.22810211127E+03  0.91288119570E+02 0.  0.
          5    1    3    3  502    0 -0.17503412337E+02  0.20590729733E+02 -0.42250255762E+02  0.50373819652E+02  0.47000000000E+01 0. -1.
         -5    1    4    4    0  503 -0.22642894000E+02  0.27991118038E+02 -0.17218102786E+02  0.40184031670E+02  0.47000000000E+01 0.  1.
          5    1    4    4  503    0 -0.41868823692E+02 -0.23855806017E+02 -0.18157372267E+03  0.18791807960E+03  0.47000000000E+01 0. -1.
         -5    1    3    3    0  502  0.82015130029E+02 -0.24726041754E+02 -0.12557657557E+03  0.15208361195E+03  0.47000000000E+01 0.  1.
<mgrwt>
<rscale>  0 0.11289267E+03</rscale>
<asrwt>0</asrwt>
<pdfrwt beam="1">  1        1 0.61321403E-01 0.11323942E+03</pdfrwt>
<pdfrwt beam="2">  1       -1 0.49185295E-02 0.11323942E+03</pdfrwt>
<totfact> 0.10271945E+04</totfact>
</mgrwt>
</event>
<event>
 8    1  0.3177960E-004  0.1482361E+03  0.7546771E-02  0.1202896E+00
         -1   -1    0    0    0  501 -0.00000000000E+00  0.00000000000E+00  0.27782920018E+03  0.27782920018E+03  0.00000000000E+00 0.  1.
          1   -1    0    0  501    0  0.00000000000E+00 -0.00000000000E+00 -0.15730116748E+03  0.15730116748E+03  0.00000000000E+00 0. -1.
         23    2    1    2    0    0 -0.10644751693E+03  0.43868841435E+02  0.21399385998E+03  0.25988825194E+03  0.92157377782E+02 0.  0.
         23    2    1    2    0    0  0.10644751693E+03 -0.43868841435E+02 -0.93465827283E+02  0.17524211572E+03  0.93372314642E+02 0.  0.
          5    1    3    3  502    0 -0.53154488796E+02 -0.22088337697E+02  0.55621714726E+02  0.80182039700E+02  0.47000000000E+01 0. -1.
         -5    1    4    4    0  503  0.25922706390E+02 -0.53074671409E+02 -0.67916539760E+02  0.90131314340E+02  0.47000000000E+01 0.  1.
          5    1    4    4  503    0  0.80524810539E+02  0.92058299738E+01 -0.25549287523E+02  0.85110801375E+02  0.47000000000E+01 0. -1.
         -5    1    3    3    0  502 -0.53293028133E+02  0.65957179131E+02  0.15837214525E+03  0.17970621224E+03  0.47000000000E+01 0.  1.
<mgrwt>
<rscale>  0 0.14804516E+03</rscale>
<asrwt>0</asrwt>
<pdfrwt beam="1">  1        1 0.24200180E-01 0.14823609E+03</pdfrwt>
<pdfrwt beam="2">  1       -1 0.42742954E-01 0.14823609E+03</pdfrwt>
<totfact> 0.10820640E+03</totfact>
</mgrwt>
</event>
<event>
 8    1  0.3177960E-004  0.9359282E+02  0.7546771E-02  0.1301744E+00
          4   -1    0    0  501    0  0.00000000000E+00  0.00000000000E+00  0.54099200331E+03  0.54099200331E+03  0.00000000000E+00 0. -1.
         -4   -1    0    0    0  501 -0.00000000000E+00 -0.00000000000E+00 -0.14300616399E+02  0.14300616399E+02  0.00000000000E+00 0.  1.
         23    2    1    2    0    0  0.63287621703E+01 -0.23314850566E+02  0.26934879424E+03  0.28145904776E+03  0.78017864108E+02 0.  0.
         23    2    1    2    0    0 -0.63287621703E+01  0.23314850566E+02  0.25734259267E+03  0.27383357194E+03  0.90421123840E+02 0.  0.
          5    1    3    3  502    0 -0.48478323192E+01  0.20757930643E+02  0.17778137499E+03  0.17911644384E+03  0.47000000000E+01 0. -1.
         -5    1    4    4    0  503  0.38152667172E+02 -0.17901876941E+01  0.73438749574E+02  0.82910618882E+02  0.47000000000E+01 0.  1.
          5    1    4    4  503    0 -0.44481429343E+02  0.25105038260E+02  0.18390384309E+03  0.19092295306E+03  0.47000000000E+01 0. -1.
         -5    1    3    3    0  502  0.11176594490E+02 -0.44072781209E+02  0.91567419258E+02  0.10234260392E+03  0.47000000000E+01 0.  1.
<mgrwt>
<rscale>  0 0.90458848E+02</rscale>
<asrwt>0</asrwt>
<pdfrwt beam="1">  1        4 0.83229523E-01 0.93592816E+02</pdfrwt>
<pdfrwt beam="2">  1       -4 0.22000952E-02 0.93592816E+02</pdfrwt>
<totfact> 0.17207625E+03</totfact>
</mgrwt>
</event>
<event>
 8    1  0.3269353E-004  0.9463238E+02  0.7546771E-02  0.1293276E+00
         -2   -1    0    0    0  501 -0.00000000000E+00  0.00000000000E+00  0.10906201725E+03  0.10906201725E+03  0.00000000000E+00 0.  1.
          2   -1    0    0  501    0  0.00000000000E+00 -0.00000000000E+00 -0.14805956130E+03  0.14805956130E+03  0.00000000000E+00 0. -1.
         23    2    1    2    0    0  0.19284663437E+02 -0.25182485627E+01 -0.10640487459E+03  0.14093623138E+03  0.90348127598E+02 0.  0.
         23    2    1    2    0    0 -0.19284663437E+02  0.25182485627E+01  0.67407330538E+02  0.11618534716E+03  0.92612347260E+02 0.  0.
          5    1    4    4  502    0  0.25913579518E+02 -0.93835734191E+01 -0.64150893040E+01  0.28684637427E+02  0.47000000000E+01 0. -1.
         -5    1    4    4    0  502 -0.45198242955E+02  0.11901821982E+02  0.73822419842E+02  0.87500709734E+02  0.47000000000E+01 0.  1.
          5    1    3    3  503    0  0.51277916485E+02 -0.19857132685E+02 -0.56358108360E+02  0.78880015311E+02  0.47000000000E+01 0. -1.
         -5    1    3    3    0  503 -0.31993253049E+02  0.17338884122E+02 -0.50046766231E+02  0.62056216074E+02  0.47000000000E+01 0.  1.
<mgrwt>
<rscale>  0 0.94073771E+02</rscale>
<asrwt>0</asrwt>
<pdfrwt beam="1">  1        2 0.22778394E-01 0.94632377E+02</pdfrwt>
<pdfrwt beam="2">  1       -2 0.16778772E-01 0.94632377E+02</pdfrwt>
<totfact> 0.62721332E+03</totfact>
</mgrwt>
</event>
<event>
 8    1  0.3177960E-004  0.1088044E+03  0.7546771E-02  0.1268071E+00
         -2   -1    0    0    0  501 -0.00000000000E+00  0.00000000000E+00  0.25942904316E+02  0.25942904316E+02  0.00000000000E+00 0.  1.
          2   -1    0    0  501    0  0.00000000000E+00 -0.00000000000E+00 -0.44534083318E+03  0.44534083318E+03  0.00000000000E+00 0. -1.
         23    2    1    2    0    0 -0.37010293674E+02  0.21393130396E+02 -0.28321768443E+03  0.30339849616E+03  0.10005479914E+03 0.  0.
         23    2    1    2    0    0  0.37010293674E+02 -0.21393130396E+02 -0.13618024444E+03  0.16788524134E+03  0.88390991731E+02 0.  0.
          5    1    4    4  502    0  0.43110270570E+02  0.23375683500E+02 -0.92836115623E+02  0.10509782287E+03  0.47000000000E+01 0. -1.
         -5    1    3    3    0  503  0.39722928250E+01 -0.33845236676E+02 -0.53902287452E+02  0.63943926596E+02  0.47000000000E+01 0.  1.
          5    1    3    3  503    0 -0.40982586499E+02  0.55238367072E+02 -0.22931539698E+03  0.23945456957E+03  0.47000000000E+01 0. -1.
         -5    1    4    4    0  502 -0.60999768960E+01 -0.44768813896E+02 -0.43344128812E+02  0.62787418471E+02  0.47000000000E+01 0.  1.
<mgrwt>
<rscale>  0 0.10604657E+03</rscale>
<asrwt>0</asrwt>
<pdfrwt beam="1">  1        2 0.68513969E-01 0.10880437E+03</pdfrwt>
<pdfrwt beam="2">  1       -2 0.39912164E-02 0.10880437E+03</pdfrwt>
<totfact> 0.18029213E+04</totfact>
</mgrwt>
</event>
<event>
 8    1  0.3177960E-004  0.9552528E+02  0.7546771E-02  0.1295685E+00
          2   -1    0    0  501    0  0.00000000000E+00  0.00000000000E+00  0.78794700204E+02  0.78794700204E+02  0.00000000000E+00 0. -1.
         -2   -1    0    0    0  501 -0.00000000000E+00 -0.00000000000E+00 -0.11042373582E+03  0.11042373582E+03  0.00000000000E+00 0.  1.
         23    2    1    2    0    0  0.19901307774E+02 -0.14661668155E+02 -0.38586734618E+02  0.10302434331E+03  0.92271624363E+02 0.  0.
         23    2    1    2    0    0 -0.19901307774E+02  0.14661668155E+02  0.69576990010E+01  0.86194092711E+02  0.82279921479E+02 0.  0.
          5    1    4    4  502    0 -0.50449377752E+02  0.17909183301E+01  0.12599906178E+02  0.52241695414E+02  0.47000000000E+01 0. -1.
         -5    1    4    4    0  502  0.30548069977E+02  0.12870749825E+02 -0.56422071772E+01  0.33952397297E+02  0.47000000000E+01 0.  1.
          5    1    3    3  503    0 -0.29793969075E+02 -0.60837850144E+01 -0.42223051684E+02  0.52245278512E+02  0.47000000000E+01 0. -1.
         -5    1    3    3    0  503  0.49695276850E+02 -0.85778831407E+01  0.36363170655E+01  0.50779064802E+02  0.47000000000E+01 0.  1.
<mgrwt>
<rscale>  0 0.93025761E+02</rscale>
<asrwt>0</asrwt>
<pdfrwt beam="1">  1        2 0.12122262E-01 0.95525281E+02</pdfrwt>
<pdfrwt beam="2">  1       -2 0.16988267E-01 0.95525281E+02</pdfrwt>
<totfact> 0.12657078E+04</totfact>
</mgrwt>
</event>
<event>
 8    1  0.3177960E-004  0.1459940E+03  0.7546771E-02  0.1205491E+00
          1   -1    0    0  501    0  0.00000000000E+00  0.00000000000E+00  0.84326308610E+02  0.84326308610E+02  0.00000000000E+00 0. -1.
         -1   -1    0    0    0  501 -0.00000000000E+00 -0.00000000000E+00 -0.39519739199E+03  0.39519739199E+03  0.00000000000E+00 0.  1.
         23    2    1    2    0    0  0.10198637363E+03  0.49433415960E+02 -0.29940507041E+03  0.33310303622E+03  0.92029090685E+02 0.  0.
         23    2    1    2    0    0 -0.10198637363E+03 -0.49433415960E+02 -0.11466012970E+02  0.14642066438E+03  0.91992708862E+02 0.  0.
          5    1    3    3  502    0  0.60269258253E+02 -0.20979844294E+02 -0.12811527074E+03  0.14320666868E+03  0.47000000000E+01 0. -1.
         -5    1    4    4    0  503 -0.38482160179E+02  0.24371434427E+02 -0.16849285728E+02  0.48793769045E+02  0.47000000000E+01 0.  1.
          5    1    4    4  503    0 -0.63504213452E+02 -0.73804850387E+02  0.53832727584E+01  0.97626895333E+02  0.47000000000E+01 0. -1.
         -5    1    3    3    0  502  0.41717115378E+02  0.70413260254E+02 -0.17128979967E+03  0.18989636754E+03  0.47000000000E+01 0.  1.
<mgrwt>
<rscale>  0 0.14598823E+03</rscale>
<asrwt>0</asrwt>
<pdfrwt beam="1">  1        1 0.12973278E-01 0.14599396E+03</pdfrwt>
<pdfrwt beam="2">  1       -1 0.60799599E-01 0.14599396E+03</pdfrwt>
<totfact> 0.12601746E+03</totfact>
</mgrwt>
</event>
<event>
 8    1  0.3177960E-004  0.2228598E+03  0.7546771E-02  0.1135175E+00
         -2   -1    0    0    0  501 -0.00000000000E+00  0.00000000000E+00  0.19664069547E+03  0.19664069547E+03  0.00000000000E+00 0.  1.
          2   -1    0    0  501    0  0.00000000000E+00 -0.00000000000E+00 -0.40835930871E+03  0.40835930871E+03  0.00000000000E+00 0. -1.
         23    2    1    2    0    0  0.14821189463E+03  0.10888332317E+03 -0.30158138891E+03  0.36470475240E+03  0.90751741095E+02 0.  0.
         23    2    1    2    0    0 -0.14821189463E+03 -0.10888332317E+03  0.89862775665E+02  0.24029525179E+03  0.12587353101E+03 0.  0.
          5    1    3    3  502    0  0.11113437318E+03  0.40686343055E+02 -0.12739945126E+03  0.17395096319E+03  0.47000000000E+01 0. -1.
         -5    1    3    3    0  502  0.37077521444E+02  0.68196980113E+02 -0.17418193765E+03  0.19075378921E+03  0.47000000000E+01 0.  1.
          5    1    4    4  503    0 -0.55569957865E+02  0.20256883582E+02  0.37022739355E+01  0.59448787892E+02  0.47000000000E+01 0. -1.
         -5    1    4    4    0  503 -0.92641936762E+02 -0.12914020675E+03  0.86160501730E+02  0.18084646390E+03  0.47000000000E+01 0.  1.
<mgrwt>
<rscale>  0 0.21827559E+03</rscale>
<asrwt>0</asrwt>
<pdfrwt beam="1">  1        2 0.62824508E-01 0.22285980E+03</pdfrwt>
<pdfrwt beam="2">  1       -2 0.30252415E-01 0.22285980E+03</pdfrwt>
<totfact> 0.78738485E+02</totfact>
</mgrwt>
</event>
<event>
 8    1  0.3177960E-004  0.1487620E+03  0.7546771E-02  0.1202158E+00
         -1   -1    0    0    0  501 -0.00000000000E+00  0.00000000000E+00  0.76497445829E+02  0.76497445829E+02  0.00000000000E+00 0.  1.
          1   -1    0    0  501    0  0.00000000000E+00 -0.00000000000E+00 -0.54479385705E+03  0.54479385705E+03  0.00000000000E+00 0. -1.
         23    2    1    2    0    0  0.57941299329E+02  0.10171051811E+03 -0.20799543546E+02  0.14971567666E+03  0.90994171053E+02 0.  0.
         23    2    1    2    0    0 -0.57941299329E+02 -0.10171051811E+03 -0.44749686768E+03  0.47157562622E+03  0.91803600141E+02 0.  0.
          5    1    4    4  502    0 -0.33699458381E+02 -0.70153852814E+02 -0.40774483678E+03  0.41513269984E+03  0.47000000000E+01 0. -1.
         -5    1    3    3    0  503 -0.17312329704E+01  0.86204331850E+02 -0.14557398299E+02  0.87568212512E+02  0.47000000000E+01 0.  1.
          5    1    3    3  503    0  0.59672532299E+02  0.15506186258E+02 -0.62421452476E+01  0.62147464153E+02  0.47000000000E+01 0. -1.
         -5    1    4    4    0  502 -0.24241840948E+02 -0.31556665294E+02 -0.39752030901E+02  0.56442926375E+02  0.47000000000E+01 0.  1.
<mgrwt>
<rscale>  0 0.14863728E+03</rscale>
<asrwt>0</asrwt>
<pdfrwt beam="1">  1        1 0.83814440E-01 0.14876197E+03</pdfrwt>
<pdfrwt beam="2">  1       -1 0.11768838E-01 0.14876197E+03</pdfrwt>
<totfact> 0.18739631E+03</totfact>
</mgrwt>
</event>
<event>
 8    1  0.3177960E-004  0.1260903E+03  0.7546771E-02  0.1235946E+00
          2   -1    0    0  501    0  0.00000000000E+00  0.00000000000E+00  0.41483080772E+03  0.41483080772E+03  0.00000000000E+00 0. -1.
         -2   -1    0    0    0  501 -0.00000000000E+00 -0.00000000000E+00 -0.15810146273E+03  0.15810146273E+03  0.00000000000E+00 0.  1.
         23    2    1    2    0    0 -0.86515712041E+02 -0.14902280199E+02 -0.12218875260E+03  0.17558147318E+03  0.90508099510E+02 0.  0.
         23    2    1    2    0    0  0.86515712041E+02  0.14902280199E+02  0.37891809759E+03  0.39735079726E+03  0.81250753942E+02 0.  0.
          5    1    3    3  502    0 -0.71624391081E+02  0.95567425515E+01 -0.29041135288E+02  0.78018345693E+02  0.47000000000E+01 0. -1.
         -5    1    4    4    0  503  0.41909538242E+02 -0.50605815151E+01  0.53796078831E+02  0.68542884230E+02  0.47000000000E+01 0.  1.
          5    1    4    4  503    0  0.44606173799E+02  0.19962861714E+02  0.32512201876E+03  0.32880791303E+03  0.47000000000E+01 0. -1.
         -5    1    3    3    0  502 -0.14891320961E+02 -0.24459022751E+02 -0.93147617315E+02  0.97563127489E+02  0.47000000000E+01 0.  1.
<mgrwt>
<rscale>  0 0.12444040E+03</rscale>
<asrwt>0</asrwt>
<pdfrwt beam="1">  1        2 0.63820124E-01 0.12609029E+03</pdfrwt>
<pdfrwt beam="2">  1       -2 0.24323302E-01 0.12609029E+03</pdfrwt>
<totfact> 0.11326229E+03</totfact>
</mgrwt>
</event>
<event>
 8    1  0.3177960E-004  0.1134464E+03  0.7546771E-02  0.1254730E+00
         -2   -1    0    0    0  501 -0.00000000000E+00  0.00000000000E+00  0.37667261980E+03  0.37667261980E+03  0.00000000000E+00 0.  1.
          2   -1    0    0  501    0  0.00000000000E+00 -0.00000000000E+00 -0.33890576910E+02  0.33890576910E+02  0.00000000000E+00 0. -1.
         23    2    1    2    0    0 -0.54855972526E+02 -0.38627705507E+02  0.17142783422E+03  0.20556649131E+03  0.91481160065E+02 0.  0.
         23    2    1    2    0    0  0.54855972526E+02  0.38627705507E+02  0.17135420866E+03  0.20499670540E+03  0.90333310819E+02 0.  0.
          5    1    4    4  502    0 -0.22967386062E+02  0.18241908009E+02  0.29584628031E+02  0.41923838637E+02  0.47000000000E+01 0. -1.
         -5    1    4    4    0  502  0.77823358588E+02  0.20385797498E+02  0.14176958063E+03  0.16307286676E+03  0.47000000000E+01 0.  1.
          5    1    3    3  503    0 -0.78847967070E+02 -0.18780566966E+02  0.13373348305E+03  0.15644950015E+03  0.47000000000E+01 0. -1.
         -5    1    3    3    0  503  0.23991994543E+02 -0.19847138542E+02  0.37694351173E+02  0.49116991162E+02  0.47000000000E+01 0.  1.
<mgrwt>
<rscale>  0 0.11321478E+03</rscale>
<asrwt>0</asrwt>
<pdfrwt beam="1">  1        2 0.52139351E-02 0.11344638E+03</pdfrwt>
<pdfrwt beam="2">  1       -2 0.57949631E-01 0.11344638E+03</pdfrwt>
<totfact> 0.39680028E+03</totfact>
</mgrwt>
</event>
<event>
 8    1  0.3177960E-004  0.9607150E+02  0.7546771E-02  0.1289936E+00
         -1   -1    0    0    0  501 -0.00000000000E+00  0.00000000000E+00  0.30896416583E+03  0.30896416583E+03  0.00000000000E+00 0.  1.
          1   -1    0    0  501    0  0.00000000000E+00 -0.00000000000E+00 -0.29263219798E+02  0.29263219798E+02  0.00000000000E+00 0. -1.
         23    2    1    2    0    0  0.19192036487E+02  0.21698623745E+02  0.13321819737E+03  0.16305053588E+03  0.89438384380E+02 0.  0.
         23    2    1    2    0    0 -0.19192036487E+02 -0.21698623745E+02  0.14648274865E+03  0.17517684975E+03  0.91600046386E+02 0.  0.
          5    1    4    4  502    0 -0.90247045280E+01 -0.43234209929E+02  0.24344291387E+02  0.50649548104E+02  0.47000000000E+01 0. -1.
         -5    1    4    4    0  502 -0.10167331959E+02  0.21535586184E+02  0.12213845727E+03  0.12452730165E+03  0.47000000000E+01 0.  1.
          5    1    3    3  503    0  0.26024786300E+02 -0.30716999953E+02  0.50209191439E+02  0.64528106226E+02  0.47000000000E+01 0. -1.
         -5    1    3    3    0  503 -0.68327498127E+01  0.52415623699E+02  0.83009005935E+02  0.98522429650E+02  0.47000000000E+01 0.  1.
<mgrwt>
<rscale>  0 0.95552613E+02</rscale>
<asrwt>0</asrwt>
<pdfrwt beam="1">  1        1 0.45020340E-02 0.96071500E+02</pdfrwt>
<pdfrwt beam="2">  1       -1 0.47532946E-01 0.96071500E+02</pdfrwt>
<totfact> 0.79719325E+03</totfact>
</mgrwt>
</event>
<event>
 8    1  0.3177960E-004  0.1159588E+03  0.7546771E-02  0.1252153E+00
          1   -1    0    0  501    0  0.00000000000E+00  0.00000000000E+00  0.11226489581E+02  0.11226489581E+02  0.00000000000E+00 0. -1.
         -1   -1    0    0    0  501 -0.00000000000E+00 -0.00000000000E+00 -0.11866188029E+04  0.11866188029E+04  0.00000000000E+00 0.  1.
         23    2    1    2    0    0  0.60727311639E+02 -0.23893580175E+02 -0.48965780810E+03  0.50320096444E+03  0.95852657905E+02 0.  0.
         23    2    1    2    0    0 -0.60727311639E+02  0.23893580175E+02 -0.68573450524E+03  0.69464432806E+03  0.89667280983E+02 0.  0.
          5    1    4    4  502    0 -0.80388082693E+02  0.55193340272E+01 -0.43489162397E+03  0.44231834857E+03  0.47000000000E+01 0. -1.
         -5    1    3    3    0  503  0.38701516962E+02  0.35320453454E+02 -0.22213010484E+03  0.22827442985E+03  0.47000000000E+01 0.  1.
          5    1    3    3  503    0  0.22025794677E+02 -0.59214033629E+02 -0.26752770326E+03  0.27492653459E+03  0.47000000000E+01 0. -1.
         -5    1    4    4    0  502  0.19660771053E+02  0.18374246148E+02 -0.25084288127E+03  0.25232597949E+03  0.47000000000E+01 0.  1.
<mgrwt>
<rscale>  0 0.11467300E+03</rscale>
<asrwt>0</asrwt>
<pdfrwt beam="1">  1        1 0.17271539E-02 0.11595879E+03</pdfrwt>
<pdfrwt beam="2">  1       -1 0.18255656E+00 0.11595879E+03</pdfrwt>
<totfact> 0.15792853E+03</totfact>
</mgrwt>
</event>
<event>
 8    1  0.3177960E-004  0.3724397E+03  0.7546771E-02  0.1053909E+00
          3   -1    0    0  501    0  0.00000000000E+00  0.00000000000E+00  0.73758647811E+02  0.73758647811E+02  0.00000000000E+00 0. -1.
         -3   -1    0    0    0  501 -0.00000000000E+00 -0.00000000000E+00 -0.21906226985E+04  0.21906226985E+04  0.00000000000E+00 0.  1.
         23    2    1    2    0    0 -0.25070869185E+03  0.25650643063E+03 -0.62538846205E+03  0.72710754277E+03  0.94468265399E+02 0.  0.
         23    2    1    2    0    0  0.25070869185E+03 -0.25650643063E+03 -0.14914755886E+04  0.15372738035E+04  0.10030412959E+03 0.  0.
          5    1    4    4  502    0  0.16637576608E+03 -0.14299095633E+03 -0.71148831925E+03  0.74455693372E+03  0.47000000000E+01 0. -1.
         -5    1    3    3    0  503 -0.20927963860E+03  0.15770119282E+03 -0.47314793247E+03  0.54088694692E+03  0.47000000000E+01 0.  1.
          5    1    3    3  503    0 -0.41429053248E+02  0.98805237812E+02 -0.15224052958E+03  0.18622059585E+03  0.47000000000E+01 0. -1.
         -5    1    4    4    0  502  0.84332925775E+02 -0.11351547430E+03 -0.77998726940E+03  0.79271686982E+03  0.47000000000E+01 0.  1.
<mgrwt>
<rscale>  0 0.37205681E+03</rscale>
<asrwt>0</asrwt>
<pdfrwt beam="1">  1        3 0.11347485E-01 0.37243968E+03</pdfrwt>
<pdfrwt beam="2">  1       -3 0.33701886E+00 0.37243968E+03</pdfrwt>
<totfact> 0.40827028E+00</totfact>
</mgrwt>
</event>
<event>
 8    1  0.3177960E-004  0.9700214E+02  0.7546771E-02  0.1287094E+00
         -2   -1    0    0    0  501 -0.00000000000E+00  0.00000000000E+00  0.14266104523E+02  0.14266104523E+02  0.00000000000E+00 0.  1.
          2   -1    0    0  501    0  0.00000000000E+00 -0.00000000000E+00 -0.91729845461E+03  0.91729845461E+03  0.00000000000E+00 0. -1.
         23    2    1    2    0    0  0.26858716273E+02  0.12936015612E+02 -0.70166404244E+03  0.70833737964E+03  0.92307550047E+02 0.  0.
         23    2    1    2    0    0 -0.26858716273E+02 -0.12936015612E+02 -0.20136830764E+03  0.22322717950E+03  0.91610300741E+02 0.  0.
          5    1    3    3  502    0  0.23417544193E+02 -0.37984819496E+02 -0.28048265271E+03  0.28404900345E+03  0.47000000000E+01 0. -1.
         -5    1    3    3    0  502  0.34411720800E+01  0.50920835108E+02 -0.42118138973E+03  0.42428837619E+03  0.47000000000E+01 0.  1.
          5    1    4    4  503    0 -0.51282706631E+02 -0.84815560252E+01 -0.18702793616E+03  0.19417361225E+03  0.47000000000E+01 0. -1.
         -5    1    4    4    0  503  0.24423990357E+02 -0.44544595871E+01 -0.14340371490E+02  0.29053567245E+02  0.47000000000E+01 0.  1.
<mgrwt>
<rscale>  0 0.96835895E+02</rscale>
<asrwt>0</asrwt>
<pdfrwt beam="1">  1        2 0.14112289E+00 0.97002139E+02</pdfrwt>
<pdfrwt beam="2">  1       -2 0.21947845E-02 0.97002139E+02</pdfrwt>
<totfact> 0.18510595E+04</totfact>
</mgrwt>
</event>
<event>
 8    1  0.3177960E-004  0.1077082E+03  0.7546771E-02  0.1267868E+00
          3   -1    0    0  501    0  0.00000000000E+00  0.00000000000E+00  0.49820062507E+02  0.49820062507E+02  0.00000000000E+00 0. -1.
         -3   -1    0    0    0  501 -0.00000000000E+00 -0.00000000000E+00 -0.31077205093E+03  0.31077205093E+03  0.00000000000E+00 0.  1.
         23    2    1    2    0    0  0.42509332735E+02 -0.85435376490E+01 -0.23064596532E+03  0.25455571734E+03  0.98595215437E+02 0.  0.
         23    2    1    2    0    0 -0.42509332735E+02  0.85435376490E+01 -0.30306023112E+02  0.10603639610E+03  0.91897915410E+02 0.  0.
          5    1    4    4  502    0  0.15396696499E+02  0.32175507862E+02 -0.23446206601E+02  0.42943406633E+02  0.47000000000E+01 0. -1.
         -5    1    3    3    0  503  0.43701383413E+02 -0.47134819028E+02 -0.10673141346E+03  0.12468033805E+03  0.47000000000E+01 0.  1.
          5    1    3    3  503    0 -0.11920506776E+01  0.38591281379E+02 -0.12391455185E+03  0.12987537928E+03  0.47000000000E+01 0. -1.
         -5    1    4    4    0  502 -0.57906029234E+02 -0.23631970213E+02 -0.68598165105E+01  0.63092989471E+02  0.47000000000E+01 0.  1.
<mgrwt>
<rscale>  0 0.10615101E+03</rscale>
<asrwt>0</asrwt>
<pdfrwt beam="1">  1        3 0.76646250E-02 0.10770818E+03</pdfrwt>
<pdfrwt beam="2">  1       -3 0.47811085E-01 0.10770818E+03</pdfrwt>
<totfact> 0.11080315E+03</totfact>
</mgrwt>
</event>
<event>
 8    1  0.3177960E-004  0.9066255E+02  0.7546771E-02  0.1301555E+00
         -4   -1    0    0    0  501 -0.00000000000E+00  0.00000000000E+00  0.24095875335E+03  0.24095875335E+03  0.00000000000E+00 0.  1.
          4   -1    0    0  501    0  0.00000000000E+00 -0.00000000000E+00 -0.52958160374E+02  0.52958160374E+02  0.00000000000E+00 0. -1.
         23    2    1    2    0    0  0.96488819801E+01  0.39597743722E+01  0.18193497506E+03  0.20305168819E+03  0.89559322175E+02 0.  0.
         23    2    1    2    0    0 -0.96488819801E+01 -0.39597743722E+01  0.60656179193E+01  0.90865225542E+02  0.90060628221E+02 0.  0.
          5    1    3    3  502    0 -0.26391299949E+02 -0.26059909488E+02  0.46609469145E+02  0.59750750702E+02  0.47000000000E+01 0. -1.
         -5    1    3    3    0  502  0.36040181929E+02  0.30019683860E+02  0.13532550592E+03  0.14330093748E+03  0.47000000000E+01 0.  1.
          5    1    4    4  503    0 -0.33652234991E+02 -0.33134286676E+02  0.18316282651E+02  0.50871702188E+02  0.47000000000E+01 0. -1.
         -5    1    4    4    0  503  0.24003353011E+02  0.29174512303E+02 -0.12250664732E+02  0.39993523354E+02  0.47000000000E+01 0.  1.
<mgrwt>
<rscale>  0 0.90537800E+02</rscale>
<asrwt>0</asrwt>
<pdfrwt beam="1">  1        4 0.81474094E-02 0.90662547E+02</pdfrwt>
<pdfrwt beam="2">  1       -4 0.37070577E-01 0.90662547E+02</pdfrwt>
<totfact> 0.11368959E+03</totfact>
</mgrwt>
</event>
<event>
 8    1  0.3177960E-004  0.1403407E+03  0.7546771E-02  0.1215459E+00
          2   -1    0    0  501    0  0.00000000000E+00  0.00000000000E+00  0.12109236456E+04  0.12109236456E+04  0.00000000000E+00 0. -1.
         -2   -1    0    0    0  501 -0.00000000000E+00 -0.00000000000E+00 -0.15577153985E+02  0.15577153985E+02  0.00000000000E+00 0.  1.
         23    2    1    2    0    0 -0.10392441756E+03 -0.23206115490E+02  0.51756864554E+03  0.53434596781E+03  0.79432374421E+02 0.  0.
         23    2    1    2    0    0  0.10392441756E+03  0.23206115490E+02  0.67777784605E+03  0.69215483175E+03  0.91414955883E+02 0.  0.
          5    1    4    4  502    0  0.62933291758E+02  0.57511655960E+02  0.46054998090E+03  0.46839787007E+03  0.47000000000E+01 0. -1.
         -5    1    4    4    0  502  0.40991125803E+02 -0.34305540470E+02  0.21722786515E+03  0.22375696168E+03  0.47000000000E+01 0.  1.
          5    1    3    3  503    0 -0.14658847472E+02  0.24946074835E+02  0.15898209340E+03  0.16166194506E+03  0.47000000000E+01 0. -1.
         -5    1    3    3    0  503 -0.89265570089E+02 -0.48152190325E+02  0.35858655214E+03  0.37268402275E+03  0.47000000000E+01 0.  1.
<mgrwt>
<rscale>  0 0.13842851E+03</rscale>
<asrwt>0</asrwt>
<pdfrwt beam="1">  1        2 0.18629587E+00 0.14034067E+03</pdfrwt>
<pdfrwt beam="2">  1       -2 0.23964862E-02 0.14034067E+03</pdfrwt>
<totfact> 0.11292432E+04</totfact>
</mgrwt>
</event>
<event>
 8    1  0.3177960E-004  0.1009372E+03  0.7546771E-02  0.1280203E+00
         -1   -1    0    0    0  501 -0.00000000000E+00  0.00000000000E+00  0.29692683224E+02  0.29692683224E+02  0.00000000000E+00 0.  1.
          1   -1    0    0  501    0  0.00000000000E+00 -0.00000000000E+00 -0.34427362532E+03  0.34427362532E+03  0.00000000000E+00 0. -1.
         23    2    1    2    0    0 -0.20139289691E+02  0.28530396131E+02 -0.11823370273E+03  0.15319366603E+03  0.90936881176E+02 0.  0.
         23    2    1    2    0    0  0.20139289691E+02 -0.28530396131E+02 -0.19634723937E+03  0.22077264252E+03  0.94703467639E+02 0.  0.
          5    1    3    3  502    0 -0.31619271873E+02 -0.99226393489E+01 -0.10572572531E+03  0.11089750276E+03  0.47000000000E+01 0. -1.
         -5    1    3    3    0  502  0.11479982182E+02  0.38453035480E+02 -0.12507977419E+02  0.42296163273E+02  0.47000000000E+01 0.  1.
          5    1    4    4  503    0  0.53422939205E+00 -0.54544341643E+02 -0.17004706577E+03  0.17864340229E+03  0.47000000000E+01 0. -1.
         -5    1    4    4    0  503  0.19605060299E+02  0.26013945512E+02 -0.26300173605E+02  0.42129240227E+02  0.47000000000E+01 0.  1.
<mgrwt>
<rscale>  0 0.10004412E+03</rscale>
<asrwt>0</asrwt>
<pdfrwt beam="1">  1        1 0.52965173E-01 0.10093721E+03</pdfrwt>
<pdfrwt beam="2">  1       -1 0.45681051E-02 0.10093721E+03</pdfrwt>
<totfact> 0.13599712E+04</totfact>
</mgrwt>
</event>
<event>
 8    1  0.3177960E-004  0.1155153E+03  0.7546771E-02  0.1250919E+00
         -2   -1    0    0    0  501 -0.00000000000E+00  0.00000000000E+00  0.43277905832E+02  0.43277905832E+02  0.00000000000E+00 0.  1.
          2   -1    0    0  501    0  0.00000000000E+00 -0.00000000000E+00 -0.31344815026E+03  0.31344815026E+03  0.00000000000E+00 0. -1.
         23    2    1    2    0    0  0.61153687629E+02  0.36730385096E+02 -0.16119537935E+03  0.19831221693E+03  0.90856427190E+02 0.  0.
         23    2    1    2    0    0 -0.61153687629E+02 -0.36730385096E+02 -0.10897486508E+03  0.15841383916E+03  0.90169443373E+02 0.  0.
          5    1    3    3  502    0  0.52888271346E+02  0.63367628516E+02 -0.92713558734E+02  0.12421964242E+03  0.47000000000E+01 0. -1.
         -5    1    3    3    0  502  0.82654162824E+01 -0.26637243420E+02 -0.68481820614E+02  0.74092574513E+02  0.47000000000E+01 0.  1.
          5    1    4    4  503    0 -0.26928415838E+01 -0.28992219933E+02 -0.92377923841E+02  0.96972011558E+02  0.47000000000E+01 0. -1.
         -5    1    4    4    0  503 -0.58460846045E+02 -0.77381651626E+01 -0.16596941236E+02  0.61441827600E+02  0.47000000000E+01 0.  1.
<mgrwt>
<rscale>  0 0.11538018E+03</rscale>
<asrwt>0</asrwt>
<pdfrwt beam="1">  1        2 0.48222792E-01 0.11551530E+03</pdfrwt>
<pdfrwt beam="2">  1       -2 0.66581394E-02 0.11551530E+03</pdfrwt>
<totfact> 0.12220181E+04</totfact>
</mgrwt>
</event>
<event>
 8    1  0.3177960E-004  0.9966521E+02  0.7546771E-02  0.1283339E+00
         -4   -1    0    0    0  501 -0.00000000000E+00  0.00000000000E+00  0.48007512771E+02  0.48007512771E+02  0.00000000000E+00 0.  1.
          4   -1    0    0  501    0  0.00000000000E+00 -0.00000000000E+00 -0.47232469522E+03  0.47232469522E+03  0.00000000000E+00 0. -1.
         23    2    1    2    0    0  0.11053065013E+02 -0.24183362369E+02 -0.15889636050E+02  0.10092390690E+03  0.96052845810E+02 0.  0.
         23    2    1    2    0    0 -0.11053065013E+02  0.24183362369E+02 -0.40842754640E+03  0.41940830109E+03  0.91560128366E+02 0.  0.
          5    1    3    3  502    0 -0.16156335744E+02 -0.25751416096E+02 -0.48954695656E+02  0.57817080888E+02  0.47000000000E+01 0. -1.
         -5    1    3    3    0  502  0.27209400757E+02  0.15680537275E+01  0.33065059605E+02  0.43106826011E+02  0.47000000000E+01 0.  1.
          5    1    4    4  503    0  0.81418113560E+01  0.55909101206E+02 -0.27846447019E+03  0.28417717686E+03  0.47000000000E+01 0. -1.
         -5    1    4    4    0  503 -0.19194876369E+02 -0.31725738838E+02 -0.12996307621E+03  0.13523112423E+03  0.47000000000E+01 0.  1.
<mgrwt>
<rscale>  0 0.98566594E+02</rscale>
<asrwt>0</asrwt>
<pdfrwt beam="1">  1        4 0.72665335E-01 0.99665212E+02</pdfrwt>
<pdfrwt beam="2">  1       -4 0.73857715E-02 0.99665212E+02</pdfrwt>
<totfact> 0.34655419E+02</totfact>
</mgrwt>
</event>
<event>
 8    1  0.3177960E-004  0.1013338E+03  0.7546771E-02  0.1283413E+00
         -1   -1    0    0    0  501 -0.00000000000E+00  0.00000000000E+00  0.17227844429E+02  0.17227844429E+02  0.00000000000E+00 0.  1.
          1   -1    0    0  501    0  0.00000000000E+00 -0.00000000000E+00 -0.54273614379E+03  0.54273614379E+03  0.00000000000E+00 0. -1.
         23    2    1    2    0    0 -0.32519352477E+02  0.29671766199E+02 -0.21380377898E+03  0.23220149538E+03  0.79167901025E+02 0.  0.
         23    2    1    2    0    0  0.32519352477E+02 -0.29671766199E+02 -0.31170452038E+03  0.32776249285E+03  0.91272239460E+02 0.  0.
          5    1    4    4  502    0 -0.25421189242E+02 -0.48392753328E+01 -0.17723839888E+03  0.17917922727E+03  0.47000000000E+01 0. -1.
         -5    1    4    4    0  502  0.57940541719E+02 -0.24832490867E+02 -0.13446612150E+03  0.14858326558E+03  0.47000000000E+01 0.  1.
          5    1    3    3  503    0 -0.55733244987E+02  0.46689379200E+01 -0.13021347274E+03  0.14179433015E+03  0.47000000000E+01 0. -1.
         -5    1    3    3    0  503  0.23213892510E+02  0.25002828279E+02 -0.83590306238E+02  0.90407165227E+02  0.47000000000E+01 0.  1.
<mgrwt>
<rscale>  0 0.98532343E+02</rscale>
<asrwt>0</asrwt>
<pdfrwt beam="1">  1        1 0.83497866E-01 0.10133382E+03</pdfrwt>
<pdfrwt beam="2">  1       -1 0.26504377E-02 0.10133382E+03</pdfrwt>
<totfact> 0.16859593E+04</totfact>
</mgrwt>
</event>
<event>
 8    1  0.3177960E-004  0.9570524E+02  0.7546771E-02  0.1289635E+00
         -4   -1    0    0    0  501 -0.00000000000E+00  0.00000000000E+00  0.16356372652E+03  0.16356372652E+03  0.00000000000E+00 0.  1.
          4   -1    0    0  501    0  0.00000000000E+00 -0.00000000000E+00 -0.28832063608E+03  0.28832063608E+03  0.00000000000E+00 0. -1.
         23    2    1    2    0    0  0.34337590681E+02  0.35113945242E+00  0.14045177173E+03  0.16995938731E+03  0.89332523290E+02 0.  0.
         23    2    1    2    0    0 -0.34337590681E+02 -0.35113945242E+00 -0.26520868129E+03  0.28192497530E+03  0.89257232941E+02 0.  0.
          5    1    3    3  502    0  0.47896376543E+02 -0.17174732025E+02  0.34600394107E+02  0.61711519010E+02  0.47000000000E+01 0. -1.
         -5    1    3    3    0  502 -0.13558785862E+02  0.17525871478E+02  0.10585137763E+03  0.10824786830E+03  0.47000000000E+01 0.  1.
          5    1    4    4  503    0 -0.36287997129E+02  0.31720763279E+02 -0.22543982297E+03  0.23058236997E+03  0.47000000000E+01 0. -1.
         -5    1    4    4    0  503  0.19504064477E+01 -0.32071902731E+02 -0.39768858319E+02  0.51342605330E+02  0.47000000000E+01 0.  1.
<mgrwt>
<rscale>  0 0.95687668E+02</rscale>
<asrwt>0</asrwt>
<pdfrwt beam="1">  1        4 0.44357021E-01 0.95705241E+02</pdfrwt>
<pdfrwt beam="2">  1       -4 0.25163650E-01 0.95705241E+02</pdfrwt>
<totfact> 0.11526605E+02</totfact>
</mgrwt>
</event>
<event>
 8    1  0.3177960E-004  0.1018004E+03  0.7546771E-02  0.1277641E+00
         -1   -1    0    0    0  501 -0.00000000000E+00  0.00000000000E+00  0.20290871442E+03  0.20290871442E+03  0.00000000000E+00 0.  1.
          1   -1    0    0  501    0  0.00000000000E+00 -0.00000000000E+00 -0.54402727133E+02  0.54402727133E+02  0.00000000000E+00 0. -1.
         23    2    1    2    0    0  0.37097436425E+02 -0.24883663363E+02  0.38487757486E+02  0.10883307481E+03  0.91476304062E+02 0.  0.
         23    2    1    2    0    0 -0.37097436425E+02  0.24883663363E+02  0.11001822980E+03  0.14847836675E+03  0.89142571258E+02 0.  0.
          5    1    4    4  502    0 -0.31732036282E+02 -0.28831406655E+02  0.65117676449E+02  0.78106170834E+02  0.47000000000E+01 0. -1.
         -5    1    4    4    0  502 -0.53654001431E+01  0.53715070018E+02  0.44900553355E+02  0.70372195911E+02  0.47000000000E+01 0.  1.
          5    1    3    3  503    0  0.56627063779E+02 -0.45663123917E+02  0.27174989629E+02  0.77796627815E+02  0.47000000000E+01 0. -1.
         -5    1    3    3    0  503 -0.19529627354E+02  0.20779460554E+02  0.11312767857E+02  0.31036446995E+02  0.47000000000E+01 0.  1.
<mgrwt>
<rscale>  0 0.10127342E+03</rscale>
<asrwt>0</asrwt>
<pdfrwt beam="1">  1        1 0.83696505E-02 0.10180045E+03</pdfrwt>
<pdfrwt beam="2">  1       -1 0.31216725E-01 0.10180045E+03</pdfrwt>
<totfact> 0.72087186E+03</totfact>
</mgrwt>
</event>
<event>
 8    1  0.3177960E-004  0.9177111E+02  0.7546771E-02  0.1302424E+00
         -3   -1    0    0    0  501 -0.00000000000E+00  0.00000000000E+00  0.17339100581E+03  0.17339100581E+03  0.00000000000E+00 0.  1.
          3   -1    0    0  501    0  0.00000000000E+00 -0.00000000000E+00 -0.61779724497E+02  0.61779724497E+02  0.00000000000E+00 0. -1.
         23    2    1    2    0    0 -0.41849602140E+01 -0.88652365693E+01  0.11500105018E+03  0.14333703356E+03  0.84995043010E+02 0.  0.
         23    2    1    2    0    0  0.41849602140E+01  0.88652365693E+01 -0.33897688649E+01  0.91833696747E+02  0.91245991769E+02 0.  0.
          5    1    4    4  502    0 -0.12634408313E+02 -0.33631781839E+02 -0.21858173824E+02  0.42315420192E+02  0.47000000000E+01 0. -1.
         -5    1    4    4    0  502  0.16819368527E+02  0.42497018409E+02  0.18468404959E+02  0.49518276555E+02  0.47000000000E+01 0.  1.
          5    1    3    3  503    0  0.37638841984E+02 -0.18436002520E+02  0.62007488693E+02  0.74990581200E+02  0.47000000000E+01 0. -1.
         -5    1    3    3    0  503 -0.41823802198E+02  0.95707659504E+01  0.52993561483E+02  0.68346452357E+02  0.47000000000E+01 0.  1.
<mgrwt>
<rscale>  0 0.90176908E+02</rscale>
<asrwt>0</asrwt>
<pdfrwt beam="1">  1        3 0.95045731E-02 0.91771114E+02</pdfrwt>
<pdfrwt beam="2">  1       -3 0.26675539E-01 0.91771114E+02</pdfrwt>
<totfact> 0.22754315E+03</totfact>
</mgrwt>
</event>
<event>
 8    1  0.3177960E-004  0.1360379E+03  0.7546771E-02  0.1225264E+00
         -3   -1    0    0    0  501 -0.00000000000E+00  0.00000000000E+00  0.34984005544E+03  0.34984005544E+03  0.00000000000E+00 0.  1.
          3   -1    0    0  501    0  0.00000000000E+00 -0.00000000000E+00 -0.52717153488E+02  0.52717153488E+02  0.00000000000E+00 0. -1.
         23    2    1    2    0    0 -0.26713063753E+01  0.76047824568E+02  0.22706322812E+03  0.26469606953E+03  0.11276476473E+03 0.  0.
         23    2    1    2    0    0  0.26713063753E+01 -0.76047824568E+02  0.70059673839E+02  0.13786113940E+03  0.91142352166E+02 0.  0.
          5    1    4    4  502    0  0.23952451581E+02 -0.79800731626E+02  0.24104804337E+02  0.86862007213E+02  0.47000000000E+01 0. -1.
         -5    1    4    4    0  502 -0.21281145206E+02  0.37529070583E+01  0.45954869502E+02  0.50999132185E+02  0.47000000000E+01 0.  1.
          5    1    3    3  503    0  0.18484921490E+02 -0.19052135895E+02  0.10523201300E+03  0.10863030316E+03  0.47000000000E+01 0. -1.
         -5    1    3    3    0  503 -0.21156227865E+02  0.95099960463E+02  0.12183121512E+03  0.15606576638E+03  0.47000000000E+01 0.  1.
<mgrwt>
<rscale>  0 0.13148826E+03</rscale>
<asrwt>0</asrwt>
<pdfrwt beam="1">  1        3 0.81103315E-02 0.13603786E+03</pdfrwt>
<pdfrwt beam="2">  1       -3 0.53821546E-01 0.13603786E+03</pdfrwt>
<totfact> 0.82955370E+02</totfact>
</mgrwt>
</event>
<event>
 8    1  0.3177960E-004  0.1198953E+03  0.7546771E-02  0.1244141E+00
          1   -1    0    0  501    0  0.00000000000E+00  0.00000000000E+00  0.21238122778E+03  0.21238122778E+03  0.00000000000E+00 0. -1.
         -1   -1    0    0    0  501 -0.00000000000E+00 -0.00000000000E+00 -0.22184522822E+03  0.22184522822E+03  0.00000000000E+00 0.  1.
         23    2    1    2    0    0  0.40599309819E+02 -0.67259211833E+02 -0.18639278441E+03  0.22050072712E+03  0.87784936325E+02 0.  0.
         23    2    1    2    0    0 -0.40599309819E+02  0.67259211833E+02  0.17692878397E+03  0.21372572887E+03  0.90569238980E+02 0.  0.
          5    1    3    3  502    0  0.12883834953E+02  0.16830875430E+02 -0.75278245988E+02  0.78346511663E+02  0.47000000000E+01 0. -1.
         -5    1    3    3    0  502  0.27715474865E+02 -0.84090087263E+02 -0.11111453843E+03  0.14215421546E+03  0.47000000000E+01 0.  1.
          5    1    4    4  503    0 -0.56580501473E+02  0.29239861898E+02  0.52871550922E+02  0.82908464994E+02  0.47000000000E+01 0. -1.
         -5    1    4    4    0  503  0.15981191655E+02  0.38019349935E+02  0.12405723305E+03  0.13081726388E+03  0.47000000000E+01 0.  1.
<mgrwt>
<rscale>  0 0.11936961E+03</rscale>
<asrwt>0</asrwt>
<pdfrwt beam="1">  1        1 0.32674035E-01 0.11989534E+03</pdfrwt>
<pdfrwt beam="2">  1       -1 0.34130035E-01 0.11989534E+03</pdfrwt>
<totfact> 0.10953894E+03</totfact>
</mgrwt>
</event>
<event>
 8    1  0.3177960E-004  0.9354738E+02  0.7546771E-02  0.1296489E+00
         -2   -1    0    0    0  501 -0.00000000000E+00  0.00000000000E+00  0.19277656913E+03  0.19277656913E+03  0.00000000000E+00 0.  1.
          2   -1    0    0  501    0  0.00000000000E+00 -0.00000000000E+00 -0.53545343484E+02  0.53545343484E+02  0.00000000000E+00 0. -1.
         23    2    1    2    0    0  0.21835141888E+02 -0.11254191682E+02  0.18003956840E+02  0.95264130742E+02  0.90264510703E+02 0.  0.
         23    2    1    2    0    0 -0.21835141888E+02  0.11254191682E+02  0.12122726881E+03  0.15105778187E+03  0.86712009031E+02 0.  0.
          5    1    3    3  502    0  0.33368236813E+02 -0.40799590677E+02 -0.85881849468E+01  0.53608700302E+02  0.47000000000E+01 0. -1.
         -5    1    4    4    0  503  0.23314575217E+02 -0.14749670338E+02  0.79053318995E+02  0.83860833747E+02  0.47000000000E+01 0.  1.
          5    1    4    4  503    0 -0.45149717105E+02  0.26003862020E+02  0.42173949812E+02  0.67196948125E+02  0.47000000000E+01 0. -1.
         -5    1    3    3    0  502 -0.11533094926E+02  0.29545398995E+02  0.26592141786E+02  0.41655430440E+02  0.47000000000E+01 0.  1.
<mgrwt>
<rscale>  0 0.92679628E+02</rscale>
<asrwt>0</asrwt>
<pdfrwt beam="1">  1        2 0.82377453E-02 0.93547379E+02</pdfrwt>
<pdfrwt beam="2">  1       -2 0.29657933E-01 0.93547379E+02</pdfrwt>
<totfact> 0.77977391E+03</totfact>
</mgrwt>
</event>
<event>
 8    1  0.3177960E-004  0.1270194E+03  0.7546771E-02  0.1247241E+00
         -2   -1    0    0    0  501 -0.00000000000E+00  0.00000000000E+00  0.24491655104E+02  0.24491655104E+02  0.00000000000E+00 0.  1.
          2   -1    0    0  501    0  0.00000000000E+00 -0.00000000000E+00 -0.51291719467E+03  0.51291719467E+03  0.00000000000E+00 0. -1.
         23    2    1    2    0    0  0.18370120054E+02  0.26941258948E+02 -0.33082702405E+03  0.35437331417E+03  0.12276250737E+03 0.  0.
         23    2    1    2    0    0 -0.18370120054E+02 -0.26941258948E+02 -0.15759851552E+03  0.18303553560E+03  0.87186136821E+02 0.  0.
          5    1    4    4  502    0  0.28355319930E+00 -0.57097398710E+02 -0.94994227453E+02  0.11093325286E+03  0.47000000000E+01 0. -1.
         -5    1    4    4    0  502 -0.18653673253E+02  0.30156139762E+02 -0.62604288069E+02  0.72102282737E+02  0.47000000000E+01 0.  1.
          5    1    3    3  503    0 -0.18876599235E+02 -0.20924173321E+02 -0.25758044212E+03  0.25916003008E+03  0.47000000000E+01 0. -1.
         -5    1    3    3    0  503  0.37246719288E+02  0.47865432269E+02 -0.73246581924E+02  0.95213284092E+02  0.47000000000E+01 0.  1.
<mgrwt>
<rscale>  0 0.11752271E+03</rscale>
<asrwt>0</asrwt>
<pdfrwt beam="1">  1        2 0.78910332E-01 0.12701939E+03</pdfrwt>
<pdfrwt beam="2">  1       -2 0.37679472E-02 0.12701939E+03</pdfrwt>
<totfact> 0.17071449E+04</totfact>
</mgrwt>
</event>
<event>
 8    1  0.3177960E-004  0.9675214E+02  0.7546771E-02  0.1290273E+00
         -1   -1    0    0    0  501 -0.00000000000E+00  0.00000000000E+00  0.14820192146E+03  0.14820192146E+03  0.00000000000E+00 0.  1.
          1   -1    0    0  501    0  0.00000000000E+00 -0.00000000000E+00 -0.15701465173E+03  0.15701465173E+03  0.00000000000E+00 0. -1.
         23    2    1    2    0    0 -0.14671222348E+02 -0.30949066252E+01  0.11563481952E+03  0.15077263815E+03  0.95583229263E+02 0.  0.
         23    2    1    2    0    0  0.14671222348E+02  0.30949066252E+01 -0.12444754980E+03  0.15444393503E+03  0.90227009291E+02 0.  0.
          5    1    4    4  502    0  0.46366935242E+02  0.24718934107E+02 -0.74428289735E+02  0.91228168347E+02  0.47000000000E+01 0. -1.
         -5    1    4    4    0  502 -0.31695712894E+02 -0.21624027482E+02 -0.50019260062E+02  0.63215766685E+02  0.47000000000E+01 0.  1.
          5    1    3    3  503    0  0.21825811001E+02 -0.38692189321E+02  0.43819031448E+02  0.62575147282E+02  0.47000000000E+01 0. -1.
         -5    1    3    3    0  503 -0.36497033349E+02  0.35597282696E+02  0.71815788076E+02  0.88197490869E+02  0.47000000000E+01 0.  1.
<mgrwt>
<rscale>  0 0.95402216E+02</rscale>
<asrwt>0</asrwt>
<pdfrwt beam="1">  1        1 0.24156100E-01 0.96752142E+02</pdfrwt>
<pdfrwt beam="2">  1       -1 0.22800296E-01 0.96752142E+02</pdfrwt>
<totfact> 0.30790706E+03</totfact>
</mgrwt>
</event>
<event>
 8    1  0.3177960E-004  0.9578325E+02  0.7546771E-02  0.1292986E+00
          1   -1    0    0  501    0  0.00000000000E+00  0.00000000000E+00  0.46226314340E+03  0.46226314340E+03  0.00000000000E+00 0. -1.
         -1   -1    0    0    0  501 -0.00000000000E+00 -0.00000000000E+00 -0.19058417145E+02  0.19058417145E+02  0.00000000000E+00 0.  1.
         23    2    1    2    0    0 -0.66145082947E+01  0.23644076954E+02  0.19101347913E+03  0.21368336427E+03  0.92583134859E+02 0.  0.
         23    2    1    2    0    0  0.66145082947E+01 -0.23644076954E+02  0.25219124712E+03  0.26763819627E+03  0.86179956399E+02 0.  0.
          5    1    3    3  502    0 -0.30382318135E+02  0.47551893655E+02  0.15031802853E+03  0.16062959736E+03  0.47000000000E+01 0. -1.
         -5    1    4    4    0  503  0.10481897233E+02  0.24289295589E+02  0.17145728915E+03  0.17354979704E+03  0.47000000000E+01 0.  1.
          5    1    4    4  503    0 -0.38673889381E+01 -0.47933372543E+02  0.80733957965E+02  0.94088399228E+02  0.47000000000E+01 0. -1.
         -5    1    3    3    0  502  0.23767809840E+02 -0.23907816701E+02  0.40695450600E+02  0.53053766912E+02  0.47000000000E+01 0.  1.
<mgrwt>
<rscale>  0 0.94200916E+02</rscale>
<asrwt>0</asrwt>
<pdfrwt beam="1">  1        1 0.71117398E-01 0.95783250E+02</pdfrwt>
<pdfrwt beam="2">  1       -1 0.29320645E-02 0.95783250E+02</pdfrwt>
<totfact> 0.17833879E+04</totfact>
</mgrwt>
</event>
<event>
 8    1  0.3177960E-004  0.9892611E+02  0.7546771E-02  0.1286097E+00
          1   -1    0    0  501    0  0.00000000000E+00  0.00000000000E+00  0.23498767884E+03  0.23498767884E+03  0.00000000000E+00 0. -1.
         -1   -1    0    0    0  501 -0.00000000000E+00 -0.00000000000E+00 -0.11120665471E+03  0.11120665471E+03  0.00000000000E+00 0.  1.
         23    2    1    2    0    0  0.29582198263E+02 -0.27158528301E+01 -0.78281439861E+02  0.12121519222E+03  0.87650765473E+02 0.  0.
         23    2    1    2    0    0 -0.29582198263E+02  0.27158528301E+01  0.20206246400E+03  0.22497914133E+03  0.94360438560E+02 0.  0.
          5    1    4    4  502    0 -0.77498942903E+01  0.39147939931E+02  0.16018427093E+03  0.16514754832E+03  0.47000000000E+01 0. -1.
         -5    1    4    4    0  502 -0.21832303972E+02 -0.36432087101E+02  0.41878193064E+02  0.59831593006E+02  0.47000000000E+01 0.  1.
          5    1    3    3  503    0  0.51678343404E+01 -0.30959782826E+02  0.27664747174E+01  0.31858406218E+02  0.47000000000E+01 0. -1.
         -5    1    3    3    0  503  0.24414363922E+02  0.28243929996E+02 -0.81047914578E+02  0.89356786003E+02  0.47000000000E+01 0.  1.
<mgrwt>
<rscale>  0 0.97291521E+02</rscale>
<asrwt>0</asrwt>
<pdfrwt beam="1">  1        1 0.36151950E-01 0.98926107E+02</pdfrwt>
<pdfrwt beam="2">  1       -1 0.17108716E-01 0.98926107E+02</pdfrwt>
<totfact> 0.29607248E+03</totfact>
</mgrwt>
</event>
<event>
 8    1  0.3177960E-004  0.9370354E+02  0.7546771E-02  0.1294951E+00
         -2   -1    0    0    0  501 -0.00000000000E+00  0.00000000000E+00  0.23397384447E+02  0.23397384447E+02  0.00000000000E+00 0.  1.
          2   -1    0    0  501    0  0.00000000000E+00 -0.00000000000E+00 -0.60224920383E+03  0.60224920383E+03  0.00000000000E+00 0. -1.
         23    2    1    2    0    0 -0.21183265786E+02  0.36405925179E+01 -0.96350210599E+02  0.13440132602E+03  0.91205091363E+02 0.  0.
         23    2    1    2    0    0  0.21183265786E+02 -0.36405925179E+01 -0.48250160878E+03  0.49124526226E+03  0.89733608783E+02 0.  0.
          5    1    4    4  502    0  0.29505270674E+02 -0.42373219463E+02 -0.29839545417E+03  0.30286628699E+03  0.47000000000E+01 0. -1.
         -5    1    4    4    0  502 -0.83220048873E+01  0.38732626945E+02 -0.18410615462E+03  0.18837897527E+03  0.47000000000E+01 0.  1.
          5    1    3    3  503    0 -0.22309924807E+02  0.39991636836E+02 -0.83855249229E+02  0.95660109685E+02  0.47000000000E+01 0. -1.
         -5    1    3    3    0  503  0.11266590212E+01 -0.36351044318E+02 -0.12494961370E+02  0.38741216336E+02  0.47000000000E+01 0.  1.
<mgrwt>
<rscale>  0 0.93343563E+02</rscale>
<asrwt>0</asrwt>
<pdfrwt beam="1">  1        2 0.92653709E-01 0.93703540E+02</pdfrwt>
<pdfrwt beam="2">  1       -2 0.35995982E-02 0.93703540E+02</pdfrwt>
<totfact> 0.14888281E+04</totfact>
</mgrwt>
</event>
<event>
 8    1  0.3177960E-004  0.1039739E+03  0.7546771E-02  0.1274962E+00
          2   -1    0    0  501    0  0.00000000000E+00  0.00000000000E+00  0.51767768476E+03  0.51767768476E+03  0.00000000000E+00 0. -1.
         -2   -1    0    0    0  501 -0.00000000000E+00 -0.00000000000E+00 -0.21079342887E+02  0.21079342887E+02  0.00000000000E+00 0.  1.
         23    2    1    2    0    0  0.26909568196E+02 -0.39331627022E+02  0.17565543068E+03  0.20139233923E+03  0.86214512875E+02 0.  0.
         23    2    1    2    0    0 -0.26909568196E+02  0.39331627022E+02  0.32094291119E+03  0.33736468841E+03  0.92409301472E+02 0.  0.
          5    1    4    4  502    0 -0.54412852898E+02  0.52898546173E+01  0.22823966253E+03  0.23474278407E+03  0.47000000000E+01 0. -1.
         -5    1    3    3    0  503  0.33735931976E+02 -0.59984913408E+01  0.16042413692E+02  0.38125372677E+02  0.47000000000E+01 0.  1.
          5    1    3    3  503    0 -0.68263637806E+01 -0.33333135681E+02  0.15961301699E+03  0.16326696656E+03  0.47000000000E+01 0. -1.
         -5    1    4    4    0  502  0.27503284702E+02  0.34041772405E+02  0.92703248668E+02  0.10262190435E+03  0.47000000000E+01 0.  1.
<mgrwt>
<rscale>  0 0.10257995E+03</rscale>
<asrwt>0</asrwt>
<pdfrwt beam="1">  1        2 0.79642711E-01 0.10397394E+03</pdfrwt>
<pdfrwt beam="2">  1       -2 0.32429762E-02 0.10397394E+03</pdfrwt>
<totfact> 0.20700393E+04</totfact>
</mgrwt>
</event>
<event>
 8    1  0.3177960E-004  0.1053679E+03  0.7546771E-02  0.1269918E+00
          1   -1    0    0  501    0  0.00000000000E+00  0.00000000000E+00  0.17096195609E+03  0.17096195609E+03  0.00000000000E+00 0. -1.
         -1   -1    0    0    0  501 -0.00000000000E+00 -0.00000000000E+00 -0.68965170975E+02  0.68965170975E+02  0.00000000000E+00 0.  1.
         23    2    1    2    0    0  0.25663600873E+02  0.44124161935E+02  0.82472748077E+02  0.13380638364E+03  0.92178262360E+02 0.  0.
         23    2    1    2    0    0 -0.25663600873E+02 -0.44124161935E+02  0.19524037035E+02  0.10612074342E+03  0.90966268944E+02 0.  0.
          5    1    3    3  502    0 -0.11412492046E+02 -0.23642517079E+02  0.30847603466E+02  0.40778403943E+02  0.47000000000E+01 0. -1.
         -5    1    4    4    0  503  0.14822160882E+02 -0.58473068530E+02  0.57936863429E+01  0.60782012125E+02  0.47000000000E+01 0.  1.
          5    1    4    4  503    0 -0.40485761754E+02  0.14348906595E+02  0.13730350692E+02  0.45338731295E+02  0.47000000000E+01 0. -1.
         -5    1    3    3    0  502  0.37076092919E+02  0.67766679015E+02  0.51625144612E+02  0.93027979699E+02  0.47000000000E+01 0.  1.
<mgrwt>
<rscale>  0 0.10510224E+03</rscale>
<asrwt>0</asrwt>
<pdfrwt beam="1">  1        1 0.26301839E-01 0.10536790E+03</pdfrwt>
<pdfrwt beam="2">  1       -1 0.10610026E-01 0.10536790E+03</pdfrwt>
<totfact> 0.92020937E+03</totfact>
</mgrwt>
</event>
<event>
 8    1  0.3177960E-004  0.1049561E+03  0.7546771E-02  0.1270699E+00
          1   -1    0    0  501    0  0.00000000000E+00  0.00000000000E+00  0.38266200449E+03  0.38266200449E+03  0.00000000000E+00 0. -1.
         -1   -1    0    0    0  501 -0.00000000000E+00 -0.00000000000E+00 -0.29845241714E+02  0.29845241714E+02  0.00000000000E+00 0.  1.
         23    2    1    2    0    0  0.13162889366E+02 -0.45630317956E+02  0.13206665426E+03  0.16807648082E+03  0.92480888110E+02 0.  0.
         23    2    1    2    0    0 -0.13162889366E+02  0.45630317956E+02  0.22075010852E+03  0.24443076539E+03  0.93597014272E+02 0.  0.
          5    1    4    4  502    0  0.27958733765E+02 -0.73531059792E+01  0.11843164732E+03  0.12199960675E+03  0.47000000000E+01 0. -1.
         -5    1    4    4    0  502 -0.41121623131E+02  0.52983423936E+02  0.10231846121E+03  0.12243115863E+03  0.47000000000E+01 0.  1.
          5    1    3    3  503    0  0.34569803267E+02  0.47588138383E+01  0.14079925598E+02  0.37921654921E+02  0.47000000000E+01 0. -1.
         -5    1    3    3    0  503 -0.21406913901E+02 -0.50389131795E+02  0.11798672866E+03  0.13015482590E+03  0.47000000000E+01 0.  1.
<mgrwt>
<rscale>  0 0.10470671E+03</rscale>
<asrwt>0</asrwt>
<pdfrwt beam="1">  1        1 0.58871074E-01 0.10495613E+03</pdfrwt>
<pdfrwt beam="2">  1       -1 0.45915759E-02 0.10495613E+03</pdfrwt>
<totfact> 0.11882494E+04</totfact>
</mgrwt>
</event>
<event>
 8    1  0.3177960E-004  0.1053096E+03  0.7546771E-02  0.1269686E+00
         -1   -1    0    0    0  501 -0.00000000000E+00  0.00000000000E+00  0.31127513185E+02  0.31127513185E+02  0.00000000000E+00 0.  1.
          1   -1    0    0  501    0  0.00000000000E+00 -0.00000000000E+00 -0.99604012751E+03  0.99604012751E+03  0.00000000000E+00 0. -1.
         23    2    1    2    0    0  0.44328683677E+02 -0.27031355424E+02 -0.70173704290E+02  0.12625264786E+03  0.91212148016E+02 0.  0.
         23    2    1    2    0    0 -0.44328683677E+02  0.27031355424E+02 -0.89473891004E+03  0.90091499284E+03  0.91620853568E+02 0.  0.
          5    1    3    3  502    0  0.62224789213E+02 -0.79785887385E+01 -0.14486599290E+02  0.64556439104E+02  0.47000000000E+01 0.  1.
         -5    1    4    4    0  503  0.23943310316E+02 -0.11275498816E+02 -0.23202706197E+03  0.23357882282E+03  0.47000000000E+01 0.  1.
          5    1    4    4  503    0 -0.68271993993E+02  0.38306854239E+02 -0.66271184807E+03  0.66733617002E+03  0.47000000000E+01 0. -1.
         -5    1    3    3    0  502 -0.17896105536E+02 -0.19052766685E+02 -0.55687105000E+02  0.61696208757E+02  0.47000000000E+01 0. -1.
<mgrwt>
<rscale>  0 0.10522062E+03</rscale>
<asrwt>0</asrwt>
<pdfrwt beam="1">  1        1 0.15323692E+00 0.10530958E+03</pdfrwt>
<pdfrwt beam="2">  1       -1 0.47888490E-02 0.10530958E+03</pdfrwt>
<totfact> 0.29562045E+03</totfact>
</mgrwt>
</event>
<event>
 8    1  0.3177960E-004  0.9421721E+02  0.7546771E-02  0.1297884E+00
          1   -1    0    0  501    0  0.00000000000E+00  0.00000000000E+00  0.27174033881E+03  0.27174033881E+03  0.00000000000E+00 0. -1.
         -1   -1    0    0    0  501 -0.00000000000E+00 -0.00000000000E+00 -0.41610562326E+02  0.41610562326E+02  0.00000000000E+00 0.  1.
         23    2    1    2    0    0  0.16194141168E+02 -0.74240133035E+01  0.28119054302E+02  0.90449098278E+02  0.84101081936E+02 0.  0.
         23    2    1    2    0    0 -0.16194141168E+02  0.74240133035E+01  0.20201072218E+03  0.22290180286E+03  0.92517650527E+02 0.  0.
          5    1    3    3  502    0 -0.32758870900E+02  0.78259650715E+01  0.15848959739E+02  0.37518913587E+02  0.47000000000E+01 0. -1.
         -5    1    4    4    0  503 -0.39143020070E+02 -0.25270579884E+02  0.15008675999E+03  0.15722246580E+03  0.47000000000E+01 0. -1.
          5    1    4    4  503    0  0.22948878903E+02  0.32694593188E+02  0.51923962191E+02  0.65679337057E+02  0.47000000000E+01 0.  1.
         -5    1    3    3    0  502  0.48953012067E+02 -0.15249978375E+02  0.12270094562E+02  0.52930184691E+02  0.47000000000E+01 0.  1.
<mgrwt>
<rscale>  0 0.92083295E+02</rscale>
<asrwt>0</asrwt>
<pdfrwt beam="1">  1        1 0.41806205E-01 0.94217206E+02</pdfrwt>
<pdfrwt beam="2">  1       -1 0.64016251E-02 0.94217206E+02</pdfrwt>
<totfact> 0.10996378E+04</totfact>
</mgrwt>
</event>
<event>
 8    1  0.3177960E-004  0.9461152E+02  0.7546771E-02  0.1292112E+00
         -2   -1    0    0    0  501 -0.00000000000E+00  0.00000000000E+00  0.22268210371E+03  0.22268210371E+03  0.00000000000E+00 0.  1.
          2   -1    0    0  501    0  0.00000000000E+00 -0.00000000000E+00 -0.47270792014E+02  0.47270792014E+02  0.00000000000E+00 0. -1.
         23    2    1    2    0    0  0.15797218653E+02 -0.21216407390E+02  0.14003743355E+03  0.16894472424E+03  0.90731190840E+02 0.  0.
         23    2    1    2    0    0 -0.15797218653E+02  0.21216407390E+02  0.35373878142E+02  0.10100817149E+03  0.90838600786E+02 0.  0.
          5    1    3    3  502    0 -0.79869595618E+01  0.28912729921E+02  0.86599012777E+02  0.91767186338E+02  0.47000000000E+01 0. -1.
         -5    1    3    3    0  502  0.23784178215E+02 -0.50129137311E+02  0.53438420776E+02  0.77177537897E+02  0.47000000000E+01 0.  1.
          5    1    4    4  503    0 -0.38023456655E+02 -0.28833615105E+01  0.51434192279E+02  0.64200180413E+02  0.47000000000E+01 0. -1.
         -5    1    4    4    0  503  0.22226238002E+02  0.24099768901E+02 -0.16060314137E+02  0.36807991075E+02  0.47000000000E+01 0.  1.
<mgrwt>
<rscale>  0 0.94585728E+02</rscale>
<asrwt>0</asrwt>
<pdfrwt beam="1">  1        2 0.72724297E-02 0.94611519E+02</pdfrwt>
<pdfrwt beam="2">  1       -2 0.34258785E-01 0.94611519E+02</pdfrwt>
<totfact> 0.70298181E+03</totfact>
</mgrwt>
</event>
<event>
 8    1  0.3177960E-004  0.1004913E+03  0.7546771E-02  0.1280033E+00
         -2   -1    0    0    0  501 -0.00000000000E+00  0.00000000000E+00  0.13383510155E+02  0.13383510155E+02  0.00000000000E+00 0.  1.
          2   -1    0    0  501    0  0.00000000000E+00 -0.00000000000E+00 -0.93088381294E+03  0.93088381294E+03  0.00000000000E+00 0. -1.
         23    2    1    2    0    0 -0.30649135894E+02 -0.16124670795E+02 -0.24433684717E+03  0.26364441896E+03  0.92782057649E+02 0.  0.
         23    2    1    2    0    0  0.30649135894E+02  0.16124670795E+02 -0.67316345561E+03  0.68062290414E+03  0.94335174383E+02 0.  0.
          5    1    3    3  502    0 -0.15277189818E+02 -0.53248550166E+02 -0.17202384189E+03  0.18078465864E+03  0.47000000000E+01 0. -1.
         -5    1    4    4    0  503 -0.33440343849E+02  0.75228584079E+01 -0.28337985797E+03  0.28548394683E+03  0.47000000000E+01 0.  1.
          5    1    4    4  503    0  0.64089479744E+02  0.86018123874E+01 -0.38978359764E+03  0.39513895731E+03  0.47000000000E+01 0. -1.
         -5    1    3    3    0  502 -0.15371946076E+02  0.37123879371E+02 -0.72313005288E+02  0.82859760316E+02  0.47000000000E+01 0.  1.
<mgrwt>
<rscale>  0 0.10012516E+03</rscale>
<asrwt>0</asrwt>
<pdfrwt beam="1">  1        2 0.14321293E+00 0.10049129E+03</pdfrwt>
<pdfrwt beam="2">  1       -2 0.20590010E-02 0.10049129E+03</pdfrwt>
<totfact> 0.19969579E+04</totfact>
</mgrwt>
</event>
<event>
 8    1  0.3177960E-004  0.1843602E+03  0.7546771E-02  0.1163838E+00
         -2   -1    0    0    0  501 -0.00000000000E+00  0.00000000000E+00  0.16892208797E+03  0.16892208797E+03  0.00000000000E+00 0.  1.
          2   -1    0    0  501    0  0.00000000000E+00 -0.00000000000E+00 -0.37883805917E+03  0.37883805917E+03  0.00000000000E+00 0. -1.
         23    2    1    2    0    0 -0.10451173349E+03 -0.12076162215E+03  0.83163241665E+02  0.20151729641E+03  0.90482175971E+02 0.  0.
         23    2    1    2    0    0  0.10451173349E+03  0.12076162215E+03 -0.29307921287E+03  0.34624285073E+03  0.92101112073E+02 0.  0.
          5    1    4    4  502    0  0.88002372187E+02  0.53556398634E+02 -0.11155993804E+03  0.15192239835E+03  0.47000000000E+01 0. -1.
         -5    1    3    3    0  503 -0.95761939614E+02 -0.80275108690E+02  0.96277664227E+02  0.15781609798E+03  0.47000000000E+01 0.  1.
          5    1    3    3  503    0 -0.87497938732E+01 -0.40486513461E+02 -0.13114422562E+02  0.43701198430E+02  0.47000000000E+01 0. -1.
         -5    1    4    4    0  502  0.16509361300E+02  0.67205223517E+02 -0.18151927483E+03  0.19432045238E+03  0.47000000000E+01 0.  1.
<mgrwt>
<rscale>  0 0.18415903E+03</rscale>
<asrwt>0</asrwt>
<pdfrwt beam="1">  1        2 0.58282778E-01 0.18436021E+03</pdfrwt>
<pdfrwt beam="2">  1       -2 0.25988014E-01 0.18436021E+03</pdfrwt>
<totfact> 0.11192811E+03</totfact>
</mgrwt>
</event>
<event>
 8    1  0.3177960E-004  0.1006207E+03  0.7546771E-02  0.1281299E+00
          2   -1    0    0  501    0  0.00000000000E+00  0.00000000000E+00  0.79629873639E+02  0.79629873639E+02  0.00000000000E+00 0. -1.
         -2   -1    0    0    0  501 -0.00000000000E+00 -0.00000000000E+00 -0.18018596892E+03  0.18018596892E+03  0.00000000000E+00 0.  1.
         23    2    1    2    0    0  0.25799400944E+02  0.12990876613E+02  0.24433250547E+02  0.99357546876E+02  0.91872555340E+02 0.  0.
         23    2    1    2    0    0 -0.25799400944E+02 -0.12990876613E+02 -0.12498934582E+03  0.16045829568E+03  0.96385455951E+02 0.  0.
          5    1    3    3  502    0  0.56613249932E+02  0.25475079603E+02  0.20519475717E+02  0.65552868986E+02  0.47000000000E+01 0. -1.
         -5    1    3    3    0  502 -0.30813848989E+02 -0.12484202989E+02  0.39137748297E+01  0.33804677889E+02  0.47000000000E+01 0.  1.
          5    1    4    4  503    0  0.28834154359E+02 -0.30831308991E+02 -0.45352810845E+02  0.62136507170E+02  0.47000000000E+01 0. -1.
         -5    1    4    4    0  503 -0.54633555303E+02  0.17840432378E+02 -0.79636534978E+02  0.98321788510E+02  0.47000000000E+01 0.  1.
<mgrwt>
<rscale>  0 0.99524367E+02</rscale>
<asrwt>0</asrwt>
<pdfrwt beam="1">  1        2 0.12250750E-01 0.10062071E+03</pdfrwt>
<pdfrwt beam="2">  1       -2 0.27720918E-01 0.10062071E+03</pdfrwt>
<totfact> 0.54634234E+03</totfact>
</mgrwt>
</event>
<event>
 8    1  0.3177960E-004  0.2505165E+03  0.7546771E-02  0.1113012E+00
         -2   -1    0    0    0  501 -0.00000000000E+00  0.00000000000E+00  0.58478826288E+02  0.58478826288E+02  0.00000000000E+00 0.  1.
          2   -1    0    0  501    0  0.00000000000E+00 -0.00000000000E+00 -0.12092253635E+04  0.12092253635E+04  0.00000000000E+00 0. -1.
         23    2    1    2    0    0 -0.23191616186E+03 -0.24467388774E+02 -0.78888868765E+03  0.82771001212E+03  0.91513624180E+02 0.  0.
         23    2    1    2    0    0  0.23191616186E+03  0.24467388774E+02 -0.36185784953E+03  0.43999417764E+03  0.90939616476E+02 0.  0.
          5    1    3    3  502    0 -0.21715873329E+03  0.40085988472E+01 -0.66141804146E+03  0.69618237545E+03  0.47000000000E+01 0. -1.
         -5    1    4    4    0  503  0.21985338864E+03  0.30524711453E+01 -0.34720258307E+03  0.41099459092E+03  0.47000000000E+01 0.  1.
          5    1    4    4  503    0  0.12062773221E+02  0.21414917629E+02 -0.14655266461E+02  0.28999586719E+02  0.47000000000E+01 0. -1.
         -5    1    3    3    0  502 -0.14757428574E+02 -0.28475987621E+02 -0.12747064619E+03  0.13152763667E+03  0.47000000000E+01 0.  1.
<mgrwt>
<rscale>  0 0.25046418E+03</rscale>
<asrwt>0</asrwt>
<pdfrwt beam="1">  1        2 0.18603466E+00 0.25051647E+03</pdfrwt>
<pdfrwt beam="2">  1       -2 0.89967429E-02 0.25051647E+03</pdfrwt>
<totfact> 0.15517344E+03</totfact>
</mgrwt>
</event>
<event>
 8    1  0.3177960E-004  0.1114818E+03  0.7546771E-02  0.1261770E+00
          3   -1    0    0  501    0  0.00000000000E+00  0.00000000000E+00  0.59091257235E+03  0.59091257235E+03  0.00000000000E+00 0. -1.
         -3   -1    0    0    0  501 -0.00000000000E+00 -0.00000000000E+00 -0.19650197820E+02  0.19650197820E+02  0.00000000000E+00 0.  1.
         23    2    1    2    0    0  0.32390860742E+02 -0.63396102111E+02  0.26997044724E+03  0.29208258703E+03  0.85790218804E+02 0.  0.
         23    2    1    2    0    0 -0.32390860742E+02  0.63396102111E+02  0.30129192730E+03  0.31848018314E+03  0.74729967067E+02 0.  0.
          5    1    4    4  502    0 -0.38503857209E+01  0.68415359293E+02  0.15915643958E+03  0.17334459645E+03  0.47000000000E+01 0. -1.
         -5    1    3    3    0  503 -0.85616808960E+01 -0.68487610230E+02  0.15166546201E+03  0.16669840281E+03  0.47000000000E+01 0.  1.
          5    1    3    3  503    0  0.40952541638E+02  0.50915081183E+01  0.11830498523E+03  0.12538418422E+03  0.47000000000E+01 0. -1.
         -5    1    4    4    0  502 -0.28540475021E+02 -0.50192571820E+01  0.14213548772E+03  0.14513558670E+03  0.47000000000E+01 0.  1.
<mgrwt>
<rscale>  0 0.10935434E+03</rscale>
<asrwt>0</asrwt>
<pdfrwt beam="1">  1        3 0.90909613E-01 0.11148182E+03</pdfrwt>
<pdfrwt beam="2">  1       -3 0.30231078E-02 0.11148182E+03</pdfrwt>
<totfact> 0.12618911E+03</totfact>
</mgrwt>
</event>
<event>
 8    1  0.3177960E-004  0.1162565E+03  0.7546771E-02  0.1250169E+00
         -2   -1    0    0    0  501 -0.00000000000E+00  0.00000000000E+00  0.86256361351E+02  0.86256361351E+02  0.00000000000E+00 0.  1.
          2   -1    0    0  501    0  0.00000000000E+00 -0.00000000000E+00 -0.56309193161E+03  0.56309193161E+03  0.00000000000E+00 0. -1.
         23    2    1    2    0    0  0.70050150294E+02  0.40616027320E+01  0.38709699915E+02  0.12085751336E+03  0.90468654769E+02 0.  0.
         23    2    1    2    0    0 -0.70050150294E+02 -0.40616027320E+01 -0.51554527018E+03  0.52849077960E+03  0.92693356553E+02 0.  0.
          5    1    3    3  502    0  0.30395845008E+02  0.44410108641E+02  0.36672148785E+01  0.54145208544E+02  0.47000000000E+01 0. -1.
         -5    1    4    4    0  503  0.10969208690E+02 -0.21512247336E+02 -0.51435114081E+02  0.57015447777E+02  0.47000000000E+01 0.  1.
          5    1    4    4  503    0 -0.81019358984E+02  0.17450644604E+02 -0.46411015609E+03  0.47147533182E+03  0.47000000000E+01 0. -1.
         -5    1    3    3    0  502  0.39654305286E+02 -0.40348505909E+02  0.35042485036E+02  0.66712304819E+02  0.47000000000E+01 0.  1.
<mgrwt>
<rscale>  0 0.11581250E+03</rscale>
<asrwt>0</asrwt>
<pdfrwt beam="1">  1        2 0.86629529E-01 0.11625652E+03</pdfrwt>
<pdfrwt beam="2">  1       -2 0.13270209E-01 0.11625652E+03</pdfrwt>
<totfact> 0.22244322E+03</totfact>
</mgrwt>
</event>
<event>
 8    1  0.3177960E-004  0.1038644E+03  0.7546771E-02  0.1273196E+00
          2   -1    0    0  501    0  0.00000000000E+00  0.00000000000E+00  0.10344933713E+04  0.10344933713E+04  0.00000000000E+00 0. -1.
         -2   -1    0    0    0  501 -0.00000000000E+00 -0.00000000000E+00 -0.10827573794E+02  0.10827573794E+02  0.00000000000E+00 0.  1.
         23    2    1    2    0    0 -0.26132410024E+00 -0.29653213589E+02  0.63482518851E+03  0.64326575923E+03  0.99541125476E+02 0.  0.
         23    2    1    2    0    0  0.26132410024E+00  0.29653213589E+02  0.38884060895E+03  0.40205518582E+03  0.97836454912E+02 0.  0.
          5    1    3    3  502    0  0.46414233890E+02 -0.23939005324E+02  0.24247950653E+03  0.24808417557E+03  0.47000000000E+01 0. -1.
         -5    1    4    4    0  503 -0.25492304519E+02  0.45045031196E+02  0.11105027768E+03  0.12260981444E+03  0.47000000000E+01 0.  1.
          5    1    4    4  503    0  0.25753628619E+02 -0.15391817607E+02  0.27779033127E+03  0.27944537138E+03  0.47000000000E+01 0. -1.
         -5    1    3    3    0  502 -0.46675557991E+02 -0.57142082656E+01  0.39234568198E+03  0.39518158365E+03  0.47000000000E+01 0.  1.
<mgrwt>
<rscale>  0 0.10345385E+03</rscale>
<asrwt>0</asrwt>
<pdfrwt beam="1">  1        2 0.15915275E+00 0.10386442E+03</pdfrwt>
<pdfrwt beam="2">  1       -2 0.16657814E-02 0.10386442E+03</pdfrwt>
<totfact> 0.23566539E+04</totfact>
</mgrwt>
</event>
<event>
 8    1  0.3177960E-004  0.1047814E+03  0.7546771E-02  0.1274067E+00
          1   -1    0    0  501    0  0.00000000000E+00  0.00000000000E+00  0.41900681920E+02  0.41900681920E+02  0.00000000000E+00 0. -1.
         -1   -1    0    0    0  501 -0.00000000000E+00 -0.00000000000E+00 -0.35085823453E+03  0.35085823453E+03  0.00000000000E+00 0.  1.
         23    2    1    2    0    0 -0.21146964701E+02 -0.46785185550E+02 -0.43072248831E+02  0.10697205896E+03  0.83377185586E+02 0.  0.
         23    2    1    2    0    0  0.21146964701E+02  0.46785185550E+02 -0.26588530378E+03  0.28578685748E+03  0.91340491810E+02 0.  0.
          5    1    3    3  502    0  0.79524963539E+00 -0.64835129335E+02 -0.43410649346E+02  0.78171611820E+02  0.47000000000E+01 0. -1.
         -5    1    3    3    0  502 -0.21942214336E+02  0.18049943786E+02  0.33840051523E+00  0.28800447142E+02  0.47000000000E+01 0.  1.
          5    1    4    4  503    0 -0.47867243628E+01  0.26752692602E+02 -0.12557511157E+02  0.30305121317E+02  0.47000000000E+01 0. -1.
         -5    1    4    4    0  503  0.25933689064E+02  0.20032492947E+02 -0.25332779262E+03  0.25548173617E+03  0.47000000000E+01 0.  1.
<mgrwt>
<rscale>  0 0.10302151E+03</rscale>
<asrwt>0</asrwt>
<pdfrwt beam="1">  1        1 0.64462590E-02 0.10478136E+03</pdfrwt>
<pdfrwt beam="2">  1       -1 0.53978188E-01 0.10478136E+03</pdfrwt>
<totfact> 0.39236946E+03</totfact>
</mgrwt>
</event>
<event>
 8    1  0.4257533E-004  0.9267031E+02  0.7546771E-02  0.1296711E+00
          2   -1    0    0  501    0  0.00000000000E+00  0.00000000000E+00  0.28258667738E+03  0.28258667738E+03  0.00000000000E+00 0. -1.
         -2   -1    0    0    0  501 -0.00000000000E+00 -0.00000000000E+00 -0.72532244212E+02  0.72532244212E+02  0.00000000000E+00 0.  1.
         23    2    1    2    0    0 -0.52006502110E+01  0.61771394639E+01  0.24046976970E+03  0.25758493463E+03  0.91973281953E+02 0.  0.
         23    2    1    2    0    0  0.52006502110E+01 -0.61771394639E+01 -0.30415336532E+02  0.97533986963E+02  0.92317831983E+02 0.  0.
          5    1    4    4  502    0 -0.38121066878E+02 -0.17694317604E+02  0.14841944652E+01  0.42315451653E+02  0.47000000000E+01 0. -1.
         -5    1    4    4    0  502  0.43321717089E+02  0.11517178141E+02 -0.31899530998E+02  0.55218535310E+02  0.47000000000E+01 0.  1.
          5    1    3    3  503    0 -0.42112855438E+02 -0.87883272554E+00  0.61748452595E+02  0.74894768428E+02  0.47000000000E+01 0. -1.
         -5    1    3    3    0  503  0.36912205227E+02  0.70559721894E+01  0.17872131711E+03  0.18269016620E+03  0.47000000000E+01 0.  1.
<mgrwt>
<rscale>  0 0.92584380E+02</rscale>
<asrwt>0</asrwt>
<pdfrwt beam="1">  1        2 0.43474873E-01 0.92670308E+02</pdfrwt>
<pdfrwt beam="2">  1       -2 0.11158807E-01 0.92670308E+02</pdfrwt>
<totfact> 0.60366189E+03</totfact>
</mgrwt>
</event>
<event>
 8    1  0.3177960E-004  0.9913358E+02  0.7546771E-02  0.1282410E+00
          1   -1    0    0  501    0  0.00000000000E+00  0.00000000000E+00  0.13114042519E+03  0.13114042519E+03  0.00000000000E+00 0. -1.
         -1   -1    0    0    0  501 -0.00000000000E+00 -0.00000000000E+00 -0.25419587632E+03  0.25419587632E+03  0.00000000000E+00 0.  1.
         23    2    1    2    0    0 -0.65830786586E+01  0.37820139707E+02  0.10039821535E+03  0.14109312063E+03  0.91398945023E+02 0.  0.
         23    2    1    2    0    0  0.65830786586E+01 -0.37820139707E+02 -0.22345366649E+03  0.24424318088E+03  0.90826705580E+02 0.  0.
          5    1    4    4  502    0 -0.25052222826E+02  0.68063739546E+01 -0.18911165147E+02  0.32460171936E+02  0.47000000000E+01 0. -1.
         -5    1    4    4    0  502  0.31635301485E+02 -0.44626513662E+02 -0.20454250134E+03  0.21178300894E+03  0.47000000000E+01 0.  1.
          5    1    3    3  503    0  0.36475709947E+01  0.58379738214E+02  0.10191668576E+03  0.11760356901E+03  0.47000000000E+01 0. -1.
         -5    1    3    3    0  503 -0.10230649653E+02 -0.20559598506E+02 -0.15184704034E+01  0.23489551623E+02  0.47000000000E+01 0.  1.
<mgrwt>
<rscale>  0 0.99001482E+02</rscale>
<asrwt>0</asrwt>
<pdfrwt beam="1">  1        1 0.20175450E-01 0.99133582E+02</pdfrwt>
<pdfrwt beam="2">  1       -1 0.39107058E-01 0.99133582E+02</pdfrwt>
<totfact> 0.15712205E+03</totfact>
</mgrwt>
</event>
<event>
 8    1  0.3177960E-004  0.9565795E+02  0.7546771E-02  0.1290587E+00
          1   -1    0    0  501    0  0.00000000000E+00  0.00000000000E+00  0.43948732874E+03  0.43948732874E+03  0.00000000000E+00 0. -1.
         -1   -1    0    0    0  501 -0.00000000000E+00 -0.00000000000E+00 -0.51666176797E+02  0.51666176797E+02  0.00000000000E+00 0.  1.
         23    2    1    2    0    0  0.25126914966E+02  0.27358812418E+01  0.24804385395E+01  0.94117097500E+02  0.90625761043E+02 0.  0.
         23    2    1    2    0    0 -0.25126914966E+02 -0.27358812418E+01  0.38534071340E+03  0.39703640804E+03  0.92258316697E+02 0.  0.
          5    1    3    3  502    0 -0.61854372235E+01 -0.35158781348E+02  0.20639036258E+02  0.41502522299E+02  0.47000000000E+01 0. -1.
         -5    1    3    3    0  502  0.31312352190E+02  0.37894662590E+02 -0.18158597718E+02  0.52614575201E+02  0.47000000000E+01 0.  1.
          5    1    4    4  503    0 -0.38062130378E+02 -0.23800350518E+02  0.35390051647E+03  0.35676721824E+03  0.47000000000E+01 0. -1.
         -5    1    4    4    0  503  0.12935215412E+02  0.21064469277E+02  0.31440196931E+02  0.40269189794E+02  0.47000000000E+01 0.  1.
<mgrwt>
<rscale>  0 0.95262116E+02</rscale>
<asrwt>0</asrwt>
<pdfrwt beam="1">  1        1 0.67613433E-01 0.95657953E+02</pdfrwt>
<pdfrwt beam="2">  1       -1 0.79486429E-02 0.95657953E+02</pdfrwt>
<totfact> 0.44099152E+03</totfact>
</mgrwt>
</event>
<event>
 8    1  0.3177960E-004  0.9875189E+02  0.7546771E-02  0.1283378E+00
         -1   -1    0    0    0  501 -0.00000000000E+00  0.00000000000E+00  0.91772630886E+02  0.91772630886E+02  0.00000000000E+00 0.  1.
          1   -1    0    0  501    0  0.00000000000E+00 -0.00000000000E+00 -0.10981998165E+03  0.10981998165E+03  0.00000000000E+00 0. -1.
         23    2    1    2    0    0 -0.30424231808E+00  0.38380202809E+02  0.11182152680E+02  0.99382975781E+02  0.90987926702E+02 0.  0.
         23    2    1    2    0    0  0.30424231808E+00 -0.38380202809E+02 -0.29229503441E+02  0.10220963675E+03  0.90107233021E+02 0.  0.
          5    1    4    4  502    0  0.22590439123E+02  0.18464185227E+02 -0.28370162278E+02  0.40965963721E+02  0.47000000000E+01 0. -1.
         -5    1    4    4    0  502 -0.22286196805E+02 -0.56844388036E+02 -0.85934116321E+00  0.61243673032E+02  0.47000000000E+01 0.  1.
          5    1    3    3  503    0  0.38323906888E+02  0.25052560896E+02  0.29167922613E+02  0.54490461148E+02  0.47000000000E+01 0. -1.
         -5    1    3    3    0  503 -0.38628149206E+02  0.13327641913E+02 -0.17985769933E+02  0.44892514633E+02  0.47000000000E+01 0.  1.
<mgrwt>
<rscale>  0 0.98548547E+02</rscale>
<asrwt>0</asrwt>
<pdfrwt beam="1">  1        1 0.16895382E-01 0.98751888E+02</pdfrwt>
<pdfrwt beam="2">  1       -1 0.14118866E-01 0.98751888E+02</pdfrwt>
<totfact> 0.10295576E+04</totfact>
</mgrwt>
</event>
<event>
 8    1  0.3177960E-004  0.1105772E+03  0.7546771E-02  0.1260261E+00
         -3   -1    0    0    0  501 -0.00000000000E+00  0.00000000000E+00  0.56012082707E+03  0.56012082707E+03  0.00000000000E+00 0.  1.
          3   -1    0    0  501    0  0.00000000000E+00 -0.00000000000E+00 -0.21805495021E+02  0.21805495021E+02  0.00000000000E+00 0. -1.
         23    2    1    2    0    0 -0.50581958668E+02 -0.34824164619E+02  0.30111909761E+03  0.32022160102E+03  0.89988364995E+02 0.  0.
         23    2    1    2    0    0  0.50581958668E+02  0.34824164619E+02  0.23719623444E+03  0.26170472106E+03  0.91956785563E+02 0.  0.
          5    1    3    3  502    0 -0.34059164770E+02 -0.62889118627E+02  0.24392822997E+03  0.25424031805E+03  0.47000000000E+01 0. -1.
         -5    1    4    4    0  503  0.72788343583E+02  0.27296059335E+02  0.21648894425E+03  0.23007122984E+03  0.47000000000E+01 0.  1.
          5    1    4    4  503    0 -0.22206384915E+02  0.75281052837E+01  0.20707290189E+02  0.31633491225E+02  0.47000000000E+01 0. -1.
         -5    1    3    3    0  502 -0.16522793898E+02  0.28064954008E+02  0.57190867638E+02  0.65981282974E+02  0.47000000000E+01 0.  1.
<mgrwt>
<rscale>  0 0.11016701E+03</rscale>
<asrwt>0</asrwt>
<pdfrwt beam="1">  1        3 0.33546920E-02 0.11057716E+03</pdfrwt>
<pdfrwt beam="2">  1       -3 0.86172424E-01 0.11057716E+03</pdfrwt>
<totfact> 0.12054068E+03</totfact>
</mgrwt>
</event>
<event>
 8    1  0.3177960E-004  0.1976768E+03  0.7546771E-02  0.1151833E+00
          2   -1    0    0  501    0  0.00000000000E+00  0.00000000000E+00  0.35212357981E+03  0.35212357981E+03  0.00000000000E+00 0. -1.
         -2   -1    0    0    0  501 -0.00000000000E+00 -0.00000000000E+00 -0.12267517103E+03  0.12267517103E+03  0.00000000000E+00 0.  1.
         23    2    1    2    0    0 -0.11357973092E+03 -0.13291244489E+03  0.40290043519E+02  0.20119867709E+03  0.91057930861E+02 0.  0.
         23    2    1    2    0    0  0.11357973092E+03  0.13291244489E+03  0.18915836527E+03  0.27360007375E+03  0.92249877639E+02 0.  0.
          5    1    3    3  502    0 -0.10697499696E+03 -0.71074858398E+02  0.50340634617E+02  0.13802737035E+03  0.47000000000E+01 0. -1.
         -5    1    3    3    0  502 -0.66047339557E+01 -0.61837586492E+02 -0.10050591098E+02  0.63171306739E+02  0.47000000000E+01 0.  1.
          5    1    4    4  503    0  0.28216364015E+02  0.46433999359E+01 -0.76865154775E+00  0.28989742779E+02  0.47000000000E+01 0. -1.
         -5    1    4    4    0  503  0.85363366903E+02  0.12826904495E+03  0.18992701682E+03  0.24461033097E+03  0.47000000000E+01 0.  1.
<mgrwt>
<rscale>  0 0.19753829E+03</rscale>
<asrwt>0</asrwt>
<pdfrwt beam="1">  1        2 0.54172858E-01 0.19767679E+03</pdfrwt>
<pdfrwt beam="2">  1       -2 0.18873103E-01 0.19767679E+03</pdfrwt>
<totfact> 0.21089986E+03</totfact>
</mgrwt>
</event>
<event>
 8    1  0.3177960E-004  0.1240282E+03  0.7546771E-02  0.1237802E+00
         -1   -1    0    0    0  501 -0.00000000000E+00  0.00000000000E+00  0.10932162579E+03  0.10932162579E+03  0.00000000000E+00 0.  1.
          1   -1    0    0  501    0  0.00000000000E+00 -0.00000000000E+00 -0.13767435835E+03  0.13767435835E+03  0.00000000000E+00 0. -1.
         23    2    1    2    0    0  0.73645974487E+02  0.33897508348E+02 -0.76893595225E+01  0.12125830785E+03  0.89842530806E+02 0.  0.
         23    2    1    2    0    0 -0.73645974487E+02 -0.33897508348E+02 -0.20663373040E+02  0.12573767630E+03  0.93862759519E+02 0.  0.
          5    1    3    3  502    0  0.35202753607E+02  0.86339005667E+01 -0.47712042708E+02  0.60102471828E+02  0.47000000000E+01 0. -1.
         -5    1    4    4    0  503 -0.63289759102E+01 -0.25716277755E+02  0.30495215736E+02  0.40662403525E+02  0.47000000000E+01 0.  1.
          5    1    4    4  503    0 -0.67316998577E+02 -0.81812305930E+01 -0.51158588776E+02  0.85075272770E+02  0.47000000000E+01 0. -1.
         -5    1    3    3    0  502  0.38443220880E+02  0.25263607782E+02  0.40022683185E+02  0.61155836019E+02  0.47000000000E+01 0.  1.
<mgrwt>
<rscale>  0 0.12326773E+03</rscale>
<asrwt>0</asrwt>
<pdfrwt beam="1">  1        1 0.21180670E-01 0.12402818E+03</pdfrwt>
<pdfrwt beam="2">  1       -1 0.16818712E-01 0.12402818E+03</pdfrwt>
<totfact> 0.59900649E+03</totfact>
</mgrwt>
</event>
<event>
 8    1  0.3177960E-004  0.1004306E+03  0.7546771E-02  0.1283857E+00
          2   -1    0    0  501    0  0.00000000000E+00  0.00000000000E+00  0.18124729385E+03  0.18124729385E+03  0.00000000000E+00 0. -1.
         -2   -1    0    0    0  501 -0.00000000000E+00 -0.00000000000E+00 -0.58422565560E+02  0.58422565560E+02  0.00000000000E+00 0.  1.
         23    2    1    2    0    0 -0.33421872064E+02  0.40770673533E+01  0.21649261879E+02  0.10273747642E+03  0.94618468132E+02 0.  0.
         23    2    1    2    0    0  0.33421872064E+02 -0.40770673533E+01  0.10117546641E+03  0.13693238298E+03  0.85909012890E+02 0.  0.
          5    1    4    4  502    0  0.51755304279E+02 -0.30073395081E+02  0.63274301841E+02  0.87228137010E+02  0.47000000000E+01 0. -1.
         -5    1    3    3    0  503 -0.24759647834E+02  0.45848783715E+02 -0.44479053188E+01  0.52507380345E+02  0.47000000000E+01 0.  1.
          5    1    3    3  503    0 -0.86622242293E+01 -0.41771716361E+02  0.26097167198E+02  0.50230096079E+02  0.47000000000E+01 0. -1.
         -5    1    4    4    0  502 -0.18333432215E+02  0.25996327728E+02  0.37901164565E+02  0.49704245971E+02  0.47000000000E+01 0.  1.
<mgrwt>
<rscale>  0 0.98325498E+02</rscale>
<asrwt>0</asrwt>
<pdfrwt beam="1">  1        2 0.27884199E-01 0.10043057E+03</pdfrwt>
<pdfrwt beam="2">  1       -2 0.89880871E-02 0.10043057E+03</pdfrwt>
<totfact> 0.13634549E+04</totfact>
</mgrwt>
</event>
<event>
 8    1  0.3177960E-004  0.1514882E+03  0.7546771E-02  0.1199137E+00
         -1   -1    0    0    0  501 -0.00000000000E+00  0.00000000000E+00  0.35854362420E+02  0.35854362420E+02  0.00000000000E+00 0.  1.
          1   -1    0    0  501    0  0.00000000000E+00 -0.00000000000E+00 -0.67236184883E+03  0.67236184883E+03  0.00000000000E+00 0. -1.
         23    2    1    2    0    0  0.10868869385E+03  0.48654998937E+02 -0.40192220368E+03  0.42896915553E+03  0.91063370757E+02 0.  0.
         23    2    1    2    0    0 -0.10868869385E+03 -0.48654998937E+02 -0.23458528273E+03  0.27924705572E+03  0.93638251586E+02 0.  0.
          5    1    3    3  502    0  0.38960319027E+02  0.63222138288E+02 -0.15503091678E+03  0.17196400899E+03  0.47000000000E+01 0. -1.
         -5    1    3    3    0  502  0.69728374828E+02 -0.14567139351E+02 -0.24689128689E+03  0.25700514654E+03  0.47000000000E+01 0.  1.
          5    1    4    4  503    0  0.10661079672E+02 -0.17663149867E+02 -0.72562594786E+02  0.75584824172E+02  0.47000000000E+01 0. -1.
         -5    1    4    4    0  503 -0.11934977353E+03 -0.30991849070E+02 -0.16202268795E+03  0.20366223155E+03  0.47000000000E+01 0.  1.
<mgrwt>
<rscale>  0 0.15109213E+03</rscale>
<asrwt>0</asrwt>
<pdfrwt beam="1">  1        1 0.10344028E+00 0.15148816E+03</pdfrwt>
<pdfrwt beam="2">  1       -1 0.55160561E-02 0.15148816E+03</pdfrwt>
<totfact> 0.44266458E+03</totfact>
</mgrwt>
</event>
<event>
 8    1  0.3177960E-004  0.9880565E+02  0.7546771E-02  0.1284031E+00
         -2   -1    0    0    0  501 -0.00000000000E+00  0.00000000000E+00  0.44161477444E+02  0.44161477444E+02  0.00000000000E+00 0.  1.
          2   -1    0    0  501    0  0.00000000000E+00 -0.00000000000E+00 -0.24652315712E+03  0.24652315712E+03  0.00000000000E+00 0. -1.
         23    2    1    2    0    0 -0.94026831474E+01 -0.31201289549E+02 -0.49128476165E+02  0.10835808428E+03  0.90917194957E+02 0.  0.
         23    2    1    2    0    0  0.94026831474E+01  0.31201289549E+02 -0.15323320351E+03  0.18232655028E+03  0.93277142751E+02 0.  0.
          5    1    3    3  502    0 -0.26489862355E+02 -0.52816562607E+02 -0.53764175724E+02  0.80024862914E+02  0.47000000000E+01 0. -1.
         -5    1    4    4    0  503  0.37511956393E+02 -0.10845307615E+02 -0.31395107704E+02  0.50324053468E+02  0.47000000000E+01 0.  1.
          5    1    4    4  503    0 -0.28109273246E+02  0.42046597164E+02 -0.12183809580E+03  0.13200249681E+03  0.47000000000E+01 0. -1.
         -5    1    3    3    0  502  0.17087179207E+02  0.21615273058E+02  0.46356995582E+01  0.28333221367E+02  0.47000000000E+01 0.  1.
<mgrwt>
<rscale>  0 0.98244699E+02</rscale>
<asrwt>0</asrwt>
<pdfrwt beam="1">  1        2 0.37926640E-01 0.98805649E+02</pdfrwt>
<pdfrwt beam="2">  1       -2 0.67940734E-02 0.98805649E+02</pdfrwt>
<totfact> 0.15046992E+04</totfact>
</mgrwt>
</event>
<event>
 8    1  0.3177960E-004  0.9700980E+02  0.7546771E-02  0.1287854E+00
         -1   -1    0    0    0  501 -0.00000000000E+00  0.00000000000E+00  0.28557211017E+02  0.28557211017E+02  0.00000000000E+00 0.  1.
          1   -1    0    0  501    0  0.00000000000E+00 -0.00000000000E+00 -0.32692752489E+03  0.32692752489E+03  0.00000000000E+00 0. -1.
         23    2    1    2    0    0 -0.29611758761E+02 -0.10793145891E+02 -0.13027891339E+03  0.16242997388E+03  0.91747222767E+02 0.  0.
         23    2    1    2    0    0  0.29611758761E+02  0.10793145891E+02 -0.16809140048E+03  0.19305476203E+03  0.89566031339E+02 0.  0.
          5    1    3    3  502    0 -0.39269003202E+02  0.23817439329E+02 -0.11343085369E+03  0.12246621411E+03  0.47000000000E+01 0. -1.
         -5    1    3    3    0  502  0.96572444409E+01 -0.34610585220E+02 -0.16848059695E+02  0.39963759770E+02  0.47000000000E+01 0.  1.
          5    1    4    4  503    0  0.49700047584E+02  0.36048538697E+02 -0.97855421685E+02  0.11561732321E+03  0.47000000000E+01 0. -1.
         -5    1    4    4    0  503 -0.20088288823E+02 -0.25255392805E+02 -0.70235978798E+02  0.77437438822E+02  0.47000000000E+01 0.  1.
<mgrwt>
<rscale>  0 0.96490590E+02</rscale>
<asrwt>0</asrwt>
<pdfrwt beam="1">  1        1 0.50296543E-01 0.97009799E+02</pdfrwt>
<pdfrwt beam="2">  1       -1 0.43934170E-02 0.97009799E+02</pdfrwt>
<totfact> 0.15286120E+04</totfact>
</mgrwt>
</event>
<event>
 8    1  0.3177960E-004  0.9165705E+02  0.7546771E-02  0.1299725E+00
         -2   -1    0    0    0  501 -0.00000000000E+00  0.00000000000E+00  0.44574138495E+02  0.44574138495E+02  0.00000000000E+00 0.  1.
          2   -1    0    0  501    0  0.00000000000E+00 -0.00000000000E+00 -0.38279318960E+03  0.38279318960E+03  0.00000000000E+00 0. -1.
         23    2    1    2    0    0 -0.17615565849E+01 -0.81639067321E+01 -0.16374726435E+02  0.93108246878E+02  0.91275744402E+02 0.  0.
         23    2    1    2    0    0  0.17615565849E+01  0.81639067321E+01 -0.32184432467E+03  0.33425908122E+03  0.89864406742E+02 0.  0.
          5    1    3    3  502    0 -0.16291402738E+01 -0.34022088169E+02 -0.43427179052E+02  0.55391032323E+02  0.47000000000E+01 0. -1.
         -5    1    4    4    0  503  0.18237675100E+02 -0.36585831685E+02 -0.12209032943E+03  0.12883817141E+03  0.47000000000E+01 0.  1.
          5    1    4    4  503    0 -0.16476118515E+02  0.44749738417E+02 -0.19975399524E+03  0.20542090981E+03  0.47000000000E+01 0. -1.
         -5    1    3    3    0  502 -0.13241631107E+00  0.25858181437E+02  0.27052452616E+02  0.37717214556E+02  0.47000000000E+01 0.  1.
<mgrwt>
<rscale>  0 0.91303663E+02</rscale>
<asrwt>0</asrwt>
<pdfrwt beam="1">  1        2 0.58891259E-01 0.91657045E+02</pdfrwt>
<pdfrwt beam="2">  1       -2 0.68575599E-02 0.91657045E+02</pdfrwt>
<totfact> 0.92914518E+03</totfact>
</mgrwt>
</event>
<event>
 8    1  0.3177960E-004  0.9198553E+02  0.7546771E-02  0.1298427E+00
         -1   -1    0    0    0  501 -0.00000000000E+00  0.00000000000E+00  0.48957169446E+02  0.48957169446E+02  0.00000000000E+00 0.  1.
          1   -1    0    0  501    0  0.00000000000E+00 -0.00000000000E+00 -0.29188224747E+03  0.29188224747E+03  0.00000000000E+00 0. -1.
         23    2    1    2    0    0 -0.35140149691E+01  0.63004441766E+01 -0.23054870468E+03  0.24802502127E+03  0.91168317134E+02 0.  0.
         23    2    1    2    0    0  0.35140149691E+01 -0.63004441766E+01 -0.12376373347E+02  0.92814395646E+02  0.91702200213E+02 0.  0.
          5    1    3    3  502    0  0.42945092774E+02  0.36735055863E+01 -0.13206032026E+03  0.13899566117E+03  0.47000000000E+01 0. -1.
         -5    1    3    3    0  502 -0.46459107743E+02  0.26269385903E+01 -0.98488384412E+02  0.10902936010E+03  0.47000000000E+01 0.  1.
          5    1    4    4  503    0  0.13918114438E+02  0.38725789445E+02  0.78413675484E+01  0.42154213582E+02  0.47000000000E+01 0. -1.
         -5    1    4    4    0  503 -0.10404099469E+02 -0.45026233622E+02 -0.20217740895E+02  0.50660182064E+02  0.47000000000E+01 0.  1.
<mgrwt>
<rscale>  0 0.91852181E+02</rscale>
<asrwt>0</asrwt>
<pdfrwt beam="1">  1        1 0.44904960E-01 0.91985528E+02</pdfrwt>
<pdfrwt beam="2">  1       -1 0.75318724E-02 0.91985528E+02</pdfrwt>
<totfact> 0.79015906E+03</totfact>
</mgrwt>
</event>
<event>
 8    1  0.3177960E-004  0.1071863E+03  0.7546771E-02  0.1266795E+00
          3   -1    0    0  501    0  0.00000000000E+00  0.00000000000E+00  0.18065598806E+03  0.18065598806E+03  0.00000000000E+00 0. -1.
         -3   -1    0    0    0  501 -0.00000000000E+00 -0.00000000000E+00 -0.73166113961E+02  0.73166113961E+02  0.00000000000E+00 0.  1.
         23    2    1    2    0    0  0.41134274582E+01  0.53134250536E+02  0.48055348657E+01  0.10538698018E+03  0.90791814388E+02 0.  0.
         23    2    1    2    0    0 -0.41134274582E+01 -0.53134250536E+02  0.10268433924E+03  0.14843512185E+03  0.92998618313E+02 0.  0.
          5    1    3    3  502    0 -0.30848080130E+02 -0.10153187111E+02  0.88800286809E+00  0.32826358392E+02  0.47000000000E+01 0. -1.
         -5    1    4    4    0  503 -0.20252692418E+02  0.14052325122E+02  0.63358314669E+00  0.25102406640E+02  0.47000000000E+01 0.  1.
          5    1    4    4  503    0  0.16139264960E+02 -0.67186575658E+02  0.10205075609E+03  0.12333271521E+03  0.47000000000E+01 0. -1.
         -5    1    3    3    0  502  0.34961507588E+02  0.63287437647E+02  0.39175319976E+01  0.72560621784E+02  0.47000000000E+01 0.  1.
<mgrwt>
<rscale>  0 0.10670588E+03</rscale>
<asrwt>0</asrwt>
<pdfrwt beam="1">  1        3 0.27793229E-01 0.10718634E+03</pdfrwt>
<pdfrwt beam="2">  1       -3 0.11256325E-01 0.10718634E+03</pdfrwt>
<totfact> 0.16483508E+03</totfact>
</mgrwt>
</event>
