<event>
 6    1  0.5262038E-007  0.2734854E+03  0.7546771E-02  0.1171702E+00
          2   -1    0    0  501    0  0.00000000000E+00  0.00000000000E+00  0.45764694505E+03  0.45764694505E+03  0.00000000000E+00 0. -1.
         -2   -1    0    0    0  501 -0.00000000000E+00 -0.00000000000E+00 -0.57752769255E+02  0.57752769255E+02  0.00000000000E+00 0.  1.
          5    1    1    2  502    0 -0.11197491985E+03 -0.59161695678E+02  0.21476510132E+03  0.24936845762E+03  0.47000000000E+01 0. -1.
         -5    1    1    2    0  502  0.94082385458E+02  0.93410288572E+02  0.91077127661E+02  0.16091647040E+03  0.47000000000E+01 0.  1.
          5    1    1    2  503    0 -0.34164895549E-01 -0.25198885367E+02  0.43094200239E+02  0.50141650205E+02  0.47000000000E+01 0. -1.
         -5    1    1    2    0  503  0.17926699291E+02 -0.90497075269E+01  0.50957746573E+02  0.54973136072E+02  0.47000000000E+01 0.  1.
<mgrwt>
<rscale>  0 0.17602973E+03</rscale>
<asrwt>0</asrwt>
<pdfrwt beam="1">  1        2 0.70407220E-01 0.27348538E+03</pdfrwt>
<pdfrwt beam="2">  1       -2 0.88850417E-02 0.27348538E+03</pdfrwt>
<totfact> 0.54792188E+03</totfact>
</mgrwt>
</event>
<event>
 6    1  0.5262038E-007  0.2696311E+03  0.7546771E-02  0.1101491E+00
          4   -1    0    0  501    0  0.00000000000E+00  0.00000000000E+00  0.17901898548E+03  0.17901898548E+03  0.00000000000E+00 0. -1.
         -4   -1    0    0    0  501 -0.00000000000E+00 -0.00000000000E+00 -0.10152682241E+03  0.10152682241E+03  0.00000000000E+00 0.  1.
          5    1    1    2  502    0  0.37796520001E+02 -0.91270456592E+02  0.10976985233E+03  0.14775108680E+03  0.47000000000E+01 0. -1.
         -5    1    1    2    0  502 -0.31478589369E+02  0.18298790732E+02 -0.42595032125E+02  0.56233211651E+02  0.47000000000E+01 0.  1.
          5    1    1    2  503    0  0.19029132604E+01  0.47850221146E+02  0.12225166057E+02  0.49646847107E+02  0.47000000000E+01 0. -1.
         -5    1    1    2    0  503 -0.82208438924E+01  0.25121444714E+02 -0.19078231888E+01  0.26914662327E+02  0.47000000000E+01 0.  1.
<mgrwt>
<rscale>  0 0.26963107E+03</rscale>
<asrwt>0</asrwt>
<pdfrwt beam="1">  1        4 0.27541382E-01 0.26963107E+03</pdfrwt>
<pdfrwt beam="2">  1       -4 0.15619511E-01 0.26963107E+03</pdfrwt>
<totfact> 0.82064344E+02</totfact>
</mgrwt>
</event>
<event>
 6    1  0.5262038E-007  0.3688972E+03  0.7546771E-02  0.1127380E+00
         -1   -1    0    0    0  501 -0.00000000000E+00  0.00000000000E+00  0.83331018393E+03  0.83331018393E+03  0.00000000000E+00 0.  1.
          1   -1    0    0  501    0  0.00000000000E+00 -0.00000000000E+00 -0.67369824318E+02  0.67369824318E+02  0.00000000000E+00 0. -1.
          5    1    1    2  502    0  0.20178771978E+03 -0.31992822232E+02  0.43828914874E+03  0.48359207234E+03  0.47000000000E+01 0. -1.
         -5    1    1    2    0  502 -0.15458251643E+03  0.55328195921E+02  0.32274135435E+03  0.36213400207E+03  0.47000000000E+01 0.  1.
          5    1    1    2  503    0 -0.25822997952E+02 -0.81499863800E+01 -0.15882979633E+01  0.27529296970E+02  0.47000000000E+01 0.  1.
         -5    1    1    2    0  503 -0.21382205394E+02 -0.15185387309E+02  0.64981544798E+01  0.27424636860E+02  0.47000000000E+01 0. -1.
<mgrwt>
<rscale>  0 0.22895159E+03</rscale>
<asrwt>0</asrwt>
<pdfrwt beam="1">  1        1 0.10364589E-01 0.36889723E+03</pdfrwt>
<pdfrwt beam="2">  1       -1 0.12820156E+00 0.36889723E+03</pdfrwt>
<totfact> 0.34372707E+02</totfact>
</mgrwt>
</event>
<event>
 6    1  0.5262038E-007  0.2198562E+03  0.7546771E-02  0.1133990E+00
         -2   -1    0    0    0  501 -0.00000000000E+00  0.00000000000E+00  0.17634887184E+02  0.17634887184E+02  0.00000000000E+00 0.  1.
          2   -1    0    0  501    0  0.00000000000E+00 -0.00000000000E+00 -0.68524337690E+03  0.68524337690E+03  0.00000000000E+00 0. -1.
          5    1    1    2  502    0 -0.25233574267E+02 -0.49302108996E+02 -0.79858293080E+02  0.97297832429E+02  0.47000000000E+01 0. -1.
         -5    1    1    2    0  502  0.18059994499E+02  0.21968873333E+02 -0.81837598023E+02  0.86765645546E+02  0.47000000000E+01 0.  1.
          5    1    1    2  503    0 -0.22222856113E+02 -0.36959007843E+02 -0.22169271859E+03  0.22589726663E+03  0.47000000000E+01 0. -1.
         -5    1    1    2    0  503  0.29396435880E+02  0.64292243506E+02 -0.28421988002E+03  0.29291751948E+03  0.47000000000E+01 0.  1.
<mgrwt>
<rscale>  0 0.21985622E+03</rscale>
<asrwt>0</asrwt>
<pdfrwt beam="1">  1        2 0.10542206E+00 0.21985622E+03</pdfrwt>
<pdfrwt beam="2">  1       -2 0.27130596E-02 0.21985622E+03</pdfrwt>
<totfact> 0.20776598E+04</totfact>
</mgrwt>
</event>
<event>
 6    1  0.5262038E-007  0.2947567E+03  0.7546771E-02  0.1143388E+00
          1   -1    0    0  501    0  0.00000000000E+00  0.00000000000E+00  0.50236555143E+03  0.50236555143E+03  0.00000000000E+00 0. -1.
         -1   -1    0    0    0  501 -0.00000000000E+00 -0.00000000000E+00 -0.67798784450E+02  0.67798784450E+02  0.00000000000E+00 0.  1.
          5    1    1    2  502    0  0.99282864994E+01 -0.22385573062E+02  0.37321901206E+02  0.44885399226E+02  0.47000000000E+01 0. -1.
         -5    1    1    2    0  502  0.26774904623E+02 -0.35685300759E+02  0.28269487376E+02  0.53024429505E+02  0.47000000000E+01 0.  1.
          5    1    1    2  503    0 -0.14022313048E+03  0.35603951404E+01  0.31184408728E+03  0.34197079921E+03  0.47000000000E+01 0. -1.
         -5    1    1    2    0  503  0.10351993936E+03  0.54510478680E+02  0.57131291116E+02  0.13028370794E+03  0.47000000000E+01 0.  1.
<mgrwt>
<rscale>  0 0.20771561E+03</rscale>
<asrwt>0</asrwt>
<pdfrwt beam="1">  1        1 0.77287006E-01 0.29475666E+03</pdfrwt>
<pdfrwt beam="2">  1       -1 0.10430583E-01 0.29475666E+03</pdfrwt>
<totfact> 0.25585418E+03</totfact>
</mgrwt>
</event>
<event>
 6    1  0.5262038E-007  0.7894170E+02  0.7546771E-02  0.1338566E+00
         -2   -1    0    0    0  501 -0.00000000000E+00  0.00000000000E+00  0.81418609358E+02  0.81418609358E+02  0.00000000000E+00 0. -1.
          2   -1    0    0  501    0  0.00000000000E+00 -0.00000000000E+00 -0.10442839000E+03  0.10442839000E+03  0.00000000000E+00 0.  1.
          5    1    1    2  502    0 -0.22108028135E+02  0.69101372835E+01 -0.13608184357E+02  0.27272469393E+02  0.47000000000E+01 0. -1.
         -5    1    1    2    0  502 -0.38003497966E+02  0.24415970507E+02 -0.51863821795E+02  0.68937301112E+02  0.47000000000E+01 0.  1.
          5    1    1    2  503    0  0.11980451367E+02 -0.26637349359E+02  0.22237589113E+02  0.37009187581E+02  0.47000000000E+01 0. -1.
         -5    1    1    2    0  503  0.48131074734E+02 -0.46887584309E+01  0.20224636397E+02  0.52628041271E+02  0.47000000000E+01 0.  1.
<mgrwt>
<rscale>  0 0.76739953E+02</rscale>
<asrwt>0</asrwt>
<pdfrwt beam="1">  1        2 0.16065906E-01 0.78941701E+02</pdfrwt>
<pdfrwt beam="2">  1       -2 0.12525940E-01 0.78941701E+02</pdfrwt>
<totfact> 0.14602922E+04</totfact>
</mgrwt>
</event>
<event>
 6    1  0.5262038E-007  0.1411190E+03  0.7546771E-02  0.1249181E+00
          1   -1    0    0  501    0  0.00000000000E+00  0.00000000000E+00  0.30545433376E+03  0.30545433376E+03  0.00000000000E+00 0. -1.
         -1   -1    0    0    0  501 -0.00000000000E+00 -0.00000000000E+00 -0.35080488115E+02  0.35080488115E+02  0.00000000000E+00 0.  1.
          5    1    1    2  502    0  0.22501904468E+01 -0.36295057018E+02  0.58316054096E+02  0.68885750967E+02  0.47000000000E+01 0. -1.
         -5    1    1    2    0  503 -0.52243505044E+02  0.38370643453E+02  0.54197810404E+02  0.84623771783E+02  0.47000000000E+01 0.  1.
          5    1    1    2  503    0  0.68902266352E+02  0.18760615883E+02  0.11807673117E+03  0.13807131295E+03  0.47000000000E+01 0. -1.
         -5    1    1    2    0  502 -0.18908951755E+02 -0.20836202318E+02  0.39783249979E+02  0.48953986175E+02  0.47000000000E+01 0.  1.
<mgrwt>
<rscale>  0 0.11638585E+03</rscale>
<asrwt>0</asrwt>
<pdfrwt beam="1">  1        1 0.46992973E-01 0.14111904E+03</pdfrwt>
<pdfrwt beam="2">  1       -1 0.53969984E-02 0.14111904E+03</pdfrwt>
<totfact> 0.12690943E+04</totfact>
</mgrwt>
</event>
<event>
 6    1  0.5262038E-007  0.7009835E+02  0.7546771E-02  0.1360383E+00
          2   -1    0    0  501    0  0.00000000000E+00  0.00000000000E+00  0.58911352003E+03  0.58911352003E+03  0.00000000000E+00 0. -1.
         -2   -1    0    0    0  501 -0.00000000000E+00 -0.00000000000E+00 -0.90670738011E+01  0.90670738011E+01  0.00000000000E+00 0.  1.
          5    1    1    2  502    0 -0.20505123071E+02 -0.12204814893E+02  0.80153394441E+02  0.83762009402E+02  0.47000000000E+01 0.  1.
         -5    1    1    2    0  502 -0.43698238090E+02 -0.82644827198E+01  0.11893110067E+03  0.12706114431E+03  0.47000000000E+01 0.  1.
          5    1    1    2  503    0  0.41483498105E+02  0.19217159009E+02  0.22210156074E+03  0.22680690708E+03  0.47000000000E+01 0. -1.
         -5    1    1    2    0  503  0.22719863056E+02  0.12521386042E+01  0.15886039038E+03  0.16055053304E+03  0.47000000000E+01 0. -1.
<mgrwt>
<rscale>  0 0.69914764E+02</rscale>
<asrwt>0</asrwt>
<pdfrwt beam="1">  1        2 0.90632819E-01 0.70098347E+02</pdfrwt>
<pdfrwt beam="2">  1       -2 0.13949349E-02 0.70098347E+02</pdfrwt>
<totfact> 0.57686872E+04</totfact>
</mgrwt>
</event>
<event>
 6    1  0.5262038E-007  0.9724253E+02  0.7546771E-02  0.1293603E+00
          1   -1    0    0  501    0  0.00000000000E+00  0.00000000000E+00  0.10120660665E+04  0.10120660665E+04  0.00000000000E+00 0. -1.
         -1   -1    0    0    0  501 -0.00000000000E+00 -0.00000000000E+00 -0.81935852154E+01  0.81935852154E+01  0.00000000000E+00 0.  1.
          5    1    1    2  502    0  0.19835521726E+02 -0.98313114251E+01  0.56384401348E+02  0.60756837655E+02  0.47000000000E+01 0.  1.
         -5    1    1    2    0  502 -0.24081675643E+02 -0.57868200108E+01  0.59761049199E+02  0.64860522577E+02  0.47000000000E+01 0. -1.
          5    1    1    2  503    0 -0.27268889472E+02  0.54064311247E+02  0.45145933706E+03  0.45552625073E+03  0.47000000000E+01 0. -1.
         -5    1    1    2    0  503  0.31515043389E+02 -0.38446179811E+02  0.43626769370E+03  0.43911604077E+03  0.47000000000E+01 0.  1.
<mgrwt>
<rscale>  0 0.93930779E+02</rscale>
<asrwt>0</asrwt>
<pdfrwt beam="1">  1        1 0.15570237E+00 0.97242534E+02</pdfrwt>
<pdfrwt beam="2">  1       -1 0.12605524E-02 0.97242534E+02</pdfrwt>
<totfact> 0.19562641E+04</totfact>
</mgrwt>
</event>
<event>
 6    1  0.5262038E-007  0.2125874E+03  0.7546771E-02  0.1139533E+00
          1   -1    0    0  501    0  0.00000000000E+00  0.00000000000E+00  0.10457604770E+04  0.10457604770E+04  0.00000000000E+00 0. -1.
         -1   -1    0    0    0  501 -0.00000000000E+00 -0.00000000000E+00 -0.10803957305E+02  0.10803957305E+02  0.00000000000E+00 0.  1.
          5    1    1    2  502    0 -0.45835440763E+02 -0.25371803443E+01  0.30057854333E+03  0.30410010790E+03  0.47000000000E+01 0. -1.
         -5    1    1    2    0  503  0.18528936600E+02 -0.18782536985E+02  0.16773975893E+03  0.16986707130E+03  0.47000000000E+01 0.  1.
          5    1    1    2  503    0 -0.81547443702E+01 -0.41392776686E+02  0.38190821590E+03  0.38426011658E+03  0.47000000000E+01 0. -1.
         -5    1    1    2    0  502  0.35461248534E+02  0.62712494016E+02  0.18473000157E+03  0.19833713856E+03  0.47000000000E+01 0.  1.
<mgrwt>
<rscale>  0 0.21258741E+03</rscale>
<asrwt>0</asrwt>
<pdfrwt beam="1">  1        1 0.16088615E+00 0.21258741E+03</pdfrwt>
<pdfrwt beam="2">  1       -1 0.16621481E-02 0.21258741E+03</pdfrwt>
<totfact> 0.13113371E+04</totfact>
</mgrwt>
</event>
<event>
 7    1  0.5262038E-007  0.9231806E+02  0.7546771E-02  0.1297333E+00
         -4   -1    0    0    0  501 -0.00000000000E+00  0.00000000000E+00  0.37408975177E+03  0.37408975177E+03  0.00000000000E+00 0.  1.
          4   -1    0    0  501    0  0.00000000000E+00 -0.00000000000E+00 -0.56955747861E+01  0.56955747861E+01  0.00000000000E+00 0. -1.
         23    2    1    2    0    0  0.00000000000E+00  0.35527136788E-14  0.36839417699E+03  0.37978532656E+03  0.92318062327E+02 0.  0.
          5    1    3    3  502    0  0.13524948022E+02 -0.16034602626E+02  0.55577366878E+02  0.59589985815E+02  0.47000000000E+01 0. -1.
         -5    1    3    3    0  502 -0.68988736194E+01 -0.23901791383E+02  0.10258862642E+03  0.10566648646E+03  0.47000000000E+01 0.  1.
          5    1    3    3  503    0 -0.78290062172E+01  0.19256527777E+02  0.95259881132E+02  0.97614764015E+02  0.47000000000E+01 0. -1.
         -5    1    3    3    0  503  0.12029318148E+01  0.20679866233E+02  0.11496830255E+03  0.11691409027E+03  0.47000000000E+01 0.  1.
<mgrwt>
<rscale>  0 0.92318062E+02</rscale>
<asrwt>0</asrwt>
<pdfrwt beam="1">  1        4 0.87624256E-03 0.92318062E+02</pdfrwt>
<pdfrwt beam="2">  1       -4 0.57552251E-01 0.92318062E+02</pdfrwt>
<totfact> 0.15127099E+04</totfact>
</mgrwt>
</event>
<event>
 6    1  0.5262038E-007  0.9762012E+02  0.7546771E-02  0.1302934E+00
          4   -1    0    0  501    0  0.00000000000E+00  0.00000000000E+00  0.61840557153E+02  0.61840557153E+02  0.00000000000E+00 0.  1.
         -4   -1    0    0    0  501 -0.00000000000E+00 -0.00000000000E+00 -0.11830375772E+03  0.11830375772E+03  0.00000000000E+00 0. -1.
          5    1    1    2  502    0 -0.44243280424E+02  0.11697485873E+02 -0.16908065126E+02  0.49012974861E+02  0.47000000000E+01 0. -1.
         -5    1    1    2    0  502  0.45411406075E+02 -0.48615828817E+02 -0.23198390449E+02  0.70611259249E+02  0.47000000000E+01 0.  1.
          5    1    1    2  503    0  0.14769332582E+02  0.22565459689E+02  0.72108746124E+01  0.28309360088E+02  0.47000000000E+01 0.  1.
         -5    1    1    2    0  503 -0.15937458233E+02  0.14352883255E+02 -0.23567619607E+02  0.32210720678E+02  0.47000000000E+01 0. -1.
<mgrwt>
<rscale>  0 0.89966092E+02</rscale>
<asrwt>0</asrwt>
<pdfrwt beam="1">  1        4 0.95139319E-02 0.97620122E+02</pdfrwt>
<pdfrwt beam="2">  1       -4 0.18200578E-01 0.97620122E+02</pdfrwt>
<totfact> 0.33253046E+03</totfact>
</mgrwt>
</event>
<event>
 6    1  0.5262038E-007  0.2166380E+03  0.7546771E-02  0.1164929E+00
          1   -1    0    0  501    0  0.00000000000E+00  0.00000000000E+00  0.70457935706E+03  0.70457935706E+03  0.00000000000E+00 0. -1.
         -1   -1    0    0    0  501 -0.00000000000E+00 -0.00000000000E+00 -0.42980437790E+02  0.42980437790E+02  0.00000000000E+00 0.  1.
          5    1    1    2  502    0 -0.49772529666E+02 -0.11535056002E+03  0.20564006968E+03  0.24102486317E+03  0.47000000000E+01 0. -1.
         -5    1    1    2    0  502  0.57419976909E+02  0.27431176795E+02  0.34211372758E+03  0.34801352820E+03  0.47000000000E+01 0.  1.
          5    1    1    2  503    0 -0.29614564248E+02  0.81325500795E+02  0.93609787303E+02  0.12757641543E+03  0.47000000000E+01 0. -1.
         -5    1    1    2    0  503  0.21967117005E+02  0.65938824336E+01  0.20235334706E+02  0.30944988055E+02  0.47000000000E+01 0.  1.
<mgrwt>
<rscale>  0 0.18300154E+03</rscale>
<asrwt>0</asrwt>
<pdfrwt beam="1">  1        1 0.10839682E+00 0.21663796E+03</pdfrwt>
<pdfrwt beam="2">  1       -1 0.66123755E-02 0.21663796E+03</pdfrwt>
<totfact> 0.31919272E+03</totfact>
</mgrwt>
</event>
<event>
 6    1  0.5262038E-007  0.2084890E+03  0.7546771E-02  0.1207321E+00
         -1   -1    0    0    0  501 -0.00000000000E+00  0.00000000000E+00  0.53765989806E+02  0.53765989806E+02  0.00000000000E+00 0.  1.
          1   -1    0    0  501    0  0.00000000000E+00 -0.00000000000E+00 -0.39133648799E+03  0.39133648799E+03  0.00000000000E+00 0. -1.
          5    1    1    2  502    0  0.19443840761E+02 -0.10286481024E+03 -0.18497920722E+03  0.21259969246E+03  0.47000000000E+01 0. -1.
         -5    1    1    2    0  503 -0.24101964820E+02 -0.22680868181E+01 -0.50615243895E+01  0.25174549750E+02  0.47000000000E+01 0.  1.
          5    1    1    2  503    0 -0.21230618351E+02  0.54262311298E+01  0.52366787005E+01  0.23015124237E+02  0.47000000000E+01 0. -1.
         -5    1    1    2    0  502  0.25888742410E+02  0.99706665928E+02 -0.15276644527E+03  0.18431311135E+03  0.47000000000E+01 0.  1.
<mgrwt>
<rscale>  0 0.14456065E+03</rscale>
<asrwt>0</asrwt>
<pdfrwt beam="1">  1        1 0.60205613E-01 0.20848896E+03</pdfrwt>
<pdfrwt beam="2">  1       -1 0.82716908E-02 0.20848896E+03</pdfrwt>
<totfact> 0.50092784E+03</totfact>
</mgrwt>
</event>
<event>
 7    1  0.5262038E-007  0.9163106E+02  0.7546771E-02  0.1298949E+00
          2   -1    0    0  501    0  0.00000000000E+00  0.00000000000E+00  0.35117210498E+02  0.35117210498E+02  0.00000000000E+00 0. -1.
         -2   -1    0    0    0  501 -0.00000000000E+00 -0.00000000000E+00 -0.59773053220E+02  0.59773053220E+02  0.00000000000E+00 0.  1.
         23    2    1    2    0    0  0.00000000000E+00  0.00000000000E+00 -0.24655842722E+02  0.94890263717E+02  0.91631062244E+02 0.  0.
          5    1    3    3  502    0  0.10635343012E+02 -0.21666346617E+02 -0.13744059425E+02  0.28169669260E+02  0.47000000000E+01 0. -1.
         -5    1    3    3    0  503 -0.68665512343E+01  0.19499096502E+02  0.11711374674E+01  0.21232660060E+02  0.47000000000E+01 0. -1.
          5    1    3    3  503    0  0.15151768201E+02  0.13704460150E+02 -0.34529172842E+01  0.21246198375E+02  0.47000000000E+01 0.  1.
         -5    1    3    3    0  502 -0.18920559979E+02 -0.11537210035E+02 -0.86300034799E+01  0.24241736023E+02  0.47000000000E+01 0.  1.
<mgrwt>
<rscale>  0 0.91631062E+02</rscale>
<asrwt>0</asrwt>
<pdfrwt beam="1">  1        2 0.54026477E-02 0.91631062E+02</pdfrwt>
<pdfrwt beam="2">  1       -2 0.91958544E-02 0.91631062E+02</pdfrwt>
<totfact> 0.90884339E+04</totfact>
</mgrwt>
</event>
<event>
 6    1  0.5262038E-007  0.3050624E+03  0.7546771E-02  0.1082737E+00
          1   -1    0    0  501    0  0.00000000000E+00  0.00000000000E+00  0.13141921805E+03  0.13141921805E+03  0.00000000000E+00 0. -1.
         -1   -1    0    0    0  501 -0.00000000000E+00 -0.00000000000E+00 -0.17703478695E+03  0.17703478695E+03  0.00000000000E+00 0.  1.
          5    1    1    2  502    0 -0.40004505016E+00  0.25702930380E+02 -0.11640283578E+03  0.11930008736E+03  0.47000000000E+01 0.  1.
         -5    1    1    2    0  503 -0.15889245996E+02 -0.14023735730E+02  0.99915371627E+01  0.23896738627E+02  0.47000000000E+01 0. -1.
          5    1    1    2  503    0 -0.60197635097E+02 -0.23951132527E+02 -0.26562917979E+01  0.65011982793E+02  0.47000000000E+01 0. -1.
         -5    1    1    2    0  502  0.76486926143E+02  0.12271937877E+02  0.63452021514E+02  0.10024519622E+03  0.47000000000E+01 0.  1.
<mgrwt>
<rscale>  0 0.30506244E+03</rscale>
<asrwt>0</asrwt>
<pdfrwt beam="1">  1        1 0.20218341E-01 0.30506244E+03</pdfrwt>
<pdfrwt beam="2">  1       -1 0.27236121E-01 0.30506244E+03</pdfrwt>
<totfact> 0.30313986E+03</totfact>
</mgrwt>
</event>
<event>
 6    1  0.5262038E-007  0.2967592E+03  0.7546771E-02  0.1132587E+00
          3   -1    0    0  501    0  0.00000000000E+00  0.00000000000E+00  0.15254363376E+04  0.15254363376E+04  0.00000000000E+00 0. -1.
         -3   -1    0    0    0  501 -0.00000000000E+00 -0.00000000000E+00 -0.28917762855E+02  0.28917762855E+02  0.00000000000E+00 0.  1.
          5    1    1    2  502    0 -0.19762272095E+02  0.21068634949E+02  0.12758825251E+03  0.13090182182E+03  0.47000000000E+01 0. -1.
         -5    1    1    2    0  503 -0.14660521638E+02 -0.14551017301E+03  0.36993234549E+03  0.39781927000E+03  0.47000000000E+01 0.  1.
          5    1    1    2  503    0  0.91508398544E+02  0.11766431416E+03  0.46030486381E+03  0.48386086376E+03  0.47000000000E+01 0. -1.
         -5    1    1    2    0  502 -0.57085604811E+02  0.67772238958E+01  0.53869311296E+03  0.54177214490E+03  0.47000000000E+01 0.  1.
<mgrwt>
<rscale>  0 0.22174745E+03</rscale>
<asrwt>0</asrwt>
<pdfrwt beam="1">  1        3 0.23468245E+00 0.29675922E+03</pdfrwt>
<pdfrwt beam="2">  1       -3 0.44488878E-02 0.29675922E+03</pdfrwt>
<totfact> 0.69605881E+01</totfact>
</mgrwt>
</event>
<event>
 6    1  0.5262038E-007  0.2969135E+03  0.7546771E-02  0.1142289E+00
          4   -1    0    0  501    0  0.00000000000E+00  0.00000000000E+00  0.22547080463E+03  0.22547080463E+03  0.00000000000E+00 0. -1.
         -4   -1    0    0    0  501 -0.00000000000E+00 -0.00000000000E+00 -0.15569487585E+03  0.15569487585E+03  0.00000000000E+00 0.  1.
          5    1    1    2  502    0  0.18399485107E+01 -0.24402764309E+02  0.43170035041E+01  0.25290449496E+02  0.47000000000E+01 0. -1.
         -5    1    1    2    0  503 -0.79083571771E+02  0.76478973774E+02 -0.78354516164E+02  0.13514719737E+03  0.47000000000E+01 0.  1.
          5    1    1    2  503    0  0.67800978957E+02 -0.70596546935E+01  0.15818359916E+03  0.17231062798E+03  0.47000000000E+01 0. -1.
         -5    1    1    2    0  502  0.94426443029E+01 -0.45016554771E+02 -0.14370157719E+02  0.48417405629E+02  0.47000000000E+01 0.  1.
<mgrwt>
<rscale>  0 0.20908916E+03</rscale>
<asrwt>0</asrwt>
<pdfrwt beam="1">  1        4 0.34687816E-01 0.29691351E+03</pdfrwt>
<pdfrwt beam="2">  1       -4 0.23953058E-01 0.29691351E+03</pdfrwt>
<totfact> 0.24516599E+02</totfact>
</mgrwt>
</event>
<event>
 6    1  0.5262038E-007  0.2097379E+03  0.7546771E-02  0.1195770E+00
         -3   -1    0    0    0  501 -0.00000000000E+00  0.00000000000E+00  0.45739634395E+03  0.45739634395E+03  0.00000000000E+00 0.  1.
          3   -1    0    0  501    0  0.00000000000E+00 -0.00000000000E+00 -0.47872238772E+02  0.47872238772E+02  0.00000000000E+00 0. -1.
          5    1    1    2  502    0 -0.32101548350E+02  0.55624145701E+01  0.12712369006E+03  0.13131630682E+03  0.47000000000E+01 0. -1.
         -5    1    1    2    0  502 -0.25734774248E+02 -0.64860420159E+01  0.71955817364E+02  0.76837991899E+02  0.47000000000E+01 0.  1.
          5    1    1    2  503    0 -0.24907481777E+02 -0.62174347723E+02  0.56847803902E+01  0.67382778893E+02  0.47000000000E+01 0. -1.
         -5    1    1    2    0  503  0.82743804375E+02  0.63097975169E+02  0.20475981736E+03  0.22973150510E+03  0.47000000000E+01 0.  1.
<mgrwt>
<rscale>  0 0.15389258E+03</rscale>
<asrwt>0</asrwt>
<pdfrwt beam="1">  1        3 0.73649601E-02 0.20973786E+03</pdfrwt>
<pdfrwt beam="2">  1       -3 0.70368665E-01 0.20973786E+03</pdfrwt>
<totfact> 0.59034704E+02</totfact>
</mgrwt>
</event>
