<event>
 8    1  0.7943806E-003  0.9551438E+02  0.7546771E-02  0.1291264E+00
          1   -1    0    0  501    0  0.00000000000E+00  0.00000000000E+00  0.33377781242E+03  0.33377781242E+03  0.00000000000E+00 0. -1.
         -1   -1    0    0    0  501 -0.00000000000E+00 -0.00000000000E+00 -0.40666225443E+02  0.40666225443E+02  0.00000000000E+00 0.  1.
         23    2    1    2    0    0 -0.45159062197E+01 -0.10677053658E+02  0.35755204015E+02  0.99934830676E+02  0.92596667781E+02 0.  0.
         23    2    1    2    0    0  0.45159062197E+01  0.10677053658E+02  0.25735638297E+03  0.27450920719E+03  0.94808249090E+02 0.  0.
          5    1    4    4  502    0 -0.23909070238E+02  0.39713416848E+02  0.19064398363E+03  0.19625498111E+03  0.47000000000E+01 0.  1.
         -5    1    3    3    0  503 -0.16710692556E+02  0.29870581737E+02 -0.11404561623E+02  0.36382041241E+02  0.47000000000E+01 0.  1.
          5    1    3    3  503    0  0.12194786336E+02 -0.40547635395E+02  0.47159765638E+02  0.63552789435E+02  0.47000000000E+01 0. -1.
         -5    1    4    4    0  502  0.28424976458E+02 -0.29036363190E+02  0.66712399340E+02  0.78254226081E+02  0.47000000000E+01 0. -1.
<mgrwt>
<rscale>  0 0.94960877E+02</rscale>
<asrwt>0</asrwt>
<pdfrwt beam="1">  1        1 0.51350431E-01 0.95514381E+02</pdfrwt>
<pdfrwt beam="2">  1       -1 0.62563426E-02 0.95514381E+02</pdfrwt>
<totfact> 0.88556011E+03</totfact>
</mgrwt>
</event>
<event>
 8    1  0.7943806E-003  0.1021604E+03  0.7546771E-02  0.1277716E+00
         -1   -1    0    0    0  501 -0.00000000000E+00  0.00000000000E+00  0.57236180432E+02  0.57236180432E+02  0.00000000000E+00 0.  1.
          1   -1    0    0  501    0  0.00000000000E+00 -0.00000000000E+00 -0.44583313767E+03  0.44583313767E+03  0.00000000000E+00 0. -1.
         23    2    1    2    0    0  0.34900079325E+02 -0.23083058117E+02  0.19168558198E-01  0.10216039198E+03  0.93198187820E+02 0.  0.
         23    2    1    2    0    0 -0.34900079325E+02  0.23083058117E+02 -0.38861612580E+03  0.40090892613E+03  0.89188736438E+02 0.  0.
          5    1    4    4  502    0 -0.59321372109E+02  0.57573512092E+01 -0.32485371925E+03  0.33030925085E+03  0.47000000000E+01 0. -1.
         -5    1    3    3    0  503  0.36279760340E+02  0.11648216187E+02  0.35484953982E+02  0.52279765778E+02  0.47000000000E+01 0.  1.
          5    1    3    3  503    0 -0.13796810150E+01 -0.34731274304E+02 -0.35465785424E+02  0.49880626201E+02  0.47000000000E+01 0. -1.
         -5    1    4    4    0  502  0.24421292784E+02  0.17325706907E+02 -0.63762406545E+02  0.70599675279E+02  0.47000000000E+01 0.  1.
<mgrwt>
<rscale>  0 0.10123694E+03</rscale>
<asrwt>0</asrwt>
<pdfrwt beam="1">  1        1 0.68589712E-01 0.10216039E+03</pdfrwt>
<pdfrwt beam="2">  1       -1 0.88055664E-02 0.10216039E+03</pdfrwt>
<totfact> 0.37281366E+03</totfact>
</mgrwt>
</event>
<event>
 8    1  0.7943806E-003  0.1152172E+03  0.7546771E-02  0.1251799E+00
          2   -1    0    0  501    0  0.00000000000E+00  0.00000000000E+00  0.23557196029E+03  0.23557196029E+03  0.00000000000E+00 0. -1.
         -2   -1    0    0    0  501 -0.00000000000E+00 -0.00000000000E+00 -0.55786196493E+02  0.55786196493E+02  0.00000000000E+00 0.  1.
         23    2    1    2    0    0  0.23525910582E+01 -0.67751486908E+02  0.96543741484E+02  0.15031861864E+03  0.93162194194E+02 0.  0.
         23    2    1    2    0    0 -0.23525910582E+01  0.67751486908E+02  0.83242022316E+02  0.14103953815E+03  0.91471954054E+02 0.  0.
          5    1    3    3  502    0 -0.27772953137E+02 -0.11007785724E+02  0.77429645981E+02  0.83126099086E+02  0.47000000000E+01 0. -1.
         -5    1    3    3    0  502  0.30125544195E+02 -0.56743701184E+02  0.19114095504E+02  0.67192519554E+02  0.47000000000E+01 0.  1.
          5    1    4    4  503    0 -0.43918688226E+02  0.15578650870E+02  0.30782631779E+02  0.56046462491E+02  0.47000000000E+01 0. -1.
         -5    1    4    4    0  503  0.41566097168E+02  0.52172836038E+02  0.52459390536E+02  0.84993075656E+02  0.47000000000E+01 0.  1.
<mgrwt>
<rscale>  0 0.11487505E+03</rscale>
<asrwt>0</asrwt>
<pdfrwt beam="1">  1        2 0.36241839E-01 0.11521716E+03</pdfrwt>
<pdfrwt beam="2">  1       -2 0.85824919E-02 0.11521716E+03</pdfrwt>
<totfact> 0.11196876E+04</totfact>
</mgrwt>
</event>
<event>
 8    1  0.7943806E-003  0.9726554E+02  0.7546771E-02  0.1286925E+00
         -1   -1    0    0    0  501 -0.00000000000E+00  0.00000000000E+00  0.31138450297E+03  0.31138450297E+03  0.00000000000E+00 0.  1.
          1   -1    0    0  501    0  0.00000000000E+00 -0.00000000000E+00 -0.44832909545E+02  0.44832909545E+02  0.00000000000E+00 0. -1.
         23    2    1    2    0    0 -0.27740587132E+02 -0.16353180383E+02  0.29995827733E+02  0.10044560835E+03  0.90291770790E+02 0.  0.
         23    2    1    2    0    0  0.27740587132E+02  0.16353180383E+02  0.23655576569E+03  0.25577180417E+03  0.91780274793E+02 0.  0.
          5    1    4    4  502    0  0.17322267263E+02 -0.34817462935E+02  0.14568849914E+03  0.15086267083E+03  0.47000000000E+01 0. -1.
         -5    1    3    3    0  503 -0.40551842549E+02  0.22355467481E+02  0.36162995684E+02  0.58941251405E+02  0.47000000000E+01 0.  1.
          5    1    3    3  503    0  0.12811255417E+02 -0.38708647864E+02 -0.61671679508E+01  0.41504356945E+02  0.47000000000E+01 0. -1.
         -5    1    4    4    0  502  0.10418319869E+02  0.51170643318E+02  0.90867266548E+02  0.10490913333E+03  0.47000000000E+01 0.  1.
<mgrwt>
<rscale>  0 0.96912804E+02</rscale>
<asrwt>0</asrwt>
<pdfrwt beam="1">  1        1 0.68973709E-02 0.97265541E+02</pdfrwt>
<pdfrwt beam="2">  1       -1 0.47905307E-01 0.97265541E+02</pdfrwt>
<totfact> 0.44283574E+03</totfact>
</mgrwt>
</event>
<event>
 8    1  0.7943806E-003  0.9281238E+02  0.7546771E-02  0.1300366E+00
         -2   -1    0    0    0  501 -0.00000000000E+00  0.00000000000E+00  0.27994697125E+03  0.27994697125E+03  0.00000000000E+00 0.  1.
          2   -1    0    0  501    0  0.00000000000E+00 -0.00000000000E+00 -0.29368968281E+02  0.29368968281E+02  0.00000000000E+00 0. -1.
         23    2    1    2    0    0  0.87588563585E+01  0.12434304502E+02  0.14682451371E+03  0.17010773583E+03  0.84545103173E+02 0.  0.
         23    2    1    2    0    0 -0.87588563585E+01 -0.12434304502E+02  0.10375348926E+03  0.13920820370E+03  0.91557675544E+02 0.  0.
          5    1    3    3  502    0 -0.17023119327E+02  0.11095425354E+02 -0.10174514052E+00  0.20856543517E+02  0.47000000000E+01 0. -1.
         -5    1    3    3    0  502  0.25781975686E+02  0.13388791484E+01  0.14692625885E+03  0.14925119231E+03  0.47000000000E+01 0.  1.
          5    1    4    4  503    0 -0.44169066001E+02 -0.67370797299E+01  0.22454678025E+02  0.50225463660E+02  0.47000000000E+01 0. -1.
         -5    1    4    4    0  503  0.35410209642E+02 -0.56972247722E+01  0.81298811239E+02  0.88982740045E+02  0.47000000000E+01 0.  1.
<mgrwt>
<rscale>  0 0.91034417E+02</rscale>
<asrwt>0</asrwt>
<pdfrwt beam="1">  1        2 0.45183030E-02 0.92812378E+02</pdfrwt>
<pdfrwt beam="2">  1       -2 0.43068763E-01 0.92812378E+02</pdfrwt>
<totfact> 0.84121451E+03</totfact>
</mgrwt>
</event>
<event>
 8    1  0.7943806E-003  0.1097654E+03  0.7546771E-02  0.1262380E+00
         -3   -1    0    0    0  501 -0.00000000000E+00  0.00000000000E+00  0.20933601954E+03  0.20933601954E+03  0.00000000000E+00 0.  1.
          3   -1    0    0  501    0  0.00000000000E+00 -0.00000000000E+00 -0.87771695013E+02  0.87771695013E+02  0.00000000000E+00 0. -1.
         23    2    1    2    0    0 -0.46070667134E+01 -0.57311694950E+02 -0.28017170800E+02  0.11328457818E+03  0.93501755876E+02 0.  0.
         23    2    1    2    0    0  0.46070667134E+01  0.57311694950E+02  0.14958149533E+03  0.18382313638E+03  0.90058127232E+02 0.  0.
          5    1    4    4  502    0 -0.21223765493E+02 -0.12906842750E+02  0.14005551918E+02  0.28901216168E+02  0.47000000000E+01 0. -1.
         -5    1    4    4    0  502  0.25830832206E+02  0.70218537700E+02  0.13557594341E+03  0.15492192021E+03  0.47000000000E+01 0.  1.
          5    1    3    3  503    0  0.40139721937E+02 -0.30147099670E+02  0.58539989618E+01  0.50758291929E+02  0.47000000000E+01 0. -1.
         -5    1    3    3    0  503 -0.44746788650E+02 -0.27164595280E+02 -0.33871169762E+02  0.62526286251E+02  0.47000000000E+01 0.  1.
<mgrwt>
<rscale>  0 0.10902843E+03</rscale>
<asrwt>0</asrwt>
<pdfrwt beam="1">  1        3 0.13503338E-01 0.10976536E+03</pdfrwt>
<pdfrwt beam="2">  1       -3 0.32205541E-01 0.10976536E+03</pdfrwt>
<totfact> 0.93113768E+02</totfact>
</mgrwt>
</event>
<event>
 8    1  0.7943806E-003  0.9533590E+02  0.7546771E-02  0.1291557E+00
         -2   -1    0    0    0  501 -0.00000000000E+00  0.00000000000E+00  0.19134207477E+03  0.19134207477E+03  0.00000000000E+00 0.  1.
          2   -1    0    0  501    0  0.00000000000E+00 -0.00000000000E+00 -0.50029349404E+02  0.50029349404E+02  0.00000000000E+00 0. -1.
         23    2    1    2    0    0  0.19456804696E+02  0.44597005744E+01  0.10197600857E+03  0.13823892997E+03  0.91172579517E+02 0.  0.
         23    2    1    2    0    0 -0.19456804696E+02 -0.44597005744E+01  0.39336716791E+02  0.10313249421E+03  0.93222732715E+02 0.  0.
          5    1    3    3  502    0 -0.12243669712E+02  0.34565372355E+02  0.13352407321E+02  0.39307113801E+02  0.47000000000E+01 0. -1.
         -5    1    4    4    0  503  0.20931038300E+02  0.28663748064E+02  0.35703375975E+02  0.50562237623E+02  0.47000000000E+01 0.  1.
          5    1    4    4  503    0 -0.40387842996E+02 -0.33123448639E+02  0.36333408152E+01  0.52570256582E+02  0.47000000000E+01 0. -1.
         -5    1    3    3    0  502  0.31700474408E+02 -0.30105671781E+02  0.88623601252E+02  0.98931816166E+02  0.47000000000E+01 0.  1.
<mgrwt>
<rscale>  0 0.94830973E+02</rscale>
<asrwt>0</asrwt>
<pdfrwt beam="1">  1        2 0.76968231E-02 0.95335901E+02</pdfrwt>
<pdfrwt beam="2">  1       -2 0.29437242E-01 0.95335901E+02</pdfrwt>
<totfact> 0.86127022E+03</totfact>
</mgrwt>
</event>
<event>
 8    1  0.7943806E-003  0.1141288E+03  0.7546771E-02  0.1253192E+00
         -1   -1    0    0    0  501 -0.00000000000E+00  0.00000000000E+00  0.67476453403E+02  0.67476453403E+02  0.00000000000E+00 0.  1.
          1   -1    0    0  501    0  0.00000000000E+00 -0.00000000000E+00 -0.21731115010E+03  0.21731115010E+03  0.00000000000E+00 0. -1.
         23    2    1    2    0    0 -0.64723828519E+02 -0.43178612232E+01 -0.12287202967E+03  0.16769892077E+03  0.93901940610E+02 0.  0.
         23    2    1    2    0    0  0.64723828519E+02  0.43178612232E+01 -0.26962667033E+02  0.11708868273E+03  0.93674736757E+02 0.  0.
          5    1    4    4  502    0  0.78553607698E+02  0.28572482013E+02 -0.29250025746E+02  0.88683200308E+02  0.47000000000E+01 0. -1.
         -5    1    3    3    0  503 -0.70292729370E+02 -0.33128519233E+02 -0.11126210274E+03  0.13579363791E+03  0.47000000000E+01 0.  1.
          5    1    3    3  503    0  0.55689008513E+01  0.28810658010E+02 -0.11609926923E+02  0.31905282867E+02  0.47000000000E+01 0. -1.
         -5    1    4    4    0  502 -0.13829779179E+02 -0.24254620790E+02  0.22873587130E+01  0.28405482423E+02  0.47000000000E+01 0.  1.
<mgrwt>
<rscale>  0 0.11408210E+03</rscale>
<asrwt>0</asrwt>
<pdfrwt beam="1">  1        1 0.33432484E-01 0.11412884E+03</pdfrwt>
<pdfrwt beam="2">  1       -1 0.10380993E-01 0.11412884E+03</pdfrwt>
<totfact> 0.71156623E+03</totfact>
</mgrwt>
</event>
<event>
 8    1  0.7943806E-003  0.9380215E+02  0.7546771E-02  0.1294070E+00
         -1   -1    0    0    0  501 -0.00000000000E+00  0.00000000000E+00  0.91997033688E+02  0.91997033688E+02  0.00000000000E+00 0.  1.
          1   -1    0    0  501    0  0.00000000000E+00 -0.00000000000E+00 -0.39929387280E+03  0.39929387280E+03  0.00000000000E+00 0. -1.
         23    2    1    2    0    0 -0.15938234153E+02 -0.15299908330E+02  0.60615864597E+02  0.11168315291E+03  0.91163200366E+02 0.  0.
         23    2    1    2    0    0  0.15938234153E+02  0.15299908330E+02 -0.36791270371E+03  0.37960775358E+03  0.90852487699E+02 0.  0.
          5    1    4    4  502    0  0.49140214590E+02 -0.11323130613E+02 -0.20469766379E+03  0.21087009636E+03  0.47000000000E+01 0. -1.
         -5    1    3    3    0  503 -0.40756525541E+02 -0.19933121394E+02  0.70663982228E+02  0.84106551987E+02  0.47000000000E+01 0.  1.
          5    1    3    3  503    0  0.24818291388E+02  0.46332130640E+01 -0.10048117632E+02  0.27576600926E+02  0.47000000000E+01 0. -1.
         -5    1    4    4    0  502 -0.33201980437E+02  0.26623038943E+02 -0.16321503992E+03  0.16873765722E+03  0.47000000000E+01 0.  1.
<mgrwt>
<rscale>  0 0.93726574E+02</rscale>
<asrwt>0</asrwt>
<pdfrwt beam="1">  1        1 0.61429829E-01 0.93802151E+02</pdfrwt>
<pdfrwt beam="2">  1       -1 0.14153389E-01 0.93802151E+02</pdfrwt>
<totfact> 0.20696082E+03</totfact>
</mgrwt>
</event>
<event>
 8    1  0.7943806E-003  0.1084251E+03  0.7546771E-02  0.1266327E+00
          2   -1    0    0  501    0  0.00000000000E+00  0.00000000000E+00  0.19993426510E+03  0.19993426510E+03  0.00000000000E+00 0. -1.
         -2   -1    0    0    0  501 -0.00000000000E+00 -0.00000000000E+00 -0.69397753451E+02  0.69397753451E+02  0.00000000000E+00 0.  1.
         23    2    1    2    0    0  0.31185946913E+01  0.59701343103E+02  0.12650697421E+03  0.16661336769E+03  0.90454539785E+02 0.  0.
         23    2    1    2    0    0 -0.31185946913E+01 -0.59701343103E+02  0.40295374441E+01  0.10271865087E+03  0.83432056564E+02 0.  0.
          5    1    4    4  502    0 -0.28593694455E+02 -0.62609258550E+02 -0.14802546870E+02  0.70560073785E+02  0.47000000000E+01 0. -1.
         -5    1    3    3    0  503  0.26817851424E+02  0.73980815253E+02  0.80137013485E+02  0.11241169472E+03  0.47000000000E+01 0.  1.
          5    1    3    3  503    0 -0.23699256733E+02 -0.14279472150E+02  0.46369960723E+02  0.54201672963E+02  0.47000000000E+01 0. -1.
         -5    1    4    4    0  502  0.25475099764E+02  0.29079154464E+01  0.18832084314E+02  0.32158577080E+02  0.47000000000E+01 0.  1.
<mgrwt>
<rscale>  0 0.10694884E+03</rscale>
<asrwt>0</asrwt>
<pdfrwt beam="1">  1        2 0.30759118E-01 0.10842509E+03</pdfrwt>
<pdfrwt beam="2">  1       -2 0.10676578E-01 0.10842509E+03</pdfrwt>
<totfact> 0.94460790E+03</totfact>
</mgrwt>
</event>
<event>
 8    1  0.7943806E-003  0.1104928E+03  0.7546771E-02  0.1261332E+00
          2   -1    0    0  501    0  0.00000000000E+00  0.00000000000E+00  0.53489150971E+03  0.53489150971E+03  0.00000000000E+00 0. -1.
         -2   -1    0    0    0  501 -0.00000000000E+00 -0.00000000000E+00 -0.23407280204E+02  0.23407280204E+02  0.00000000000E+00 0.  1.
         23    2    1    2    0    0 -0.87195897812E+01  0.55666584762E+02  0.32583868574E+03  0.34406322420E+03  0.95046584456E+02 0.  0.
         23    2    1    2    0    0  0.87195897812E+01 -0.55666584762E+02  0.18564554376E+03  0.21423556571E+03  0.90872491940E+02 0.  0.
          5    1    4    4  502    0  0.14614106135E+02  0.14822240043E+02  0.10373938759E+03  0.10591138483E+03  0.47000000000E+01 0. -1.
         -5    1    4    4    0  502 -0.58945163534E+01 -0.70488824805E+02  0.81906156170E+02  0.10832418088E+03  0.47000000000E+01 0.  1.
          5    1    3    3  503    0  0.23047738293E+02  0.65077868436E+02  0.27206583077E+03  0.28072804184E+03  0.47000000000E+01 0. -1.
         -5    1    3    3    0  503 -0.31767328074E+02 -0.94112836742E+01  0.53772854971E+02  0.63335182364E+02  0.47000000000E+01 0.  1.
<mgrwt>
<rscale>  0 0.10958941E+03</rscale>
<asrwt>0</asrwt>
<pdfrwt beam="1">  1        2 0.82290992E-01 0.11049277E+03</pdfrwt>
<pdfrwt beam="2">  1       -2 0.36011204E-02 0.11049277E+03</pdfrwt>
<totfact> 0.17221044E+04</totfact>
</mgrwt>
</event>
<event>
 8    1  0.7943806E-003  0.1181931E+03  0.7546771E-02  0.1249115E+00
         -2   -1    0    0    0  501 -0.00000000000E+00  0.00000000000E+00  0.53261738736E+03  0.53261738736E+03  0.00000000000E+00 0.  1.
          2   -1    0    0  501    0  0.00000000000E+00 -0.00000000000E+00 -0.71398668162E+02  0.71398668162E+02  0.00000000000E+00 0. -1.
         23    2    1    2    0    0 -0.43020610969E+02 -0.56874369063E+02  0.47236850950E+03  0.48529817292E+03  0.85421549095E+02 0.  0.
         23    2    1    2    0    0  0.43020610969E+02  0.56874369063E+02 -0.11149790293E+02  0.11871788261E+03  0.94255774375E+02 0.  0.
          5    1    3    3  502    0 -0.10059357671E+02 -0.25528203022E+02  0.31393832172E+02  0.41958819391E+02  0.47000000000E+01 0. -1.
         -5    1    3    3    0  502 -0.32961253298E+02 -0.31346166041E+02  0.44097467732E+03  0.44333935353E+03  0.47000000000E+01 0.  1.
          5    1    4    4  503    0 -0.26927498162E+02  0.26452936802E+02 -0.17819420914E+02  0.42005592300E+02  0.47000000000E+01 0. -1.
         -5    1    4    4    0  503  0.69948109131E+02  0.30421432261E+02  0.66696306216E+01  0.76712290309E+02  0.47000000000E+01 0.  1.
<mgrwt>
<rscale>  0 0.11642450E+03</rscale>
<asrwt>0</asrwt>
<pdfrwt beam="1">  1        2 0.10984411E-01 0.11819314E+03</pdfrwt>
<pdfrwt beam="2">  1       -2 0.81941134E-01 0.11819314E+03</pdfrwt>
<totfact> 0.75150833E+02</totfact>
</mgrwt>
</event>
<event>
 7    1  0.7943806E-003  0.2382613E+03  0.7546771E-02  0.1128159E+00
         -1   -1    0    0    0  501 -0.00000000000E+00  0.00000000000E+00  0.27424689240E+03  0.27424689240E+03  0.00000000000E+00 0.  1.
          1   -1    0    0  501    0  0.00000000000E+00 -0.00000000000E+00 -0.65615078208E+03  0.65615078208E+03  0.00000000000E+00 0. -1.
         23    2    1    2    0    0 -0.17384026217E+03  0.33541781339E+02  0.21171199273E+03  0.29075070018E+03  0.91479582110E+02 0.  0.
          5    1    3    3  502    0 -0.55210089762E+02  0.40871120581E+02  0.33707908281E+02  0.76661043495E+02  0.47000000000E+01 0. -1.
         -5    1    1    2    0  503  0.36267312610E+01  0.41354097459E+02 -0.19961008737E+03  0.20393526310E+03  0.47000000000E+01 0.  1.
          5    1    1    2  503    0  0.17021353091E+03 -0.74895878798E+02 -0.39400579503E+03  0.43571171121E+03  0.47000000000E+01 0. -1.
         -5    1    3    3    0  502 -0.11863017241E+03 -0.73293392421E+01  0.17800408445E+03  0.21408965668E+03  0.47000000000E+01 0.  1.
<mgrwt>
<rscale>  0 0.22785473E+03</rscale>
<asrwt>0</asrwt>
<pdfrwt beam="1">  1        1 0.10094627E+00 0.23826128E+03</pdfrwt>
<pdfrwt beam="2">  1       -1 0.42191831E-01 0.23826128E+03</pdfrwt>
<totfact> 0.17654059E+02</totfact>
</mgrwt>
</event>
<event>
 8    1  0.7943806E-003  0.1358230E+03  0.7546771E-02  0.1219559E+00
         -1   -1    0    0    0  501 -0.00000000000E+00  0.00000000000E+00  0.50230703308E+02  0.50230703308E+02  0.00000000000E+00 0.  1.
          1   -1    0    0  501    0  0.00000000000E+00 -0.00000000000E+00 -0.40210128290E+03  0.40210128290E+03  0.00000000000E+00 0. -1.
         23    2    1    2    0    0 -0.68567078553E+02 -0.72854993927E+02 -0.24521390200E+03  0.27963706987E+03  0.89764908022E+02 0.  0.
         23    2    1    2    0    0  0.68567078553E+02  0.72854993927E+02 -0.10665667760E+03  0.17269491634E+03  0.91861813894E+02 0.  0.
          5    1    4    4  502    0  0.44513033411E+02  0.45675446954E+02 -0.11813934372E+03  0.13433782465E+03  0.47000000000E+01 0. -1.
         -5    1    3    3    0  503 -0.45815383768E+02  0.45467602197E+01 -0.13680852825E+03  0.14442432559E+03  0.47000000000E+01 0.  1.
          5    1    3    3  503    0 -0.22751694785E+02 -0.77401754147E+02 -0.10840537375E+03  0.13521274429E+03  0.47000000000E+01 0. -1.
         -5    1    4    4    0  502  0.24054045142E+02  0.27179546973E+02  0.11482666123E+02  0.38357091686E+02  0.47000000000E+01 0.  1.
<mgrwt>
<rscale>  0 0.13546929E+03</rscale>
<asrwt>0</asrwt>
<pdfrwt beam="1">  1        1 0.61861736E-01 0.13582300E+03</pdfrwt>
<pdfrwt beam="2">  1       -1 0.77278005E-02 0.13582300E+03</pdfrwt>
<totfact> 0.52502229E+03</totfact>
</mgrwt>
</event>
<event>
 8    1  0.7943806E-003  0.1129787E+03  0.7546771E-02  0.1256408E+00
          1   -1    0    0  501    0  0.00000000000E+00  0.00000000000E+00  0.19447900160E+03  0.19447900160E+03  0.00000000000E+00 0. -1.
         -1   -1    0    0    0  501 -0.00000000000E+00 -0.00000000000E+00 -0.66154768523E+02  0.66154768523E+02  0.00000000000E+00 0.  1.
         23    2    1    2    0    0  0.63936489790E+02  0.10847828608E+02  0.40036499803E+02  0.11725001386E+03  0.89101595506E+02 0.  0.
         23    2    1    2    0    0 -0.63936489790E+02 -0.10847828608E+02  0.88287733273E+02  0.14338375626E+03  0.92512851005E+02 0.  0.
          5    1    3    3  502    0  0.77740969321E+02 -0.16106084484E+02  0.30038881721E+02  0.85014638054E+02  0.47000000000E+01 0.  1.
         -5    1    4    4    0  503  0.12206517424E+01 -0.22303409366E+02  0.71377832517E+02  0.74938755226E+02  0.47000000000E+01 0.  1.
          5    1    4    4  503    0 -0.65157141532E+02  0.11455580758E+02  0.16909900756E+02  0.68445001036E+02  0.47000000000E+01 0. -1.
         -5    1    3    3    0  502 -0.13804479531E+02  0.26953913093E+02  0.99976180824E+01  0.32235375807E+02  0.47000000000E+01 0. -1.
<mgrwt>
<rscale>  0 0.11227819E+03</rscale>
<asrwt>0</asrwt>
<pdfrwt beam="1">  1        1 0.29919846E-01 0.11297866E+03</pdfrwt>
<pdfrwt beam="2">  1       -1 0.10177657E-01 0.11297866E+03</pdfrwt>
<totfact> 0.84039113E+03</totfact>
</mgrwt>
</event>
<event>
 8    1  0.7943806E-003  0.1286981E+03  0.7546771E-02  0.1236651E+00
         -1   -1    0    0    0  501 -0.00000000000E+00  0.00000000000E+00  0.81941289433E+02  0.81941289433E+02  0.00000000000E+00 0.  1.
          1   -1    0    0  501    0  0.00000000000E+00 -0.00000000000E+00 -0.25796395204E+03  0.25796395204E+03  0.00000000000E+00 0. -1.
         23    2    1    2    0    0 -0.22065519446E+02 -0.33084829621E+02  0.36737960389E+01  0.12875051167E+03  0.12239977278E+03 0.  0.
         23    2    1    2    0    0  0.22065519446E+02  0.33084829621E+02 -0.17969645865E+03  0.21115472981E+03  0.10350849999E+03 0.  0.
          5    1    4    4  502    0 -0.30047444888E+02  0.47135271736E+02 -0.10246650153E+03  0.11681633757E+03  0.47000000000E+01 0. -1.
         -5    1    4    4    0  502  0.52112964333E+02 -0.14050442115E+02 -0.77229957112E+02  0.94338392242E+02  0.47000000000E+01 0.  1.
          5    1    3    3  503    0 -0.55175254024E+02  0.24287902693E+02 -0.90323143821E+01  0.61138233349E+02  0.47000000000E+01 0. -1.
         -5    1    3    3    0  503  0.33109734579E+02 -0.57372732314E+02  0.12706110421E+02  0.67612278316E+02  0.47000000000E+01 0.  1.
<mgrwt>
<rscale>  0 0.12399305E+03</rscale>
<asrwt>0</asrwt>
<pdfrwt beam="1">  1        1 0.39686762E-01 0.12869809E+03</pdfrwt>
<pdfrwt beam="2">  1       -1 0.12606352E-01 0.12869809E+03</pdfrwt>
<totfact> 0.43088534E+03</totfact>
</mgrwt>
</event>
<event>
 8    1  0.7943806E-003  0.1023458E+03  0.7546771E-02  0.1280861E+00
          2   -1    0    0  501    0  0.00000000000E+00  0.00000000000E+00  0.73735569843E+02  0.73735569843E+02  0.00000000000E+00 0. -1.
         -2   -1    0    0    0  501 -0.00000000000E+00 -0.00000000000E+00 -0.17386278865E+03  0.17386278865E+03  0.00000000000E+00 0.  1.
         23    2    1    2    0    0  0.15985601839E+02 -0.39863843265E+02  0.11244582840E+02  0.10296161212E+03  0.92897725810E+02 0.  0.
         23    2    1    2    0    0 -0.15985601839E+02  0.39863843265E+02 -0.11137180165E+03  0.14463674638E+03  0.81678912418E+02 0.  0.
          5    1    4    4  502    0 -0.44793895524E+02  0.43385317116E+02 -0.81437289233E+02  0.10267862920E+03  0.47000000000E+01 0. -1.
         -5    1    4    4    0  502  0.28808293685E+02 -0.35214738511E+01 -0.29934512415E+02  0.41958117173E+02  0.47000000000E+01 0.  1.
          5    1    3    3  503    0 -0.38763334923E+02 -0.20361660478E+02  0.47919740909E+01  0.44297250111E+02  0.47000000000E+01 0. -1.
         -5    1    3    3    0  503  0.54748936762E+02 -0.19502182787E+02  0.64526087491E+01  0.58664362007E+02  0.47000000000E+01 0.  1.
<mgrwt>
<rscale>  0 0.99731540E+02</rscale>
<asrwt>0</asrwt>
<pdfrwt beam="1">  1        2 0.11343934E-01 0.10234575E+03</pdfrwt>
<pdfrwt beam="2">  1       -2 0.26748122E-01 0.10234575E+03</pdfrwt>
<totfact> 0.63858803E+03</totfact>
</mgrwt>
</event>
<event>
 8    1  0.7943806E-003  0.8997713E+02  0.7546771E-02  0.1305640E+00
          1   -1    0    0  501    0  0.00000000000E+00  0.00000000000E+00  0.10874927564E+03  0.10874927564E+03  0.00000000000E+00 0. -1.
         -1   -1    0    0    0  501 -0.00000000000E+00 -0.00000000000E+00 -0.13576612054E+03  0.13576612054E+03  0.00000000000E+00 0.  1.
         23    2    1    2    0    0 -0.12445988219E+01 -0.38513194499E+01 -0.97853395702E+02  0.13000032771E+03  0.85489276909E+02 0.  0.
         23    2    1    2    0    0  0.12445988219E+01  0.38513194499E+01  0.70836550801E+02  0.11451506847E+03  0.89886051697E+02 0.  0.
          5    1    3    3  502    0  0.21864230503E+02  0.24990221619E+02 -0.10672702959E+02  0.35193072337E+02  0.47000000000E+01 0. -1.
         -5    1    3    3    0  502 -0.23108829325E+02 -0.28841541069E+02 -0.87180692744E+02  0.94807255373E+02  0.47000000000E+01 0.  1.
          5    1    4    4  503    0  0.44901455444E+02  0.35490613600E+00  0.28321084435E+02  0.53295782975E+02  0.47000000000E+01 0. -1.
         -5    1    4    4    0  503 -0.43656856622E+02  0.34964133139E+01  0.42515466366E+02  0.61219285495E+02  0.47000000000E+01 0.  1.
<mgrwt>
<rscale>  0 0.88858415E+02</rscale>
<asrwt>0</asrwt>
<pdfrwt beam="1">  1        1 0.16730658E-01 0.89977130E+02</pdfrwt>
<pdfrwt beam="2">  1       -1 0.20887095E-01 0.89977130E+02</pdfrwt>
<totfact> 0.55945855E+03</totfact>
</mgrwt>
</event>
<event>
 8    1  0.7943806E-003  0.1578241E+03  0.7546771E-02  0.1192070E+00
          1   -1    0    0  501    0  0.00000000000E+00  0.00000000000E+00  0.10460832375E+04  0.10460832375E+04  0.00000000000E+00 0. -1.
         -1   -1    0    0    0  501 -0.00000000000E+00 -0.00000000000E+00 -0.31208706894E+02  0.31208706894E+02  0.00000000000E+00 0.  1.
         23    2    1    2    0    0  0.25790277716E+02 -0.12597736245E+03  0.24086868766E+03  0.28796902987E+03  0.91504115726E+02 0.  0.
         23    2    1    2    0    0 -0.25790277716E+02  0.12597736245E+03  0.77400584297E+03  0.78932291455E+03  0.86082426785E+02 0.  0.
          5    1    4    4  502    0 -0.38407737891E+02  0.23237344441E+02  0.14572751687E+03  0.15255729311E+03  0.47000000000E+01 0. -1.
         -5    1    4    4    0  502  0.12617460175E+02  0.10274001801E+03  0.62827832610E+03  0.63676562144E+03  0.47000000000E+01 0.  1.
          5    1    3    3  503    0 -0.20398347453E+02 -0.10412011198E+02  0.86610935042E+02  0.89710905830E+02  0.47000000000E+01 0. -1.
         -5    1    3    3    0  503  0.46188625169E+02 -0.11556535125E+03  0.15425775262E+03  0.19825812404E+03  0.47000000000E+01 0.  1.
<mgrwt>
<rscale>  0 0.15704828E+03</rscale>
<asrwt>0</asrwt>
<pdfrwt beam="1">  1        1 0.16093586E+00 0.15782407E+03</pdfrwt>
<pdfrwt beam="2">  1       -1 0.48013403E-02 0.15782407E+03</pdfrwt>
<totfact> 0.27372853E+03</totfact>
</mgrwt>
</event>
<event>
 8    1  0.7943806E-003  0.9198609E+02  0.7546771E-02  0.1304245E+00
          1   -1    0    0  501    0  0.00000000000E+00  0.00000000000E+00  0.53152630946E+03  0.53152630946E+03  0.00000000000E+00 0. -1.
         -1   -1    0    0    0  501 -0.00000000000E+00 -0.00000000000E+00 -0.14288196469E+02  0.14288196469E+02  0.00000000000E+00 0.  1.
         23    2    1    2    0    0 -0.91094789354E+01  0.34753508382E+01  0.23323844702E+03  0.24728937905E+03  0.81589234271E+02 0.  0.
         23    2    1    2    0    0  0.91094789354E+01 -0.34753508382E+01  0.28399966597E+03  0.29852512689E+03  0.91467920282E+02 0.  0.
          5    1    4    4  502    0  0.16967061855E+02  0.40196717696E+02  0.10023020220E+03  0.10941590713E+03  0.47000000000E+01 0. -1.
         -5    1    3    3    0  503  0.32571129991E+02 -0.14331406013E+02  0.11909100460E+03  0.12438257549E+03  0.47000000000E+01 0.  1.
          5    1    3    3  503    0 -0.41680608927E+02  0.17806756852E+02  0.11414744242E+03  0.12290680356E+03  0.47000000000E+01 0. -1.
         -5    1    4    4    0  502 -0.78575829199E+01 -0.43672068534E+02  0.18376946377E+03  0.18910921975E+03  0.47000000000E+01 0.  1.
<mgrwt>
<rscale>  0 0.89427190E+02</rscale>
<asrwt>0</asrwt>
<pdfrwt beam="1">  1        1 0.81773263E-01 0.91986092E+02</pdfrwt>
<pdfrwt beam="2">  1       -1 0.21981845E-02 0.91986092E+02</pdfrwt>
<totfact> 0.22450981E+04</totfact>
</mgrwt>
</event>
<event>
 8    1  0.7943806E-003  0.9732398E+02  0.7546771E-02  0.1287585E+00
         -1   -1    0    0    0  501 -0.00000000000E+00  0.00000000000E+00  0.46023801287E+02  0.46023801287E+02  0.00000000000E+00 0.  1.
          1   -1    0    0  501    0  0.00000000000E+00 -0.00000000000E+00 -0.23256408688E+03  0.23256408688E+03  0.00000000000E+00 0. -1.
         23    2    1    2    0    0 -0.72487255674E+01  0.20985165673E+02 -0.39890992701E+02  0.10258228498E+03  0.91863554756E+02 0.  0.
         23    2    1    2    0    0  0.72487255674E+01 -0.20985165673E+02 -0.14664929289E+03  0.17600560319E+03  0.94757775652E+02 0.  0.
          5    1    3    3  502    0  0.13280072867E+02  0.28548653047E+02 -0.62893186558E+02  0.70491338770E+02  0.47000000000E+01 0. -1.
         -5    1    4    4    0  503 -0.32791298567E+02 -0.26321455496E+02 -0.12036317236E+03  0.12758319459E+03  0.47000000000E+01 0.  1.
          5    1    4    4  503    0  0.40040024134E+02  0.53362898234E+01 -0.26286120534E+02  0.48422408599E+02  0.47000000000E+01 0. -1.
         -5    1    3    3    0  502 -0.20528798434E+02 -0.75634873738E+01  0.23002193857E+02  0.32090946210E+02  0.47000000000E+01 0.  1.
<mgrwt>
<rscale>  0 0.96612313E+02</rscale>
<asrwt>0</asrwt>
<pdfrwt beam="1">  1        1 0.35779090E-01 0.97323981E+02</pdfrwt>
<pdfrwt beam="2">  1       -1 0.70805848E-02 0.97323981E+02</pdfrwt>
<totfact> 0.11487830E+04</totfact>
</mgrwt>
</event>
<event>
 8    1  0.7943806E-003  0.1086545E+03  0.7546771E-02  0.1263197E+00
          2   -1    0    0  501    0  0.00000000000E+00  0.00000000000E+00  0.18613745594E+03  0.18613745594E+03  0.00000000000E+00 0. -1.
         -2   -1    0    0    0  501 -0.00000000000E+00 -0.00000000000E+00 -0.96253425665E+02  0.96253425665E+02  0.00000000000E+00 0.  1.
         23    2    1    2    0    0 -0.56153791683E+02 -0.19302848183E+02 -0.37661924202E+02  0.11499656661E+03  0.90994184039E+02 0.  0.
         23    2    1    2    0    0  0.56153791683E+02  0.19302848183E+02  0.12754595448E+03  0.16739431500E+03  0.90703020462E+02 0.  0.
          5    1    3    3  502    0 -0.26795759575E+01 -0.38270859910E+02  0.10907590019E+02  0.40160980635E+02  0.47000000000E+01 0. -1.
         -5    1    3    3    0  502 -0.53474215726E+02  0.18968011727E+02 -0.48569514222E+02  0.74835585974E+02  0.47000000000E+01 0.  1.
          5    1    4    4  503    0  0.54573006395E+02 -0.27330544279E+02  0.78335874073E+02  0.99417155684E+02  0.47000000000E+01 0. -1.
         -5    1    4    4    0  503  0.15807852885E+01  0.46633392462E+02  0.49210080406E+02  0.67977159313E+02  0.47000000000E+01 0.  1.
<mgrwt>
<rscale>  0 0.10859347E+03</rscale>
<asrwt>0</asrwt>
<pdfrwt beam="1">  1        2 0.28636532E-01 0.10865445E+03</pdfrwt>
<pdfrwt beam="2">  1       -2 0.14808219E-01 0.10865445E+03</pdfrwt>
<totfact> 0.60539310E+03</totfact>
</mgrwt>
</event>
<event>
 8    1  0.7943806E-003  0.1035620E+03  0.7546771E-02  0.1276961E+00
         -2   -1    0    0    0  501 -0.00000000000E+00  0.00000000000E+00  0.54609262478E+02  0.54609262478E+02  0.00000000000E+00 0.  1.
          2   -1    0    0  501    0  0.00000000000E+00 -0.00000000000E+00 -0.23539437039E+03  0.23539437039E+03  0.00000000000E+00 0. -1.
         23    2    1    2    0    0  0.31842034741E+02 -0.27008226849E+01 -0.18840435348E+02  0.97776795929E+02  0.90466182623E+02 0.  0.
         23    2    1    2    0    0 -0.31842034741E+02  0.27008226849E+01 -0.16194467256E+03  0.19222683694E+03  0.98508224265E+02 0.  0.
          5    1    4    4  502    0  0.28742787409E+02 -0.23459112721E+02 -0.59478944172E+02  0.70258896928E+02  0.47000000000E+01 0. -1.
         -5    1    4    4    0  502 -0.60584822151E+02  0.26159935406E+02 -0.10246572839E+03  0.12196794001E+03  0.47000000000E+01 0.  1.
          5    1    3    3  503    0  0.64379174427E+01 -0.44271010911E+02  0.92456245819E+00  0.44992377175E+02  0.47000000000E+01 0. -1.
         -5    1    3    3    0  503  0.25404117298E+02  0.41570188227E+02 -0.19764997806E+02  0.52784418754E+02  0.47000000000E+01 0.  1.
<mgrwt>
<rscale>  0 0.10160268E+03</rscale>
<asrwt>0</asrwt>
<pdfrwt beam="1">  1        2 0.36214519E-01 0.10356196E+03</pdfrwt>
<pdfrwt beam="2">  1       -2 0.84014250E-02 0.10356196E+03</pdfrwt>
<totfact> 0.11474816E+04</totfact>
</mgrwt>
</event>
<event>
 8    1  0.7943806E-003  0.1219985E+03  0.7546771E-02  0.1243036E+00
         -3   -1    0    0    0  501 -0.00000000000E+00  0.00000000000E+00  0.11960748933E+03  0.11960748933E+03  0.00000000000E+00 0.  1.
          3   -1    0    0  501    0  0.00000000000E+00 -0.00000000000E+00 -0.14354429867E+03  0.14354429867E+03  0.00000000000E+00 0. -1.
         23    2    1    2    0    0 -0.48838690856E+02  0.47753358876E+02 -0.68476374544E+02  0.13327721224E+03  0.91696239968E+02 0.  0.
         23    2    1    2    0    0  0.48838690856E+02 -0.47753358876E+02  0.44539565210E+02  0.12987457576E+03  0.10108427944E+03 0.  0.
          5    1    3    3  502    0 -0.15625984530E+02  0.65680026708E+02 -0.66974720741E+02  0.95214182343E+02  0.47000000000E+01 0. -1.
         -5    1    4    4    0  503  0.72773598074E+02 -0.60037685605E+02  0.31189635789E+02  0.99475643502E+02  0.47000000000E+01 0.  1.
          5    1    4    4  503    0 -0.23934907218E+02  0.12284326729E+02  0.13349929421E+02  0.30398932255E+02  0.47000000000E+01 0. -1.
         -5    1    3    3    0  502 -0.33212706326E+02 -0.17926667832E+02 -0.15016538030E+01  0.38063029900E+02  0.47000000000E+01 0.  1.
<mgrwt>
<rscale>  0 0.12003726E+03</rscale>
<asrwt>0</asrwt>
<pdfrwt beam="1">  1        3 0.22083738E-01 0.12199849E+03</pdfrwt>
<pdfrwt beam="2">  1       -3 0.18401152E-01 0.12199849E+03</pdfrwt>
<totfact> 0.11066335E+03</totfact>
</mgrwt>
</event>
<event>
 8    1  0.7943806E-003  0.1140468E+03  0.7546771E-02  0.1255302E+00
          3   -1    0    0  501    0  0.00000000000E+00  0.00000000000E+00  0.20921247252E+03  0.20921247252E+03  0.00000000000E+00 0. -1.
         -3   -1    0    0    0  501 -0.00000000000E+00 -0.00000000000E+00 -0.11702399219E+03  0.11702399219E+03  0.00000000000E+00 0.  1.
         23    2    1    2    0    0 -0.52624525535E+01  0.66595350653E+02  0.16070628887E+03  0.19706135266E+03  0.92433929329E+02 0.  0.
         23    2    1    2    0    0  0.52624525535E+01 -0.66595350653E+02 -0.68517808544E+02  0.12917511205E+03  0.86769149755E+02 0.  0.
          5    1    4    4  502    0  0.23219770810E+02  0.66265026319E+01 -0.42824141389E+02  0.49386894813E+02  0.47000000000E+01 0. -1.
         -5    1    3    3    0  503  0.24823395913E+02 -0.11878206624E+02  0.57196910156E+02  0.63646439874E+02  0.47000000000E+01 0.  1.
          5    1    3    3  503    0 -0.30085848466E+02  0.78473557278E+02  0.10350937872E+03  0.13341491278E+03  0.47000000000E+01 0. -1.
         -5    1    4    4    0  502 -0.17957318256E+02 -0.73221853285E+02 -0.25693667155E+02  0.79788217234E+02  0.47000000000E+01 0.  1.
<mgrwt>
<rscale>  0 0.11289417E+03</rscale>
<asrwt>0</asrwt>
<pdfrwt beam="1">  1        3 0.32186534E-01 0.11404677E+03</pdfrwt>
<pdfrwt beam="2">  1       -3 0.18003691E-01 0.11404677E+03</pdfrwt>
<totfact> 0.57372638E+02</totfact>
</mgrwt>
</event>
<event>
 8    1  0.7943806E-003  0.1022308E+03  0.7546771E-02  0.1282291E+00
          1   -1    0    0  501    0  0.00000000000E+00  0.00000000000E+00  0.30707264010E+03  0.30707264010E+03  0.00000000000E+00 0. -1.
         -1   -1    0    0    0  501 -0.00000000000E+00 -0.00000000000E+00 -0.55850532453E+02  0.55850532453E+02  0.00000000000E+00 0.  1.
         23    2    1    2    0    0 -0.21484059806E+02 -0.36560144797E+02  0.68446234557E+01  0.10245969700E+03  0.93021135371E+02 0.  0.
         23    2    1    2    0    0  0.21484059806E+02  0.36560144797E+02  0.24437748419E+03  0.26046347556E+03  0.79515145125E+02 0.  0.
          5    1    3    3  502    0  0.17967465571E+01 -0.35099205902E+02  0.45123155989E+02  0.57387906040E+02  0.47000000000E+01 0. -1.
         -5    1    3    3    0  502 -0.23280806363E+02 -0.14609388942E+01 -0.38278532534E+02  0.45071790960E+02  0.47000000000E+01 0.  1.
          5    1    4    4  503    0 -0.14811154590E+02  0.48742093320E+02  0.12728503500E+03  0.13718138393E+03  0.47000000000E+01 0. -1.
         -5    1    4    4    0  503  0.36295214395E+02 -0.12181948523E+02  0.11709244919E+03  0.12328209162E+03  0.47000000000E+01 0.  1.
<mgrwt>
<rscale>  0 0.99057346E+02</rscale>
<asrwt>0</asrwt>
<pdfrwt beam="1">  1        1 0.47241943E-01 0.10223082E+03</pdfrwt>
<pdfrwt beam="2">  1       -1 0.85923898E-02 0.10223082E+03</pdfrwt>
<totfact> 0.61461849E+03</totfact>
</mgrwt>
</event>
<event>
 7    1  0.7943806E-003  0.1714726E+03  0.7546771E-02  0.1196168E+00
          1   -1    0    0  501    0  0.00000000000E+00  0.00000000000E+00  0.43681323496E+03  0.43681323496E+03  0.00000000000E+00 0. -1.
         -1   -1    0    0    0  501 -0.00000000000E+00 -0.00000000000E+00 -0.72832762868E+02  0.72832762868E+02  0.00000000000E+00 0.  1.
         23    2    1    2    0    0  0.56973758422E+02 -0.21092567258E+02  0.31130989892E+03  0.33026639676E+03  0.92038764208E+02 0.  0.
          5    1    3    3  502    0 -0.50846675043E+01 -0.37308696832E+02  0.18118013343E+03  0.18511111110E+03  0.47000000000E+01 0. -1.
         -5    1    3    3    0  502  0.62058425926E+02  0.16216129575E+02  0.13012976549E+03  0.14515528566E+03  0.47000000000E+01 0.  1.
          5    1    1    2  503    0 -0.30110585046E+02 -0.44887050263E+02  0.85133621041E+02  0.10095205815E+03  0.47000000000E+01 0. -1.
         -5    1    1    2    0  503 -0.26863173376E+02  0.65979617521E+02 -0.32463047869E+02  0.78427542924E+02  0.47000000000E+01 0.  1.
<mgrwt>
<rscale>  0 0.15355779E+03</rscale>
<asrwt>0</asrwt>
<pdfrwt beam="1">  1        1 0.67202034E-01 0.17147260E+03</pdfrwt>
<pdfrwt beam="2">  1       -1 0.11205041E-01 0.17147260E+03</pdfrwt>
<totfact> 0.27091247E+03</totfact>
</mgrwt>
</event>
<event>
 8    1  0.7943806E-003  0.1046963E+03  0.7546771E-02  0.1273483E+00
         -1   -1    0    0    0  501 -0.00000000000E+00  0.00000000000E+00  0.93950255845E+02  0.93950255845E+02  0.00000000000E+00 0.  1.
          1   -1    0    0  501    0  0.00000000000E+00 -0.00000000000E+00 -0.32748941504E+03  0.32748941504E+03  0.00000000000E+00 0. -1.
         23    2    1    2    0    0  0.82856713019E+01  0.46586435168E+02 -0.28714427273E+03  0.30381811456E+03  0.87262048350E+02 0.  0.
         23    2    1    2    0    0 -0.82856713019E+01 -0.46586435168E+02  0.53605113528E+02  0.11762155633E+03  0.93393650891E+02 0.  0.
          5    1    3    3  502    0 -0.48980575733E+01  0.69455028579E+02 -0.23558952850E+03  0.24570817630E+03  0.47000000000E+01 0. -1.
         -5    1    4    4    0  503  0.10638856924E+02 -0.26019769408E+02  0.76213000529E+02  0.81367838402E+02  0.47000000000E+01 0.  1.
          5    1    4    4  503    0 -0.18924528225E+02 -0.20566665761E+02 -0.22607887000E+02  0.36253717929E+02  0.47000000000E+01 0. -1.
         -5    1    3    3    0  502  0.13183728875E+02 -0.22868593411E+02 -0.51554744230E+02  0.58109938257E+02  0.47000000000E+01 0.  1.
<mgrwt>
<rscale>  0 0.10331135E+03</rscale>
<asrwt>0</asrwt>
<pdfrwt beam="1">  1        1 0.50382987E-01 0.10469633E+03</pdfrwt>
<pdfrwt beam="2">  1       -1 0.14453886E-01 0.10469633E+03</pdfrwt>
<totfact> 0.25718519E+03</totfact>
</mgrwt>
</event>
<event>
 8    1  0.7943806E-003  0.1290728E+03  0.7546771E-02  0.1229666E+00
          2   -1    0    0  501    0  0.00000000000E+00  0.00000000000E+00  0.95089981959E+03  0.95089981959E+03  0.00000000000E+00 0. -1.
         -2   -1    0    0    0  501 -0.00000000000E+00 -0.00000000000E+00 -0.30000170327E+02  0.30000170327E+02  0.00000000000E+00 0.  1.
         23    2    1    2    0    0 -0.69987731176E+02  0.57326026599E+02  0.14265775252E+03  0.19238247144E+03  0.92060985881E+02 0.  0.
         23    2    1    2    0    0  0.69987731176E+02 -0.57326026599E+02  0.77824189674E+03  0.78851751848E+03  0.88965562236E+02 0.  0.
          5    1    3    3  502    0 -0.20804696761E+02  0.39353210221E+02  0.13112952473E+03  0.13855884244E+03  0.47000000000E+01 0. -1.
         -5    1    4    4    0  503 -0.19659865556E+02 -0.23383667810E+02  0.19077436203E+03  0.19326213659E+03  0.47000000000E+01 0.  1.
          5    1    4    4  503    0  0.89647596733E+02 -0.33942358789E+02  0.58746753471E+03  0.59525538188E+03  0.47000000000E+01 0. -1.
         -5    1    3    3    0  502 -0.49183034415E+02  0.17972816378E+02  0.11528227793E+02  0.53823629001E+02  0.47000000000E+01 0.  1.
<mgrwt>
<rscale>  0 0.12852194E+03</rscale>
<asrwt>0</asrwt>
<pdfrwt beam="1">  1        2 0.14629226E+00 0.12907277E+03</pdfrwt>
<pdfrwt beam="2">  1       -2 0.46154115E-02 0.12907277E+03</pdfrwt>
<totfact> 0.60446789E+03</totfact>
</mgrwt>
</event>
<event>
 8    1  0.7943806E-003  0.1014765E+03  0.7546771E-02  0.1277439E+00
          2   -1    0    0  501    0  0.00000000000E+00  0.00000000000E+00  0.15244709017E+03  0.15244709017E+03  0.00000000000E+00 0. -1.
         -2   -1    0    0    0  501 -0.00000000000E+00 -0.00000000000E+00 -0.80296389004E+02  0.80296389004E+02  0.00000000000E+00 0.  1.
         23    2    1    2    0    0  0.24881784108E+02  0.35937047950E+02 -0.10862807553E+02  0.10163773698E+03  0.91113415011E+02 0.  0.
         23    2    1    2    0    0 -0.24881784108E+02 -0.35937047950E+02  0.83013508723E+02  0.13110574220E+03  0.91580010977E+02 0.  0.
          5    1    3    3  502    0  0.33545346662E+02 -0.23157619856E+02 -0.67698646135E+01  0.41587097842E+02  0.47000000000E+01 0. -1.
         -5    1    4    4    0  503 -0.31252757666E+02  0.16896178424E+02  0.65890215676E+02  0.75005507990E+02  0.47000000000E+01 0.  1.
          5    1    4    4  503    0  0.63709735583E+01 -0.52833226374E+02  0.17123293048E+02  0.56100234206E+02  0.47000000000E+01 0. -1.
         -5    1    3    3    0  502 -0.86635625537E+01  0.59094667806E+02 -0.40929429391E+01  0.60050639140E+02  0.47000000000E+01 0.  1.
<mgrwt>
<rscale>  0 0.10137108E+03</rscale>
<asrwt>0</asrwt>
<pdfrwt beam="1">  1        2 0.23453399E-01 0.10147647E+03</pdfrwt>
<pdfrwt beam="2">  1       -2 0.12353291E-01 0.10147647E+03</pdfrwt>
<totfact> 0.10013717E+04</totfact>
</mgrwt>
</event>
<event>
 8    1  0.7943806E-003  0.1120222E+03  0.7546771E-02  0.1258690E+00
         -2   -1    0    0    0  501 -0.00000000000E+00  0.00000000000E+00  0.14233875194E+03  0.14233875194E+03  0.00000000000E+00 0.  1.
          2   -1    0    0  501    0  0.00000000000E+00 -0.00000000000E+00 -0.11665286289E+03  0.11665286289E+03  0.00000000000E+00 0. -1.
         23    2    1    2    0    0  0.11111242157E+02 -0.55492362251E+02  0.80371915635E+02  0.13787170899E+03  0.96675236464E+02 0.  0.
         23    2    1    2    0    0 -0.11111242157E+02  0.55492362251E+02 -0.54686026585E+02  0.12111990584E+03  0.92068496870E+02 0.  0.
          5    1    4    4  502    0 -0.43985067587E+02  0.46126935744E+02 -0.10037744746E+02  0.64693328029E+02  0.47000000000E+01 0. -1.
         -5    1    4    4    0  502  0.32873825430E+02  0.93654265066E+01 -0.44648281839E+02  0.56426577809E+02  0.47000000000E+01 0.  1.
          5    1    3    3  503    0  0.83368876978E+01 -0.23897625248E+02 -0.19938809990E+02  0.32561423998E+02  0.47000000000E+01 0. -1.
         -5    1    3    3    0  503  0.27743544596E+01 -0.31594737003E+02  0.10031072562E+03  0.10531028499E+03  0.47000000000E+01 0.  1.
<mgrwt>
<rscale>  0 0.11102118E+03</rscale>
<asrwt>0</asrwt>
<pdfrwt beam="1">  1        2 0.17946594E-01 0.11202216E+03</pdfrwt>
<pdfrwt beam="2">  1       -2 0.21898270E-01 0.11202216E+03</pdfrwt>
<totfact> 0.53149138E+03</totfact>
</mgrwt>
</event>
<event>
 8    1  0.7943806E-003  0.1142912E+03  0.7546771E-02  0.1261169E+00
          2   -1    0    0  501    0  0.00000000000E+00  0.00000000000E+00  0.34922097455E+03  0.34922097455E+03  0.00000000000E+00 0. -1.
         -2   -1    0    0    0  501 -0.00000000000E+00 -0.00000000000E+00 -0.49277545351E+02  0.49277545351E+02  0.00000000000E+00 0.  1.
         23    2    1    2    0    0  0.31172562649E+02 -0.35129299693E+02  0.25991832591E+03  0.27740147741E+03  0.84783531230E+02 0.  0.
         23    2    1    2    0    0 -0.31172562649E+02  0.35129299693E+02  0.40025103284E+02  0.12109704248E+03  0.10419543390E+03 0.  0.
          5    1    3    3  502    0  0.60455706739E+02 -0.22909675120E+02  0.17679820056E+03  0.18830676943E+03  0.47000000000E+01 0. -1.
         -5    1    3    3    0  502 -0.29283144090E+02 -0.12219624573E+02  0.83120125354E+02  0.89094707987E+02  0.47000000000E+01 0.  1.
          5    1    4    4  503    0 -0.34081207445E+02 -0.31343417827E+02  0.24569030553E+02  0.52627614465E+02  0.47000000000E+01 0. -1.
         -5    1    4    4    0  503  0.29086447956E+01  0.66472717519E+02  0.15456072731E+02  0.68469428019E+02  0.47000000000E+01 0.  1.
<mgrwt>
<rscale>  0 0.10967717E+03</rscale>
<asrwt>0</asrwt>
<pdfrwt beam="1">  1        2 0.53726302E-01 0.11429123E+03</pdfrwt>
<pdfrwt beam="2">  1       -2 0.75811610E-02 0.11429123E+03</pdfrwt>
<totfact> 0.89372183E+03</totfact>
</mgrwt>
</event>
<event>
 8    1  0.7943806E-003  0.1136076E+03  0.7546771E-02  0.1254255E+00
          1   -1    0    0  501    0  0.00000000000E+00  0.00000000000E+00  0.92993825923E+02  0.92993825923E+02  0.00000000000E+00 0. -1.
         -1   -1    0    0    0  501 -0.00000000000E+00 -0.00000000000E+00 -0.26389282089E+03  0.26389282089E+03  0.00000000000E+00 0.  1.
         23    2    1    2    0    0  0.64240018115E+02  0.23043709828E+02  0.37614094244E+02  0.11967252869E+03  0.90823463637E+02 0.  0.
         23    2    1    2    0    0 -0.64240018115E+02 -0.23043709828E+02 -0.20851308921E+03  0.23721411812E+03  0.90194439819E+02 0.  0.
          5    1    3    3  502    0  0.24070548656E+02  0.56157220934E+02  0.22209477967E+02  0.65179564950E+02  0.47000000000E+01 0.  1.
         -5    1    4    4    0  503 -0.41275893673E+02  0.31256172675E+02 -0.11979623238E+03  0.13059048595E+03  0.47000000000E+01 0.  1.
          5    1    4    4  503    0 -0.22964124442E+02 -0.54299882503E+02 -0.88716856830E+02  0.10662363217E+03  0.47000000000E+01 0. -1.
         -5    1    3    3    0  502  0.40169469459E+02 -0.33113511106E+02  0.15404616277E+02  0.54492963739E+02  0.47000000000E+01 0. -1.
<mgrwt>
<rscale>  0 0.11348186E+03</rscale>
<asrwt>0</asrwt>
<pdfrwt beam="1">  1        1 0.14306743E-01 0.11360763E+03</pdfrwt>
<pdfrwt beam="2">  1       -1 0.40598895E-01 0.11360763E+03</pdfrwt>
<totfact> 0.22953415E+03</totfact>
</mgrwt>
</event>
<event>
 8    1  0.7943806E-003  0.1001029E+03  0.7546771E-02  0.1280250E+00
          1   -1    0    0  501    0  0.00000000000E+00  0.00000000000E+00  0.13918378154E+03  0.13918378154E+03  0.00000000000E+00 0. -1.
         -1   -1    0    0    0  501 -0.00000000000E+00 -0.00000000000E+00 -0.72467997981E+02  0.72467997981E+02  0.00000000000E+00 0.  1.
         23    2    1    2    0    0  0.68681102212E+01 -0.40267930705E+02  0.22968347978E+02  0.10270407900E+03  0.91388761089E+02 0.  0.
         23    2    1    2    0    0 -0.68681102212E+01  0.40267930705E+02  0.43747435582E+02  0.10894770052E+03  0.91033434227E+02 0.  0.
          5    1    3    3  502    0  0.17604972233E+02 -0.67653187573E+02  0.19418985754E+02  0.72705404502E+02  0.47000000000E+01 0. -1.
         -5    1    3    3    0  502 -0.10736862011E+02  0.27385256867E+02  0.35493622236E+01  0.29998674500E+02  0.47000000000E+01 0.  1.
          5    1    4    4  503    0  0.29608343016E+02  0.48927144980E+02  0.42025382423E+02  0.71124835745E+02  0.47000000000E+01 0. -1.
         -5    1    4    4    0  503 -0.36476453237E+02 -0.86592142742E+01  0.17220531590E+01  0.37822864774E+02  0.47000000000E+01 0.  1.
<mgrwt>
<rscale>  0 0.10002169E+03</rscale>
<asrwt>0</asrwt>
<pdfrwt beam="1">  1        1 0.21412889E-01 0.10010286E+03</pdfrwt>
<pdfrwt beam="2">  1       -1 0.11148923E-01 0.10010286E+03</pdfrwt>
<totfact> 0.10980499E+04</totfact>
</mgrwt>
</event>
<event>
 8    1  0.7943806E-003  0.1224131E+03  0.7546771E-02  0.1239291E+00
          2   -1    0    0  501    0  0.00000000000E+00  0.00000000000E+00  0.89708041597E+02  0.89708041597E+02  0.00000000000E+00 0.  1.
         -2   -1    0    0    0  501 -0.00000000000E+00 -0.00000000000E+00 -0.17056077771E+03  0.17056077771E+03  0.00000000000E+00 0. -1.
         23    2    1    2    0    0  0.37855397987E+02 -0.70871443645E+02 -0.20709588709E+02  0.12415250754E+03  0.92353480622E+02 0.  0.
         23    2    1    2    0    0 -0.37855397987E+02  0.70871443645E+02 -0.60143147402E+02  0.13611631176E+03  0.91949222226E+02 0.  0.
          5    1    3    3  502    0  0.33620797066E+02  0.43389508336E+01 -0.33163453342E+02  0.47655945351E+02  0.47000000000E+01 0. -1.
         -5    1    4    4    0  503  0.17787101608E+01  0.42910236985E+02  0.15699071985E+02  0.45967413557E+02  0.47000000000E+01 0.  1.
          5    1    4    4  503    0 -0.39634108148E+02  0.27961206660E+02 -0.75842219387E+02  0.90148898208E+02  0.47000000000E+01 0. -1.
         -5    1    3    3    0  502  0.42346009209E+01 -0.75210394479E+02  0.12453864633E+02  0.76496562190E+02  0.47000000000E+01 0.  1.
<mgrwt>
<rscale>  0 0.12233682E+03</rscale>
<asrwt>0</asrwt>
<pdfrwt beam="1">  1        2 0.13801237E-01 0.12241306E+03</pdfrwt>
<pdfrwt beam="2">  1       -2 0.26240120E-01 0.12241306E+03</pdfrwt>
<totfact> 0.53029475E+03</totfact>
</mgrwt>
</event>
<event>
 8    1  0.7943806E-003  0.9676776E+02  0.7546771E-02  0.1287601E+00
         -2   -1    0    0    0  501 -0.00000000000E+00  0.00000000000E+00  0.54075578805E+02  0.54075578805E+02  0.00000000000E+00 0.  1.
          2   -1    0    0  501    0  0.00000000000E+00 -0.00000000000E+00 -0.23247789269E+03  0.23247789269E+03  0.00000000000E+00 0. -1.
         23    2    1    2    0    0 -0.21608476035E+02  0.22072616503E+02 -0.16249543393E+03  0.18912631923E+03  0.91705353960E+02 0.  0.
         23    2    1    2    0    0  0.21608476035E+02 -0.22072616503E+02 -0.15906879965E+02  0.97427152265E+02  0.91021396014E+02 0.  0.
          5    1    4    4  502    0  0.51443088337E+02  0.57669713743E+01 -0.20952638440E+02  0.56042415670E+02  0.47000000000E+01 0. -1.
         -5    1    4    4    0  502 -0.29834612302E+02 -0.27839587878E+02  0.50457584754E+01  0.41384736595E+02  0.47000000000E+01 0.  1.
          5    1    3    3  503    0 -0.10441608379E+02  0.50903453043E+02 -0.49635291764E+02  0.72013477251E+02  0.47000000000E+01 0. -1.
         -5    1    3    3    0  503 -0.11166867655E+02 -0.28830836540E+02 -0.11286014216E+03  0.11711284198E+03  0.47000000000E+01 0.  1.
<mgrwt>
<rscale>  0 0.96605365E+02</rscale>
<asrwt>0</asrwt>
<pdfrwt beam="1">  1        2 0.35765830E-01 0.96767756E+02</pdfrwt>
<pdfrwt beam="2">  1       -2 0.83193197E-02 0.96767756E+02</pdfrwt>
<totfact> 0.11732917E+04</totfact>
</mgrwt>
</event>
<event>
 8    1  0.7943806E-003  0.8972657E+02  0.7546771E-02  0.1308333E+00
         -2   -1    0    0    0  501 -0.00000000000E+00  0.00000000000E+00  0.22527510621E+02  0.22527510621E+02  0.00000000000E+00 0.  1.
          2   -1    0    0  501    0  0.00000000000E+00 -0.00000000000E+00 -0.73409156502E+03  0.73409156502E+03  0.00000000000E+00 0. -1.
         23    2    1    2    0    0  0.81574487378E+01  0.93012074364E+01 -0.67508795769E+02  0.10634372311E+03  0.81231111700E+02 0.  0.
         23    2    1    2    0    0 -0.81574487378E+01 -0.93012074364E+01 -0.64405525863E+03  0.65027535253E+03  0.88869575883E+02 0.  0.
          5    1    4    4  502    0 -0.24521373325E+02  0.32202222203E+02 -0.21066641345E+03  0.21457098737E+03  0.47000000000E+01 0. -1.
         -5    1    3    3    0  503  0.35253642702E+02 -0.10363770585E+02 -0.79954600039E+01  0.37897815836E+02  0.47000000000E+01 0.  1.
          5    1    3    3  503    0 -0.27096193964E+02  0.19664978022E+02 -0.59513335765E+02  0.68445907269E+02  0.47000000000E+01 0. -1.
         -5    1    4    4    0  502  0.16363924587E+02 -0.41503429639E+02 -0.43338884517E+03  0.43570436516E+03  0.47000000000E+01 0.  1.
<mgrwt>
<rscale>  0 0.87774072E+02</rscale>
<asrwt>0</asrwt>
<pdfrwt beam="1">  1        2 0.11293713E+00 0.89726573E+02</pdfrwt>
<pdfrwt beam="2">  1       -2 0.34657718E-02 0.89726573E+02</pdfrwt>
<totfact> 0.12486304E+04</totfact>
</mgrwt>
</event>
<event>
 8    1  0.7943806E-003  0.9880486E+02  0.7546771E-02  0.1286786E+00
         -4   -1    0    0    0  501 -0.00000000000E+00  0.00000000000E+00  0.16763653943E+03  0.16763653943E+03  0.00000000000E+00 0.  1.
          4   -1    0    0  501    0  0.00000000000E+00 -0.00000000000E+00 -0.56837806959E+02  0.56837806959E+02  0.00000000000E+00 0. -1.
         23    2    1    2    0    0  0.15120658001E+02  0.17691438472E+01  0.32833067152E+02  0.10411729654E+03  0.97624981287E+02 0.  0.
         23    2    1    2    0    0 -0.15120658001E+02 -0.17691438472E+01  0.77965665324E+02  0.12035704986E+03  0.90417975604E+02 0.  0.
          5    1    3    3  502    0  0.64861654987E-03  0.46771829502E+02  0.31128911066E+02  0.56379988822E+02  0.47000000000E+01 0. -1.
         -5    1    4    4    0  503 -0.26826558524E+02 -0.27482846590E+02  0.82722143394E+02  0.91323677689E+02  0.47000000000E+01 0.  1.
          5    1    4    4  503    0  0.11705900523E+02  0.25713702743E+02 -0.47564780700E+01  0.29033372168E+02  0.47000000000E+01 0. -1.
         -5    1    3    3    0  502  0.15120009385E+02 -0.45002685655E+02  0.17041560862E+01  0.47737307715E+02  0.47000000000E+01 0.  1.
<mgrwt>
<rscale>  0 0.96976164E+02</rscale>
<asrwt>0</asrwt>
<pdfrwt beam="1">  1        4 0.87442781E-02 0.98804864E+02</pdfrwt>
<pdfrwt beam="2">  1       -4 0.25790237E-01 0.98804864E+02</pdfrwt>
<totfact> 0.20470428E+03</totfact>
</mgrwt>
</event>
<event>
 8    1  0.7943806E-003  0.9170225E+02  0.7546771E-02  0.1298953E+00
         -2   -1    0    0    0  501 -0.00000000000E+00  0.00000000000E+00  0.13914583369E+03  0.13914583369E+03  0.00000000000E+00 0.  1.
          2   -1    0    0  501    0  0.00000000000E+00 -0.00000000000E+00 -0.26094566446E+03  0.26094566446E+03  0.00000000000E+00 0. -1.
         23    2    1    2    0    0  0.84389483601E+01 -0.10285443049E-02  0.11456324540E+03  0.14656278948E+03  0.91020317588E+02 0.  0.
         23    2    1    2    0    0 -0.84389483601E+01  0.10285443049E-02 -0.23636307618E+03  0.25352870867E+03  0.91313123304E+02 0.  0.
          5    1    4    4  502    0 -0.48894009907E+02 -0.42198732296E+01 -0.15118868962E+03  0.15902371333E+03  0.47000000000E+01 0. -1.
         -5    1    3    3    0  503  0.40708769285E+02  0.19906745012E+02  0.32259727337E+02  0.55823493276E+02  0.47000000000E+01 0.  1.
          5    1    3    3  503    0 -0.32269820925E+02 -0.19907773556E+02  0.82303518065E+02  0.90739296208E+02  0.47000000000E+01 0. -1.
         -5    1    4    4    0  502  0.40455061547E+02  0.42209017739E+01 -0.85174386562E+02  0.94504995332E+02  0.47000000000E+01 0.  1.
<mgrwt>
<rscale>  0 0.91629271E+02</rscale>
<asrwt>0</asrwt>
<pdfrwt beam="1">  1        2 0.40145487E-01 0.91702248E+02</pdfrwt>
<pdfrwt beam="2">  1       -2 0.21407051E-01 0.91702248E+02</pdfrwt>
<totfact> 0.22730329E+03</totfact>
</mgrwt>
</event>
<event>
 8    1  0.7943806E-003  0.1233808E+03  0.7546771E-02  0.1238809E+00
         -2   -1    0    0    0  501 -0.00000000000E+00  0.00000000000E+00  0.40086204422E+02  0.40086204422E+02  0.00000000000E+00 0.  1.
          2   -1    0    0  501    0  0.00000000000E+00 -0.00000000000E+00 -0.40971685042E+03  0.40971685042E+03  0.00000000000E+00 0. -1.
         23    2    1    2    0    0 -0.18793704447E+02 -0.77274519357E+02 -0.25620284515E+03  0.28436372901E+03  0.94330683482E+02 0.  0.
         23    2    1    2    0    0  0.18793704447E+02  0.77274519357E+02 -0.11342780085E+03  0.16543932583E+03  0.90441969556E+02 0.  0.
          5    1    3    3  502    0 -0.41245852054E+02 -0.86778807801E+02 -0.17823780140E+03  0.20254033090E+03  0.47000000000E+01 0. -1.
         -5    1    4    4    0  503  0.51389580485E+02  0.23702387322E+02 -0.44585422459E+02  0.72198629094E+02  0.47000000000E+01 0. -1.
          5    1    4    4  503    0 -0.32595876039E+02  0.53572132035E+02 -0.68842378392E+02  0.93240696738E+02  0.47000000000E+01 0.  1.
         -5    1    3    3    0  502  0.22452147607E+02  0.95042884438E+01 -0.77965043752E+02  0.81823398110E+02  0.47000000000E+01 0.  1.
<mgrwt>
<rscale>  0 0.12263739E+03</rscale>
<asrwt>0</asrwt>
<pdfrwt beam="1">  1        2 0.63033361E-01 0.12338084E+03</pdfrwt>
<pdfrwt beam="2">  1       -2 0.61671084E-02 0.12338084E+03</pdfrwt>
<totfact> 0.10390955E+04</totfact>
</mgrwt>
</event>
<event>
 8    1  0.7943806E-003  0.9117541E+02  0.7546771E-02  0.1300600E+00
         -2   -1    0    0    0  501 -0.00000000000E+00  0.00000000000E+00  0.11521774522E+02  0.11521774522E+02  0.00000000000E+00 0.  1.
          2   -1    0    0  501    0  0.00000000000E+00 -0.00000000000E+00 -0.10451201493E+04  0.10451201493E+04  0.00000000000E+00 0. -1.
         23    2    1    2    0    0  0.33826117973E+01 -0.10213176158E+02 -0.21756565838E+03  0.23553148735E+03  0.89579656164E+02 0.  0.
         23    2    1    2    0    0 -0.33826117973E+01  0.10213176158E+02 -0.81603271637E+03  0.82111043644E+03  0.90538409617E+02 0.  0.
          5    1    4    4  502    0 -0.40663981539E+02 -0.17437061555E+02 -0.40858592064E+03  0.41100140517E+03  0.47000000000E+01 0. -1.
         -5    1    4    4    0  502  0.37281369742E+02  0.27650237713E+02 -0.40744679574E+03  0.41010903127E+03  0.47000000000E+01 0.  1.
          5    1    3    3  503    0  0.87956892922E+01 -0.36769303235E+02 -0.19835488470E+03  0.20198043493E+03  0.47000000000E+01 0. -1.
         -5    1    3    3    0  503 -0.54130774948E+01  0.26556127078E+02 -0.19210773684E+02  0.33551052426E+02  0.47000000000E+01 0.  1.
<mgrwt>
<rscale>  0 0.90936472E+02</rscale>
<asrwt>0</asrwt>
<pdfrwt beam="1">  1        2 0.16078766E+00 0.91175406E+02</pdfrwt>
<pdfrwt beam="2">  1       -2 0.17725813E-02 0.91175406E+02</pdfrwt>
<totfact> 0.21023042E+04</totfact>
</mgrwt>
</event>
<event>
 8    1  0.7943806E-003  0.1226648E+03  0.7546771E-02  0.1241225E+00
         -1   -1    0    0    0  501 -0.00000000000E+00  0.00000000000E+00  0.87618557168E+02  0.87618557168E+02  0.00000000000E+00 0.  1.
          1   -1    0    0  501    0  0.00000000000E+00 -0.00000000000E+00 -0.27117492114E+03  0.27117492114E+03  0.00000000000E+00 0. -1.
         23    2    1    2    0    0  0.72317746055E-01 -0.81924899741E+02  0.19883130093E+02  0.12426576797E+03  0.91295935288E+02 0.  0.
         23    2    1    2    0    0 -0.72317746055E-01  0.81924899741E+02 -0.20343949407E+03  0.23452771034E+03  0.83089859441E+02 0.  0.
          5    1    3    3  502    0  0.33736841379E+02 -0.33926313181E+01 -0.62381224170E+01  0.34794950564E+02  0.47000000000E+01 0. -1.
         -5    1    3    3    0  502 -0.33664523632E+02 -0.78532268423E+02  0.26121252510E+02  0.89470817409E+02  0.47000000000E+01 0.  1.
          5    1    4    4  503    0  0.81040876403E+01  0.56863684910E+02 -0.19925986648E+03  0.20742646718E+03  0.47000000000E+01 0. -1.
         -5    1    4    4    0  503 -0.81764053864E+01  0.25061214831E+02 -0.41796275902E+01  0.27101243157E+02  0.47000000000E+01 0.  1.
<mgrwt>
<rscale>  0 0.12114194E+03</rscale>
<asrwt>0</asrwt>
<pdfrwt beam="1">  1        1 0.41719218E-01 0.12266476E+03</pdfrwt>
<pdfrwt beam="2">  1       -1 0.13479778E-01 0.12266476E+03</pdfrwt>
<totfact> 0.36428929E+03</totfact>
</mgrwt>
</event>
<event>
 8    1  0.7943806E-003  0.1081278E+03  0.7546771E-02  0.1264499E+00
         -2   -1    0    0    0  501 -0.00000000000E+00  0.00000000000E+00  0.23490353705E+03  0.23490353705E+03  0.00000000000E+00 0.  1.
          2   -1    0    0  501    0  0.00000000000E+00 -0.00000000000E+00 -0.58223150518E+02  0.58223150518E+02  0.00000000000E+00 0. -1.
         23    2    1    2    0    0  0.12491018278E+01 -0.55552191721E+02  0.14581961032E+03  0.18153508627E+03  0.92757870470E+02 0.  0.
         23    2    1    2    0    0 -0.12491018278E+01  0.55552191721E+02  0.30860776214E+02  0.11159160129E+03  0.91720726723E+02 0.  0.
          5    1    3    3  502    0  0.32868216692E+02 -0.43122474724E+02  0.33068291431E+02  0.63682567419E+02  0.47000000000E+01 0. -1.
         -5    1    4    4    0  503 -0.43992314471E+02  0.27123241847E+02  0.76523946471E+00  0.51900573911E+02  0.47000000000E+01 0.  1.
          5    1    4    4  503    0  0.42743212643E+02  0.28428949874E+02  0.30095536749E+02  0.59691027384E+02  0.47000000000E+01 0. -1.
         -5    1    3    3    0  502 -0.31619114865E+02 -0.12429716997E+02  0.11275131889E+03  0.11785251885E+03  0.47000000000E+01 0.  1.
<mgrwt>
<rscale>  0 0.10790505E+03</rscale>
<asrwt>0</asrwt>
<pdfrwt beam="1">  1        2 0.89574079E-02 0.10812784E+03</pdfrwt>
<pdfrwt beam="2">  1       -2 0.36139005E-01 0.10812784E+03</pdfrwt>
<totfact> 0.49745444E+03</totfact>
</mgrwt>
</event>
<event>
 8    1  0.7943806E-003  0.1010222E+03  0.7546771E-02  0.1279005E+00
          1   -1    0    0  501    0  0.00000000000E+00  0.00000000000E+00  0.39300043444E+03  0.39300043444E+03  0.00000000000E+00 0. -1.
         -1   -1    0    0    0  501 -0.00000000000E+00 -0.00000000000E+00 -0.26185847672E+02  0.26185847672E+02  0.00000000000E+00 0.  1.
         23    2    1    2    0    0  0.37448030676E+02 -0.98340506846E+01  0.15232201546E+03  0.18277711954E+03  0.93308174769E+02 0.  0.
         23    2    1    2    0    0 -0.37448030676E+02  0.98340506846E+01  0.21449257130E+03  0.23640916257E+03  0.91559627829E+02 0.  0.
          5    1    3    3  502    0 -0.30165785149E+02 -0.11579926672E+02  0.40719238628E+02  0.52194019675E+02  0.47000000000E+01 0. -1.
         -5    1    4    4    0  503  0.21633572809E+02 -0.61124395559E+01  0.14382691133E+02  0.27098435269E+02  0.47000000000E+01 0.  1.
          5    1    4    4  503    0 -0.59081603485E+02  0.15946490241E+02  0.20010988017E+03  0.20931072730E+03  0.47000000000E+01 0. -1.
         -5    1    3    3    0  502  0.67613815825E+02  0.17458759872E+01  0.11160277684E+03  0.13058309987E+03  0.47000000000E+01 0.  1.
<mgrwt>
<rscale>  0 0.10061654E+03</rscale>
<asrwt>0</asrwt>
<pdfrwt beam="1">  1        1 0.60461601E-01 0.10102217E+03</pdfrwt>
<pdfrwt beam="2">  1       -1 0.40285922E-02 0.10102217E+03</pdfrwt>
<totfact> 0.13868385E+04</totfact>
</mgrwt>
</event>
<event>
 8    1  0.7943806E-003  0.1011252E+03  0.7546771E-02  0.1280183E+00
         -2   -1    0    0    0  501 -0.00000000000E+00  0.00000000000E+00  0.12549264133E+02  0.12549264133E+02  0.00000000000E+00 0.  1.
          2   -1    0    0  501    0  0.00000000000E+00 -0.00000000000E+00 -0.78183736053E+03  0.78183736053E+03  0.00000000000E+00 0. -1.
         23    2    1    2    0    0 -0.33024347116E+02  0.19108835798E+02 -0.40368027426E+03  0.41615389469E+03  0.93651188629E+02 0.  0.
         23    2    1    2    0    0  0.33024347116E+02 -0.19108835798E+02 -0.36560782214E+03  0.37823272997E+03  0.89079533601E+02 0.  0.
          5    1    3    3  502    0 -0.11174625355E+02 -0.37642935604E+02 -0.18110896147E+03  0.18537639757E+03  0.47000000000E+01 0. -1.
         -5    1    4    4    0  503 -0.21915946894E+02  0.84341395780E+01 -0.20173418708E+03  0.20315072157E+03  0.47000000000E+01 0.  1.
          5    1    4    4  503    0  0.54940294010E+02 -0.27542975376E+02 -0.16387363506E+03  0.17508200840E+03  0.47000000000E+01 0. -1.
         -5    1    3    3    0  502 -0.21849721761E+02  0.56751771403E+02 -0.22257131278E+03  0.23077749711E+03  0.47000000000E+01 0.  1.
<mgrwt>
<rscale>  0 0.10005366E+03</rscale>
<asrwt>0</asrwt>
<pdfrwt beam="1">  1        2 0.12028266E+00 0.10112517E+03</pdfrwt>
<pdfrwt beam="2">  1       -2 0.19306563E-02 0.10112517E+03</pdfrwt>
<totfact> 0.27315161E+04</totfact>
</mgrwt>
</event>
<event>
 8    1  0.7943806E-003  0.1268784E+03  0.7546771E-02  0.1232944E+00
         -1   -1    0    0    0  501 -0.00000000000E+00  0.00000000000E+00  0.39477635262E+03  0.39477635262E+03  0.00000000000E+00 0.  1.
          1   -1    0    0  501    0  0.00000000000E+00 -0.00000000000E+00 -0.69499958091E+02  0.69499958091E+02  0.00000000000E+00 0. -1.
         23    2    1    2    0    0 -0.85669976498E+02  0.23058096127E+02  0.31278517136E+03  0.33678452898E+03  0.87853485241E+02 0.  0.
         23    2    1    2    0    0  0.85669976498E+02 -0.23058096127E+02  0.12491223169E+02  0.12749178173E+03  0.90703379662E+02 0.  0.
          5    1    4    4  502    0  0.30881333873E+02  0.23731853694E+02 -0.24615139068E+02  0.46312554809E+02  0.47000000000E+01 0. -1.
         -5    1    4    4    0  502  0.54788642625E+02 -0.46789949821E+02  0.37106362237E+02  0.81179226921E+02  0.47000000000E+01 0.  1.
          5    1    3    3  503    0 -0.96009777223E+02 -0.31859741694E+01  0.23582373332E+03  0.25468205856E+03  0.47000000000E+01 0.  1.
         -5    1    3    3    0  503  0.10339800725E+02  0.26244070297E+02  0.76961438038E+02  0.82102470423E+02  0.47000000000E+01 0. -1.
<mgrwt>
<rscale>  0 0.12636997E+03</rscale>
<asrwt>0</asrwt>
<pdfrwt beam="1">  1        1 0.10692302E-01 0.12687838E+03</pdfrwt>
<pdfrwt beam="2">  1       -1 0.60734822E-01 0.12687838E+03</pdfrwt>
<totfact> 0.16203305E+03</totfact>
</mgrwt>
</event>
<event>
 8    1  0.7943806E-003  0.1481581E+03  0.7546771E-02  0.1202940E+00
         -1   -1    0    0    0  501 -0.00000000000E+00  0.00000000000E+00  0.58781721089E+03  0.58781721089E+03  0.00000000000E+00 0.  1.
          1   -1    0    0  501    0  0.00000000000E+00 -0.00000000000E+00 -0.40733085237E+02  0.40733085237E+02  0.00000000000E+00 0. -1.
         23    2    1    2    0    0  0.11469657080E+03  0.17779079901E+02  0.36667810877E+03  0.39547903000E+03  0.92083813382E+02 0.  0.
         23    2    1    2    0    0 -0.11469657080E+03 -0.17779079901E+02  0.18040601689E+03  0.23307126613E+03  0.91128947821E+02 0.  0.
          5    1    3    3  502    0  0.56895956405E+02  0.52127635819E+02  0.15298696006E+03  0.17141044373E+03  0.47000000000E+01 0. -1.
         -5    1    4    4    0  503 -0.14692534234E+02 -0.33177966663E+02  0.90568223042E+02  0.97679788386E+02  0.47000000000E+01 0.  1.
          5    1    4    4  503    0 -0.10000403656E+03  0.15398886762E+02  0.89837793843E+02  0.13539147774E+03  0.47000000000E+01 0. -1.
         -5    1    3    3    0  502  0.57800614391E+02 -0.34348555918E+02  0.21369114871E+03  0.22406858627E+03  0.47000000000E+01 0.  1.
<mgrwt>
<rscale>  0 0.14801000E+03</rscale>
<asrwt>0</asrwt>
<pdfrwt beam="1">  1        1 0.62666289E-02 0.14815812E+03</pdfrwt>
<pdfrwt beam="2">  1       -1 0.90433411E-01 0.14815812E+03</pdfrwt>
<totfact> 0.14991206E+03</totfact>
</mgrwt>
</event>
<event>
 8    1  0.7943806E-003  0.1134952E+03  0.7546771E-02  0.1254371E+00
          3   -1    0    0  501    0  0.00000000000E+00  0.00000000000E+00  0.10935017691E+03  0.10935017691E+03  0.00000000000E+00 0. -1.
         -3   -1    0    0    0  501 -0.00000000000E+00 -0.00000000000E+00 -0.69817525502E+03  0.69817525502E+03  0.00000000000E+00 0.  1.
         23    2    1    2    0    0  0.34297626554E+02  0.56166863262E+02 -0.66257574640E+03  0.67217284843E+03  0.92079719414E+02 0.  0.
         23    2    1    2    0    0 -0.34297626554E+02 -0.56166863262E+02  0.73750668291E+02  0.13535258350E+03  0.92466843083E+02 0.  0.
          5    1    3    3  502    0 -0.98124345537E+01  0.65737806879E+02 -0.34555997927E+03  0.35192546426E+03  0.47000000000E+01 0. -1.
         -5    1    3    3    0  502  0.44110061108E+02 -0.95709436170E+01 -0.31701576713E+03  0.32024738417E+03  0.47000000000E+01 0.  1.
          5    1    4    4  503    0 -0.52513727013E+02 -0.65368564185E+02  0.77265221044E+02  0.11411724274E+03  0.47000000000E+01 0. -1.
         -5    1    4    4    0  503  0.18216100459E+02  0.92017009229E+01 -0.35145527527E+01  0.21235340752E+02  0.47000000000E+01 0.  1.
<mgrwt>
<rscale>  0 0.11341633E+03</rscale>
<asrwt>0</asrwt>
<pdfrwt beam="1">  1        3 0.16823104E-01 0.11349520E+03</pdfrwt>
<pdfrwt beam="2">  1       -3 0.10741158E+00 0.11349520E+03</pdfrwt>
<totfact> 0.54190746E+01</totfact>
</mgrwt>
</event>
<event>
 8    1  0.7943806E-003  0.1048789E+03  0.7546771E-02  0.1276218E+00
         -3   -1    0    0    0  501 -0.00000000000E+00  0.00000000000E+00  0.31917215616E+03  0.31917215616E+03  0.00000000000E+00 0.  1.
          3   -1    0    0  501    0  0.00000000000E+00 -0.00000000000E+00 -0.37326310090E+02  0.37326310090E+02  0.00000000000E+00 0. -1.
         23    2    1    2    0    0  0.84615496855E+01  0.33562023868E+02  0.22142605445E+03  0.24500833657E+03  0.99002929921E+02 0.  0.
         23    2    1    2    0    0 -0.84615496855E+01 -0.33562023868E+02  0.60419791624E+02  0.11149012968E+03  0.87071755044E+02 0.  0.
          5    1    3    3  502    0 -0.41593389428E+02  0.30725070671E+02  0.13943127050E+03  0.14878578294E+03  0.47000000000E+01 0. -1.
         -5    1    3    3    0  502  0.50054939113E+02  0.28369531965E+01  0.81994783948E+02  0.96222553633E+02  0.47000000000E+01 0.  1.
          5    1    4    4  503    0 -0.28983947490E+02 -0.52429418376E+02  0.22442865281E+02  0.64145813000E+02  0.47000000000E+01 0. -1.
         -5    1    4    4    0  503  0.20522397805E+02  0.18867394508E+02  0.37976926344E+02  0.47344316678E+02  0.47000000000E+01 0.  1.
<mgrwt>
<rscale>  0 0.10196470E+03</rscale>
<asrwt>0</asrwt>
<pdfrwt beam="1">  1        3 0.57425095E-02 0.10487892E+03</pdfrwt>
<pdfrwt beam="2">  1       -3 0.49103407E-01 0.10487892E+03</pdfrwt>
<totfact> 0.16594986E+03</totfact>
</mgrwt>
</event>
<event>
 8    1  0.7943806E-003  0.9762519E+02  0.7546771E-02  0.1286916E+00
          2   -1    0    0  501    0  0.00000000000E+00  0.00000000000E+00  0.68341303604E+03  0.68341303604E+03  0.00000000000E+00 0. -1.
         -2   -1    0    0    0  501 -0.00000000000E+00 -0.00000000000E+00 -0.13653989496E+02  0.13653989496E+02  0.00000000000E+00 0.  1.
         23    2    1    2    0    0 -0.11188537614E+02 -0.26282755457E+02  0.37039128779E+03  0.38304096881E+03  0.93352617057E+02 0.  0.
         23    2    1    2    0    0  0.11188537614E+02  0.26282755457E+02  0.29936775876E+03  0.31402605673E+03  0.90417601774E+02 0.  0.
          5    1    3    3  502    0  0.35437914572E+02 -0.50920274821E+01  0.75407227350E+02  0.83606904438E+02  0.47000000000E+01 0. -1.
         -5    1    4    4    0  503 -0.11917365821E+02  0.46465153443E+02  0.87498312669E+02  0.99895339293E+02  0.47000000000E+01 0.  1.
          5    1    4    4  503    0  0.23105903435E+02 -0.20182397986E+02  0.21186944609E+03  0.21413071743E+03  0.47000000000E+01 0. -1.
         -5    1    3    3    0  502 -0.46626452186E+02 -0.21190727975E+02  0.29498406044E+03  0.29943406437E+03  0.47000000000E+01 0.  1.
<mgrwt>
<rscale>  0 0.96916849E+02</rscale>
<asrwt>0</asrwt>
<pdfrwt beam="1">  1        2 0.10514044E+00 0.97625190E+02</pdfrwt>
<pdfrwt beam="2">  1       -2 0.21006143E-02 0.97625190E+02</pdfrwt>
<totfact> 0.28285312E+04</totfact>
</mgrwt>
</event>
<event>
 8    1  0.7943806E-003  0.1117293E+03  0.7546771E-02  0.1261162E+00
          2   -1    0    0  501    0  0.00000000000E+00  0.00000000000E+00  0.49254526812E+02  0.49254526812E+02  0.00000000000E+00 0. -1.
         -2   -1    0    0    0  501 -0.00000000000E+00 -0.00000000000E+00 -0.23737847274E+03  0.23737847274E+03  0.00000000000E+00 0.  1.
         23    2    1    2    0    0  0.64927399212E+02 -0.17635034778E+01 -0.85437929385E+02  0.14065230773E+03  0.90910696720E+02 0.  0.
         23    2    1    2    0    0 -0.64927399212E+02  0.17635034778E+01 -0.10268601654E+03  0.14598069182E+03  0.80915185713E+02 0.  0.
          5    1    3    3  502    0  0.19504686184E+02 -0.22598162298E+02  0.10816555954E+02  0.32096691497E+02  0.47000000000E+01 0. -1.
         -5    1    3    3    0  502  0.45422713028E+02  0.20834658820E+02 -0.96254485338E+02  0.10855561623E+03  0.47000000000E+01 0.  1.
          5    1    4    4  503    0 -0.35113256779E+02 -0.39206163908E+02 -0.50519102975E+02  0.73104950964E+02  0.47000000000E+01 0. -1.
         -5    1    4    4    0  503 -0.29814142433E+02  0.40969667386E+02 -0.52166913564E+02  0.72875740857E+02  0.47000000000E+01 0.  1.
<mgrwt>
<rscale>  0 0.10968109E+03</rscale>
<asrwt>0</asrwt>
<pdfrwt beam="1">  1        2 0.75776196E-02 0.11172928E+03</pdfrwt>
<pdfrwt beam="2">  1       -2 0.36519765E-01 0.11172928E+03</pdfrwt>
<totfact> 0.60231888E+03</totfact>
</mgrwt>
</event>
<event>
 8    1  0.7943806E-003  0.2842474E+03  0.7546771E-02  0.1093427E+00
         -2   -1    0    0    0  501 -0.00000000000E+00  0.00000000000E+00  0.39761989077E+02  0.39761989077E+02  0.00000000000E+00 0.  1.
          2   -1    0    0  501    0  0.00000000000E+00 -0.00000000000E+00 -0.20317004575E+04  0.20317004575E+04  0.00000000000E+00 0. -1.
         23    2    1    2    0    0 -0.26482708382E+03  0.47807479286E+02 -0.96767505422E+03  0.10085591659E+04  0.91529455112E+02 0.  0.
         23    2    1    2    0    0  0.26482708382E+03 -0.47807479286E+02 -0.10242634142E+04  0.10629032806E+04  0.90713301160E+02 0.  0.
          5    1    4    4  502    0  0.24351251500E+03 -0.41855288848E+02 -0.99844975776E+03  0.10285787374E+04  0.47000000000E+01 0. -1.
         -5    1    4    4    0  502  0.21314568816E+02 -0.59521904374E+01 -0.25813656391E+02  0.34324543276E+02  0.47000000000E+01 0.  1.
          5    1    3    3  503    0 -0.23230176784E+02 -0.21189548861E+02 -0.14057261927E+03  0.14412282742E+03  0.47000000000E+01 0. -1.
         -5    1    3    3    0  503 -0.24159690703E+03  0.68997028146E+02 -0.82710243495E+03  0.86443633848E+03  0.47000000000E+01 0.  1.
<mgrwt>
<rscale>  0 0.28418193E+03</rscale>
<asrwt>0</asrwt>
<pdfrwt beam="1">  1        2 0.31256941E+00 0.28424739E+03</pdfrwt>
<pdfrwt beam="2">  1       -2 0.61172270E-02 0.28424739E+03</pdfrwt>
<totfact> 0.10255179E+03</totfact>
</mgrwt>
</event>
<event>
 8    1  0.7943806E-003  0.1094560E+03  0.7546771E-02  0.1265503E+00
         -2   -1    0    0    0  501 -0.00000000000E+00  0.00000000000E+00  0.18563523287E+03  0.18563523287E+03  0.00000000000E+00 0.  1.
          2   -1    0    0  501    0  0.00000000000E+00 -0.00000000000E+00 -0.13113984276E+03  0.13113984276E+03  0.00000000000E+00 0. -1.
         23    2    1    2    0    0  0.37951597785E+02  0.13574933397E+02 -0.89004510925E+02  0.14107590179E+03  0.10176445603E+03 0.  0.
         23    2    1    2    0    0 -0.37951597785E+02 -0.13574933397E+02  0.14349990104E+03  0.17569917384E+03  0.93023521213E+02 0.  0.
          5    1    4    4  502    0 -0.14511757091E+02  0.39522983130E+02  0.49834495382E+02  0.65408135728E+02  0.47000000000E+01 0. -1.
         -5    1    3    3    0  503 -0.34175954761E+02 -0.34644623720E+01 -0.34903604394E+02  0.49197052585E+02  0.47000000000E+01 0.  1.
          5    1    3    3  503    0  0.72127552546E+02  0.17039395769E+02 -0.54100906531E+02  0.91878849209E+02  0.47000000000E+01 0. -1.
         -5    1    4    4    0  502 -0.23439840694E+02 -0.53097916527E+02  0.93665405656E+02  0.11029103811E+03  0.47000000000E+01 0.  1.
<mgrwt>
<rscale>  0 0.10737867E+03</rscale>
<asrwt>0</asrwt>
<pdfrwt beam="1">  1        2 0.20175360E-01 0.10945596E+03</pdfrwt>
<pdfrwt beam="2">  1       -2 0.28559267E-01 0.10945596E+03</pdfrwt>
<totfact> 0.29296345E+03</totfact>
</mgrwt>
</event>
<event>
 8    1  0.7943806E-003  0.1037575E+03  0.7546771E-02  0.1272852E+00
         -2   -1    0    0    0  501 -0.00000000000E+00  0.00000000000E+00  0.69866835589E+02  0.69866835589E+02  0.00000000000E+00 0.  1.
          2   -1    0    0  501    0  0.00000000000E+00 -0.00000000000E+00 -0.22732004570E+03  0.22732004570E+03  0.00000000000E+00 0. -1.
         23    2    1    2    0    0 -0.35639894091E+02  0.34237588500E+02  0.59267604801E+01  0.10392662535E+03  0.91231586910E+02 0.  0.
         23    2    1    2    0    0  0.35639894091E+02 -0.34237588500E+02 -0.16337997059E+03  0.19326025594E+03  0.90631656817E+02 0.  0.
          5    1    3    3  502    0  0.24784640510E+02 -0.11529816980E+02 -0.15765178478E+00  0.27736797561E+02  0.47000000000E+01 0. -1.
         -5    1    3    3    0  502 -0.60424534602E+02  0.45767405481E+02  0.60844122649E+01  0.76189827791E+02  0.47000000000E+01 0.  1.
          5    1    4    4  503    0  0.56920549924E+02 -0.41123945106E+02 -0.15247997727E+03  0.16793856416E+03  0.47000000000E+01 0. -1.
         -5    1    4    4    0  503 -0.21280655833E+02  0.68863566059E+01 -0.10899993323E+02  0.25321691776E+02  0.47000000000E+01 0.  1.
<mgrwt>
<rscale>  0 0.10362546E+03</rscale>
<asrwt>0</asrwt>
<pdfrwt beam="1">  1        2 0.34972314E-01 0.10375749E+03</pdfrwt>
<pdfrwt beam="2">  1       -2 0.10748744E-01 0.10375749E+03</pdfrwt>
<totfact> 0.81204977E+03</totfact>
</mgrwt>
</event>
<event>
 8    1  0.7943806E-003  0.9233824E+02  0.7546771E-02  0.1298094E+00
          1   -1    0    0  501    0  0.00000000000E+00  0.00000000000E+00  0.65968159192E+02  0.65968159192E+02  0.00000000000E+00 0. -1.
         -1   -1    0    0    0  501 -0.00000000000E+00 -0.00000000000E+00 -0.29961341696E+03  0.29961341696E+03  0.00000000000E+00 0.  1.
         23    2    1    2    0    0  0.13208938296E+02  0.60397846115E+01 -0.25579852522E+03  0.27195447509E+03  0.91188793001E+02 0.  0.
         23    2    1    2    0    0 -0.13208938296E+02 -0.60397846115E+01  0.22153267453E+02  0.93627101059E+02  0.89801513043E+02 0.  0.
          5    1    3    3  502    0 -0.35431020626E+02  0.20712419651E+02 -0.11275330338E+03  0.12008230083E+03  0.47000000000E+01 0. -1.
         -5    1    3    3    0  502  0.48639958921E+02 -0.14672635040E+02 -0.14304522184E+03  0.15187217426E+03  0.47000000000E+01 0.  1.
          5    1    4    4  503    0 -0.40307540982E+02 -0.25553720709E+02 -0.77227331999E+01  0.48573872711E+02  0.47000000000E+01 0. -1.
         -5    1    4    4    0  503  0.27098602686E+02  0.19513936098E+02  0.29876000653E+02  0.45053228348E+02  0.47000000000E+01 0.  1.
<mgrwt>
<rscale>  0 0.91993884E+02</rscale>
<asrwt>0</asrwt>
<pdfrwt beam="1">  1        1 0.10148948E-01 0.92338242E+02</pdfrwt>
<pdfrwt beam="2">  1       -1 0.46094372E-01 0.92338242E+02</pdfrwt>
<totfact> 0.28356815E+03</totfact>
</mgrwt>
</event>
<event>
 8    1  0.7943806E-003  0.1759953E+03  0.7546771E-02  0.1172331E+00
         -2   -1    0    0    0  501 -0.00000000000E+00  0.00000000000E+00  0.20915145695E+02  0.20915145695E+02  0.00000000000E+00 0.  1.
          2   -1    0    0  501    0  0.00000000000E+00 -0.00000000000E+00 -0.15525685384E+04  0.15525685384E+04  0.00000000000E+00 0. -1.
         23    2    1    2    0    0  0.81872861587E+02  0.12545491687E+03 -0.95193229801E+03  0.96763642625E+03  0.87767031282E+02 0.  0.
         23    2    1    2    0    0 -0.81872861587E+02 -0.12545491687E+03 -0.57972109466E+03  0.60584725781E+03  0.92370182254E+02 0.  0.
          5    1    3    3  502    0  0.88680253468E+02  0.70027748561E+02 -0.73155935241E+03  0.74024945054E+03  0.47000000000E+01 0. -1.
         -5    1    4    4    0  503 -0.60933650686E+02 -0.16482084481E+02 -0.25152167119E+03  0.25936424189E+03  0.47000000000E+01 0.  1.
          5    1    4    4  503    0 -0.20939210901E+02 -0.10897283239E+03 -0.32819942347E+03  0.34648301591E+03  0.47000000000E+01 0. -1.
         -5    1    3    3    0  502 -0.68073918803E+01  0.55427168309E+02 -0.22037294560E+03  0.22738697571E+03  0.47000000000E+01 0.  1.
<mgrwt>
<rscale>  0 0.17539937E+03</rscale>
<asrwt>0</asrwt>
<pdfrwt beam="1">  1        2 0.23885683E+00 0.17599532E+03</pdfrwt>
<pdfrwt beam="2">  1       -2 0.32177129E-02 0.17599532E+03</pdfrwt>
<totfact> 0.48426495E+03</totfact>
</mgrwt>
</event>
<event>
 8    1  0.7943806E-003  0.1005469E+03  0.7546771E-02  0.1293318E+00
         -2   -1    0    0    0  501 -0.00000000000E+00  0.00000000000E+00  0.11340603670E+03  0.11340603670E+03  0.00000000000E+00 0. -1.
          2   -1    0    0  501    0  0.00000000000E+00 -0.00000000000E+00 -0.75293446532E+02  0.75293446532E+02  0.00000000000E+00 0.  1.
         23    2    1    2    0    0 -0.36598764976E+02 -0.21743994366E+02 -0.46081914571E+01  0.10065242662E+03  0.91090090938E+02 0.  0.
         23    2    1    2    0    0  0.36598764976E+02  0.21743994366E+02  0.42720781630E+02  0.88047056618E+02  0.64147861284E+02 0.  0.
          5    1    3    3  502    0  0.24370033520E+02  0.13644712673E+02  0.66932117178E+01  0.29102676866E+02  0.47000000000E+01 0. -1.
         -5    1    3    3    0  502 -0.60968798496E+02 -0.35388707040E+02 -0.11301403175E+02  0.71549749753E+02  0.47000000000E+01 0.  1.
          5    1    4    4  503    0  0.40875550180E+01 -0.21626188104E+02  0.14307927595E+02  0.26668462835E+02  0.47000000000E+01 0. -1.
         -5    1    4    4    0  503  0.32511209958E+02  0.43370182470E+02  0.28412854035E+02  0.61378593783E+02  0.47000000000E+01 0.  1.
<mgrwt>
<rscale>  0 0.94055204E+02</rscale>
<asrwt>0</asrwt>
<pdfrwt beam="1">  1        2 0.11583607E-01 0.10054688E+03</pdfrwt>
<pdfrwt beam="2">  1       -2 0.17447083E-01 0.10054688E+03</pdfrwt>
<totfact> 0.12853414E+04</totfact>
</mgrwt>
</event>
<event>
 8    1  0.7943806E-003  0.9283738E+02  0.7546771E-02  0.1297136E+00
          1   -1    0    0  501    0  0.00000000000E+00  0.00000000000E+00  0.18981561594E+03  0.18981561594E+03  0.00000000000E+00 0. -1.
         -1   -1    0    0    0  501 -0.00000000000E+00 -0.00000000000E+00 -0.72678965187E+02  0.72678965187E+02  0.00000000000E+00 0.  1.
         23    2    1    2    0    0  0.94730194609E+01 -0.15402085322E+02 -0.23396672615E+02  0.94065385864E+02  0.89296865557E+02 0.  0.
         23    2    1    2    0    0 -0.94730194609E+01  0.15402085322E+02  0.14053332337E+03  0.16842919527E+03  0.91059411982E+02 0.  0.
          5    1    3    3  502    0 -0.78178531070E+01  0.34615136537E+02 -0.19571902275E+02  0.40797988472E+02  0.47000000000E+01 0. -1.
         -5    1    4    4    0  503 -0.42881502036E+02  0.20873964107E+02  0.40588062202E+02  0.62801483961E+02  0.47000000000E+01 0.  1.
          5    1    4    4  503    0  0.33408482575E+02 -0.54718787846E+01  0.99945261170E+02  0.10562771131E+03  0.47000000000E+01 0. -1.
         -5    1    3    3    0  502  0.17290872568E+02 -0.50017221860E+02 -0.38247703396E+01  0.53267397392E+02  0.47000000000E+01 0.  1.
<mgrwt>
<rscale>  0 0.92402293E+02</rscale>
<asrwt>0</asrwt>
<pdfrwt beam="1">  1        1 0.29202402E-01 0.92837378E+02</pdfrwt>
<pdfrwt beam="2">  1       -1 0.11181379E-01 0.92837378E+02</pdfrwt>
<totfact> 0.73885702E+03</totfact>
</mgrwt>
</event>
<event>
 8    1  0.7943806E-003  0.1057538E+03  0.7546771E-02  0.1270340E+00
          1   -1    0    0  501    0  0.00000000000E+00  0.00000000000E+00  0.60071845616E+03  0.60071845616E+03  0.00000000000E+00 0. -1.
         -1   -1    0    0    0  501 -0.00000000000E+00 -0.00000000000E+00 -0.39656021642E+02  0.39656021642E+02  0.00000000000E+00 0.  1.
         23    2    1    2    0    0  0.35606249464E+02  0.29837766595E+02  0.46138298986E+02  0.11538030655E+03  0.95004079855E+02 0.  0.
         23    2    1    2    0    0 -0.35606249464E+02 -0.29837766595E+02  0.51492413553E+03  0.52499417125E+03  0.91180684267E+02 0.  0.
          5    1    3    3  502    0  0.16595800957E+02  0.58535009248E+02  0.51967070848E+02  0.80152569326E+02  0.47000000000E+01 0. -1.
         -5    1    4    4    0  503 -0.16308211475E+02  0.20382861322E+02  0.47031575452E+02  0.53995165401E+02  0.47000000000E+01 0.  1.
          5    1    4    4  503    0 -0.19298037989E+02 -0.50220627917E+02  0.46789256008E+03  0.47099900585E+03  0.47000000000E+01 0. -1.
         -5    1    3    3    0  502  0.19010448506E+02 -0.28697242652E+02 -0.58287718619E+01  0.35227737220E+02  0.47000000000E+01 0.  1.
<mgrwt>
<rscale>  0 0.10488801E+03</rscale>
<asrwt>0</asrwt>
<pdfrwt beam="1">  1        1 0.92418217E-01 0.10575383E+03</pdfrwt>
<pdfrwt beam="2">  1       -1 0.61009269E-02 0.10575383E+03</pdfrwt>
<totfact> 0.43791047E+03</totfact>
</mgrwt>
</event>
<event>
 8    1  0.7943806E-003  0.9641336E+02  0.7546771E-02  0.1288944E+00
         -2   -1    0    0    0  501 -0.00000000000E+00  0.00000000000E+00  0.23998865855E+02  0.23998865855E+02  0.00000000000E+00 0.  1.
          2   -1    0    0  501    0  0.00000000000E+00 -0.00000000000E+00 -0.43842456512E+03  0.43842456512E+03  0.00000000000E+00 0. -1.
         23    2    1    2    0    0 -0.14344083459E+02  0.25524072662E+02 -0.12489435542E+03  0.15777875856E+03  0.91860250505E+02 0.  0.
         23    2    1    2    0    0  0.14344083459E+02 -0.25524072662E+02 -0.28953134384E+03  0.30464467241E+03  0.90126279982E+02 0.  0.
          5    1    3    3  502    0 -0.45971840873E+02 -0.93513888414E+01 -0.78128526720E+02  0.91252481138E+02  0.47000000000E+01 0. -1.
         -5    1    3    3    0  502  0.31627757414E+02  0.34875461504E+02 -0.46765828697E+02  0.66526277424E+02  0.47000000000E+01 0.  1.
          5    1    4    4  503    0  0.27989963269E+02 -0.51925125338E+02 -0.23528678057E+03  0.24261412942E+03  0.47000000000E+01 0. -1.
         -5    1    4    4    0  503 -0.13645879810E+02  0.26401052676E+02 -0.54244563274E+02  0.62030542984E+02  0.47000000000E+01 0.  1.
<mgrwt>
<rscale>  0 0.95998032E+02</rscale>
<asrwt>0</asrwt>
<pdfrwt beam="1">  1        2 0.67449931E-01 0.96413363E+02</pdfrwt>
<pdfrwt beam="2">  1       -2 0.36921333E-02 0.96413363E+02</pdfrwt>
<totfact> 0.20323554E+04</totfact>
</mgrwt>
</event>
<event>
 8    1  0.7943806E-003  0.1314344E+03  0.7546771E-02  0.1225658E+00
         -1   -1    0    0    0  501 -0.00000000000E+00  0.00000000000E+00  0.30872685586E+03  0.30872685586E+03  0.00000000000E+00 0.  1.
          1   -1    0    0  501    0  0.00000000000E+00 -0.00000000000E+00 -0.32187878483E+03  0.32187878483E+03  0.00000000000E+00 0. -1.
         23    2    1    2    0    0  0.44249065914E+02  0.82568847439E+02  0.28021349669E+03  0.30914294418E+03  0.90962419759E+02 0.  0.
         23    2    1    2    0    0 -0.44249065914E+02 -0.82568847439E+02 -0.29336542567E+03  0.32146269651E+03  0.92192179017E+02 0.  0.
          5    1    4    4  502    0 -0.14347453392E+02 -0.96752001633E+02 -0.21359133557E+03  0.23496839760E+03  0.47000000000E+01 0. -1.
         -5    1    4    4    0  502 -0.29901612523E+02  0.14183154194E+02 -0.79774090096E+02  0.86494298916E+02  0.47000000000E+01 0.  1.
          5    1    3    3  503    0 -0.16647054576E+02  0.46991129320E+02  0.61590589257E+02  0.79377461196E+02  0.47000000000E+01 0. -1.
         -5    1    3    3    0  503  0.60896120490E+02  0.35577718118E+02  0.21862290744E+03  0.22976548299E+03  0.47000000000E+01 0.  1.
<mgrwt>
<rscale>  0 0.13121892E+03</rscale>
<asrwt>0</asrwt>
<pdfrwt beam="1">  1        1 0.49519813E-01 0.13143436E+03</pdfrwt>
<pdfrwt beam="2">  1       -1 0.47496439E-01 0.13143436E+03</pdfrwt>
<totfact> 0.36765433E+02</totfact>
</mgrwt>
</event>
<event>
 8    1  0.7943806E-003  0.1057730E+03  0.7546771E-02  0.1270929E+00
          2   -1    0    0  501    0  0.00000000000E+00  0.00000000000E+00  0.10895552789E+03  0.10895552789E+03  0.00000000000E+00 0. -1.
         -2   -1    0    0    0  501 -0.00000000000E+00 -0.00000000000E+00 -0.10246289591E+03  0.10246289591E+03  0.00000000000E+00 0.  1.
         23    2    1    2    0    0 -0.28893876157E+02 -0.99791023517E+01 -0.18339331777E+02  0.10276965138E+03  0.96388959910E+02 0.  0.
         23    2    1    2    0    0  0.28893876157E+02  0.99791023517E+01  0.24831963756E+02  0.10864877242E+03  0.10125952183E+03 0.  0.
          5    1    3    3  502    0  0.17636836213E+02 -0.22109537889E+02  0.24868214138E+02  0.37952703878E+02  0.47000000000E+01 0. -1.
         -5    1    3    3    0  502 -0.46530712370E+02  0.12130435537E+02 -0.43207545915E+02  0.64816947506E+02  0.47000000000E+01 0.  1.
          5    1    4    4  503    0  0.60049288544E+02 -0.18570942614E+02  0.18279691072E+02  0.65627997606E+02  0.47000000000E+01 0. -1.
         -5    1    4    4    0  503 -0.31155412387E+02  0.28550044965E+02  0.65522726835E+01  0.43020774817E+02  0.47000000000E+01 0.  1.
<mgrwt>
<rscale>  0 0.10459008E+03</rscale>
<asrwt>0</asrwt>
<pdfrwt beam="1">  1        2 0.16762389E-01 0.10577301E+03</pdfrwt>
<pdfrwt beam="2">  1       -2 0.15763522E-01 0.10577301E+03</pdfrwt>
<totfact> 0.98961243E+03</totfact>
</mgrwt>
</event>
<event>
 8    1  0.7943806E-003  0.9161214E+02  0.7546771E-02  0.1313063E+00
         -1   -1    0    0    0  501 -0.00000000000E+00  0.00000000000E+00  0.12279625955E+02  0.12279625955E+02  0.00000000000E+00 0.  1.
          1   -1    0    0  501    0  0.00000000000E+00 -0.00000000000E+00 -0.55848370365E+03  0.55848370365E+03  0.00000000000E+00 0. -1.
         23    2    1    2    0    0 -0.50006665445E+01  0.60348341089E+01 -0.25164624094E+03  0.26780331247E+03  0.91276271308E+02 0.  0.
         23    2    1    2    0    0  0.50006665445E+01 -0.60348341089E+01 -0.29455783675E+03  0.30296001713E+03  0.70420358550E+02 0.  0.
          5    1    4    4  502    0 -0.27137396191E+02 -0.14245587664E+02 -0.20517937396E+03  0.20750913363E+03  0.47000000000E+01 0. -1.
         -5    1    3    3    0  503  0.29782564145E+02  0.74296356690E+01 -0.29282122121E+02  0.42681767643E+02  0.47000000000E+01 0.  1.
          5    1    3    3  503    0 -0.34783230690E+02 -0.13948015602E+01 -0.22236411882E+03  0.22512154483E+03  0.47000000000E+01 0. -1.
         -5    1    4    4    0  502  0.32138062736E+02  0.82107535548E+01 -0.89378462789E+02  0.95450883500E+02  0.47000000000E+01 0.  1.
<mgrwt>
<rscale>  0 0.85912750E+02</rscale>
<asrwt>0</asrwt>
<pdfrwt beam="1">  1        1 0.85920557E-01 0.91612137E+02</pdfrwt>
<pdfrwt beam="2">  1       -1 0.18891735E-02 0.91612137E+02</pdfrwt>
<totfact> 0.26114167E+04</totfact>
</mgrwt>
</event>
<event>
 8    1  0.7943806E-003  0.9111940E+02  0.7546771E-02  0.1301837E+00
          2   -1    0    0  501    0  0.00000000000E+00  0.00000000000E+00  0.10539020866E+03  0.10539020866E+03  0.00000000000E+00 0. -1.
         -2   -1    0    0    0  501 -0.00000000000E+00 -0.00000000000E+00 -0.84013665559E+02  0.84013665559E+02  0.00000000000E+00 0.  1.
         23    2    1    2    0    0 -0.86392180895E+00  0.15495968620E+02  0.39326807710E+02  0.99243859900E+02  0.89787941946E+02 0.  0.
         23    2    1    2    0    0  0.86392180895E+00 -0.15495968620E+02 -0.17950264612E+02  0.90160014316E+02  0.86981289813E+02 0.  0.
          5    1    4    4  502    0 -0.15326060397E+02 -0.48410104129E+02 -0.62720269662E+01  0.51379515678E+02  0.47000000000E+01 0. -1.
         -5    1    4    4    0  502  0.16189982206E+02  0.32914135509E+02 -0.11678237646E+02  0.38780498638E+02  0.47000000000E+01 0.  1.
          5    1    3    3  503    0 -0.38666432565E+02 -0.15304076138E+02  0.22019116899E+02  0.47288891537E+02  0.47000000000E+01 0. -1.
         -5    1    3    3    0  503  0.37802510756E+02  0.30800044757E+02  0.17307690810E+02  0.51954968364E+02  0.47000000000E+01 0.  1.
<mgrwt>
<rscale>  0 0.90420314E+02</rscale>
<asrwt>0</asrwt>
<pdfrwt beam="1">  1        2 0.16213878E-01 0.91119405E+02</pdfrwt>
<pdfrwt beam="2">  1       -2 0.12925179E-01 0.91119405E+02</pdfrwt>
<totfact> 0.13960247E+04</totfact>
</mgrwt>
</event>
<event>
 8    1  0.7943806E-003  0.1373159E+03  0.7546771E-02  0.1217326E+00
         -1   -1    0    0    0  501 -0.00000000000E+00  0.00000000000E+00  0.45746015965E+02  0.45746015965E+02  0.00000000000E+00 0.  1.
          1   -1    0    0  501    0  0.00000000000E+00 -0.00000000000E+00 -0.47844377741E+03  0.47844377741E+03  0.00000000000E+00 0. -1.
         23    2    1    2    0    0 -0.35448989350E+02  0.95164072910E+02 -0.11601524624E+03  0.17901815007E+03  0.90967736463E+02 0.  0.
         23    2    1    2    0    0  0.35448989350E+02 -0.95164072910E+02 -0.31668251521E+03  0.34517164331E+03  0.92427356788E+02 0.  0.
          5    1    4    4  502    0 -0.11465577211E+02 -0.67032844309E+02 -0.24823500666E+03  0.25742488266E+03  0.47000000000E+01 0. -1.
         -5    1    4    4    0  502  0.46914566561E+02 -0.28131228602E+02 -0.68447508549E+02  0.87746760651E+02  0.47000000000E+01 0.  1.
          5    1    3    3  503    0 -0.46994829762E+02  0.49417500975E+02 -0.11228664960E+03  0.13145716073E+03  0.47000000000E+01 0. -1.
         -5    1    3    3    0  503  0.11545840413E+02  0.45746571935E+02 -0.37285966316E+01  0.47560989345E+02  0.47000000000E+01 0.  1.
<mgrwt>
<rscale>  0 0.13707066E+03</rscale>
<asrwt>0</asrwt>
<pdfrwt beam="1">  1        1 0.73606732E-01 0.13731587E+03</pdfrwt>
<pdfrwt beam="2">  1       -1 0.70378489E-02 0.13731587E+03</pdfrwt>
<totfact> 0.48429743E+03</totfact>
</mgrwt>
</event>
<event>
 8    1  0.7943806E-003  0.1003320E+03  0.7546771E-02  0.1281022E+00
         -1   -1    0    0    0  501 -0.00000000000E+00  0.00000000000E+00  0.84599848136E+01  0.84599848136E+01  0.00000000000E+00 0.  1.
          1   -1    0    0  501    0  0.00000000000E+00 -0.00000000000E+00 -0.12681957610E+04  0.12681957610E+04  0.00000000000E+00 0. -1.
         23    2    1    2    0    0 -0.18545724067E+02  0.32480486800E+02 -0.80994258488E+03  0.81580823608E+03  0.90206215688E+02 0.  0.
         23    2    1    2    0    0  0.18545724067E+02 -0.32480486800E+02 -0.44979319127E+03  0.46084750970E+03  0.93099873137E+02 0.  0.
          5    1    4    4  502    0  0.11051714824E+00 -0.62805710320E+02 -0.32374203079E+03  0.32981140363E+03  0.47000000000E+01 0. -1.
         -5    1    4    4    0  502  0.18435206919E+02  0.30325223520E+02 -0.12605116048E+03  0.13103610607E+03  0.47000000000E+01 0.  1.
          5    1    3    3  503    0 -0.54154119035E+02  0.11890403790E+02 -0.50868127782E+03  0.51171552909E+03  0.47000000000E+01 0. -1.
         -5    1    3    3    0  503  0.35608394968E+02  0.20590083010E+02 -0.30126130706E+03  0.30409270699E+03  0.47000000000E+01 0.  1.
<mgrwt>
<rscale>  0 0.99655417E+02</rscale>
<asrwt>0</asrwt>
<pdfrwt beam="1">  1        1 0.19510691E+00 0.10033201E+03</pdfrwt>
<pdfrwt beam="2">  1       -1 0.13015370E-02 0.10033201E+03</pdfrwt>
<totfact> 0.12485981E+04</totfact>
</mgrwt>
</event>
<event>
 8    1  0.7943806E-003  0.1583561E+03  0.7546771E-02  0.1191167E+00
         -2   -1    0    0    0  501 -0.00000000000E+00  0.00000000000E+00  0.43464613774E+02  0.43464613774E+02  0.00000000000E+00 0.  1.
          2   -1    0    0  501    0  0.00000000000E+00 -0.00000000000E+00 -0.11085151106E+04  0.11085151106E+04  0.00000000000E+00 0. -1.
         23    2    1    2    0    0 -0.12861648501E+03  0.25851911746E+02 -0.13264733991E+03  0.20657197378E+03  0.88691273592E+02 0.  0.
         23    2    1    2    0    0  0.12861648501E+03 -0.25851911746E+02 -0.93240315689E+03  0.94540775056E+03  0.84909636001E+02 0.  0.
          5    1    3    3  502    0  0.35248539488E+01  0.23249414458E+02 -0.33893488978E+02  0.41518892846E+02  0.47000000000E+01 0. -1.
         -5    1    4    4    0  503  0.94254778378E+01  0.22884612615E+02 -0.22076991145E+03  0.22220258533E+03  0.47000000000E+01 0.  1.
          5    1    4    4  503    0  0.11919100717E+03 -0.48736524361E+02 -0.71163324545E+03  0.72320516524E+03  0.47000000000E+01 0. -1.
         -5    1    3    3    0  502 -0.13214133896E+03  0.26024972873E+01 -0.98753850927E+02  0.16505308094E+03  0.47000000000E+01 0.  1.
<mgrwt>
<rscale>  0 0.15783188E+03</rscale>
<asrwt>0</asrwt>
<pdfrwt beam="1">  1        2 0.17054080E+00 0.15835613E+03</pdfrwt>
<pdfrwt beam="2">  1       -2 0.66868630E-02 0.15835613E+03</pdfrwt>
<totfact> 0.28019860E+03</totfact>
</mgrwt>
</event>
<event>
 8    1  0.7943806E-003  0.1006357E+03  0.7546771E-02  0.1279334E+00
         -1   -1    0    0    0  501 -0.00000000000E+00  0.00000000000E+00  0.86401505311E+02  0.86401505311E+02  0.00000000000E+00 0.  1.
          1   -1    0    0  501    0  0.00000000000E+00 -0.00000000000E+00 -0.12807220816E+03  0.12807220816E+03  0.00000000000E+00 0. -1.
         23    2    1    2    0    0 -0.31628097909E+02 -0.27635928477E+02 -0.53283583609E+02  0.11387131332E+03  0.91451925043E+02 0.  0.
         23    2    1    2    0    0  0.31628097909E+02  0.27635928477E+02  0.11612880764E+02  0.10060240015E+03  0.90674708691E+02 0.  0.
          5    1    3    3  502    0 -0.63299521461E+02 -0.21225666811E+02 -0.27895717459E+02  0.72509443532E+02  0.47000000000E+01 0. -1.
         -5    1    4    4    0  503  0.54539898877E+02  0.43079637858E+02 -0.14608468733E+01  0.69675532585E+02  0.47000000000E+01 0.  1.
          5    1    4    4  503    0 -0.22911800968E+02 -0.15443709381E+02  0.13073727637E+02  0.30926867565E+02  0.47000000000E+01 0. -1.
         -5    1    3    3    0  502  0.31671423552E+02 -0.64102616661E+01 -0.25387866150E+02  0.41361869784E+02  0.47000000000E+01 0.  1.
<mgrwt>
<rscale>  0 0.10045875E+03</rscale>
<asrwt>0</asrwt>
<pdfrwt beam="1">  1        1 0.19703417E-01 0.10063566E+03</pdfrwt>
<pdfrwt beam="2">  1       -1 0.13292539E-01 0.10063566E+03</pdfrwt>
<totfact> 0.93164359E+03</totfact>
</mgrwt>
</event>
<event>
 8    1  0.7943806E-003  0.1089592E+03  0.7546771E-02  0.1262975E+00
         -1   -1    0    0    0  501 -0.00000000000E+00  0.00000000000E+00  0.43542978943E+02  0.43542978943E+02  0.00000000000E+00 0.  1.
          1   -1    0    0  501    0  0.00000000000E+00 -0.00000000000E+00 -0.27466215919E+03  0.27466215919E+03  0.00000000000E+00 0. -1.
         23    2    1    2    0    0  0.17183831083E+02  0.54681971729E+02 -0.94732265665E+02  0.14363851197E+03  0.91500917378E+02 0.  0.
         23    2    1    2    0    0 -0.17183831083E+02 -0.54681971729E+02 -0.13638691459E+03  0.17456662616E+03  0.92664526204E+02 0.  0.
          5    1    4    4  502    0 -0.99740437809E+01  0.24573166300E+02 -0.20232923878E+02  0.33686544198E+02  0.47000000000E+01 0. -1.
         -5    1    3    3    0  503 -0.65189680991E+01 -0.24020592885E+02 -0.17789632180E+02  0.30952331749E+02  0.47000000000E+01 0.  1.
          5    1    3    3  503    0  0.23702799182E+02  0.78702564614E+02 -0.76942633484E+02  0.11268618022E+03  0.47000000000E+01 0. -1.
         -5    1    4    4    0  502 -0.72097873023E+01 -0.79255138029E+02 -0.11615399071E+03  0.14088008196E+03  0.47000000000E+01 0.  1.
<mgrwt>
<rscale>  0 0.10871143E+03</rscale>
<asrwt>0</asrwt>
<pdfrwt beam="1">  1        1 0.42255717E-01 0.10895924E+03</pdfrwt>
<pdfrwt beam="2">  1       -1 0.66989198E-02 0.10895924E+03</pdfrwt>
<totfact> 0.10274928E+04</totfact>
</mgrwt>
</event>
<event>
 7    1  0.7943806E-003  0.1104077E+03  0.7546771E-02  0.1276879E+00
         -1   -1    0    0    0  501 -0.00000000000E+00  0.00000000000E+00  0.88698320165E+02  0.88698320165E+02  0.00000000000E+00 0.  1.
          1   -1    0    0  501    0  0.00000000000E+00 -0.00000000000E+00 -0.17479075077E+03  0.17479075077E+03  0.00000000000E+00 0. -1.
         23    2    1    2    0    0 -0.45635210359E+02 -0.44176328500E+02 -0.13181626662E+03  0.17194590218E+03  0.90309161799E+02 0.  0.
          5    1    1    2  502    0  0.19378953725E+02  0.74834781304E+01 -0.65950371956E+01  0.22296430388E+02  0.47000000000E+01 0. -1.
         -5    1    1    2    0  502  0.26256256633E+02  0.36692850369E+02  0.52318873214E+02  0.69246738371E+02  0.47000000000E+01 0.  1.
          5    1    3    3  503    0  0.69258590082E+01 -0.27368178822E+02 -0.10788003642E+03  0.11161172426E+03  0.47000000000E+01 0. -1.
         -5    1    3    3    0  503 -0.52561069367E+02 -0.16808149678E+02 -0.23936230209E+02  0.60334177920E+02  0.47000000000E+01 0.  1.
<mgrwt>
<rscale>  0 0.10164276E+03</rscale>
<asrwt>0</asrwt>
<pdfrwt beam="1">  1        1 0.26890884E-01 0.11040772E+03</pdfrwt>
<pdfrwt beam="2">  1       -1 0.13645896E-01 0.11040772E+03</pdfrwt>
<totfact> 0.61078835E+03</totfact>
</mgrwt>
</event>
<event>
 8    1  0.7943806E-003  0.1187735E+03  0.7546771E-02  0.1247570E+00
         -2   -1    0    0    0  501 -0.00000000000E+00  0.00000000000E+00  0.99760464538E+02  0.99760464538E+02  0.00000000000E+00 0.  1.
          2   -1    0    0  501    0  0.00000000000E+00 -0.00000000000E+00 -0.14144766723E+03  0.14144766723E+03  0.00000000000E+00 0. -1.
         23    2    1    2    0    0  0.17426763261E+02 -0.62441976336E+02  0.49353554362E+01  0.11887596293E+03  0.99521074866E+02 0.  0.
         23    2    1    2    0    0 -0.17426763261E+02  0.62441976336E+02 -0.46622558128E+02  0.12233216884E+03  0.92675801158E+02 0.  0.
          5    1    3    3  502    0 -0.38765592352E+02 -0.28072628341E+02 -0.14158348590E+02  0.50133745593E+02  0.47000000000E+01 0. -1.
         -5    1    3    3    0  502  0.56192355613E+02 -0.34369347994E+02  0.19093704027E+02  0.68742217336E+02  0.47000000000E+01 0.  1.
          5    1    4    4  503    0 -0.50583160946E+02  0.35638497801E+02 -0.45063320063E+01  0.62218612368E+02  0.47000000000E+01 0. -1.
         -5    1    4    4    0  503  0.33156397685E+02  0.26803478534E+02 -0.42116226122E+02  0.60113556472E+02  0.47000000000E+01 0.  1.
<mgrwt>
<rscale>  0 0.11732883E+03</rscale>
<asrwt>0</asrwt>
<pdfrwt beam="1">  1        2 0.21761179E-01 0.11877347E+03</pdfrwt>
<pdfrwt beam="2">  1       -2 0.15347764E-01 0.11877347E+03</pdfrwt>
<totfact> 0.77703512E+03</totfact>
</mgrwt>
</event>
<event>
 8    1  0.7943806E-003  0.1186822E+03  0.7546771E-02  0.1247612E+00
         -1   -1    0    0    0  501 -0.00000000000E+00  0.00000000000E+00  0.21130191097E+03  0.21130191097E+03  0.00000000000E+00 0.  1.
          1   -1    0    0  501    0  0.00000000000E+00 -0.00000000000E+00 -0.81165649813E+02  0.81165649813E+02  0.00000000000E+00 0. -1.
         23    2    1    2    0    0 -0.74167029944E+02  0.11708978667E+02 -0.40377309124E+01  0.11333594723E+03  0.84799086969E+02 0.  0.
         23    2    1    2    0    0  0.74167029944E+02 -0.11708978667E+02  0.13417399207E+03  0.17913161356E+03  0.91910969505E+02 0.  0.
          5    1    4    4  502    0  0.33485293661E+01  0.29640552660E+02  0.13317134269E+02  0.33003197967E+02  0.47000000000E+01 0. -1.
         -5    1    3    3    0  503 -0.62959769487E+02  0.36929996250E+02 -0.26132951171E+02  0.77670961973E+02  0.47000000000E+01 0.  1.
          5    1    3    3  503    0 -0.11207260457E+02 -0.25221017583E+02  0.22095220259E+02  0.35664985254E+02  0.47000000000E+01 0. -1.
         -5    1    4    4    0  502  0.70818500578E+02 -0.41349531327E+02  0.12085685780E+03  0.14612841559E+03  0.47000000000E+01 0.  1.
<mgrwt>
<rscale>  0 0.11730385E+03</rscale>
<asrwt>0</asrwt>
<pdfrwt beam="1">  1        1 0.12487023E-01 0.11868224E+03</pdfrwt>
<pdfrwt beam="2">  1       -1 0.32507986E-01 0.11868224E+03</pdfrwt>
<totfact> 0.40225053E+03</totfact>
</mgrwt>
</event>
<event>
 8    1  0.7943806E-003  0.1111991E+03  0.7546771E-02  0.1263467E+00
          1   -1    0    0  501    0  0.00000000000E+00  0.00000000000E+00  0.22311738003E+03  0.22311738003E+03  0.00000000000E+00 0. -1.
         -1   -1    0    0    0  501 -0.00000000000E+00 -0.00000000000E+00 -0.10233304638E+03  0.10233304638E+03  0.00000000000E+00 0.  1.
         23    2    1    2    0    0 -0.38914291614E+02 -0.13935846401E+02 -0.57093181517E+02  0.11567517410E+03  0.91720142936E+02 0.  0.
         23    2    1    2    0    0  0.38914291614E+02  0.13935846401E+02  0.17787751517E+03  0.20977525231E+03  0.10323137205E+03 0.  0.
          5    1    4    4  502    0  0.14981351283E+02  0.51286885185E+02  0.14428619194E+03  0.15393303954E+03  0.47000000000E+01 0. -1.
         -5    1    3    3    0  503 -0.19896667006E+02 -0.42743117751E+02 -0.64526627790E+02  0.80053901635E+02  0.47000000000E+01 0.  1.
          5    1    3    3  503    0 -0.19017624608E+02  0.28807271350E+02  0.74334462736E+01  0.35621272463E+02  0.47000000000E+01 0. -1.
         -5    1    4    4    0  502  0.23932940331E+02 -0.37351038785E+02  0.33591323232E+02  0.55842212775E+02  0.47000000000E+01 0.  1.
<mgrwt>
<rscale>  0 0.10845001E+03</rscale>
<asrwt>0</asrwt>
<pdfrwt beam="1">  1        1 0.34325751E-01 0.11119913E+03</pdfrwt>
<pdfrwt beam="2">  1       -1 0.15743546E-01 0.11119913E+03</pdfrwt>
<totfact> 0.36177339E+03</totfact>
</mgrwt>
</event>
<event>
 8    1  0.7943806E-003  0.1750034E+03  0.7546771E-02  0.1172757E+00
          2   -1    0    0  501    0  0.00000000000E+00  0.00000000000E+00  0.77569579100E+03  0.77569579100E+03  0.00000000000E+00 0. -1.
         -2   -1    0    0    0  501 -0.00000000000E+00 -0.00000000000E+00 -0.58272839468E+02  0.58272839468E+02  0.00000000000E+00 0.  1.
         23    2    1    2    0    0 -0.12307703849E+03  0.85027094323E+02  0.12168685231E+03  0.21305986454E+03  0.90604920850E+02 0.  0.
         23    2    1    2    0    0  0.12307703849E+03 -0.85027094323E+02  0.59573609922E+03  0.62090876593E+03  0.90821977029E+02 0.  0.
          5    1    4    4  502    0  0.98352519936E+02 -0.93881884498E+02  0.56013423588E+03  0.57641953352E+03  0.47000000000E+01 0. -1.
         -5    1    4    4    0  502  0.24724518553E+02  0.88547901743E+01  0.35601863343E+02  0.44489232408E+02  0.47000000000E+01 0.  1.
          5    1    3    3  503    0 -0.21785801020E+02 -0.19005491975E+01 -0.10883879698E+02  0.24875330161E+02  0.47000000000E+01 0. -1.
         -5    1    3    3    0  503 -0.10129123747E+03  0.86927643521E+02  0.13257073201E+03  0.18818453438E+03  0.47000000000E+01 0.  1.
<mgrwt>
<rscale>  0 0.17497527E+03</rscale>
<asrwt>0</asrwt>
<pdfrwt beam="1">  1        2 0.11933781E+00 0.17500342E+03</pdfrwt>
<pdfrwt beam="2">  1       -2 0.89650528E-02 0.17500342E+03</pdfrwt>
<totfact> 0.28797602E+03</totfact>
</mgrwt>
</event>
<event>
 8    1  0.7943806E-003  0.1041924E+03  0.7546771E-02  0.1273605E+00
         -1   -1    0    0    0  501 -0.00000000000E+00  0.00000000000E+00  0.20920738662E+02  0.20920738662E+02  0.00000000000E+00 0.  1.
          1   -1    0    0  501    0  0.00000000000E+00 -0.00000000000E+00 -0.60469820484E+03  0.60469820484E+03  0.00000000000E+00 0. -1.
         23    2    1    2    0    0 -0.18096848262E+02  0.43381885698E+02 -0.41729008759E+03  0.42921605038E+03  0.88802684544E+02 0.  0.
         23    2    1    2    0    0  0.18096848262E+02 -0.43381885698E+02 -0.16648737859E+03  0.19640289312E+03  0.92986909145E+02 0.  0.
          5    1    4    4  502    0 -0.18911946718E+02 -0.23861163784E+02 -0.14666468573E+03  0.14986539596E+03  0.47000000000E+01 0. -1.
         -5    1    4    4    0  502  0.37008794979E+02 -0.19520721914E+02 -0.19822692862E+02  0.46537497162E+02  0.47000000000E+01 0.  1.
          5    1    3    3  503    0  0.13181688395E+01 -0.22055614841E+02 -0.41511720201E+02  0.47259926250E+02  0.47000000000E+01 0. -1.
         -5    1    3    3    0  503 -0.19415017101E+02  0.65437500538E+02 -0.37577836739E+03  0.38195612413E+03  0.47000000000E+01 0.  1.
<mgrwt>
<rscale>  0 0.10325055E+03</rscale>
<asrwt>0</asrwt>
<pdfrwt beam="1">  1        1 0.93030484E-01 0.10419237E+03</pdfrwt>
<pdfrwt beam="2">  1       -1 0.32185755E-02 0.10419237E+03</pdfrwt>
<totfact> 0.11055394E+04</totfact>
</mgrwt>
</event>
<event>
 8    1  0.7943806E-003  0.1032668E+03  0.7546771E-02  0.1274694E+00
          1   -1    0    0  501    0  0.00000000000E+00  0.00000000000E+00  0.17022685995E+02  0.17022685995E+02  0.00000000000E+00 0. -1.
         -1   -1    0    0    0  501 -0.00000000000E+00 -0.00000000000E+00 -0.61460203489E+03  0.61460203489E+03  0.00000000000E+00 0.  1.
         23    2    1    2    0    0  0.19153489555E+02 -0.43301782300E+02 -0.31080039484E+03  0.32681952925E+03  0.89287282169E+02 0.  0.
         23    2    1    2    0    0 -0.19153489555E+02  0.43301782300E+02 -0.28677895406E+03  0.30480519163E+03  0.91772195369E+02 0.  0.
          5    1    4    4  502    0 -0.44460523330E+02 -0.76748669515E+01 -0.10842015821E+03  0.11752728375E+03  0.47000000000E+01 0. -1.
         -5    1    3    3    0  503  0.16747169156E+01  0.27489645702E+02 -0.81114326371E+02  0.85791079024E+02  0.47000000000E+01 0.  1.
          5    1    3    3  503    0  0.17478772640E+02 -0.70791428002E+02 -0.22968606846E+03  0.24102845023E+03  0.47000000000E+01 0. -1.
         -5    1    4    4    0  502  0.25307033775E+02  0.50976649251E+02 -0.17835879584E+03  0.18727790789E+03  0.47000000000E+01 0.  1.
<mgrwt>
<rscale>  0 0.10271189E+03</rscale>
<asrwt>0</asrwt>
<pdfrwt beam="1">  1        1 0.26188750E-02 0.10326682E+03</pdfrwt>
<pdfrwt beam="2">  1       -1 0.94554150E-01 0.10326682E+03</pdfrwt>
<totfact> 0.44164515E+03</totfact>
</mgrwt>
</event>
<event>
 8    1  0.7943806E-003  0.9514870E+02  0.7546771E-02  0.1291567E+00
          1   -1    0    0  501    0  0.00000000000E+00  0.00000000000E+00  0.21098441214E+03  0.21098441214E+03  0.00000000000E+00 0. -1.
         -1   -1    0    0    0  501 -0.00000000000E+00 -0.00000000000E+00 -0.44097599842E+02  0.44097599842E+02  0.00000000000E+00 0.  1.
         23    2    1    2    0    0 -0.17505638504E+02 -0.11162053177E+02  0.10840942415E+03  0.14339996328E+03  0.91541834219E+02 0.  0.
         23    2    1    2    0    0  0.17505638504E+02  0.11162053177E+02  0.58477388151E+02  0.11168204871E+03  0.92855997483E+02 0.  0.
          5    1    4    4  502    0  0.20108166071E+02  0.41356512683E+02  0.65548779083E+02  0.80208677357E+02  0.47000000000E+01 0. -1.
         -5    1    4    4    0  502 -0.26025275665E+01 -0.30194459506E+02 -0.70713909325E+01  0.31473371353E+02  0.47000000000E+01 0.  1.
          5    1    3    3  503    0  0.12932882368E+02  0.21835058140E+02  0.91709697080E+02  0.95272177202E+02  0.47000000000E+01 0. -1.
         -5    1    3    3    0  503 -0.30438520872E+02 -0.32997111316E+02  0.16699727070E+02  0.48127786073E+02  0.47000000000E+01 0.  1.
<mgrwt>
<rscale>  0 0.94826553E+02</rscale>
<asrwt>0</asrwt>
<pdfrwt beam="1">  1        1 0.32459140E-01 0.95148700E+02</pdfrwt>
<pdfrwt beam="2">  1       -1 0.67842463E-02 0.95148700E+02</pdfrwt>
<totfact> 0.13763394E+04</totfact>
</mgrwt>
</event>
<event>
 7    1  0.7943806E-003  0.3277094E+03  0.7546771E-02  0.1100144E+00
          1   -1    0    0  501    0  0.00000000000E+00  0.00000000000E+00  0.32264559521E+03  0.32264559521E+03  0.00000000000E+00 0. -1.
         -1   -1    0    0    0  501 -0.00000000000E+00 -0.00000000000E+00 -0.93300916405E+03  0.93300916405E+03  0.00000000000E+00 0.  1.
         23    2    1    2    0    0 -0.65625663581E+02  0.10760656405E+03  0.27259906729E+03  0.31383923333E+03  0.91098367372E+02 0.  0.
          5    1    1    2  502    0 -0.32024092426E+02  0.87069045380E+02 -0.14357561342E+03  0.17100470148E+03  0.47000000000E+01 0. -1.
         -5    1    3    3    0  503 -0.31797775308E+02  0.14485126626E+02  0.15961077768E+02  0.38700948456E+02  0.47000000000E+01 0.  1.
          5    1    3    3  503    0 -0.33827888273E+02  0.93121437422E+02  0.25663798953E+03  0.27513828487E+03  0.47000000000E+01 0. -1.
         -5    1    1    2    0  502  0.97649756007E+02 -0.19467560943E+03 -0.73938702271E+03  0.77081082446E+03  0.47000000000E+01 0.  1.
<mgrwt>
<rscale>  0 0.27199414E+03</rscale>
<asrwt>0</asrwt>
<pdfrwt beam="1">  1        1 0.49637784E-01 0.32770943E+03</pdfrwt>
<pdfrwt beam="2">  1       -1 0.14353987E+00 0.32770943E+03</pdfrwt>
<totfact> 0.33834065E+01</totfact>
</mgrwt>
</event>
<event>
 8    1  0.7943806E-003  0.1109465E+03  0.7546771E-02  0.1259648E+00
          3   -1    0    0  501    0  0.00000000000E+00  0.00000000000E+00  0.25190594907E+03  0.25190594907E+03  0.00000000000E+00 0. -1.
         -3   -1    0    0    0  501 -0.00000000000E+00 -0.00000000000E+00 -0.56502004586E+02  0.56502004586E+02  0.00000000000E+00 0.  1.
         23    2    1    2    0    0 -0.39178057200E+02 -0.46019276788E+02  0.15789137677E+03  0.19297360253E+03  0.93039939881E+02 0.  0.
         23    2    1    2    0    0  0.39178057200E+02  0.46019276788E+02  0.37512567712E+02  0.11543435113E+03  0.90913160111E+02 0.  0.
          5    1    3    3  502    0 -0.56628819538E+02  0.25301406957E+01  0.10185001331E+03  0.11665650443E+03  0.47000000000E+01 0. -1.
         -5    1    4    4    0  503  0.65915098530E+02  0.35648669858E+02  0.41994149814E+02  0.86030381235E+02  0.47000000000E+01 0.  1.
          5    1    4    4  503    0 -0.26737041330E+02  0.10370606930E+02 -0.44815821014E+01  0.29403969890E+02  0.47000000000E+01 0. -1.
         -5    1    3    3    0  502  0.17450762338E+02 -0.48549417484E+02  0.56041363459E+02  0.76317098101E+02  0.47000000000E+01 0.  1.
<mgrwt>
<rscale>  0 0.11049946E+03</rscale>
<asrwt>0</asrwt>
<pdfrwt beam="1">  1        3 0.38754761E-01 0.11094649E+03</pdfrwt>
<pdfrwt beam="2">  1       -3 0.86926163E-02 0.11094649E+03</pdfrwt>
<totfact> 0.13653996E+03</totfact>
</mgrwt>
</event>
<event>
 8    1  0.7943806E-003  0.1176459E+03  0.7546771E-02  0.1248462E+00
         -1   -1    0    0    0  501 -0.00000000000E+00  0.00000000000E+00  0.20112371275E+02  0.20112371275E+02  0.00000000000E+00 0.  1.
          1   -1    0    0  501    0  0.00000000000E+00 -0.00000000000E+00 -0.68110631149E+03  0.68110631149E+03  0.00000000000E+00 0. -1.
         23    2    1    2    0    0  0.56164572903E+02  0.42919615185E+02 -0.37289016819E+03  0.39002043148E+03  0.89846017261E+02 0.  0.
         23    2    1    2    0    0 -0.56164572903E+02 -0.42919615185E+02 -0.28810377202E+03  0.31119825129E+03  0.94042626155E+02 0.  0.
          5    1    4    4  502    0 -0.53510766094E+02 -0.70003891643E+02 -0.24032759494E+03  0.25601443284E+03  0.47000000000E+01 0. -1.
         -5    1    4    4    0  502 -0.26538068095E+01  0.27084276458E+02 -0.47776177087E+02  0.55183818451E+02  0.47000000000E+01 0.  1.
          5    1    3    3  503    0  0.22662276556E+02  0.56520210117E+02 -0.32002287992E+03  0.32579878238E+03  0.47000000000E+01 0. -1.
         -5    1    3    3    0  503  0.33502296347E+02 -0.13600594931E+02 -0.52867288274E+02  0.64221649095E+02  0.47000000000E+01 0.  1.
<mgrwt>
<rscale>  0 0.11680527E+03</rscale>
<asrwt>0</asrwt>
<pdfrwt beam="1">  1        1 0.10478559E+00 0.11764594E+03</pdfrwt>
<pdfrwt beam="2">  1       -1 0.30942110E-02 0.11764594E+03</pdfrwt>
<totfact> 0.10023863E+04</totfact>
</mgrwt>
</event>
<event>
 8    1  0.7943806E-003  0.1040872E+03  0.7546771E-02  0.1277535E+00
          1   -1    0    0  501    0  0.00000000000E+00  0.00000000000E+00  0.83514487174E+02  0.83514487174E+02  0.00000000000E+00 0. -1.
         -1   -1    0    0    0  501 -0.00000000000E+00 -0.00000000000E+00 -0.12159471147E+03  0.12159471147E+03  0.00000000000E+00 0.  1.
         23    2    1    2    0    0  0.40979552160E+01 -0.50694501437E+02  0.24544229241E+00  0.10408746324E+03  0.90815274311E+02 0.  0.
         23    2    1    2    0    0 -0.40979552160E+01  0.50694501437E+02 -0.38325666591E+02  0.10102173541E+03  0.78420715330E+02 0.  0.
          5    1    4    4  502    0  0.15285201182E+02 -0.15623257463E+02 -0.10645462096E+01  0.22381841022E+02  0.47000000000E+01 0. -1.
         -5    1    4    4    0  502 -0.19383156397E+02  0.66317758899E+02 -0.37261120382E+02  0.78639894389E+02  0.47000000000E+01 0.  1.
          5    1    3    3  503    0 -0.79822699003E+01 -0.68504672177E+02 -0.22232742569E+02  0.72615367416E+02  0.47000000000E+01 0. -1.
         -5    1    3    3    0  503  0.12080225116E+02  0.17810170740E+02  0.22478184861E+02  0.31472095820E+02  0.47000000000E+01 0.  1.
<mgrwt>
<rscale>  0 0.10132470E+03</rscale>
<asrwt>0</asrwt>
<pdfrwt beam="1">  1        1 0.12848383E-01 0.10408717E+03</pdfrwt>
<pdfrwt beam="2">  1       -1 0.18706879E-01 0.10408717E+03</pdfrwt>
<totfact> 0.94671735E+03</totfact>
</mgrwt>
</event>
<event>
 8    1  0.7943806E-003  0.1160499E+03  0.7546771E-02  0.1249951E+00
         -1   -1    0    0    0  501 -0.00000000000E+00  0.00000000000E+00  0.14315835259E+03  0.14315835259E+03  0.00000000000E+00 0.  1.
          1   -1    0    0  501    0  0.00000000000E+00 -0.00000000000E+00 -0.12318801130E+03  0.12318801130E+03  0.00000000000E+00 0. -1.
         23    2    1    2    0    0 -0.69437297689E+02 -0.98676709687E+01  0.75139252241E+02  0.13825153339E+03  0.92459018043E+02 0.  0.
         23    2    1    2    0    0  0.69437297689E+02  0.98676709687E+01 -0.55168910946E+02  0.12809483049E+03  0.91900857575E+02 0.  0.
          5    1    3    3  502    0 -0.59966659117E+02  0.22657026176E+02  0.81155860574E+02  0.10352634808E+03  0.47000000000E+01 0. -1.
         -5    1    4    4    0  503  0.64011397837E+02  0.40249623750E+02 -0.15016105257E+02  0.77233831202E+02  0.47000000000E+01 0.  1.
          5    1    4    4  503    0  0.54258998526E+01 -0.30381952782E+02 -0.40152805689E+02  0.50860999290E+02  0.47000000000E+01 0. -1.
         -5    1    3    3    0  502 -0.94706385718E+01 -0.32524697145E+02 -0.60166083336E+01  0.34725185315E+02  0.47000000000E+01 0.  1.
<mgrwt>
<rscale>  0 0.11593869E+03</rscale>
<asrwt>0</asrwt>
<pdfrwt beam="1">  1        1 0.18952002E-01 0.11604990E+03</pdfrwt>
<pdfrwt beam="2">  1       -1 0.22024362E-01 0.11604990E+03</pdfrwt>
<totfact> 0.44653518E+03</totfact>
</mgrwt>
</event>
<event>
 7    1  0.7943806E-003  0.1620339E+03  0.7546771E-02  0.1197515E+00
         -1   -1    0    0    0  501 -0.00000000000E+00  0.00000000000E+00  0.10930010015E+03  0.10930010015E+03  0.00000000000E+00 0.  1.
          1   -1    0    0  501    0  0.00000000000E+00 -0.00000000000E+00 -0.83165952199E+03  0.83165952199E+03  0.00000000000E+00 0. -1.
         23    2    1    2    0    0  0.88959480787E+02  0.31346432249E+00 -0.76334468612E+03  0.77382265848E+03  0.90512482381E+02 0.  0.
          5    1    1    2  502    0 -0.46588867563E+02  0.23533048447E+02 -0.44453396699E+02  0.68720604101E+02  0.47000000000E+01 0. -1.
         -5    1    3    3    0  503  0.91323132616E+01 -0.36782014079E+02 -0.19838655895E+03  0.20202879121E+03  0.47000000000E+01 0.  1.
          5    1    3    3  503    0  0.79827167526E+02  0.37095478401E+02 -0.56495812718E+03  0.57179386728E+03  0.47000000000E+01 0. -1.
         -5    1    1    2    0  502 -0.42370613224E+02 -0.23846512769E+02  0.85438660988E+02  0.98416359553E+02  0.47000000000E+01 0.  1.
<mgrwt>
<rscale>  0 0.15243305E+03</rscale>
<asrwt>0</asrwt>
<pdfrwt beam="1">  1        1 0.12794761E+00 0.16203386E+03</pdfrwt>
<pdfrwt beam="2">  1       -1 0.16815401E-01 0.16203386E+03</pdfrwt>
<totfact> 0.58716958E+02</totfact>
</mgrwt>
</event>
<event>
 8    1  0.7943806E-003  0.1005660E+03  0.7546771E-02  0.1279431E+00
          2   -1    0    0  501    0  0.00000000000E+00  0.00000000000E+00  0.66492603967E+03  0.66492603967E+03  0.00000000000E+00 0. -1.
         -2   -1    0    0    0  501 -0.00000000000E+00 -0.00000000000E+00 -0.15304961564E+02  0.15304961564E+02  0.00000000000E+00 0.  1.
         23    2    1    2    0    0  0.78689507192E+01 -0.41846930923E+02  0.36343748008E+03  0.37709458519E+03  0.91106740924E+02 0.  0.
         23    2    1    2    0    0 -0.78689507192E+01  0.41846930923E+02  0.28618359803E+03  0.30313641604E+03  0.90429801163E+02 0.  0.
          5    1    4    4  502    0 -0.36803728001E+02  0.56082910016E+02  0.19961573733E+03  0.21063793528E+03  0.47000000000E+01 0. -1.
         -5    1    3    3    0  503  0.21924498113E+01 -0.69982718493E+02  0.28265033109E+03  0.29123132968E+03  0.47000000000E+01 0.  1.
          5    1    3    3  503    0  0.56765009079E+01  0.28135787570E+02  0.80787148995E+02  0.85863255514E+02  0.47000000000E+01 0. -1.
         -5    1    4    4    0  502  0.28934777282E+02 -0.14235979094E+02  0.86567860698E+02  0.92498480760E+02  0.47000000000E+01 0.  1.
<mgrwt>
<rscale>  0 0.10041245E+03</rscale>
<asrwt>0</asrwt>
<pdfrwt beam="1">  1        2 0.10229629E+00 0.10056602E+03</pdfrwt>
<pdfrwt beam="2">  1       -2 0.23546100E-02 0.10056602E+03</pdfrwt>
<totfact> 0.24833917E+04</totfact>
</mgrwt>
</event>
<event>
 8    1  0.7943806E-003  0.1267836E+03  0.7546771E-02  0.1237373E+00
          1   -1    0    0  501    0  0.00000000000E+00  0.00000000000E+00  0.69954985154E+02  0.69954985154E+02  0.00000000000E+00 0. -1.
         -1   -1    0    0    0  501 -0.00000000000E+00 -0.00000000000E+00 -0.30085874175E+03  0.30085874175E+03  0.00000000000E+00 0.  1.
         23    2    1    2    0    0  0.86731366158E+02 -0.84773708740E+01 -0.21440136684E+03  0.24296062048E+03  0.73944041745E+02 0.  0.
         23    2    1    2    0    0 -0.86731366158E+02  0.84773708740E+01 -0.16502389761E+02  0.12785310643E+03  0.92086330487E+02 0.  0.
          5    1    4    4  502    0 -0.59520899121E+02  0.11824277614E+02  0.34350599876E+02  0.69889946953E+02  0.47000000000E+01 0. -1.
         -5    1    4    4    0  502 -0.27210467037E+02 -0.33469067401E+01 -0.50852989637E+02  0.57963159474E+02  0.47000000000E+01 0.  1.
          5    1    3    3  503    0  0.30730491021E+02  0.26665738590E+02 -0.12587389554E+03  0.13236975588E+03  0.47000000000E+01 0. -1.
         -5    1    3    3    0  503  0.56000875136E+02 -0.35143109464E+02 -0.88527471295E+02  0.11059086460E+03  0.47000000000E+01 0.  1.
<mgrwt>
<rscale>  0 0.12353734E+03</rscale>
<asrwt>0</asrwt>
<pdfrwt beam="1">  1        1 0.10762306E-01 0.12678363E+03</pdfrwt>
<pdfrwt beam="2">  1       -1 0.46285960E-01 0.12678363E+03</pdfrwt>
<totfact> 0.26522669E+03</totfact>
</mgrwt>
</event>
<event>
 8    1  0.7943806E-003  0.9241590E+02  0.7546771E-02  0.1297879E+00
         -2   -1    0    0    0  501 -0.00000000000E+00  0.00000000000E+00  0.13138672799E+03  0.13138672799E+03  0.00000000000E+00 0.  1.
          2   -1    0    0  501    0  0.00000000000E+00 -0.00000000000E+00 -0.66925231936E+02  0.66925231936E+02  0.00000000000E+00 0. -1.
         23    2    1    2    0    0 -0.11716707651E+02  0.82460025727E+01  0.12015343375E+02  0.93193708517E+02  0.91298527010E+02 0.  0.
         23    2    1    2    0    0  0.11716707651E+02 -0.82460025727E+01  0.52446152683E+02  0.10511825141E+03  0.89966494053E+02 0.  0.
          5    1    3    3  502    0 -0.18372294085E+02  0.38683828438E+02 -0.20678161542E+02  0.47787614895E+02  0.47000000000E+01 0. -1.
         -5    1    4    4    0  503 -0.28651665782E+02 -0.29809941529E+02  0.10635753467E+02  0.42950667258E+02  0.47000000000E+01 0.  1.
          5    1    4    4  503    0  0.40368373433E+02  0.21563938957E+02  0.41810399216E+02  0.62167584154E+02  0.47000000000E+01 0. -1.
         -5    1    3    3    0  502  0.66555864346E+01 -0.30437825866E+02  0.32693504918E+02  0.45406093622E+02  0.47000000000E+01 0.  1.
<mgrwt>
<rscale>  0 0.92085207E+02</rscale>
<asrwt>0</asrwt>
<pdfrwt beam="1">  1        2 0.10296190E-01 0.92415901E+02</pdfrwt>
<pdfrwt beam="2">  1       -2 0.20213343E-01 0.92415901E+02</pdfrwt>
<totfact> 0.11495429E+04</totfact>
</mgrwt>
</event>
<event>
 7    1  0.7943806E-003  0.3627485E+03  0.7546771E-02  0.1060751E+00
          1   -1    0    0  501    0  0.00000000000E+00  0.00000000000E+00  0.96589514092E+03  0.96589514092E+03  0.00000000000E+00 0. -1.
         -1   -1    0    0    0  501 -0.00000000000E+00 -0.00000000000E+00 -0.23501424080E+03  0.23501424080E+03  0.00000000000E+00 0.  1.
         23    2    1    2    0    0 -0.27008546687E+03  0.16899667372E+03 -0.54676138195E+02  0.33564276263E+03  0.90335756360E+02 0.  0.
          5    1    1    2  502    0  0.22086016596E+03 -0.45415634841E+02  0.42891188589E+03  0.48459187844E+03  0.47000000000E+01 0. -1.
         -5    1    3    3    0  503 -0.22719605142E+03  0.15043648504E+03 -0.77625298568E+02  0.28336718016E+03  0.47000000000E+01 0.  1.
          5    1    3    3  503    0 -0.42889415444E+02  0.18560188680E+02  0.22949160373E+02  0.52275582472E+02  0.47000000000E+01 0. -1.
         -5    1    1    2    0  502  0.49225300905E+02 -0.12358103888E+03  0.35664515242E+03  0.38067474065E+03  0.47000000000E+01 0.  1.
<mgrwt>
<rscale>  0 0.35457939E+03</rscale>
<asrwt>0</asrwt>
<pdfrwt beam="1">  1        1 0.14859925E+00 0.36274848E+03</pdfrwt>
<pdfrwt beam="2">  1       -1 0.36156038E-01 0.36274848E+03</pdfrwt>
<totfact> 0.12486724E+02</totfact>
</mgrwt>
</event>
<event>
 8    1  0.7943806E-003  0.1459169E+03  0.7546771E-02  0.1207070E+00
         -1   -1    0    0    0  501 -0.00000000000E+00  0.00000000000E+00  0.20652286249E+02  0.20652286249E+02  0.00000000000E+00 0.  1.
          1   -1    0    0  501    0  0.00000000000E+00 -0.00000000000E+00 -0.12782263911E+04  0.12782263911E+04  0.00000000000E+00 0. -1.
         23    2    1    2    0    0  0.38138494262E+02  0.10437019386E+03 -0.94026980135E+03  0.95152459135E+03  0.94573074998E+02 0.  0.
         23    2    1    2    0    0 -0.38138494262E+02 -0.10437019386E+03 -0.31730430354E+03  0.34735408603E+03  0.87322150267E+02 0.  0.
          5    1    4    4  502    0 -0.66247308314E+02 -0.69801787939E+02 -0.22449449438E+03  0.24429667101E+03  0.47000000000E+01 0. -1.
         -5    1    3    3    0  503  0.67051532754E+02  0.65986389957E+02 -0.51707475812E+03  0.52558396778E+03  0.47000000000E+01 0.  1.
          5    1    3    3  503    0 -0.28913038492E+02  0.38383803903E+02 -0.42319504323E+03  0.42594062357E+03  0.47000000000E+01 0. -1.
         -5    1    4    4    0  502  0.28108814052E+02 -0.34568405921E+02 -0.92809809162E+02  0.10305741503E+03  0.47000000000E+01 0.  1.
<mgrwt>
<rscale>  0 0.14475522E+03</rscale>
<asrwt>0</asrwt>
<pdfrwt beam="1">  1        1 0.19665021E+00 0.14591692E+03</pdfrwt>
<pdfrwt beam="2">  1       -1 0.31772748E-02 0.14591692E+03</pdfrwt>
<totfact> 0.34596568E+03</totfact>
</mgrwt>
</event>
<event>
 8    1  0.7943806E-003  0.1092851E+03  0.7546771E-02  0.1262493E+00
          3   -1    0    0  501    0  0.00000000000E+00  0.00000000000E+00  0.76076425684E+02  0.76076425684E+02  0.00000000000E+00 0. -1.
         -3   -1    0    0    0  501 -0.00000000000E+00 -0.00000000000E+00 -0.20589716061E+03  0.20589716061E+03  0.00000000000E+00 0.  1.
         23    2    1    2    0    0 -0.56091145355E+02 -0.20125000560E+02 -0.13459754677E+03  0.17258414268E+03  0.90097472062E+02 0.  0.
         23    2    1    2    0    0  0.56091145355E+02  0.20125000560E+02  0.47768118446E+01  0.10938944362E+03  0.91607861065E+02 0.  0.
          5    1    4    4  502    0  0.66046656455E+02  0.39292163984E+02  0.23415417422E+02  0.80476125357E+02  0.47000000000E+01 0. -1.
         -5    1    3    3    0  503 -0.54991512606E+02 -0.51905577665E+02 -0.98040855787E+02  0.12390461999E+03  0.47000000000E+01 0.  1.
          5    1    3    3  503    0 -0.10996327487E+01  0.31780577105E+02 -0.36556690987E+02  0.48679522689E+02  0.47000000000E+01 0. -1.
         -5    1    4    4    0  502 -0.99555110997E+01 -0.19167163424E+02 -0.18638605577E+02  0.28913318261E+02  0.47000000000E+01 0.  1.
<mgrwt>
<rscale>  0 0.10896798E+03</rscale>
<asrwt>0</asrwt>
<pdfrwt beam="1">  1        3 0.11704066E-01 0.10928510E+03</pdfrwt>
<pdfrwt beam="2">  1       -3 0.31676486E-01 0.10928510E+03</pdfrwt>
<totfact> 0.12191285E+03</totfact>
</mgrwt>
</event>
<event>
 8    1  0.7943806E-003  0.9361539E+02  0.7546771E-02  0.1296128E+00
          1   -1    0    0  501    0  0.00000000000E+00  0.00000000000E+00  0.15062407346E+03  0.15062407346E+03  0.00000000000E+00 0. -1.
         -1   -1    0    0    0  501 -0.00000000000E+00 -0.00000000000E+00 -0.11216737843E+03  0.11216737843E+03  0.00000000000E+00 0.  1.
         23    2    1    2    0    0  0.13638600048E+02 -0.19608436602E+02 -0.73671767084E+02  0.11672080416E+03  0.87325338026E+02 0.  0.
         23    2    1    2    0    0 -0.13638600048E+02  0.19608436602E+02  0.11212846211E+03  0.14607064773E+03  0.90517069740E+02 0.  0.
          5    1    4    4  502    0 -0.45864023349E+02 -0.11806104884E+02  0.66830650814E+02  0.82044613708E+02  0.47000000000E+01 0. -1.
         -5    1    3    3    0  503  0.45671651650E+02 -0.17002621090E+02 -0.67932221255E+02  0.83736882991E+02  0.47000000000E+01 0.  1.
          5    1    3    3  503    0 -0.32033051602E+02 -0.26058155121E+01 -0.57395458284E+01  0.32983921169E+02  0.47000000000E+01 0. -1.
         -5    1    4    4    0  502  0.32225423301E+02  0.31414541487E+02  0.45297811297E+02  0.64026034018E+02  0.47000000000E+01 0.  1.
<mgrwt>
<rscale>  0 0.92835084E+02</rscale>
<asrwt>0</asrwt>
<pdfrwt beam="1">  1        1 0.23172934E-01 0.93615395E+02</pdfrwt>
<pdfrwt beam="2">  1       -1 0.17256520E-01 0.93615395E+02</pdfrwt>
<totfact> 0.50385744E+03</totfact>
</mgrwt>
</event>
<event>
 8    1  0.7943806E-003  0.1023229E+03  0.7546771E-02  0.1275885E+00
         -1   -1    0    0    0  501 -0.00000000000E+00  0.00000000000E+00  0.26588512517E+03  0.26588512517E+03  0.00000000000E+00 0.  1.
          1   -1    0    0  501    0  0.00000000000E+00 -0.00000000000E+00 -0.60327870458E+02  0.60327870458E+02  0.00000000000E+00 0. -1.
         23    2    1    2    0    0 -0.45327428656E+02 -0.65909322136E+01  0.19983563123E+03  0.22450891558E+03  0.91498401583E+02 0.  0.
         23    2    1    2    0    0  0.45327428656E+02  0.65909322136E+01  0.57216234873E+01  0.10170408005E+03  0.90625419982E+02 0.  0.
          5    1    3    3  502    0 -0.25317423697E+02  0.38635288113E+02  0.58432427459E+02  0.74633075837E+02  0.47000000000E+01 0.  1.
         -5    1    4    4    0  503  0.63991510163E+02 -0.12792082887E+02  0.23035731039E+02  0.69363431735E+02  0.47000000000E+01 0.  1.
          5    1    4    4  503    0 -0.18664081507E+02  0.19383015101E+02 -0.17314107552E+02  0.32340648312E+02  0.47000000000E+01 0. -1.
         -5    1    3    3    0  502 -0.20010004960E+02 -0.45226220326E+02  0.14140320377E+03  0.14987583975E+03  0.47000000000E+01 0. -1.
<mgrwt>
<rscale>  0 0.10212736E+03</rscale>
<asrwt>0</asrwt>
<pdfrwt beam="1">  1        1 0.92812110E-02 0.10232289E+03</pdfrwt>
<pdfrwt beam="2">  1       -1 0.40905403E-01 0.10232289E+03</pdfrwt>
<totfact> 0.39622856E+03</totfact>
</mgrwt>
</event>
<event>
 8    1  0.7943806E-003  0.9737916E+02  0.7546771E-02  0.1294137E+00
          1   -1    0    0  501    0  0.00000000000E+00  0.00000000000E+00  0.21894756492E+02  0.21894756492E+02  0.00000000000E+00 0. -1.
         -1   -1    0    0    0  501 -0.00000000000E+00 -0.00000000000E+00 -0.75715853383E+03  0.75715853383E+03  0.00000000000E+00 0.  1.
         23    2    1    2    0    0  0.33131767682E+02  0.17432553907E+02 -0.76786531342E+02  0.11341451062E+03  0.74599409229E+02 0.  0.
         23    2    1    2    0    0 -0.33131767682E+02 -0.17432553907E+02 -0.65847724599E+03  0.66563877970E+03  0.89894903010E+02 0.  0.
          5    1    3    3  502    0  0.51095785304E+02 -0.78248001358E+01 -0.43896713021E+02  0.67978071369E+02  0.47000000000E+01 0. -1.
         -5    1    3    3    0  502 -0.17964017622E+02  0.25257354042E+02 -0.32889818321E+02  0.45436439248E+02  0.47000000000E+01 0.  1.
          5    1    4    4  503    0  0.27193661374E+02  0.22325685473E+01 -0.10781869027E+03  0.11131684308E+03  0.47000000000E+01 0. -1.
         -5    1    4    4    0  503 -0.60325429056E+02 -0.19665122454E+02 -0.55065855573E+03  0.55432193663E+03  0.47000000000E+01 0.  1.
<mgrwt>
<rscale>  0 0.93697448E+02</rscale>
<asrwt>0</asrwt>
<pdfrwt beam="1">  1        1 0.33684251E-02 0.97379164E+02</pdfrwt>
<pdfrwt beam="2">  1       -1 0.11648589E+00 0.97379164E+02</pdfrwt>
<totfact> 0.19591954E+03</totfact>
</mgrwt>
</event>
<event>
 8    1  0.7943806E-003  0.1230296E+03  0.7546771E-02  0.1238535E+00
          1   -1    0    0  501    0  0.00000000000E+00  0.00000000000E+00  0.64879738985E+02  0.64879738985E+02  0.00000000000E+00 0. -1.
         -1   -1    0    0    0  501 -0.00000000000E+00 -0.00000000000E+00 -0.26827416010E+03  0.26827416010E+03  0.00000000000E+00 0.  1.
         23    2    1    2    0    0 -0.33672329672E+02 -0.74318857073E+02 -0.16294928921E+03  0.20364675933E+03  0.90897818630E+02 0.  0.
         23    2    1    2    0    0  0.33672329672E+02  0.74318857073E+02 -0.40445131903E+02  0.12950713975E+03  0.92082420954E+02 0.  0.
          5    1    4    4  502    0 -0.25828710622E+02  0.12599630809E+02  0.89366481770E+01  0.30460247365E+02  0.47000000000E+01 0. -1.
         -5    1    3    3    0  503  0.21689215061E+02 -0.49624332841E+01 -0.75958746846E+02  0.79289778764E+02  0.47000000000E+01 0.  1.
          5    1    3    3  503    0 -0.55361544733E+02 -0.69356423789E+02 -0.86990542362E+02  0.12435698057E+03  0.47000000000E+01 0. -1.
         -5    1    4    4    0  502  0.59501040294E+02  0.61719226264E+02 -0.49381780080E+02  0.99046892382E+02  0.47000000000E+01 0.  1.
<mgrwt>
<rscale>  0 0.12280801E+03</rscale>
<asrwt>0</asrwt>
<pdfrwt beam="1">  1        1 0.99814982E-02 0.12302963E+03</pdfrwt>
<pdfrwt beam="2">  1       -1 0.41272948E-01 0.12302963E+03</pdfrwt>
<totfact> 0.35850567E+03</totfact>
</mgrwt>
</event>
<event>
 8    1  0.7943806E-003  0.1041250E+03  0.7546771E-02  0.1272306E+00
         -2   -1    0    0    0  501 -0.00000000000E+00  0.00000000000E+00  0.66249745054E+02  0.66249745054E+02  0.00000000000E+00 0.  1.
          2   -1    0    0  501    0  0.00000000000E+00 -0.00000000000E+00 -0.17578502066E+03  0.17578502066E+03  0.00000000000E+00 0. -1.
         23    2    1    2    0    0  0.19209356425E+02 -0.28774925985E+02 -0.21390576699E+02  0.10629946554E+03  0.98209082384E+02 0.  0.
         23    2    1    2    0    0 -0.19209356425E+02  0.28774925985E+02 -0.88144698908E+02  0.13573530018E+03  0.97250131251E+02 0.  0.
          5    1    3    3  502    0  0.32846015068E+02  0.29255556383E+02 -0.11314981192E+02  0.45660344770E+02  0.47000000000E+01 0. -1.
         -5    1    3    3    0  502 -0.13636658643E+02 -0.58030482368E+02 -0.10075595507E+02  0.60639120769E+02  0.47000000000E+01 0.  1.
          5    1    4    4  503    0  0.18569781650E+02  0.48635349816E+02 -0.73853446166E+02  0.90480138996E+02  0.47000000000E+01 0. -1.
         -5    1    4    4    0  503 -0.37779138075E+02 -0.19860423831E+02 -0.14291252742E+02  0.45255161179E+02  0.47000000000E+01 0.  1.
<mgrwt>
<rscale>  0 0.10389829E+03</rscale>
<asrwt>0</asrwt>
<pdfrwt beam="1">  1        2 0.27043849E-01 0.10412502E+03</pdfrwt>
<pdfrwt beam="2">  1       -2 0.10192268E-01 0.10412502E+03</pdfrwt>
<totfact> 0.11630591E+04</totfact>
</mgrwt>
</event>
<event>
 8    1  0.7943806E-003  0.9417197E+02  0.7546771E-02  0.1302441E+00
          1   -1    0    0  501    0  0.00000000000E+00  0.00000000000E+00  0.33822270127E+02  0.33822270127E+02  0.00000000000E+00 0. -1.
         -1   -1    0    0    0  501 -0.00000000000E+00 -0.00000000000E+00 -0.30313506181E+03  0.30313506181E+03  0.00000000000E+00 0.  1.
         23    2    1    2    0    0  0.20990332966E+02 -0.10710481586E+01 -0.56312539427E+02  0.10972447974E+03  0.91796612872E+02 0.  0.
         23    2    1    2    0    0 -0.20990332966E+02  0.10710481586E+01 -0.21300025226E+03  0.22723285220E+03  0.76314614822E+02 0.  0.
          5    1    3    3  502    0 -0.30761337889E+02  0.14961919742E+02 -0.48766186213E+01  0.34871053329E+02  0.47000000000E+01 0. -1.
         -5    1    4    4    0  503  0.55582674583E+01  0.23425684273E+02 -0.17006246363E+03  0.17182254962E+03  0.47000000000E+01 0.  1.
          5    1    4    4  503    0 -0.26548600424E+02 -0.22354636114E+02 -0.42937788628E+02  0.55410302585E+02  0.47000000000E+01 0. -1.
         -5    1    3    3    0  502  0.51751670855E+02 -0.16032967900E+02 -0.51435920806E+02  0.74853426409E+02  0.47000000000E+01 0.  1.
<mgrwt>
<rscale>  0 0.90170006E+02</rscale>
<asrwt>0</asrwt>
<pdfrwt beam="1">  1        1 0.52034264E-02 0.94171967E+02</pdfrwt>
<pdfrwt beam="2">  1       -1 0.46636161E-01 0.94171967E+02</pdfrwt>
<totfact> 0.67678259E+03</totfact>
</mgrwt>
</event>
<event>
 8    1  0.7943806E-003  0.9676167E+02  0.7546771E-02  0.1290367E+00
          2   -1    0    0  501    0  0.00000000000E+00  0.00000000000E+00  0.70742508736E+03  0.70742508736E+03  0.00000000000E+00 0. -1.
         -2   -1    0    0    0  501 -0.00000000000E+00 -0.00000000000E+00 -0.38293169430E+02  0.38293169430E+02  0.00000000000E+00 0.  1.
         23    2    1    2    0    0  0.16622748651E+02  0.14219506954E+02  0.63737661308E+03  0.64387907259E+03  0.88616042927E+02 0.  0.
         23    2    1    2    0    0 -0.16622748651E+02 -0.14219506954E+02  0.31755304845E+02  0.10183918420E+03  0.94256617283E+02 0.  0.
          5    1    3    3  502    0 -0.12854874513E+02  0.44763631710E+02  0.26990235786E+03  0.27393138429E+03  0.47000000000E+01 0. -1.
         -5    1    3    3    0  502  0.29477623164E+02 -0.30544124756E+02  0.36747425522E+03  0.36994768830E+03  0.47000000000E+01 0.  1.
          5    1    4    4  503    0 -0.99852326536E+01 -0.43802973247E+02  0.48999478712E+02  0.66644161413E+02  0.47000000000E+01 0. -1.
         -5    1    4    4    0  503 -0.66375159973E+01  0.29583466292E+02 -0.17244173867E+02  0.35195022785E+02  0.47000000000E+01 0.  1.
<mgrwt>
<rscale>  0 0.95360098E+02</rscale>
<asrwt>0</asrwt>
<pdfrwt beam="1">  1        2 0.10883462E+00 0.96761666E+02</pdfrwt>
<pdfrwt beam="2">  1       -2 0.58912573E-02 0.96761666E+02</pdfrwt>
<totfact> 0.59788944E+03</totfact>
</mgrwt>
</event>
<event>
 8    1  0.7943806E-003  0.9896476E+02  0.7546771E-02  0.1286967E+00
          1   -1    0    0  501    0  0.00000000000E+00  0.00000000000E+00  0.20814467452E+03  0.20814467452E+03  0.00000000000E+00 0. -1.
         -1   -1    0    0    0  501 -0.00000000000E+00 -0.00000000000E+00 -0.54826175605E+02  0.54826175605E+02  0.00000000000E+00 0.  1.
         23    2    1    2    0    0  0.23383716693E+02 -0.27789158053E+02  0.19013098397E+02  0.10077460913E+03  0.92059700316E+02 0.  0.
         23    2    1    2    0    0 -0.23383716693E+02  0.27789158053E+02  0.13430540051E+03  0.16219624099E+03  0.83370525212E+02 0.  0.
          5    1    4    4  502    0  0.71456443318E+01  0.31396935052E+02  0.99751883081E+01  0.34035601146E+02  0.47000000000E+01 0.  1.
         -5    1    4    4    0  502 -0.30529361024E+02 -0.36077769992E+01  0.12433021220E+03  0.12816063985E+03  0.47000000000E+01 0. -1.
          5    1    3    3  503    0 -0.14776820351E+02 -0.50763774567E+02  0.28439112557E+01  0.53155367173E+02  0.47000000000E+01 0. -1.
         -5    1    3    3    0  503  0.38160537044E+02  0.22974616514E+02  0.16169187141E+02  0.47619241954E+02  0.47000000000E+01 0.  1.
<mgrwt>
<rscale>  0 0.96893919E+02</rscale>
<asrwt>0</asrwt>
<pdfrwt beam="1">  1        1 0.32022257E-01 0.98964761E+02</pdfrwt>
<pdfrwt beam="2">  1       -1 0.84347963E-02 0.98964761E+02</pdfrwt>
<totfact> 0.10150558E+04</totfact>
</mgrwt>
</event>
<event>
 8    1  0.7943806E-003  0.1077313E+03  0.7546771E-02  0.1265747E+00
          1   -1    0    0  501    0  0.00000000000E+00  0.00000000000E+00  0.39799987842E+03  0.39799987842E+03  0.00000000000E+00 0. -1.
         -1   -1    0    0    0  501 -0.00000000000E+00 -0.00000000000E+00 -0.34156435398E+02  0.34156435398E+02  0.00000000000E+00 0.  1.
         23    2    1    2    0    0  0.44556413574E+02 -0.20543239636E+02  0.27006673026E+03  0.29076117824E+03  0.95909985362E+02 0.  0.
         23    2    1    2    0    0 -0.44556413574E+02  0.20543239636E+02  0.93776712767E+02  0.14139513558E+03  0.93761473025E+02 0.  0.
          5    1    4    4  502    0 -0.47740966766E+02 -0.28123425101E+02  0.60461165198E+02  0.82144807774E+02  0.47000000000E+01 0. -1.
         -5    1    3    3    0  503  0.39129979996E+02  0.33893670406E+02  0.11325875318E+03  0.12461770099E+03  0.47000000000E+01 0.  1.
          5    1    3    3  503    0  0.54264335780E+01 -0.54436910043E+02  0.15680797708E+03  0.16614347725E+03  0.47000000000E+01 0. -1.
         -5    1    4    4    0  502  0.31845531914E+01  0.48666664737E+02  0.33315547569E+02  0.59250327809E+02  0.47000000000E+01 0.  1.
<mgrwt>
<rscale>  0 0.10725100E+03</rscale>
<asrwt>0</asrwt>
<pdfrwt beam="1">  1        1 0.61230747E-01 0.10773126E+03</pdfrwt>
<pdfrwt beam="2">  1       -1 0.52548365E-02 0.10773126E+03</pdfrwt>
<totfact> 0.93002061E+03</totfact>
</mgrwt>
</event>
<event>
 8    1  0.7943806E-003  0.9826737E+02  0.7546771E-02  0.1292357E+00
         -2   -1    0    0    0  501 -0.00000000000E+00  0.00000000000E+00  0.92767412367E+01  0.92767412367E+01  0.00000000000E+00 0.  1.
          2   -1    0    0  501    0  0.00000000000E+00 -0.00000000000E+00 -0.94896653746E+03  0.94896653746E+03  0.00000000000E+00 0. -1.
         23    2    1    2    0    0  0.10614647409E+02 -0.31458679390E+02 -0.54906967482E+03  0.55545232240E+03  0.77119747195E+02 0.  0.
         23    2    1    2    0    0 -0.10614647409E+02  0.31458679390E+02 -0.39062012141E+03  0.40279095630E+03  0.92488680272E+02 0.  0.
          5    1    3    3  502    0  0.35987583711E+02 -0.34078352239E+02 -0.45990589559E+03  0.46259265350E+03  0.47000000000E+01 0. -1.
         -5    1    4    4    0  503 -0.41553213088E+02  0.33917277244E+02 -0.13644089307E+03  0.14668080487E+03  0.47000000000E+01 0.  1.
          5    1    4    4  503    0  0.30938565679E+02 -0.24585978542E+01 -0.25417922834E+03  0.25611015143E+03  0.47000000000E+01 0. -1.
         -5    1    3    3    0  502 -0.25372936302E+02  0.26196728492E+01 -0.89163779230E+02  0.92859668904E+02  0.47000000000E+01 0.  1.
<mgrwt>
<rscale>  0 0.94477608E+02</rscale>
<asrwt>0</asrwt>
<pdfrwt beam="1">  1        2 0.14599485E+00 0.98267366E+02</pdfrwt>
<pdfrwt beam="2">  1       -2 0.14271910E-02 0.98267366E+02</pdfrwt>
<totfact> 0.32873278E+04</totfact>
</mgrwt>
</event>
<event>
 8    1  0.7943806E-003  0.1178078E+03  0.7546771E-02  0.1247818E+00
          2   -1    0    0  501    0  0.00000000000E+00  0.00000000000E+00  0.94416886823E+03  0.94416886823E+03  0.00000000000E+00 0. -1.
         -2   -1    0    0    0  501 -0.00000000000E+00 -0.00000000000E+00 -0.14420024731E+02  0.14420024731E+02  0.00000000000E+00 0.  1.
         23    2    1    2    0    0  0.60679212923E+02 -0.38191436062E+02  0.44853886769E+03  0.46375186674E+03  0.93477940748E+02 0.  0.
         23    2    1    2    0    0 -0.60679212923E+02  0.38191436062E+02  0.48120997581E+03  0.49483702622E+03  0.90333211121E+02 0.  0.
          5    1    4    4  502    0 -0.99015981262E+01 -0.25315689923E+02  0.20566306001E+03  0.20750496393E+03  0.47000000000E+01 0. -1.
         -5    1    3    3    0  503  0.80355651092E+02 -0.47909679082E+02  0.38911372393E+03  0.40022986915E+03  0.47000000000E+01 0.  1.
          5    1    3    3  503    0 -0.19676438169E+02  0.97182430202E+01  0.59425143767E+02  0.63521997593E+02  0.47000000000E+01 0. -1.
         -5    1    4    4    0  502 -0.50777614797E+02  0.63507125985E+02  0.27554691579E+03  0.28733206229E+03  0.47000000000E+01 0.  1.
<mgrwt>
<rscale>  0 0.11718300E+03</rscale>
<asrwt>0</asrwt>
<pdfrwt beam="1">  1        2 0.14525670E+00 0.11780780E+03</pdfrwt>
<pdfrwt beam="2">  1       -2 0.22184661E-02 0.11780780E+03</pdfrwt>
<totfact> 0.17819350E+04</totfact>
</mgrwt>
</event>
<event>
 8    1  0.7943806E-003  0.1014250E+03  0.7546771E-02  0.1278102E+00
         -1   -1    0    0    0  501 -0.00000000000E+00  0.00000000000E+00  0.59092779682E+02  0.59092779682E+02  0.00000000000E+00 0.  1.
          1   -1    0    0  501    0  0.00000000000E+00 -0.00000000000E+00 -0.17162683758E+03  0.17162683758E+03  0.00000000000E+00 0. -1.
         23    2    1    2    0    0 -0.20901292043E+02 -0.40803383188E+02 -0.59339533826E+02  0.11750834792E+03  0.90472379589E+02 0.  0.
         23    2    1    2    0    0  0.20901292043E+02  0.40803383188E+02 -0.53194524069E+02  0.11321126934E+03  0.88799515905E+02 0.  0.
          5    1    4    4  502    0 -0.28821630899E+02  0.19981558614E+02 -0.46877417737E+02  0.58732711380E+02  0.47000000000E+01 0. -1.
         -5    1    3    3    0  503  0.39237269444E+01 -0.25813693593E+02  0.19792176424E+02  0.33099284851E+02  0.47000000000E+01 0.  1.
          5    1    3    3  503    0 -0.24825018988E+02 -0.14989689595E+02 -0.79131710250E+02  0.84409063074E+02  0.47000000000E+01 0. -1.
         -5    1    4    4    0  502  0.49722922943E+02  0.20821824574E+02 -0.63171063324E+01  0.54478557956E+02  0.47000000000E+01 0.  1.
<mgrwt>
<rscale>  0 0.10105060E+03</rscale>
<asrwt>0</asrwt>
<pdfrwt beam="1">  1        1 0.26404128E-01 0.10142500E+03</pdfrwt>
<pdfrwt beam="2">  1       -1 0.90911971E-02 0.10142500E+03</pdfrwt>
<totfact> 0.11531736E+04</totfact>
</mgrwt>
</event>
<event>
 8    1  0.7943806E-003  0.9925661E+02  0.7546771E-02  0.1283535E+00
          3   -1    0    0  501    0  0.00000000000E+00  0.00000000000E+00  0.37387413348E+02  0.37387413348E+02  0.00000000000E+00 0. -1.
         -3   -1    0    0    0  501 -0.00000000000E+00 -0.00000000000E+00 -0.35225855061E+03  0.35225855061E+03  0.00000000000E+00 0.  1.
         23    2    1    2    0    0  0.26948572538E+02  0.12238766498E+02 -0.57075432272E+02  0.11449663690E+03  0.94741025560E+02 0.  0.
         23    2    1    2    0    0 -0.26948572538E+02 -0.12238766498E+02 -0.25779570499E+03  0.27514932706E+03  0.91501440995E+02 0.  0.
          5    1    4    4  502    0 -0.58393503610E+02 -0.18745084053E+02 -0.13900703343E+03  0.15200731819E+03  0.47000000000E+01 0. -1.
         -5    1    4    4    0  502  0.31444931072E+02  0.65063175550E+01 -0.11878867156E+03  0.12314200887E+03  0.47000000000E+01 0.  1.
          5    1    3    3  503    0  0.13350892248E+02  0.31643142794E+02  0.15525547195E+02  0.37982462076E+02  0.47000000000E+01 0. -1.
         -5    1    3    3    0  503  0.13597680290E+02 -0.19404376296E+02 -0.72600979467E+02  0.76514174819E+02  0.47000000000E+01 0.  1.
<mgrwt>
<rscale>  0 0.98475604E+02</rscale>
<asrwt>0</asrwt>
<pdfrwt beam="1">  1        3 0.57519098E-02 0.99256611E+02</pdfrwt>
<pdfrwt beam="2">  1       -3 0.54193623E-01 0.99256611E+02</pdfrwt>
<totfact> 0.13457512E+03</totfact>
</mgrwt>
</event>
<event>
 8    1  0.7943806E-003  0.2224790E+03  0.7546771E-02  0.1132254E+00
         -1   -1    0    0    0  501 -0.00000000000E+00  0.00000000000E+00  0.11195288628E+03  0.11195288628E+03  0.00000000000E+00 0.  1.
          1   -1    0    0  501    0  0.00000000000E+00 -0.00000000000E+00 -0.58386026035E+03  0.58386026035E+03  0.00000000000E+00 0. -1.
         23    2    1    2    0    0  0.18902487088E+03  0.76078006645E+02 -0.63652297518E+02  0.23140549494E+03  0.89323139230E+02 0.  0.
         23    2    1    2    0    0 -0.18902487088E+03 -0.76078006645E+02 -0.40825507655E+03  0.46440765168E+03  0.86510083244E+02 0.  0.
          5    1    4    4  502    0 -0.13488623118E+03 -0.91688756480E+02 -0.27685338585E+03  0.32135807238E+03  0.47000000000E+01 0. -1.
         -5    1    4    4    0  502 -0.54138639704E+02  0.15610749835E+02 -0.13140169070E+03  0.14304957930E+03  0.47000000000E+01 0.  1.
          5    1    3    3  503    0  0.66560586300E+02  0.46910957109E+01 -0.59484791217E+02  0.89514515101E+02  0.47000000000E+01 0. -1.
         -5    1    3    3    0  503  0.12246428458E+03  0.71386910934E+02 -0.41675063008E+01  0.14189097984E+03  0.47000000000E+01 0.  1.
<mgrwt>
<rscale>  0 0.22219983E+03</rscale>
<asrwt>0</asrwt>
<pdfrwt beam="1">  1        1 0.89824656E-01 0.22247896E+03</pdfrwt>
<pdfrwt beam="2">  1       -1 0.17223521E-01 0.22247896E+03</pdfrwt>
<totfact> 0.94199447E+02</totfact>
</mgrwt>
</event>
<event>
 8    1  0.7943806E-003  0.1098670E+03  0.7546771E-02  0.1261163E+00
          2   -1    0    0  501    0  0.00000000000E+00  0.00000000000E+00  0.18464009310E+03  0.18464009310E+03  0.00000000000E+00 0. -1.
         -2   -1    0    0    0  501 -0.00000000000E+00 -0.00000000000E+00 -0.95216325085E+02  0.95216325085E+02  0.00000000000E+00 0.  1.
         23    2    1    2    0    0  0.53687510831E+02 -0.26343717323E+02  0.12372977618E+03  0.16546846548E+03  0.92165152265E+02 0.  0.
         23    2    1    2    0    0 -0.53687510831E+02  0.26343717323E+02 -0.34306008166E+02  0.11438795271E+03  0.91276290825E+02 0.  0.
          5    1    3    3  502    0  0.76801668175E+02 -0.21284643278E+02  0.11461787834E+03  0.13968135276E+03  0.47000000000E+01 0. -1.
         -5    1    3    3    0  502 -0.23114157344E+02 -0.50590740450E+01  0.91118978384E+01  0.25787112714E+02  0.47000000000E+01 0.  1.
          5    1    4    4  503    0  0.35100530541E+01 -0.28420201976E+02 -0.15344791397E+02  0.32826528537E+02  0.47000000000E+01 0. -1.
         -5    1    4    4    0  503 -0.57197563885E+02  0.54763919298E+02 -0.18961216769E+02  0.81561424170E+02  0.47000000000E+01 0.  1.
<mgrwt>
<rscale>  0 0.10968037E+03</rscale>
<asrwt>0</asrwt>
<pdfrwt beam="1">  1        2 0.28406168E-01 0.10986699E+03</pdfrwt>
<pdfrwt beam="2">  1       -2 0.14648665E-01 0.10986699E+03</pdfrwt>
<totfact> 0.62203612E+03</totfact>
</mgrwt>
</event>
<event>
 8    1  0.8298000E-003  0.1027077E+03  0.7546771E-02  0.1275427E+00
          1   -1    0    0  501    0  0.00000000000E+00  0.00000000000E+00  0.58662059566E+03  0.58662059566E+03  0.00000000000E+00 0. -1.
         -1   -1    0    0    0  501 -0.00000000000E+00 -0.00000000000E+00 -0.54359152158E+02  0.54359152158E+02  0.00000000000E+00 0.  1.
         23    2    1    2    0    0  0.44981505602E+02 -0.21720989673E+01  0.52979386852E+03  0.53965768065E+03  0.92308262343E+02 0.  0.
         23    2    1    2    0    0 -0.44981505602E+02  0.21720989673E+01  0.24675749787E+01  0.10132206717E+03  0.90730471779E+02 0.  0.
          5    1    4    4  502    0  0.10656890797E+02  0.34745486349E+02  0.51323064469E+00  0.36649304889E+02  0.47000000000E+01 0. -1.
         -5    1    3    3    0  503  0.11254128124E+02 -0.39202423892E+02  0.12090299146E+03  0.12768362770E+03  0.47000000000E+01 0.  1.
          5    1    3    3  503    0  0.33727377478E+02  0.37030324925E+02  0.40889087707E+03  0.41197405295E+03  0.47000000000E+01 0. -1.
         -5    1    4    4    0  502 -0.55638396399E+02 -0.32573387382E+02  0.19543443340E+01  0.64672762282E+02  0.47000000000E+01 0.  1.
<mgrwt>
<rscale>  0 0.10235193E+03</rscale>
<asrwt>0</asrwt>
<pdfrwt beam="1">  1        1 0.90249318E-01 0.10270769E+03</pdfrwt>
<pdfrwt beam="2">  1       -1 0.83629468E-02 0.10270769E+03</pdfrwt>
<totfact> 0.28218294E+03</totfact>
</mgrwt>
</event>
