<event>
 8    1  0.3466492E-004  0.1274838E+03  0.7546771E-02  0.1231515E+00
         -2   -1    0    0    0  501 -0.00000000000E+00  0.00000000000E+00  0.61367632100E+02  0.61367632100E+02  0.00000000000E+00 0.  1.
          2   -1    0    0  501    0  0.00000000000E+00 -0.00000000000E+00 -0.31612252904E+03  0.31612252904E+03  0.00000000000E+00 0. -1.
         23    2    1    2    0    0 -0.78619556934E+02 -0.38519736823E+02 -0.50547011020E+02  0.13713908933E+03  0.92667818806E+02 0.  0.
         23    2    1    2    0    0  0.78619556934E+02  0.38519736823E+02 -0.20420788592E+03  0.24035107181E+03  0.91667727089E+02 0.  0.
          5    1    4    4  502    0  0.29243149901E+02 -0.29198511021E+02 -0.52593589741E+02  0.67051402251E+02  0.47000000000E+01 0. -1.
         -5    1    3    3    0  503 -0.90745477134E+02 -0.95077289823E+01 -0.21021485602E+02  0.93750367400E+02  0.47000000000E+01 0.  1.
          5    1    3    3  503    0  0.12125920200E+02 -0.29012007841E+02 -0.29525525418E+02  0.43388721932E+02  0.47000000000E+01 0. -1.
         -5    1    4    4    0  502  0.49376407033E+02  0.67718247845E+02 -0.15161429618E+03  0.17329966956E+03  0.47000000000E+01 0.  1.
<mgrwt>
<rscale>  0 0.12730218E+03</rscale>
<asrwt>0</asrwt>
<pdfrwt beam="1">  1        2 0.48634235E-01 0.12748384E+03</pdfrwt>
<pdfrwt beam="2">  1       -2 0.94411743E-02 0.12748384E+03</pdfrwt>
<totfact> 0.71272477E+03</totfact>
</mgrwt>
</event>
<event>
 8    1  0.4903939E-004  0.1047815E+03  0.7546771E-02  0.1271925E+00
          2   -1    0    0  501    0  0.00000000000E+00  0.00000000000E+00  0.33024871938E+03  0.33024871938E+03  0.00000000000E+00 0. -1.
         -2   -1    0    0    0  501 -0.00000000000E+00 -0.00000000000E+00 -0.80238046581E+02  0.80238046581E+02  0.00000000000E+00 0.  1.
         23    2    1    2    0    0 -0.80348665211E+01  0.49722910876E+02  0.28417765341E+03  0.30287968511E+03  0.91881652184E+02 0.  0.
         23    2    1    2    0    0  0.80348665211E+01 -0.49722910876E+02 -0.34166980611E+02  0.10760708085E+03  0.88741052165E+02 0.  0.
          5    1    4    4  502    0  0.21996216535E+02 -0.79056248636E+01  0.24424333649E+02  0.34131664485E+02  0.47000000000E+01 0. -1.
         -5    1    4    4    0  502 -0.13961350014E+02 -0.41817286013E+02 -0.58591314259E+02  0.73475416367E+02  0.47000000000E+01 0.  1.
          5    1    3    3  503    0  0.45655846321E+01  0.73992087768E+02  0.17263289287E+03  0.18793583830E+03  0.47000000000E+01 0. -1.
         -5    1    3    3    0  503 -0.12600451153E+02 -0.24269176892E+02  0.11154476054E+03  0.11494384681E+03  0.47000000000E+01 0.  1.
<mgrwt>
<rscale>  0 0.10408898E+03</rscale>
<asrwt>0</asrwt>
<pdfrwt beam="1">  1        2 0.50807495E-01 0.10478151E+03</pdfrwt>
<pdfrwt beam="2">  1       -2 0.12344315E-01 0.10478151E+03</pdfrwt>
<totfact> 0.44060685E+03</totfact>
</mgrwt>
</event>
<event>
 8    1  0.3466492E-004  0.9974396E+02  0.7546771E-02  0.1281382E+00
          1   -1    0    0  501    0  0.00000000000E+00  0.00000000000E+00  0.41213933205E+03  0.41213933205E+03  0.00000000000E+00 0. -1.
         -1   -1    0    0    0  501 -0.00000000000E+00 -0.00000000000E+00 -0.27618468183E+02  0.27618468183E+02  0.00000000000E+00 0.  1.
         23    2    1    2    0    0  0.24156638822E+02 -0.29298202304E+02  0.27390153760E+03  0.29149770243E+03  0.92233022105E+02 0.  0.
         23    2    1    2    0    0 -0.24156638822E+02  0.29298202304E+02  0.11061932627E+03  0.14826009780E+03  0.91118019069E+02 0.  0.
          5    1    3    3  502    0  0.21586248299E+02  0.29072275306E+02  0.15073697978E+03  0.15509639061E+03  0.47000000000E+01 0. -1.
         -5    1    4    4    0  503  0.34337199863E+02  0.15516339394E+02  0.49852505684E+02  0.62667075930E+02  0.47000000000E+01 0.  1.
          5    1    4    4  503    0 -0.58493838685E+02  0.13781862911E+02  0.60766820587E+02  0.85593021875E+02  0.47000000000E+01 0. -1.
         -5    1    3    3    0  502  0.25703905222E+01 -0.58370477610E+02  0.12316455781E+03  0.13640131182E+03  0.47000000000E+01 0.  1.
<mgrwt>
<rscale>  0 0.99485428E+02</rscale>
<asrwt>0</asrwt>
<pdfrwt beam="1">  1        1 0.63406046E-01 0.99743963E+02</pdfrwt>
<pdfrwt beam="2">  1       -1 0.42489954E-02 0.99743963E+02</pdfrwt>
<totfact> 0.12079214E+04</totfact>
</mgrwt>
</event>
<event>
 8    1  0.3466492E-004  0.1524542E+03  0.7546771E-02  0.1197798E+00
          1   -1    0    0  501    0  0.00000000000E+00  0.00000000000E+00  0.11478268524E+04  0.11478268524E+04  0.00000000000E+00 0. -1.
         -1   -1    0    0    0  501 -0.00000000000E+00 -0.00000000000E+00 -0.25223470953E+02  0.25223470953E+02  0.00000000000E+00 0.  1.
         23    2    1    2    0    0  0.10530667575E+03  0.61443635887E+02  0.29881048426E+03  0.33545489636E+03  0.91528496324E+02 0.  0.
         23    2    1    2    0    0 -0.10530667575E+03 -0.61443635887E+02  0.82379289717E+03  0.83759542698E+03  0.89813949441E+02 0.  0.
          5    1    3    3  502    0  0.60768411805E+02  0.41847168792E+02  0.26720009028E+03  0.27723990271E+03  0.47000000000E+01 0. -1.
         -5    1    4    4    0  503 -0.16774250223E+01 -0.45774349448E+02  0.28274898509E+03  0.28647370454E+03  0.47000000000E+01 0.  1.
          5    1    4    4  503    0 -0.10362925073E+03 -0.15669286439E+02  0.54104391208E+03  0.55112172244E+03  0.47000000000E+01 0. -1.
         -5    1    3    3    0  502  0.44538263949E+02  0.19596467095E+02  0.31610393981E+02  0.58214993651E+02  0.47000000000E+01 0.  1.
<mgrwt>
<rscale>  0 0.15219776E+03</rscale>
<asrwt>0</asrwt>
<pdfrwt beam="1">  1        1 0.17658871E+00 0.15245420E+03</pdfrwt>
<pdfrwt beam="2">  1       -1 0.38805349E-02 0.15245420E+03</pdfrwt>
<totfact> 0.31725608E+03</totfact>
</mgrwt>
</event>
<event>
 8    1  0.3466492E-004  0.9613272E+02  0.7546771E-02  0.1289713E+00
          1   -1    0    0  501    0  0.00000000000E+00  0.00000000000E+00  0.96409143413E+03  0.96409143413E+03  0.00000000000E+00 0. -1.
         -1   -1    0    0    0  501 -0.00000000000E+00 -0.00000000000E+00 -0.14367634763E+02  0.14367634763E+02  0.00000000000E+00 0.  1.
         23    2    1    2    0    0  0.26679462343E+02  0.10606152022E+02  0.19021099839E+03  0.21312372871E+03  0.91745384949E+02 0.  0.
         23    2    1    2    0    0 -0.26679462343E+02 -0.10606152022E+02  0.75951280098E+03  0.76533534019E+03  0.89745216653E+02 0.  0.
          5    1    4    4  502    0 -0.86227249586E+00  0.37086991870E+02  0.22847897971E+03  0.23151873066E+03  0.47000000000E+01 0. -1.
         -5    1    4    4    0  502 -0.25817189847E+02 -0.47693143892E+02  0.53103382127E+03  0.53381660952E+03  0.47000000000E+01 0.  1.
          5    1    3    3  503    0  0.60519056782E+02  0.10300925530E+02  0.11282118883E+03  0.12852772444E+03  0.47000000000E+01 0. -1.
         -5    1    3    3    0  503 -0.33839594438E+02  0.30522649220E+00  0.77389809559E+02  0.84596004270E+02  0.47000000000E+01 0.  1.
<mgrwt>
<rscale>  0 0.95652384E+02</rscale>
<asrwt>0</asrwt>
<pdfrwt beam="1">  1        1 0.14832171E+00 0.96132720E+02</pdfrwt>
<pdfrwt beam="2">  1       -1 0.22104061E-02 0.96132720E+02</pdfrwt>
<totfact> 0.95145860E+03</totfact>
</mgrwt>
</event>
<event>
 8    1  0.3466492E-004  0.9359808E+02  0.7546771E-02  0.1296210E+00
         -1   -1    0    0    0  501 -0.00000000000E+00  0.00000000000E+00  0.11170809977E+02  0.11170809977E+02  0.00000000000E+00 0.  1.
          1   -1    0    0  501    0  0.00000000000E+00 -0.00000000000E+00 -0.77422689215E+03  0.77422689215E+03  0.00000000000E+00 0. -1.
         23    2    1    2    0    0  0.33713467827E+01  0.69940159375E+01 -0.43188885474E+03  0.44125771136E+03  0.90111612705E+02 0.  0.
         23    2    1    2    0    0 -0.33713467827E+01 -0.69940159375E+01 -0.33116722743E+03  0.34413999077E+03  0.93275497768E+02 0.  0.
          5    1    4    4  502    0  0.36453301184E+02  0.59502601789E+00 -0.25583560987E+03  0.25846304668E+03  0.47000000000E+01 0. -1.
         -5    1    3    3    0  503 -0.13966314013E+02  0.44767199168E+02 -0.26818944587E+03  0.27229915337E+03  0.47000000000E+01 0.  1.
          5    1    3    3  503    0  0.17337660795E+02 -0.37773183230E+02 -0.16369940887E+03  0.16895855799E+03  0.47000000000E+01 0. -1.
         -5    1    4    4    0  502 -0.39824647967E+02 -0.75890419554E+01 -0.75331617562E+02  0.85676944087E+02  0.47000000000E+01 0.  1.
<mgrwt>
<rscale>  0 0.92799775E+02</rscale>
<asrwt>0</asrwt>
<pdfrwt beam="1">  1        1 0.11911181E+00 0.93598081E+02</pdfrwt>
<pdfrwt beam="2">  1       -1 0.17185864E-02 0.93598081E+02</pdfrwt>
<totfact> 0.19067836E+04</totfact>
</mgrwt>
</event>
<event>
 8    1  0.3466492E-004  0.9978437E+02  0.7546771E-02  0.1282040E+00
         -3   -1    0    0    0  501 -0.00000000000E+00  0.00000000000E+00  0.13693727899E+02  0.13693727899E+02  0.00000000000E+00 0.  1.
          3   -1    0    0  501    0  0.00000000000E+00 -0.00000000000E+00 -0.74493922465E+03  0.74493922465E+03  0.00000000000E+00 0. -1.
         23    2    1    2    0    0 -0.24792807626E+02 -0.16983857468E+02 -0.28730672426E+03  0.30414153768E+03  0.95151386805E+02 0.  0.
         23    2    1    2    0    0  0.24792807626E+02  0.16983857468E+02 -0.44393877249E+03  0.45449141487E+03  0.92615753236E+02 0.  0.
          5    1    4    4  502    0 -0.21989018459E+02  0.38016251352E+02 -0.24761395169E+03  0.25152238742E+03  0.47000000000E+01 0. -1.
         -5    1    3    3    0  503  0.12472414102E+02  0.24440413463E+02 -0.18904284563E+03  0.19108161190E+03  0.47000000000E+01 0.  1.
          5    1    3    3  503    0 -0.37265221728E+02 -0.41424270931E+02 -0.98263878638E+02  0.11305992578E+03  0.47000000000E+01 0. -1.
         -5    1    4    4    0  502  0.46781826084E+02 -0.21032393884E+02 -0.19632482080E+03  0.20296902746E+03  0.47000000000E+01 0.  1.
<mgrwt>
<rscale>  0 0.99175088E+02</rscale>
<asrwt>0</asrwt>
<pdfrwt beam="1">  1        3 0.11460606E+00 0.99784373E+02</pdfrwt>
<pdfrwt beam="2">  1       -3 0.21067270E-02 0.99784373E+02</pdfrwt>
<totfact> 0.12710464E+03</totfact>
</mgrwt>
</event>
<event>
 8    1  0.3466492E-004  0.1093749E+03  0.7546771E-02  0.1262405E+00
          2   -1    0    0  501    0  0.00000000000E+00  0.00000000000E+00  0.51732004877E+03  0.51732004877E+03  0.00000000000E+00 0. -1.
         -2   -1    0    0    0  501 -0.00000000000E+00 -0.00000000000E+00 -0.37603489645E+02  0.37603489645E+02  0.00000000000E+00 0.  1.
         23    2    1    2    0    0  0.41649112077E+02 -0.40783161812E+02  0.64946334073E+02  0.12597457860E+03  0.90849619260E+02 0.  0.
         23    2    1    2    0    0 -0.41649112077E+02  0.40783161812E+02  0.41477022506E+03  0.42894895982E+03  0.92547045947E+02 0.  0.
          5    1    3    3  502    0  0.27791611392E+02  0.30623869020E+01  0.73668505865E+02  0.78935990738E+02  0.47000000000E+01 0. -1.
         -5    1    3    3    0  502  0.13857500685E+02 -0.43845548714E+02 -0.87221717922E+01  0.47038587862E+02  0.47000000000E+01 0.  1.
          5    1    4    4  503    0 -0.65754149184E+02  0.10760513302E+02  0.31276918947E+03  0.31982190773E+03  0.47000000000E+01 0. -1.
         -5    1    4    4    0  503  0.24105037107E+02  0.30022648510E+02  0.10200103558E+03  0.10912705209E+03  0.47000000000E+01 0.  1.
<mgrwt>
<rscale>  0 0.10901502E+03</rscale>
<asrwt>0</asrwt>
<pdfrwt beam="1">  1        2 0.79587695E-01 0.10937491E+03</pdfrwt>
<pdfrwt beam="2">  1       -2 0.57851526E-02 0.10937491E+03</pdfrwt>
<totfact> 0.88200613E+03</totfact>
</mgrwt>
</event>
<event>
 8    1  0.3466492E-004  0.1112679E+03  0.7546771E-02  0.1258648E+00
          1   -1    0    0  501    0  0.00000000000E+00  0.00000000000E+00  0.38952115029E+03  0.38952115029E+03  0.00000000000E+00 0. -1.
         -1   -1    0    0    0  501 -0.00000000000E+00 -0.00000000000E+00 -0.38073018379E+02  0.38073018379E+02  0.00000000000E+00 0.  1.
         23    2    1    2    0    0  0.52640754321E+01 -0.64174831669E+02  0.87679815656E+02  0.14166257470E+03  0.90743680157E+02 0.  0.
         23    2    1    2    0    0 -0.52640754321E+01  0.64174831669E+02  0.26376831625E+03  0.28593159396E+03  0.89649496695E+02 0.  0.
          5    1    3    3  502    0 -0.11037209439E+02 -0.21402861778E+02 -0.15268906354E+02  0.28898650241E+02  0.47000000000E+01 0. -1.
         -5    1    4    4    0  503 -0.27580104249E+02  0.70904897108E+02  0.13541683182E+03  0.15539618697E+03  0.47000000000E+01 0.  1.
          5    1    4    4  503    0  0.22316028817E+02 -0.67300654394E+01  0.12835148444E+03  0.13053540700E+03  0.47000000000E+01 0. -1.
         -5    1    3    3    0  502  0.16301284871E+02 -0.42771969891E+02  0.10294872201E+03  0.11276392446E+03  0.47000000000E+01 0.  1.
<mgrwt>
<rscale>  0 0.11104455E+03</rscale>
<asrwt>0</asrwt>
<pdfrwt beam="1">  1        1 0.59926328E-01 0.11126785E+03</pdfrwt>
<pdfrwt beam="2">  1       -1 0.58573877E-02 0.11126785E+03</pdfrwt>
<totfact> 0.81586886E+03</totfact>
</mgrwt>
</event>
<event>
 8    1  0.3466492E-004  0.2110686E+03  0.7546771E-02  0.1140852E+00
         -3   -1    0    0    0  501 -0.00000000000E+00  0.00000000000E+00  0.15380531173E+03  0.15380531173E+03  0.00000000000E+00 0.  1.
          3   -1    0    0  501    0  0.00000000000E+00 -0.00000000000E+00 -0.37427496765E+03  0.37427496765E+03  0.00000000000E+00 0. -1.
         23    2    1    2    0    0  0.16133239555E+03  0.99994594095E+02  0.16117679078E+02  0.21102585678E+03  0.90802378556E+02 0.  0.
         23    2    1    2    0    0 -0.16133239555E+03 -0.99994594095E+02 -0.23658733500E+03  0.31705442260E+03  0.92319440563E+02 0.  0.
          5    1    4    4  502    0 -0.14613532442E+03 -0.74424684714E+02 -0.23538099031E+03  0.28691613293E+03  0.47000000000E+01 0. -1.
         -5    1    4    4    0  502 -0.15197071129E+02 -0.25569909382E+02 -0.12063446935E+01  0.30138289669E+02  0.47000000000E+01 0.  1.
          5    1    3    3  503    0  0.48302957341E+02  0.45668109732E+02 -0.35292591265E+02  0.75408281592E+02  0.47000000000E+01 0. -1.
         -5    1    3    3    0  503  0.11302943820E+03  0.54326484363E+02  0.51410270343E+02  0.13561757519E+03  0.47000000000E+01 0.  1.
<mgrwt>
<rscale>  0 0.21090359E+03</rscale>
<asrwt>0</asrwt>
<pdfrwt beam="1">  1        3 0.57580763E-01 0.21106857E+03</pdfrwt>
<pdfrwt beam="2">  1       -3 0.23662356E-01 0.21106857E+03</pdfrwt>
<totfact> 0.12219385E+02</totfact>
</mgrwt>
</event>
<event>
 8    1  0.3466492E-004  0.1026581E+03  0.7546771E-02  0.1274970E+00
          1   -1    0    0  501    0  0.00000000000E+00  0.00000000000E+00  0.97154226927E+02  0.97154226927E+02  0.00000000000E+00 0. -1.
         -1   -1    0    0    0  501 -0.00000000000E+00 -0.00000000000E+00 -0.13652775020E+03  0.13652775020E+03  0.00000000000E+00 0.  1.
         23    2    1    2    0    0 -0.45587213892E+02  0.88132939316E+01 -0.73000983610E+02  0.12596759580E+03  0.91557759706E+02 0.  0.
         23    2    1    2    0    0  0.45587213892E+02 -0.88132939316E+01  0.33627460339E+02  0.10771438133E+03  0.91190534793E+02 0.  0.
          5    1    3    3  502    0 -0.57668093225E+02 -0.20119962062E+02 -0.20426926743E+02  0.64573765461E+02  0.47000000000E+01 0. -1.
         -5    1    3    3    0  502  0.12080879334E+02  0.28933255993E+02 -0.52574056866E+02  0.61393830335E+02  0.47000000000E+01 0.  1.
          5    1    4    4  503    0  0.67233667130E+02 -0.14367728328E+02  0.44898111824E+02  0.82247966895E+02  0.47000000000E+01 0. -1.
         -5    1    4    4    0  503 -0.21646453238E+02  0.55544343964E+01 -0.11270651484E+02  0.25466414434E+02  0.47000000000E+01 0.  1.
<mgrwt>
<rscale>  0 0.10257619E+03</rscale>
<asrwt>0</asrwt>
<pdfrwt beam="1">  1        1 0.14946804E-01 0.10265813E+03</pdfrwt>
<pdfrwt beam="2">  1       -1 0.21004269E-01 0.10265813E+03</pdfrwt>
<totfact> 0.64688286E+03</totfact>
</mgrwt>
</event>
<event>
 8    1  0.3466492E-004  0.1377735E+03  0.7546771E-02  0.1227830E+00
         -4   -1    0    0    0  501 -0.00000000000E+00  0.00000000000E+00  0.29299152971E+03  0.29299152971E+03  0.00000000000E+00 0.  1.
          4   -1    0    0  501    0  0.00000000000E+00 -0.00000000000E+00 -0.19994383333E+03  0.19994383333E+03  0.00000000000E+00 0. -1.
         23    2    1    2    0    0  0.50370283581E+02  0.30814945119E+02  0.25692159043E+03  0.27884150575E+03  0.90868891199E+02 0.  0.
         23    2    1    2    0    0 -0.50370283581E+02 -0.30814945119E+02 -0.16387389404E+03  0.21409385730E+03  0.12447811162E+03 0.  0.
          5    1    3    3  502    0  0.39942985649E+01  0.50227849203E+02  0.78379335986E+02  0.93296310571E+02  0.47000000000E+01 0. -1.
         -5    1    4    4    0  503 -0.21855249610E+02  0.33174461337E+02 -0.48968347810E+01  0.40302181223E+02  0.47000000000E+01 0.  1.
          5    1    4    4  503    0 -0.28515033971E+02 -0.63989406455E+02 -0.15897705926E+03  0.17379167608E+03  0.47000000000E+01 0. -1.
         -5    1    3    3    0  502  0.46375985016E+02 -0.19412904084E+02  0.17854225444E+03  0.18554519518E+03  0.47000000000E+01 0.  1.
<mgrwt>
<rscale>  0 0.12974799E+03</rscale>
<asrwt>0</asrwt>
<pdfrwt beam="1">  1        4 0.30760590E-01 0.13777346E+03</pdfrwt>
<pdfrwt beam="2">  1       -4 0.45075620E-01 0.13777346E+03</pdfrwt>
<totfact> 0.81766396E+01</totfact>
</mgrwt>
</event>
<event>
 8    1  0.3466492E-004  0.1150004E+03  0.7546771E-02  0.1252536E+00
          1   -1    0    0  501    0  0.00000000000E+00  0.00000000000E+00  0.94471457856E+02  0.94471457856E+02  0.00000000000E+00 0. -1.
         -1   -1    0    0    0  501 -0.00000000000E+00 -0.00000000000E+00 -0.14077623791E+03  0.14077623791E+03  0.00000000000E+00 0.  1.
         23    2    1    2    0    0  0.19990615307E+02  0.62266220852E+02 -0.41677288244E+02  0.12231965381E+03  0.94595953371E+02 0.  0.
         23    2    1    2    0    0 -0.19990615307E+02 -0.62266220852E+02 -0.46274918086E+01  0.11292804195E+03  0.91949018585E+02 0.  0.
          5    1    3    3  502    0 -0.22294926588E+02  0.67848161490E+02 -0.20393056655E+02  0.74420451012E+02  0.47000000000E+01 0. -1.
         -5    1    3    3    0  502  0.42285541896E+02 -0.55819406371E+01 -0.21284231589E+02  0.47899202802E+02  0.47000000000E+01 0.  1.
          5    1    4    4  503    0 -0.52181518529E+02 -0.38450117726E+02  0.17001323139E+02  0.67174827261E+02  0.47000000000E+01 0. -1.
         -5    1    4    4    0  503  0.32190903222E+02 -0.23816103126E+02 -0.21628814948E+02  0.45753214689E+02  0.47000000000E+01 0.  1.
<mgrwt>
<rscale>  0 0.11445476E+03</rscale>
<asrwt>0</asrwt>
<pdfrwt beam="1">  1        1 0.14534071E-01 0.11500044E+03</pdfrwt>
<pdfrwt beam="2">  1       -1 0.21657882E-01 0.11500044E+03</pdfrwt>
<totfact> 0.64400489E+03</totfact>
</mgrwt>
</event>
<event>
 8    1  0.3466492E-004  0.9986853E+02  0.7546771E-02  0.1281040E+00
         -1   -1    0    0    0  501 -0.00000000000E+00  0.00000000000E+00  0.40081533831E+03  0.40081533831E+03  0.00000000000E+00 0.  1.
          1   -1    0    0  501    0  0.00000000000E+00 -0.00000000000E+00 -0.36756313392E+02  0.36756313392E+02  0.00000000000E+00 0. -1.
         23    2    1    2    0    0  0.55841992329E+01 -0.39005435039E+02  0.30697623645E+03  0.32254049033E+03  0.90803914657E+02 0.  0.
         23    2    1    2    0    0 -0.55841992329E+01  0.39005435039E+02  0.57082788471E+02  0.11503116137E+03  0.91766639378E+02 0.  0.
          5    1    3    3  502    0 -0.24015819931E+02 -0.58351666447E+02  0.19205087243E+03  0.20220609335E+03  0.47000000000E+01 0. -1.
         -5    1    4    4    0  503  0.32955748720E+02 -0.12330268367E+02  0.19754435052E+02  0.40625664252E+02  0.47000000000E+01 0.  1.
          5    1    4    4  503    0 -0.38539947953E+02  0.51335703406E+02  0.37328353419E+02  0.74405497118E+02  0.47000000000E+01 0. -1.
         -5    1    3    3    0  502  0.29600019164E+02  0.19346231408E+02  0.11492536402E+03  0.12033439699E+03  0.47000000000E+01 0.  1.
<mgrwt>
<rscale>  0 0.99646820E+02</rscale>
<asrwt>0</asrwt>
<pdfrwt beam="1">  1        1 0.56548177E-02 0.99868530E+02</pdfrwt>
<pdfrwt beam="2">  1       -1 0.61663895E-01 0.99868530E+02</pdfrwt>
<totfact> 0.36374250E+03</totfact>
</mgrwt>
</event>
<event>
 8    1  0.3466492E-004  0.1029732E+03  0.7546771E-02  0.1277689E+00
         -1   -1    0    0    0  501 -0.00000000000E+00  0.00000000000E+00  0.35239610104E+03  0.35239610104E+03  0.00000000000E+00 0.  1.
          1   -1    0    0  501    0  0.00000000000E+00 -0.00000000000E+00 -0.28566728955E+02  0.28566728955E+02  0.00000000000E+00 0. -1.
         23    2    1    2    0    0 -0.46730498643E+02 -0.10877012968E+02  0.14451424183E+03  0.17744815830E+03  0.91112204880E+02 0.  0.
         23    2    1    2    0    0  0.46730498643E+02  0.10877012968E+02  0.17931513025E+03  0.20351467169E+03  0.83440138674E+02 0.  0.
          5    1    3    3  502    0 -0.49122123779E+02  0.21639155494E+02  0.13135316728E+03  0.14197528182E+03  0.47000000000E+01 0.  1.
         -5    1    4    4    0  503  0.13141308163E+02 -0.27754266017E+02  0.22144529717E+02  0.38150536808E+02  0.47000000000E+01 0.  1.
          5    1    4    4  503    0  0.33589190480E+02  0.38631278986E+02  0.15717060053E+03  0.16536413488E+03  0.47000000000E+01 0. -1.
         -5    1    3    3    0  502  0.23916251367E+01 -0.32516168462E+02  0.13161074555E+02  0.35472876479E+02  0.47000000000E+01 0. -1.
<mgrwt>
<rscale>  0 0.10124995E+03</rscale>
<asrwt>0</asrwt>
<pdfrwt beam="1">  1        1 0.43948816E-02 0.10297321E+03</pdfrwt>
<pdfrwt beam="2">  1       -1 0.54214782E-01 0.10297321E+03</pdfrwt>
<totfact> 0.65265575E+03</totfact>
</mgrwt>
</event>
<event>
 8    1  0.3466492E-004  0.9757082E+02  0.7546771E-02  0.1286249E+00
         -2   -1    0    0    0  501 -0.00000000000E+00  0.00000000000E+00  0.48661960489E+03  0.48661960489E+03  0.00000000000E+00 0.  1.
          2   -1    0    0  501    0  0.00000000000E+00 -0.00000000000E+00 -0.38309736601E+02  0.38309736601E+02  0.00000000000E+00 0. -1.
         23    2    1    2    0    0 -0.31011312814E+02  0.15967339894E+02  0.40012756366E+02  0.10545655360E+03  0.91123029797E+02 0.  0.
         23    2    1    2    0    0  0.31011312814E+02 -0.15967339894E+02  0.40829711192E+03  0.41947278789E+03  0.89633870333E+02 0.  0.
          5    1    4    4  502    0 -0.17020952781E+02  0.23427915317E+02  0.77636934752E+02  0.82994961819E+02  0.47000000000E+01 0. -1.
         -5    1    4    4    0  502  0.48032265595E+02 -0.39395255211E+02  0.33066017717E+03  0.33647782607E+03  0.47000000000E+01 0.  1.
          5    1    3    3  503    0 -0.66513215932E+01  0.29628573377E+02 -0.21658095237E+02  0.37593291005E+02  0.47000000000E+01 0. -1.
         -5    1    3    3    0  503 -0.24359991221E+02 -0.13661233483E+02  0.61670851603E+02  0.67863262595E+02  0.47000000000E+01 0.  1.
<mgrwt>
<rscale>  0 0.97221626E+02</rscale>
<asrwt>0</asrwt>
<pdfrwt beam="1">  1        2 0.58938060E-02 0.97570815E+02</pdfrwt>
<pdfrwt beam="2">  1       -2 0.74864550E-01 0.97570815E+02</pdfrwt>
<totfact> 0.19646319E+03</totfact>
</mgrwt>
</event>
<event>
 8    1  0.3466492E-004  0.1323536E+03  0.7546771E-02  0.1224762E+00
          1   -1    0    0  501    0  0.00000000000E+00  0.00000000000E+00  0.26216425943E+03  0.26216425943E+03  0.00000000000E+00 0. -1.
         -1   -1    0    0    0  501 -0.00000000000E+00 -0.00000000000E+00 -0.13528014335E+03  0.13528014335E+03  0.00000000000E+00 0.  1.
         23    2    1    2    0    0  0.61522960424E+02 -0.69130787708E+02 -0.79240327554E+02  0.15248568835E+03  0.91699046730E+02 0.  0.
         23    2    1    2    0    0 -0.61522960424E+02  0.69130787708E+02  0.20612444363E+03  0.24495871444E+03  0.94622117121E+02 0.  0.
          5    1    3    3  502    0  0.44390839058E+02 -0.20467853417E+02  0.92266286458E+01  0.49966992024E+02  0.47000000000E+01 0. -1.
         -5    1    3    3    0  502  0.17132121366E+02 -0.48662934291E+02 -0.88466956200E+02  0.10251869632E+03  0.47000000000E+01 0.  1.
          5    1    4    4  503    0 -0.82482416205E+02  0.68645053107E+02  0.14707999923E+03  0.18212662758E+03  0.47000000000E+01 0. -1.
         -5    1    4    4    0  503  0.20959455781E+02  0.48573460118E+00  0.59044444397E+02  0.62832086857E+02  0.47000000000E+01 0.  1.
<mgrwt>
<rscale>  0 0.13183213E+03</rscale>
<asrwt>0</asrwt>
<pdfrwt beam="1">  1        1 0.40332963E-01 0.13235364E+03</pdfrwt>
<pdfrwt beam="2">  1       -1 0.20812330E-01 0.13235364E+03</pdfrwt>
<totfact> 0.19193283E+03</totfact>
</mgrwt>
</event>
<event>
 8    1  0.3466492E-004  0.1054928E+03  0.7546771E-02  0.1272796E+00
          1   -1    0    0  501    0  0.00000000000E+00  0.00000000000E+00  0.22962977230E+03  0.22962977230E+03  0.00000000000E+00 0. -1.
         -1   -1    0    0    0  501 -0.00000000000E+00 -0.00000000000E+00 -0.84611104624E+02  0.84611104624E+02  0.00000000000E+00 0.  1.
         23    2    1    2    0    0 -0.32752733415E+02 -0.13361778929E+02  0.18103349391E+03  0.20952771434E+03  0.99385403749E+02 0.  0.
         23    2    1    2    0    0  0.32752733415E+02  0.13361778929E+02 -0.36014826238E+02  0.10471316258E+03  0.91741484757E+02 0.  0.
          5    1    4    4  502    0  0.36045377689E+01  0.46340849339E+02  0.14233441872E+01  0.46739522020E+02  0.47000000000E+01 0. -1.
         -5    1    4    4    0  502  0.29148195646E+02 -0.32979070410E+02 -0.37438170425E+02  0.57973640556E+02  0.47000000000E+01 0.  1.
          5    1    3    3  503    0 -0.16293195240E+02  0.42612436335E+02  0.64796953922E+02  0.79385283139E+02  0.47000000000E+01 0. -1.
         -5    1    3    3    0  503 -0.16459538175E+02 -0.55974215264E+02  0.11623653999E+03  0.13014243120E+03  0.47000000000E+01 0.  1.
<mgrwt>
<rscale>  0 0.10365328E+03</rscale>
<asrwt>0</asrwt>
<pdfrwt beam="1">  1        1 0.35327657E-01 0.10549283E+03</pdfrwt>
<pdfrwt beam="2">  1       -1 0.13017093E-01 0.10549283E+03</pdfrwt>
<totfact> 0.46763786E+03</totfact>
</mgrwt>
</event>
<event>
 8    1  0.3466492E-004  0.9550468E+02  0.7546771E-02  0.1290248E+00
         -2   -1    0    0    0  501 -0.00000000000E+00  0.00000000000E+00  0.24599413378E+03  0.24599413378E+03  0.00000000000E+00 0.  1.
          2   -1    0    0  501    0  0.00000000000E+00 -0.00000000000E+00 -0.75854379429E+02  0.75854379429E+02  0.00000000000E+00 0. -1.
         23    2    1    2    0    0 -0.23309392909E+02  0.19081728064E+02  0.20041515055E+03  0.22200760347E+03  0.90629483533E+02 0.  0.
         23    2    1    2    0    0  0.23309392909E+02 -0.19081728064E+02 -0.30275396197E+02  0.99840909740E+02  0.90245041410E+02 0.  0.
          5    1    3    3  502    0  0.90012106619E+01 -0.27456979783E+02  0.28184584122E+02  0.40637031318E+02  0.47000000000E+01 0. -1.
         -5    1    4    4    0  503 -0.25811196057E+02  0.18621261438E+02 -0.16803366705E+02  0.36296175447E+02  0.47000000000E+01 0.  1.
          5    1    4    4  503    0  0.49120588967E+02 -0.37702989502E+02 -0.13472029492E+02  0.63544734293E+02  0.47000000000E+01 0. -1.
         -5    1    3    3    0  502 -0.32310603571E+02  0.46538707847E+02  0.17223056643E+03  0.18137057216E+03  0.47000000000E+01 0.  1.
<mgrwt>
<rscale>  0 0.95413362E+02</rscale>
<asrwt>0</asrwt>
<pdfrwt beam="1">  1        2 0.11669905E-01 0.95504678E+02</pdfrwt>
<pdfrwt beam="2">  1       -2 0.37845251E-01 0.95504678E+02</pdfrwt>
<totfact> 0.32830398E+03</totfact>
</mgrwt>
</event>
<event>
 8    1  0.3466492E-004  0.9451432E+02  0.7546771E-02  0.1293103E+00
          1   -1    0    0  501    0  0.00000000000E+00  0.00000000000E+00  0.11366825029E+03  0.11366825029E+03  0.00000000000E+00 0. -1.
         -1   -1    0    0    0  501 -0.00000000000E+00 -0.00000000000E+00 -0.10628866132E+03  0.10628866132E+03  0.00000000000E+00 0.  1.
         23    2    1    2    0    0 -0.74124955946E+01 -0.22676409272E+02 -0.53678652133E+02  0.10743550837E+03  0.89954578185E+02 0.  0.
         23    2    1    2    0    0  0.74124955946E+01  0.22676409272E+02  0.61058241101E+02  0.11252140323E+03  0.91453773847E+02 0.  0.
          5    1    4    4  502    0  0.71964888992E+01  0.49734314792E+02  0.57862320107E+01  0.50802185004E+02  0.47000000000E+01 0. -1.
         -5    1    4    4    0  502  0.21600669542E+00 -0.27057905520E+02  0.55272009090E+02  0.61719218229E+02  0.47000000000E+01 0.  1.
          5    1    3    3  503    0 -0.16155553010E+02  0.31227951783E+02 -0.86782872309E+01  0.36518345183E+02  0.47000000000E+01 0. -1.
         -5    1    3    3    0  503  0.87430574158E+01 -0.53904361055E+02 -0.45000364902E+02  0.70917163191E+02  0.47000000000E+01 0.  1.
<mgrwt>
<rscale>  0 0.94149750E+02</rscale>
<asrwt>0</asrwt>
<pdfrwt beam="1">  1        1 0.17487423E-01 0.94514324E+02</pdfrwt>
<pdfrwt beam="2">  1       -1 0.16352102E-01 0.94514324E+02</pdfrwt>
<totfact> 0.78135447E+03</totfact>
</mgrwt>
</event>
<event>
 8    1  0.3466492E-004  0.9972070E+02  0.7546771E-02  0.1281388E+00
         -4   -1    0    0    0  501 -0.00000000000E+00  0.00000000000E+00  0.24407452077E+02  0.24407452077E+02  0.00000000000E+00 0.  1.
          4   -1    0    0  501    0  0.00000000000E+00 -0.00000000000E+00 -0.54488663348E+03  0.54488663348E+03  0.00000000000E+00 0. -1.
         23    2    1    2    0    0  0.28445633471E+02 -0.23941483680E+02 -0.40428541537E+03  0.41617580140E+03  0.91505474618E+02 0.  0.
         23    2    1    2    0    0 -0.28445633471E+02  0.23941483680E+02 -0.11619376603E+03  0.15311828416E+03  0.92530367850E+02 0.  0.
          5    1    3    3  502    0  0.18427800139E+02 -0.44158042492E+02 -0.37870387848E+03  0.38174367592E+03  0.47000000000E+01 0. -1.
         -5    1    3    3    0  502  0.10017833332E+02  0.20216558812E+02 -0.25581536889E+02  0.34432125471E+02  0.47000000000E+01 0.  1.
          5    1    4    4  503    0  0.82640233766E+01 -0.29569847006E+02 -0.58158931352E+02  0.65933460628E+02  0.47000000000E+01 0. -1.
         -5    1    4    4    0  503 -0.36709656848E+02  0.53511330686E+02 -0.58034834682E+02  0.87184823532E+02  0.47000000000E+01 0.  1.
<mgrwt>
<rscale>  0 0.99482281E+02</rscale>
<asrwt>0</asrwt>
<pdfrwt beam="1">  1        4 0.83828706E-01 0.99720698E+02</pdfrwt>
<pdfrwt beam="2">  1       -4 0.37549929E-02 0.99720698E+02</pdfrwt>
<totfact> 0.74996252E+02</totfact>
</mgrwt>
</event>
<event>
 8    1  0.3466492E-004  0.9268311E+02  0.7546771E-02  0.1297146E+00
         -1   -1    0    0    0  501 -0.00000000000E+00  0.00000000000E+00  0.93572611952E+02  0.93572611952E+02  0.00000000000E+00 0.  1.
          1   -1    0    0  501    0  0.00000000000E+00 -0.00000000000E+00 -0.12458339073E+03  0.12458339073E+03  0.00000000000E+00 0. -1.
         23    2    1    2    0    0 -0.18855655966E+02 -0.54583761115E+00 -0.72336421918E+02  0.11667710351E+03  0.89583228601E+02 0.  0.
         23    2    1    2    0    0  0.18855655966E+02  0.54583761115E+00  0.41325643142E+02  0.10147889917E+03  0.90743178780E+02 0.  0.
          5    1    3    3  502    0  0.71274514904E+01 -0.19619252473E+02 -0.80335646688E+02  0.83136163979E+02  0.47000000000E+01 0. -1.
         -5    1    3    3    0  502 -0.25983107456E+02  0.19073414862E+02  0.79992247705E+01  0.33540939529E+02  0.47000000000E+01 0.  1.
          5    1    4    4  503    0 -0.17804685776E+02  0.27742038296E+02  0.44388036903E+02  0.55488875863E+02  0.47000000000E+01 0. -1.
         -5    1    4    4    0  503  0.36660341741E+02 -0.27196200685E+02 -0.30623937610E+01  0.45990023308E+02  0.47000000000E+01 0.  1.
<mgrwt>
<rscale>  0 0.92397951E+02</rscale>
<asrwt>0</asrwt>
<pdfrwt beam="1">  1        1 0.19166675E-01 0.92683106E+02</pdfrwt>
<pdfrwt beam="2">  1       -1 0.14395787E-01 0.92683106E+02</pdfrwt>
<totfact> 0.84685945E+03</totfact>
</mgrwt>
</event>
<event>
 8    1  0.3466492E-004  0.9176669E+02  0.7546771E-02  0.1300160E+00
          2   -1    0    0  501    0  0.00000000000E+00  0.00000000000E+00  0.44743141665E+02  0.44743141665E+02  0.00000000000E+00 0. -1.
         -2   -1    0    0    0  501 -0.00000000000E+00 -0.00000000000E+00 -0.19695500211E+03  0.19695500211E+03  0.00000000000E+00 0.  1.
         23    2    1    2    0    0  0.40286111461E+00  0.19803970948E+01 -0.10726634378E+03  0.13951583609E+03  0.89188091930E+02 0.  0.
         23    2    1    2    0    0 -0.40286111461E+00 -0.19803970948E+01 -0.44945516674E+02  0.10218230769E+03  0.91744429077E+02 0.  0.
          5    1    3    3  502    0 -0.20051825853E+02  0.38873019153E+02 -0.71793760746E+02  0.84199889669E+02  0.47000000000E+01 0. -1.
         -5    1    3    3    0  502  0.20454686968E+02 -0.36892622058E+02 -0.35472583029E+02  0.55315946417E+02  0.47000000000E+01 0.  1.
          5    1    4    4  503    0  0.18238125220E+02  0.40557166480E+02 -0.26574900217E+02  0.52017576702E+02  0.47000000000E+01 0. -1.
         -5    1    4    4    0  503 -0.18640986335E+02 -0.42537563575E+02 -0.18370616457E+02  0.50164730991E+02  0.47000000000E+01 0.  1.
<mgrwt>
<rscale>  0 0.91120977E+02</rscale>
<asrwt>0</asrwt>
<pdfrwt beam="1">  1        2 0.68835602E-02 0.91766685E+02</pdfrwt>
<pdfrwt beam="2">  1       -2 0.30300770E-01 0.91766685E+02</pdfrwt>
<totfact> 0.93734627E+03</totfact>
</mgrwt>
</event>
<event>
 8    1  0.3466492E-004  0.9243263E+02  0.7546771E-02  0.1298104E+00
         -1   -1    0    0    0  501 -0.00000000000E+00  0.00000000000E+00  0.50359971107E+03  0.50359971107E+03  0.00000000000E+00 0.  1.
          1   -1    0    0  501    0  0.00000000000E+00 -0.00000000000E+00 -0.19087375037E+02  0.19087375037E+02  0.00000000000E+00 0. -1.
         23    2    1    2    0    0  0.51590169155E+01  0.48663196078E+01  0.33778574840E+03  0.35020422996E+03  0.92160155925E+02 0.  0.
         23    2    1    2    0    0 -0.51590169155E+01 -0.48663196078E+01  0.14672658764E+03  0.17248285615E+03  0.90395506653E+02 0.  0.
          5    1    4    4  502    0  0.24179944591E+02  0.30763347707E+02  0.40215924283E+02  0.56306872125E+02  0.47000000000E+01 0. -1.
         -5    1    3    3    0  503  0.20964623819E+02 -0.38185933753E+02  0.12426925257E+03  0.13176728775E+03  0.47000000000E+01 0.  1.
          5    1    3    3  503    0 -0.15805606903E+02  0.43052253361E+02  0.21351649583E+03  0.21843694221E+03  0.47000000000E+01 0. -1.
         -5    1    4    4    0  502 -0.29338961507E+02 -0.35629667315E+02  0.10651066336E+03  0.11617598402E+03  0.47000000000E+01 0.  1.
<mgrwt>
<rscale>  0 0.91989617E+02</rscale>
<asrwt>0</asrwt>
<pdfrwt beam="1">  1        1 0.29365196E-02 0.92432629E+02</pdfrwt>
<pdfrwt beam="2">  1       -1 0.77476869E-01 0.92432629E+02</pdfrwt>
<totfact> 0.56507542E+03</totfact>
</mgrwt>
</event>
<event>
 8    1  0.3466492E-004  0.1279717E+03  0.7546771E-02  0.1231184E+00
          2   -1    0    0  501    0  0.00000000000E+00  0.00000000000E+00  0.63814868608E+03  0.63814868608E+03  0.00000000000E+00 0.  1.
         -2   -1    0    0    0  501 -0.00000000000E+00 -0.00000000000E+00 -0.30262096563E+02  0.30262096563E+02  0.00000000000E+00 0. -1.
         23    2    1    2    0    0  0.45499681077E+02 -0.74611750087E+02  0.16685289279E+03  0.20918591480E+03  0.91003982804E+02 0.  0.
         23    2    1    2    0    0 -0.45499681077E+02  0.74611750087E+02  0.44103369673E+03  0.45922486785E+03  0.93485952816E+02 0.  0.
          5    1    4    4  502    0  0.27896086737E+02  0.26308911357E+02  0.10567398652E+03  0.11251414089E+03  0.47000000000E+01 0. -1.
         -5    1    4    4    0  502 -0.73395767815E+02  0.48302838729E+02  0.33535971020E+03  0.34671072696E+03  0.47000000000E+01 0.  1.
          5    1    3    3  503    0 -0.11650836266E+02 -0.51208743068E+02  0.34368761440E+02  0.62939487727E+02  0.47000000000E+01 0. -1.
         -5    1    3    3    0  503  0.57150517343E+02 -0.23403007018E+02  0.13248413135E+03  0.14624642707E+03  0.47000000000E+01 0.  1.
<mgrwt>
<rscale>  0 0.12751887E+03</rscale>
<asrwt>0</asrwt>
<pdfrwt beam="1">  1        2 0.98176711E-01 0.12797171E+03</pdfrwt>
<pdfrwt beam="2">  1       -2 0.46557076E-02 0.12797171E+03</pdfrwt>
<totfact> 0.97560871E+03</totfact>
</mgrwt>
</event>
<event>
 8    1  0.3466492E-004  0.9418187E+02  0.7546771E-02  0.1293668E+00
          1   -1    0    0  501    0  0.00000000000E+00  0.00000000000E+00  0.48401029654E+02  0.48401029654E+02  0.00000000000E+00 0. -1.
         -1   -1    0    0    0  501 -0.00000000000E+00 -0.00000000000E+00 -0.19948114174E+03  0.19948114174E+03  0.00000000000E+00 0.  1.
         23    2    1    2    0    0  0.21577396465E+02 -0.82342446993E+01 -0.37513699093E+02  0.10034385671E+03  0.90156669943E+02 0.  0.
         23    2    1    2    0    0 -0.21577396465E+02  0.82342446993E+01 -0.11356641300E+03  0.14753831469E+03  0.91306283009E+02 0.  0.
          5    1    3    3  502    0  0.50134045968E+02 -0.69823246079E+01  0.25558326835E+01  0.50899879202E+02  0.47000000000E+01 0. -1.
         -5    1    3    3    0  502 -0.28556649503E+02 -0.12519200914E+01 -0.40069531777E+02  0.49443977505E+02  0.47000000000E+01 0.  1.
          5    1    4    4  503    0 -0.17796119493E+02  0.43414003283E+02 -0.28037654516E+02  0.54860528805E+02  0.47000000000E+01 0. -1.
         -5    1    4    4    0  503 -0.37812769715E+01 -0.35179758583E+02 -0.85528758479E+02  0.92677785884E+02  0.47000000000E+01 0.  1.
<mgrwt>
<rscale>  0 0.93902102E+02</rscale>
<asrwt>0</asrwt>
<pdfrwt beam="1">  1        1 0.74463123E-02 0.94181867E+02</pdfrwt>
<pdfrwt beam="2">  1       -1 0.30689406E-01 0.94181867E+02</pdfrwt>
<totfact> 0.86044597E+03</totfact>
</mgrwt>
</event>
<event>
 8    1  0.3466492E-004  0.1035703E+03  0.7546771E-02  0.1273648E+00
         -1   -1    0    0    0  501 -0.00000000000E+00  0.00000000000E+00  0.58773248274E+03  0.58773248274E+03  0.00000000000E+00 0.  1.
          1   -1    0    0  501    0  0.00000000000E+00 -0.00000000000E+00 -0.29093445242E+02  0.29093445242E+02  0.00000000000E+00 0. -1.
         23    2    1    2    0    0 -0.31573071840E+02  0.32549625704E+02  0.90128120224E+02  0.13729484890E+03  0.93115307451E+02 0.  0.
         23    2    1    2    0    0  0.31573071840E+02 -0.32549625704E+02  0.46851091728E+03  0.47953107908E+03  0.91603707340E+02 0.  0.
          5    1    3    3  502    0 -0.55935794896E+02  0.45078355682E+02  0.46969016518E+02  0.85959582446E+02  0.47000000000E+01 0. -1.
         -5    1    4    4    0  503  0.46316015618E+02 -0.56752517677E+02  0.32788041980E+03  0.33599654946E+03  0.47000000000E+01 0.  1.
          5    1    4    4  503    0 -0.14742943778E+02  0.24202891973E+02  0.14063049748E+03  0.14353452962E+03  0.47000000000E+01 0. -1.
         -5    1    3    3    0  502  0.24362723057E+02 -0.12528729978E+02  0.43159103706E+02  0.51335266458E+02  0.47000000000E+01 0.  1.
<mgrwt>
<rscale>  0 0.10322936E+03</rscale>
<asrwt>0</asrwt>
<pdfrwt beam="1">  1        1 0.44759151E-02 0.10357025E+03</pdfrwt>
<pdfrwt beam="2">  1       -1 0.90420373E-01 0.10357025E+03</pdfrwt>
<totfact> 0.23308072E+03</totfact>
</mgrwt>
</event>
<event>
 8    1  0.3466492E-004  0.1046984E+03  0.7546771E-02  0.1271680E+00
          2   -1    0    0  501    0  0.00000000000E+00  0.00000000000E+00  0.29265644608E+02  0.29265644608E+02  0.00000000000E+00 0. -1.
         -2   -1    0    0    0  501 -0.00000000000E+00 -0.00000000000E+00 -0.39537614947E+03  0.39537614947E+03  0.00000000000E+00 0.  1.
         23    2    1    2    0    0  0.54170864444E+02  0.82794620817E+01 -0.24083696223E+03  0.26261035938E+03  0.89211694480E+02 0.  0.
         23    2    1    2    0    0 -0.54170864444E+02 -0.82794620817E+01 -0.12527354263E+03  0.16203143469E+03  0.86934994672E+02 0.  0.
          5    1    4    4  502    0 -0.24523083775E+02 -0.22563861913E+02 -0.13011421535E+01  0.33679258798E+02  0.47000000000E+01 0. -1.
         -5    1    4    4    0  502 -0.29647780669E+02  0.14284399832E+02 -0.12397240048E+03  0.12835217589E+03  0.47000000000E+01 0.  1.
          5    1    3    3  503    0 -0.19356530206E+02  0.13455737145E+02 -0.25894002907E+02  0.35331593656E+02  0.47000000000E+01 0. -1.
         -5    1    3    3    0  503  0.73527394650E+02 -0.51762750636E+01 -0.21494295932E+03  0.22727876573E+03  0.47000000000E+01 0.  1.
<mgrwt>
<rscale>  0 0.10421178E+03</rscale>
<asrwt>0</asrwt>
<pdfrwt beam="1">  1        2 0.45024070E-02 0.10469842E+03</pdfrwt>
<pdfrwt beam="2">  1       -2 0.60827098E-01 0.10469842E+03</pdfrwt>
<totfact> 0.43210451E+03</totfact>
</mgrwt>
</event>
<event>
 8    1  0.3466492E-004  0.1035093E+03  0.7546771E-02  0.1273998E+00
         -1   -1    0    0    0  501 -0.00000000000E+00  0.00000000000E+00  0.50457881431E+02  0.50457881431E+02  0.00000000000E+00 0.  1.
          1   -1    0    0  501    0  0.00000000000E+00 -0.00000000000E+00 -0.21989612743E+03  0.21989612743E+03  0.00000000000E+00 0. -1.
         23    2    1    2    0    0 -0.44742347897E+02  0.25404468143E+01 -0.54866407865E+02  0.11715156531E+03  0.93305064045E+02 0.  0.
         23    2    1    2    0    0  0.44742347897E+02 -0.25404468143E+01 -0.11457183814E+03  0.15320244356E+03  0.91301429630E+02 0.  0.
          5    1    3    3  502    0  0.14030269287E+02 -0.27370480344E+02 -0.37632071105E+02  0.48828827819E+02  0.47000000000E+01 0. -1.
         -5    1    3    3    0  502 -0.58772617184E+02  0.29910927159E+02 -0.17234336760E+02  0.68322737487E+02  0.47000000000E+01 0.  1.
          5    1    4    4  503    0  0.46589751611E+02 -0.40854787371E+02 -0.60412380452E+02  0.86668704376E+02  0.47000000000E+01 0. -1.
         -5    1    4    4    0  503 -0.18474037147E+01  0.38314340556E+02 -0.54159457684E+02  0.66533739181E+02  0.47000000000E+01 0.  1.
<mgrwt>
<rscale>  0 0.10305568E+03</rscale>
<asrwt>0</asrwt>
<pdfrwt beam="1">  1        1 0.33830174E-01 0.10350926E+03</pdfrwt>
<pdfrwt beam="2">  1       -1 0.77627509E-02 0.10350926E+03</pdfrwt>
<totfact> 0.10786903E+04</totfact>
</mgrwt>
</event>
<event>
 8    1  0.3466492E-004  0.9187401E+02  0.7546771E-02  0.1302987E+00
         -1   -1    0    0    0  501 -0.00000000000E+00  0.00000000000E+00  0.55637402757E+02  0.55637402757E+02  0.00000000000E+00 0.  1.
          1   -1    0    0  501    0  0.00000000000E+00 -0.00000000000E+00 -0.13961413488E+03  0.13961413488E+03  0.00000000000E+00 0. -1.
         23    2    1    2    0    0 -0.95172420509E+01  0.17163978502E+02 -0.44094171614E+02  0.10190745918E+03  0.89753296379E+02 0.  0.
         23    2    1    2    0    0  0.95172420509E+01 -0.17163978502E+02 -0.39882560511E+02  0.93344078465E+02  0.82081168956E+02 0.  0.
          5    1    3    3  502    0 -0.17370512332E+02 -0.18732806637E+02  0.16581348378E+02  0.30816941075E+02  0.47000000000E+01 0. -1.
         -5    1    4    4    0  503 -0.21482356635E+02 -0.31102674036E+02  0.32480071739E+01  0.38229668183E+02  0.47000000000E+01 0.  1.
          5    1    4    4  503    0  0.30999598686E+02  0.13938695534E+02 -0.43130567685E+02  0.55114410282E+02  0.47000000000E+01 0. -1.
         -5    1    3    3    0  502  0.78532702810E+01  0.35896785139E+02 -0.60675519992E+02  0.71090518100E+02  0.47000000000E+01 0.  1.
<mgrwt>
<rscale>  0 0.89944282E+02</rscale>
<asrwt>0</asrwt>
<pdfrwt beam="1">  1        1 0.21479097E-01 0.91874013E+02</pdfrwt>
<pdfrwt beam="2">  1       -1 0.85596005E-02 0.91874013E+02</pdfrwt>
<totfact> 0.16168417E+04</totfact>
</mgrwt>
</event>
<event>
 8    1  0.3466492E-004  0.9024548E+02  0.7546771E-02  0.1302611E+00
         -1   -1    0    0    0  501 -0.00000000000E+00  0.00000000000E+00  0.80303776597E+02  0.80303776597E+02  0.00000000000E+00 0.  1.
          1   -1    0    0  501    0  0.00000000000E+00 -0.00000000000E+00 -0.10580393096E+03  0.10580393096E+03  0.00000000000E+00 0. -1.
         23    2    1    2    0    0 -0.29800449375E+01 -0.30934719300E+00  0.75197750910E+01  0.90558235111E+02  0.90195734741E+02 0.  0.
         23    2    1    2    0    0  0.29800449375E+01  0.30934719300E+00 -0.33019929453E+02  0.95549472445E+02  0.89612552580E+02 0.  0.
          5    1    3    3  502    0  0.12686745183E+02 -0.34277671004E+02  0.29244935264E+02  0.47045387355E+02  0.47000000000E+01 0. -1.
         -5    1    4    4    0  503  0.11362130801E+02  0.31381898751E+02  0.15531094895E+02  0.37111002333E+02  0.47000000000E+01 0.  1.
          5    1    4    4  503    0 -0.83820858638E+01 -0.31072551558E+02 -0.48551024348E+02  0.58438470112E+02  0.47000000000E+01 0. -1.
         -5    1    3    3    0  502 -0.15666790121E+02  0.33968323811E+02 -0.21725160173E+02  0.43512847755E+02  0.47000000000E+01 0.  1.
<mgrwt>
<rscale>  0 0.90099413E+02</rscale>
<asrwt>0</asrwt>
<pdfrwt beam="1">  1        1 0.16277528E-01 0.90245481E+02</pdfrwt>
<pdfrwt beam="2">  1       -1 0.12354427E-01 0.90245481E+02</pdfrwt>
<totfact> 0.13141964E+04</totfact>
</mgrwt>
</event>
<event>
 8    1  0.3466492E-004  0.9491638E+02  0.7546771E-02  0.1293972E+00
          1   -1    0    0  501    0  0.00000000000E+00  0.00000000000E+00  0.32247315769E+03  0.32247315769E+03  0.00000000000E+00 0. -1.
         -1   -1    0    0    0  501 -0.00000000000E+00 -0.00000000000E+00 -0.30303219723E+02  0.30303219723E+02  0.00000000000E+00 0.  1.
         23    2    1    2    0    0 -0.48655203478E+01  0.27918896511E+02  0.21062392440E+03  0.23102285086E+03  0.90586875522E+02 0.  0.
         23    2    1    2    0    0  0.48655203478E+01 -0.27918896511E+02  0.81546013564E+02  0.12175352656E+03  0.85854707674E+02 0.  0.
          5    1    4    4  502    0  0.25150891266E+02 -0.41064222744E+02  0.84071233075E+02  0.96999484286E+02  0.47000000000E+01 0. -1.
         -5    1    4    4    0  502 -0.20285370918E+02  0.13145326233E+02 -0.25252195107E+01  0.24754042269E+02  0.47000000000E+01 0.  1.
          5    1    3    3  503    0  0.38146134300E+02  0.21555267074E+02  0.61769300592E+02  0.75876831749E+02  0.47000000000E+01 0. -1.
         -5    1    3    3    0  503 -0.43011654648E+02  0.63636294369E+01  0.14885462381E+03  0.15514601911E+03  0.47000000000E+01 0.  1.
<mgrwt>
<rscale>  0 0.93769444E+02</rscale>
<asrwt>0</asrwt>
<pdfrwt beam="1">  1        1 0.49611253E-01 0.94916385E+02</pdfrwt>
<pdfrwt beam="2">  1       -1 0.46620340E-02 0.94916385E+02</pdfrwt>
<totfact> 0.14225582E+04</totfact>
</mgrwt>
</event>
<event>
 8    1  0.3466492E-004  0.1776100E+03  0.7546771E-02  0.1170297E+00
         -1   -1    0    0    0  501 -0.00000000000E+00  0.00000000000E+00  0.94349109329E+02  0.94349109329E+02  0.00000000000E+00 0.  1.
          1   -1    0    0  501    0  0.00000000000E+00 -0.00000000000E+00 -0.48457497418E+03  0.48457497418E+03  0.00000000000E+00 0. -1.
         23    2    1    2    0    0 -0.66901206665E+02 -0.13661986371E+03 -0.35669291284E+03  0.39817623388E+03  0.90408630917E+02 0.  0.
         23    2    1    2    0    0  0.66901206665E+02  0.13661986371E+03 -0.33532952015E+02  0.18074784963E+03  0.91676429158E+02 0.  0.
          5    1    4    4  502    0  0.11805071059E+02  0.11630634058E+03 -0.10401524118E+02  0.11745980703E+03  0.47000000000E+01 0. -1.
         -5    1    3    3    0  503 -0.32935088357E+02 -0.94220852479E+02 -0.12435970410E+03  0.15952966837E+03  0.47000000000E+01 0.  1.
          5    1    3    3  503    0 -0.33966118308E+02 -0.42399011229E+02 -0.23233320874E+03  0.23864656551E+03  0.47000000000E+01 0. -1.
         -5    1    4    4    0  502  0.55096135606E+02  0.20313523125E+02 -0.23131427897E+02  0.63288042607E+02  0.47000000000E+01 0.  1.
<mgrwt>
<rscale>  0 0.17744705E+03</rscale>
<asrwt>0</asrwt>
<pdfrwt beam="1">  1        1 0.74549996E-01 0.17761004E+03</pdfrwt>
<pdfrwt beam="2">  1       -1 0.14515248E-01 0.17761004E+03</pdfrwt>
<totfact> 0.15832718E+03</totfact>
</mgrwt>
</event>
<event>
 8    1  0.3466492E-004  0.1611330E+03  0.7546771E-02  0.1187502E+00
          4   -1    0    0  501    0  0.00000000000E+00  0.00000000000E+00  0.26747706489E+03  0.26747706489E+03  0.00000000000E+00 0. -1.
         -4   -1    0    0    0  501 -0.00000000000E+00 -0.00000000000E+00 -0.10029300097E+03  0.10029300097E+03  0.00000000000E+00 0.  1.
         23    2    1    2    0    0 -0.36318747047E+01  0.13182931635E+03  0.11747802328E+03  0.19941144022E+03  0.92583353660E+02 0.  0.
         23    2    1    2    0    0  0.36318747047E+01 -0.13182931635E+03  0.49706040634E+02  0.16835862564E+03  0.92096564473E+02 0.  0.
          5    1    4    4  502    0  0.43525973644E+02 -0.66325120140E+02  0.45109444894E+02  0.91380982495E+02  0.47000000000E+01 0. -1.
         -5    1    3    3    0  503 -0.79632834532E+01  0.60691505448E+02 -0.61980321853E+00  0.61395006906E+02  0.47000000000E+01 0.  1.
          5    1    3    3  503    0  0.43314087486E+01  0.71137810900E+02  0.11809782650E+03  0.13801643332E+03  0.47000000000E+01 0. -1.
         -5    1    4    4    0  502 -0.39894098939E+02 -0.65504196209E+02  0.45965957407E+01  0.76977643141E+02  0.47000000000E+01 0.  1.
<mgrwt>
<rscale>  0 0.16106313E+03</rscale>
<asrwt>0</asrwt>
<pdfrwt beam="1">  1        4 0.41150317E-01 0.16113298E+03</pdfrwt>
<pdfrwt beam="2">  1       -4 0.15429693E-01 0.16113298E+03</pdfrwt>
<totfact> 0.35380037E+02</totfact>
</mgrwt>
</event>
<event>
 8    1  0.3466492E-004  0.9729955E+02  0.7546771E-02  0.1286203E+00
          2   -1    0    0  501    0  0.00000000000E+00  0.00000000000E+00  0.76049582867E+03  0.76049582867E+03  0.00000000000E+00 0. -1.
         -2   -1    0    0    0  501 -0.00000000000E+00 -0.00000000000E+00 -0.15350927903E+02  0.15350927903E+02  0.00000000000E+00 0.  1.
         23    2    1    2    0    0 -0.22072714166E+02  0.25649715527E+02  0.20341257289E+03  0.22548586979E+03  0.91225490129E+02 0.  0.
         23    2    1    2    0    0  0.22072714166E+02 -0.25649715527E+02  0.54173232788E+03  0.55036088679E+03  0.90983943714E+02 0.  0.
          5    1    4    4  502    0 -0.20105546823E+02  0.11162257179E+02  0.47883578566E+02  0.53326879663E+02  0.47000000000E+01 0. -1.
         -5    1    4    4    0  502  0.42178260989E+02 -0.36811972706E+02  0.49384874932E+03  0.49703400712E+03  0.47000000000E+01 0.  1.
          5    1    3    3  503    0 -0.49498246059E+02  0.14092612511E+02  0.18016291821E+03  0.18742850687E+03  0.47000000000E+01 0. -1.
         -5    1    3    3    0  503  0.27425531893E+02  0.11557103016E+02  0.23249654678E+02  0.38057362919E+02  0.47000000000E+01 0.  1.
<mgrwt>
<rscale>  0 0.97242894E+02</rscale>
<asrwt>0</asrwt>
<pdfrwt beam="1">  1        2 0.11699933E+00 0.97299551E+02</pdfrwt>
<pdfrwt beam="2">  1       -2 0.23616818E-02 0.97299551E+02</pdfrwt>
<totfact> 0.21044909E+04</totfact>
</mgrwt>
</event>
<event>
 8    1  0.3466492E-004  0.9906858E+02  0.7546771E-02  0.1282920E+00
         -1   -1    0    0    0  501 -0.00000000000E+00  0.00000000000E+00  0.12269046549E+03  0.12269046549E+03  0.00000000000E+00 0.  1.
          1   -1    0    0  501    0  0.00000000000E+00 -0.00000000000E+00 -0.83116596441E+02  0.83116596441E+02  0.00000000000E+00 0. -1.
         23    2    1    2    0    0  0.19614042541E+02 -0.30229007283E+02 -0.31920159140E+01  0.97901992304E+02  0.90973114629E+02 0.  0.
         23    2    1    2    0    0 -0.19614042541E+02  0.30229007283E+02  0.42765884962E+02  0.10790506963E+03  0.92282607182E+02 0.  0.
          5    1    3    3  502    0  0.44271913826E+02 -0.44209594499E+02 -0.18411147118E+02  0.65387697144E+02  0.47000000000E+01 0. -1.
         -5    1    3    3    0  502 -0.24657871285E+02  0.13980587216E+02  0.15219131204E+02  0.32514295160E+02  0.47000000000E+01 0.  1.
          5    1    4    4  503    0 -0.21269619838E+02  0.56141120417E+02  0.52389149110E+02  0.79818137502E+02  0.47000000000E+01 0. -1.
         -5    1    4    4    0  503  0.16555772974E+01 -0.25912113134E+02 -0.96232641482E+01  0.28086932124E+02  0.47000000000E+01 0.  1.
<mgrwt>
<rscale>  0 0.98762503E+02</rscale>
<asrwt>0</asrwt>
<pdfrwt beam="1">  1        1 0.12787169E-01 0.99068578E+02</pdfrwt>
<pdfrwt beam="2">  1       -1 0.18875456E-01 0.99068578E+02</pdfrwt>
<totfact> 0.93498803E+03</totfact>
</mgrwt>
</event>
<event>
 8    1  0.3466492E-004  0.1220271E+03  0.7546771E-02  0.1245612E+00
         -1   -1    0    0    0  501 -0.00000000000E+00  0.00000000000E+00  0.22366476237E+03  0.22366476237E+03  0.00000000000E+00 0.  1.
          1   -1    0    0  501    0  0.00000000000E+00 -0.00000000000E+00 -0.14370406347E+03  0.14370406347E+03  0.00000000000E+00 0. -1.
         23    2    1    2    0    0 -0.45695047640E+02 -0.36331146455E+02  0.17960834933E+03  0.20982435578E+03  0.91428177000E+02 0.  0.
         23    2    1    2    0    0  0.45695047640E+02  0.36331146455E+02 -0.99647650433E+02  0.15754447005E+03  0.10715697003E+03 0.  0.
          5    1    4    4  502    0 -0.27772143110E+02  0.32263759645E+02 -0.60329151702E+02  0.73986070746E+02  0.47000000000E+01 0. -1.
         -5    1    4    4    0  502  0.73467190750E+02  0.40673868098E+01 -0.39318498731E+02  0.83558399306E+02  0.47000000000E+01 0.  1.
          5    1    3    3  503    0 -0.30602475748E+02  0.15473282849E+02  0.17255568295E+02  0.38675297558E+02  0.47000000000E+01 0. -1.
         -5    1    3    3    0  503 -0.15092571892E+02 -0.51804429304E+02  0.16235278104E+03  0.17114905823E+03  0.47000000000E+01 0.  1.
<mgrwt>
<rscale>  0 0.11848840E+03</rscale>
<asrwt>0</asrwt>
<pdfrwt beam="1">  1        1 0.22108318E-01 0.12202707E+03</pdfrwt>
<pdfrwt beam="2">  1       -1 0.34409963E-01 0.12202707E+03</pdfrwt>
<totfact> 0.17587062E+03</totfact>
</mgrwt>
</event>
<event>
 8    1  0.3466492E-004  0.1369642E+03  0.7546771E-02  0.1219343E+00
          2   -1    0    0  501    0  0.00000000000E+00  0.00000000000E+00  0.46157047059E+03  0.46157047059E+03  0.00000000000E+00 0. -1.
         -2   -1    0    0    0  501 -0.00000000000E+00 -0.00000000000E+00 -0.49720919571E+02  0.49720919571E+02  0.00000000000E+00 0.  1.
         23    2    1    2    0    0 -0.76111266975E+02 -0.57944291039E+02  0.32093985527E+03  0.34690231198E+03  0.90489543790E+02 0.  0.
         23    2    1    2    0    0  0.76111266975E+02  0.57944291039E+02  0.90909695745E+02  0.16438907817E+03  0.98024131811E+02 0.  0.
          5    1    4    4  502    0  0.48322435447E+02  0.43584187502E+02  0.10967249339E+03  0.12761185279E+03  0.47000000000E+01 0. -1.
         -5    1    3    3    0  503 -0.45808684560E+02 -0.58824859210E+02  0.10539841029E+03  0.12918867804E+03  0.47000000000E+01 0.  1.
          5    1    3    3  503    0 -0.30302582414E+02  0.88056817106E+00  0.21554144498E+03  0.21771363394E+03  0.47000000000E+01 0. -1.
         -5    1    4    4    0  502  0.27788831527E+02  0.14360103537E+02 -0.18762797641E+02  0.36777225379E+02  0.47000000000E+01 0.  1.
<mgrwt>
<rscale>  0 0.13562283E+03</rscale>
<asrwt>0</asrwt>
<pdfrwt beam="1">  1        2 0.71010839E-01 0.13696422E+03</pdfrwt>
<pdfrwt beam="2">  1       -2 0.76493725E-02 0.13696422E+03</pdfrwt>
<totfact> 0.66247136E+03</totfact>
</mgrwt>
</event>
<event>
 8    1  0.3466492E-004  0.1212932E+03  0.7546771E-02  0.1241658E+00
          1   -1    0    0  501    0  0.00000000000E+00  0.00000000000E+00  0.44186827167E+02  0.44186827167E+02  0.00000000000E+00 0. -1.
         -1   -1    0    0    0  501 -0.00000000000E+00 -0.00000000000E+00 -0.48784947024E+03  0.48784947024E+03  0.00000000000E+00 0.  1.
         23    2    1    2    0    0  0.74334012623E+02 -0.26842716114E+02 -0.68728097614E+02  0.13797036836E+03  0.89811994197E+02 0.  0.
         23    2    1    2    0    0 -0.74334012623E+02  0.26842716114E+02 -0.37493454546E+03  0.39406592905E+03  0.92010685355E+02 0.  0.
          5    1    3    3  502    0  0.47545442873E+02  0.90002231060E+01  0.77570779843E+01  0.49232462997E+02  0.47000000000E+01 0. -1.
         -5    1    4    4    0  503 -0.26559264870E+01 -0.23360596736E+02 -0.31273524697E+02  0.39406785867E+02  0.47000000000E+01 0.  1.
          5    1    4    4  503    0 -0.71678086136E+02  0.50203312850E+02 -0.34366102076E+03  0.35465914318E+03  0.47000000000E+01 0. -1.
         -5    1    3    3    0  502  0.26788569750E+02 -0.35842939220E+02 -0.76485175598E+02  0.88737905359E+02  0.47000000000E+01 0.  1.
<mgrwt>
<rscale>  0 0.12087624E+03</rscale>
<asrwt>0</asrwt>
<pdfrwt beam="1">  1        1 0.67979737E-02 0.12129321E+03</pdfrwt>
<pdfrwt beam="2">  1       -1 0.75053762E-01 0.12129321E+03</pdfrwt>
<totfact> 0.19568981E+03</totfact>
</mgrwt>
</event>
<event>
 8    1  0.3466492E-004  0.1242582E+03  0.7546771E-02  0.1237775E+00
         -3   -1    0    0    0  501 -0.00000000000E+00  0.00000000000E+00  0.86933152458E+02  0.86933152458E+02  0.00000000000E+00 0.  1.
          3   -1    0    0  501    0  0.00000000000E+00 -0.00000000000E+00 -0.17257110946E+03  0.17257110946E+03  0.00000000000E+00 0. -1.
         23    2    1    2    0    0 -0.47217619938E+02 -0.66876502964E+02 -0.37079277463E+02  0.12967259606E+03  0.93478013832E+02 0.  0.
         23    2    1    2    0    0  0.47217619938E+02  0.66876502964E+02 -0.48558679537E+02  0.12983166586E+03  0.88296918519E+02 0.  0.
          5    1    3    3  502    0 -0.73117089295E+02 -0.61008644189E+02 -0.38127178432E+02  0.10268366544E+03  0.47000000000E+01 0. -1.
         -5    1    3    3    0  502  0.25899469357E+02 -0.58678587749E+01  0.10479009683E+01  0.26988930620E+02  0.47000000000E+01 0.  1.
          5    1    4    4  503    0 -0.25837244425E+02  0.13112417188E+02 -0.15343171619E+02  0.33121014467E+02  0.47000000000E+01 0. -1.
         -5    1    4    4    0  503  0.73054864363E+02  0.53764085776E+02 -0.33215507918E+02  0.96710651392E+02  0.47000000000E+01 0.  1.
<mgrwt>
<rscale>  0 0.12328453E+03</rscale>
<asrwt>0</asrwt>
<pdfrwt beam="1">  1        3 0.26549401E-01 0.12425824E+03</pdfrwt>
<pdfrwt beam="2">  1       -3 0.13374331E-01 0.12425824E+03</pdfrwt>
<totfact> 0.13780516E+03</totfact>
</mgrwt>
</event>
<event>
 8    1  0.3466492E-004  0.1170835E+03  0.7546771E-02  0.1249188E+00
         -1   -1    0    0    0  501 -0.00000000000E+00  0.00000000000E+00  0.26978546563E+02  0.26978546563E+02  0.00000000000E+00 0.  1.
          1   -1    0    0  501    0  0.00000000000E+00 -0.00000000000E+00 -0.89201871275E+03  0.89201871275E+03  0.00000000000E+00 0. -1.
         23    2    1    2    0    0  0.12731931382E+02  0.71173880615E+02 -0.12930877160E+03  0.17443998841E+03  0.92090866998E+02 0.  0.
         23    2    1    2    0    0 -0.12731931382E+02 -0.71173880615E+02 -0.73573139459E+03  0.74455727091E+03  0.88526952500E+02 0.  0.
          5    1    4    4  502    0  0.36282883925E+02 -0.46287842921E+02 -0.39788510646E+03  0.40223582637E+03  0.47000000000E+01 0. -1.
         -5    1    4    4    0  502 -0.49014815307E+02 -0.24886037694E+02 -0.33784628813E+03  0.34232144454E+03  0.47000000000E+01 0.  1.
          5    1    3    3  503    0 -0.27345463270E+02  0.18613219465E+02 -0.93131960460E+02  0.98943814154E+02  0.47000000000E+01 0. -1.
         -5    1    3    3    0  503  0.40077394652E+02  0.52560661150E+02 -0.36176811139E+02  0.75496174252E+02  0.47000000000E+01 0.  1.
<mgrwt>
<rscale>  0 0.11638175E+03</rscale>
<asrwt>0</asrwt>
<pdfrwt beam="1">  1        1 0.13723364E+00 0.11708352E+03</pdfrwt>
<pdfrwt beam="2">  1       -1 0.41505457E-02 0.11708352E+03</pdfrwt>
<totfact> 0.43752593E+03</totfact>
</mgrwt>
</event>
<event>
 8    1  0.3466492E-004  0.1846593E+03  0.7546771E-02  0.1164316E+00
          1   -1    0    0  501    0  0.00000000000E+00  0.00000000000E+00  0.16482288834E+03  0.16482288834E+03  0.00000000000E+00 0. -1.
         -1   -1    0    0    0  501 -0.00000000000E+00 -0.00000000000E+00 -0.22671383891E+03  0.22671383891E+03  0.00000000000E+00 0.  1.
         23    2    1    2    0    0  0.12226485267E+03  0.10351678754E+03  0.33435497994E+02  0.18372381589E+03  0.83499032910E+02 0.  0.
         23    2    1    2    0    0 -0.12226485267E+03 -0.10351678754E+03 -0.95326448564E+02  0.20781291136E+03  0.91840376907E+02 0.  0.
          5    1    3    3  502    0  0.63949958620E+02  0.67999253782E+02 -0.21566697271E+02  0.95920321901E+02  0.47000000000E+01 0. -1.
         -5    1    4    4    0  503 -0.79544546886E+02 -0.10862482043E+03 -0.46384788950E+02  0.14247920970E+03  0.47000000000E+01 0.  1.
          5    1    4    4  503    0 -0.42720305786E+02  0.51080328835E+01 -0.48941659615E+02  0.65333701657E+02  0.47000000000E+01 0. -1.
         -5    1    3    3    0  502  0.58314894052E+02  0.35517533760E+02  0.55002195265E+02  0.87803493989E+02  0.47000000000E+01 0.  1.
<mgrwt>
<rscale>  0 0.18365021E+03</rscale>
<asrwt>0</asrwt>
<pdfrwt beam="1">  1        1 0.25357367E-01 0.18465935E+03</pdfrwt>
<pdfrwt beam="2">  1       -1 0.34879052E-01 0.18465935E+03</pdfrwt>
<totfact> 0.14638497E+03</totfact>
</mgrwt>
</event>
<event>
 8    1  0.3466492E-004  0.9321889E+02  0.7546771E-02  0.1295983E+00
         -2   -1    0    0    0  501 -0.00000000000E+00  0.00000000000E+00  0.10625598090E+03  0.10625598090E+03  0.00000000000E+00 0.  1.
          2   -1    0    0  501    0  0.00000000000E+00 -0.00000000000E+00 -0.86503255102E+02  0.86503255102E+02  0.00000000000E+00 0. -1.
         23    2    1    2    0    0 -0.16043805803E+02  0.50535837361E+01 -0.15228450087E+02  0.93192957651E+02  0.90388490697E+02 0.  0.
         23    2    1    2    0    0  0.16043805803E+02 -0.50535837361E+01  0.34981175882E+02  0.99566278347E+02  0.91688705436E+02 0.  0.
          5    1    3    3  502    0  0.26933290735E+02  0.29296790720E+02  0.34571534323E+01  0.40221213385E+02  0.47000000000E+01 0. -1.
         -5    1    4    4    0  503  0.16960881526E+02 -0.31151352336E+02  0.55493870777E+02  0.66028311718E+02  0.47000000000E+01 0.  1.
          5    1    4    4  503    0 -0.91707572233E+00  0.26097768600E+02 -0.20512694895E+02  0.33537966629E+02  0.47000000000E+01 0. -1.
         -5    1    3    3    0  502 -0.42977096538E+02 -0.24243206984E+02 -0.18685603519E+02  0.52971744266E+02  0.47000000000E+01 0.  1.
<mgrwt>
<rscale>  0 0.92897588E+02</rscale>
<asrwt>0</asrwt>
<pdfrwt beam="1">  1        2 0.13308193E-01 0.93218888E+02</pdfrwt>
<pdfrwt beam="2">  1       -2 0.16347074E-01 0.93218888E+02</pdfrwt>
<totfact> 0.12044793E+04</totfact>
</mgrwt>
</event>
<event>
 8    1  0.3466492E-004  0.9663745E+02  0.7546771E-02  0.1291044E+00
         -1   -1    0    0    0  501 -0.00000000000E+00  0.00000000000E+00  0.24289870055E+02  0.24289870055E+02  0.00000000000E+00 0.  1.
          1   -1    0    0  501    0  0.00000000000E+00 -0.00000000000E+00 -0.40252431890E+03  0.40252431890E+03  0.00000000000E+00 0. -1.
         23    2    1    2    0    0  0.12211177678E+02  0.29870765328E+02 -0.26373919307E+03  0.28088638053E+03  0.91090182386E+02 0.  0.
         23    2    1    2    0    0 -0.12211177678E+02 -0.29870765328E+02 -0.11449525578E+03  0.14592780843E+03  0.84524470980E+02 0.  0.
          5    1    3    3  502    0  0.13160007715E+02  0.58892911500E+02 -0.22000980416E+03  0.22818405894E+03  0.47000000000E+01 0. -1.
         -5    1    3    3    0  502 -0.94883003711E+00 -0.29022146172E+02 -0.43729388903E+02  0.52702321587E+02  0.47000000000E+01 0.  1.
          5    1    4    4  503    0 -0.80403329520E+01 -0.52221699446E+02 -0.36093660595E+02  0.64160698111E+02  0.47000000000E+01 0. -1.
         -5    1    4    4    0  503 -0.41708447257E+01  0.22350934118E+02 -0.78401595187E+02  0.81767110316E+02  0.47000000000E+01 0.  1.
<mgrwt>
<rscale>  0 0.95058615E+02</rscale>
<asrwt>0</asrwt>
<pdfrwt beam="1">  1        1 0.61926819E-01 0.96637450E+02</pdfrwt>
<pdfrwt beam="2">  1       -1 0.37369031E-02 0.96637450E+02</pdfrwt>
<totfact> 0.14954627E+04</totfact>
</mgrwt>
</event>
<event>
 8    1  0.3466492E-004  0.1223681E+03  0.7546771E-02  0.1239816E+00
         -1   -1    0    0    0  501 -0.00000000000E+00  0.00000000000E+00  0.58435298265E+02  0.58435298265E+02  0.00000000000E+00 0.  1.
          1   -1    0    0  501    0  0.00000000000E+00 -0.00000000000E+00 -0.28421380284E+03  0.28421380284E+03  0.00000000000E+00 0. -1.
         23    2    1    2    0    0  0.72930709559E+02 -0.31338355002E+02 -0.16999794823E+03  0.20945941753E+03  0.93128751192E+02 0.  0.
         23    2    1    2    0    0 -0.72930709559E+02  0.31338355002E+02 -0.55780556347E+02  0.13318968358E+03  0.91252618888E+02 0.  0.
          5    1    4    4  502    0 -0.49045383990E+02  0.63410532349E+02 -0.32117943708E+02  0.86486979434E+02  0.47000000000E+01 0. -1.
         -5    1    3    3    0  503  0.17040078582E+02  0.16119489702E+02  0.36855800070E+00  0.23925468884E+02  0.47000000000E+01 0.  1.
          5    1    3    3  503    0  0.55890630977E+02 -0.47457844704E+02 -0.17036650623E+03  0.18553394864E+03  0.47000000000E+01 0. -1.
         -5    1    4    4    0  502 -0.23885325568E+02 -0.32072177348E+02 -0.23662612639E+02  0.46702704143E+02  0.47000000000E+01 0.  1.
<mgrwt>
<rscale>  0 0.12201108E+03</rscale>
<asrwt>0</asrwt>
<pdfrwt beam="1">  1        1 0.43725199E-01 0.12236807E+03</pdfrwt>
<pdfrwt beam="2">  1       -1 0.89900461E-02 0.12236807E+03</pdfrwt>
<totfact> 0.63916881E+03</totfact>
</mgrwt>
</event>
<event>
 8    1  0.3466492E-004  0.1191760E+03  0.7546771E-02  0.1246377E+00
          1   -1    0    0  501    0  0.00000000000E+00  0.00000000000E+00  0.58695885163E+03  0.58695885163E+03  0.00000000000E+00 0. -1.
         -1   -1    0    0    0  501 -0.00000000000E+00 -0.00000000000E+00 -0.25117990948E+02  0.25117990948E+02  0.00000000000E+00 0.  1.
         23    2    1    2    0    0  0.56102793880E+02  0.31303180595E+02  0.35841620002E+03  0.37631317023E+03  0.94984298989E+02 0.  0.
         23    2    1    2    0    0 -0.56102793880E+02 -0.31303180595E+02  0.20342466066E+03  0.23576367235E+03  0.10037681026E+03 0.  0.
          5    1    4    4  502    0 -0.31389356232E+02 -0.67651422289E+02  0.13500645840E+03  0.15430761625E+03  0.47000000000E+01 0. -1.
         -5    1    3    3    0  503  0.40340217992E+02  0.19727382002E+01  0.43265880962E+02  0.59373827054E+02  0.47000000000E+01 0.  1.
          5    1    3    3  503    0  0.15762575888E+02  0.29330442395E+02  0.31515031906E+03  0.31693934317E+03  0.47000000000E+01 0. -1.
         -5    1    4    4    0  502 -0.24713437648E+02  0.36348241695E+02  0.68418202258E+02  0.81456056097E+02  0.47000000000E+01 0.  1.
<mgrwt>
<rscale>  0 0.11803341E+03</rscale>
<asrwt>0</asrwt>
<pdfrwt beam="1">  1        1 0.90301352E-01 0.11917599E+03</pdfrwt>
<pdfrwt beam="2">  1       -1 0.38643067E-02 0.11917599E+03</pdfrwt>
<totfact> 0.89063482E+03</totfact>
</mgrwt>
</event>
<event>
 8    1  0.3466492E-004  0.9144836E+02  0.7546771E-02  0.1299571E+00
         -1   -1    0    0    0  501 -0.00000000000E+00  0.00000000000E+00  0.37744958133E+03  0.37744958133E+03  0.00000000000E+00 0.  1.
          1   -1    0    0  501    0  0.00000000000E+00 -0.00000000000E+00 -0.28587673591E+02  0.28587673591E+02  0.00000000000E+00 0. -1.
         23    2    1    2    0    0  0.92839045344E+00 -0.77183504983E+01  0.27153603335E+03  0.28652158655E+03  0.91117327165E+02 0.  0.
         23    2    1    2    0    0 -0.92839045344E+00  0.77183504983E+01  0.77325874398E+02  0.11951566838E+03  0.90797958638E+02 0.  0.
          5    1    3    3  502    0 -0.40796747996E+02 -0.93118870531E+01  0.79728959168E+02  0.90165862817E+02  0.47000000000E+01 0. -1.
         -5    1    3    3    0  502  0.41725138449E+02  0.15935365549E+01  0.19180707418E+03  0.19635572373E+03  0.47000000000E+01 0.  1.
          5    1    4    4  503    0 -0.35977348412E+02  0.19777148307E+02  0.99972694617E+01  0.42515180708E+02  0.47000000000E+01 0. -1.
         -5    1    4    4    0  503  0.35048957959E+02 -0.12058797809E+02  0.67328604937E+02  0.77000487669E+02  0.47000000000E+01 0.  1.
<mgrwt>
<rscale>  0 0.91368702E+02</rscale>
<asrwt>0</asrwt>
<pdfrwt beam="1">  1        1 0.43981039E-02 0.91448358E+02</pdfrwt>
<pdfrwt beam="2">  1       -1 0.58069163E-01 0.91448358E+02</pdfrwt>
<totfact> 0.56835878E+03</totfact>
</mgrwt>
</event>
<event>
 8    1  0.3466492E-004  0.1279582E+03  0.7546771E-02  0.1230969E+00
          2   -1    0    0  501    0  0.00000000000E+00  0.00000000000E+00  0.19806339081E+03  0.19806339081E+03  0.00000000000E+00 0. -1.
         -2   -1    0    0    0  501 -0.00000000000E+00 -0.00000000000E+00 -0.19721433870E+03  0.19721433870E+03  0.00000000000E+00 0.  1.
         23    2    1    2    0    0  0.38486428502E+02 -0.79921842154E+02 -0.15070077032E+03  0.19769680509E+03  0.92220380265E+02 0.  0.
         23    2    1    2    0    0 -0.38486428502E+02  0.79921842154E+02  0.15154982243E+03  0.19758092441E+03  0.90565815746E+02 0.  0.
          5    1    3    3  502    0 -0.11477402006E+02 -0.28901850738E+02 -0.65397885919E+00  0.31457358777E+02  0.47000000000E+01 0. -1.
         -5    1    3    3    0  502  0.49963830508E+02 -0.51019991416E+02 -0.15004679146E+03  0.16623944631E+03  0.47000000000E+01 0.  1.
          5    1    4    4  503    0 -0.62591778161E+02  0.72009240867E+02  0.91744980517E+02  0.13244732128E+03  0.47000000000E+01 0. -1.
         -5    1    4    4    0  503  0.24105349659E+02  0.79126012864E+01  0.59804841913E+02  0.65133603136E+02  0.47000000000E+01 0.  1.
<mgrwt>
<rscale>  0 0.12766036E+03</rscale>
<asrwt>0</asrwt>
<pdfrwt beam="1">  1        2 0.30471291E-01 0.12795821E+03</pdfrwt>
<pdfrwt beam="2">  1       -2 0.30340668E-01 0.12795821E+03</pdfrwt>
<totfact> 0.16830837E+03</totfact>
</mgrwt>
</event>
<event>
 8    1  0.3466492E-004  0.9681334E+02  0.7546771E-02  0.1288948E+00
         -1   -1    0    0    0  501 -0.00000000000E+00  0.00000000000E+00  0.10486965978E+03  0.10486965978E+03  0.00000000000E+00 0.  1.
          1   -1    0    0  501    0  0.00000000000E+00 -0.00000000000E+00 -0.86427772154E+02  0.86427772154E+02  0.00000000000E+00 0. -1.
         23    2    1    2    0    0  0.15473269271E+02  0.29042649696E+02  0.99240697818E+01  0.94110109287E+02  0.87608949005E+02 0.  0.
         23    2    1    2    0    0 -0.15473269271E+02 -0.29042649696E+02  0.85178178395E+01  0.97187322643E+02  0.91049024698E+02 0.  0.
          5    1    4    4  502    0 -0.39049522529E+02 -0.31963491101E+02 -0.24457975798E+02  0.56274439608E+02  0.47000000000E+01 0. -1.
         -5    1    4    4    0  502  0.23576253258E+02  0.29208414053E+01  0.32975793637E+02  0.40912883035E+02  0.47000000000E+01 0.  1.
          5    1    3    3  503    0 -0.24013261301E+02  0.42940206489E+02 -0.43985965895E+01  0.49617897009E+02  0.47000000000E+01 0. -1.
         -5    1    3    3    0  503  0.39486530572E+02 -0.13897556792E+02  0.14322666371E+02  0.44492212278E+02  0.47000000000E+01 0.  1.
<mgrwt>
<rscale>  0 0.95996061E+02</rscale>
<asrwt>0</asrwt>
<pdfrwt beam="1">  1        1 0.13296580E-01 0.96813338E+02</pdfrwt>
<pdfrwt beam="2">  1       -1 0.16133794E-01 0.96813338E+02</pdfrwt>
<totfact> 0.11353372E+04</totfact>
</mgrwt>
</event>
<event>
 8    1  0.3466492E-004  0.9226499E+02  0.7546771E-02  0.1297580E+00
          3   -1    0    0  501    0  0.00000000000E+00  0.00000000000E+00  0.29446964725E+03  0.29446964725E+03  0.00000000000E+00 0. -1.
         -3   -1    0    0    0  501 -0.00000000000E+00 -0.00000000000E+00 -0.51654423330E+02  0.51654423330E+02  0.00000000000E+00 0.  1.
         23    2    1    2    0    0  0.25668774603E+01 -0.10672431419E+02  0.64787859053E+01  0.92492177986E+02  0.91609708380E+02 0.  0.
         23    2    1    2    0    0 -0.25668774603E+01  0.10672431419E+02  0.23633643801E+03  0.25363189259E+03  0.91398771079E+02 0.  0.
          5    1    4    4  502    0  0.32182345608E+02  0.33092258944E+02  0.16112255071E+03  0.16767041277E+03  0.47000000000E+01 0. -1.
         -5    1    3    3    0  503  0.26517184517E+01 -0.43037327004E+02  0.29537015863E+02  0.52476360701E+02  0.47000000000E+01 0.  1.
          5    1    3    3  503    0 -0.84840991349E-01  0.32364895584E+02 -0.23058229958E+02  0.40015817285E+02  0.47000000000E+01 0. -1.
         -5    1    4    4    0  502 -0.34749223068E+02 -0.22419827525E+02  0.75213887301E+02  0.85961479821E+02  0.47000000000E+01 0.  1.
<mgrwt>
<rscale>  0 0.92212586E+02</rscale>
<asrwt>0</asrwt>
<pdfrwt beam="1">  1        3 0.45303022E-01 0.92264990E+02</pdfrwt>
<pdfrwt beam="2">  1       -3 0.79468346E-02 0.92264990E+02</pdfrwt>
<totfact> 0.11299611E+03</totfact>
</mgrwt>
</event>
<event>
 8    1  0.3466492E-004  0.2299245E+03  0.7546771E-02  0.1126788E+00
         -4   -1    0    0    0  501 -0.00000000000E+00  0.00000000000E+00  0.20254163953E+03  0.20254163953E+03  0.00000000000E+00 0.  1.
          4   -1    0    0  501    0  0.00000000000E+00 -0.00000000000E+00 -0.29657682036E+03  0.29657682036E+03  0.00000000000E+00 0. -1.
         23    2    1    2    0    0 -0.81073643926E+02  0.19429426716E+03 -0.13413243063E+03  0.26572380463E+03  0.91073780034E+02 0.  0.
         23    2    1    2    0    0  0.81073643926E+02 -0.19429426716E+03  0.40097249799E+02  0.23339465527E+03  0.92423361086E+02 0.  0.
          5    1    3    3  502    0 -0.26100048013E+02  0.13944263431E+03 -0.12162822549E+03  0.18692505451E+03  0.47000000000E+01 0. -1.
         -5    1    4    4    0  503  0.53206125794E+02 -0.12582443860E+03  0.69928004782E+02  0.15354053870E+03  0.47000000000E+01 0.  1.
          5    1    4    4  503    0  0.27867518132E+02 -0.68469828558E+02 -0.29830754983E+02  0.79854116565E+02  0.47000000000E+01 0. -1.
         -5    1    3    3    0  502 -0.54973595913E+02  0.54851632850E+02 -0.12504205144E+02  0.78798750118E+02  0.47000000000E+01 0.  1.
<mgrwt>
<rscale>  0 0.22978959E+03</rscale>
<asrwt>0</asrwt>
<pdfrwt beam="1">  1        4 0.45627203E-01 0.22992450E+03</pdfrwt>
<pdfrwt beam="2">  1       -4 0.31160252E-01 0.22992450E+03</pdfrwt>
<totfact> 0.83593289E+01</totfact>
</mgrwt>
</event>
<event>
 8    1  0.3466492E-004  0.9399510E+02  0.7546771E-02  0.1294162E+00
         -1   -1    0    0    0  501 -0.00000000000E+00  0.00000000000E+00  0.46282745508E+02  0.46282745508E+02  0.00000000000E+00 0.  1.
          1   -1    0    0  501    0  0.00000000000E+00 -0.00000000000E+00 -0.18844472373E+03  0.18844472373E+03  0.00000000000E+00 0. -1.
         23    2    1    2    0    0  0.88932905548E+01  0.18890564225E+02 -0.68998643308E+02  0.11561427737E+03  0.90387523031E+02 0.  0.
         23    2    1    2    0    0 -0.88932905548E+01 -0.18890564225E+02 -0.73163334910E+02  0.11911319186E+03  0.91646794092E+02 0.  0.
          5    1    3    3  502    0 -0.36194266575E+02  0.90178930786E+01 -0.55970943706E+02  0.67425394829E+02  0.47000000000E+01 0. -1.
         -5    1    4    4    0  503 -0.23322095501E+01  0.36624697917E+02 -0.21179332001E+02  0.42631699508E+02  0.47000000000E+01 0.  1.
          5    1    4    4  503    0 -0.65610810047E+01 -0.55515262142E+02 -0.51984002909E+02  0.76481492357E+02  0.47000000000E+01 0. -1.
         -5    1    3    3    0  502  0.45087557130E+02  0.98726711462E+01 -0.13027699602E+02  0.48188882540E+02  0.47000000000E+01 0.  1.
<mgrwt>
<rscale>  0 0.93686739E+02</rscale>
<asrwt>0</asrwt>
<pdfrwt beam="1">  1        1 0.28991497E-01 0.93995100E+02</pdfrwt>
<pdfrwt beam="2">  1       -1 0.71204222E-02 0.93995100E+02</pdfrwt>
<totfact> 0.14700081E+04</totfact>
</mgrwt>
</event>
<event>
 8    1  0.3466492E-004  0.1902348E+03  0.7546771E-02  0.1161410E+00
         -2   -1    0    0    0  501 -0.00000000000E+00  0.00000000000E+00  0.79461112849E+02  0.79461112849E+02  0.00000000000E+00 0.  1.
          2   -1    0    0  501    0  0.00000000000E+00 -0.00000000000E+00 -0.51350074353E+03  0.51350074353E+03  0.00000000000E+00 0. -1.
         23    2    1    2    0    0  0.24999792535E+02  0.14878221711E+03 -0.99687310372E+02  0.21477162795E+03  0.11587991443E+03 0.  0.
         23    2    1    2    0    0 -0.24999792535E+02 -0.14878221711E+03 -0.33435232031E+03  0.37819022844E+03  0.92061050576E+02 0.  0.
          5    1    3    3  502    0  0.14784525709E+01  0.16194019612E+03 -0.92175936072E+02  0.18640092846E+03  0.47000000000E+01 0. -1.
         -5    1    3    3    0  502  0.23521339964E+02 -0.13157979011E+02 -0.75113742991E+01  0.28370699484E+02  0.47000000000E+01 0.  1.
          5    1    4    4  503    0 -0.27727681542E+02 -0.18045121354E+02 -0.13973389368E+03  0.14367359455E+03  0.47000000000E+01 0. -1.
         -5    1    4    4    0  503  0.27278890064E+01 -0.13073709575E+03 -0.19461842663E+03  0.23451663389E+03  0.47000000000E+01 0.  1.
<mgrwt>
<rscale>  0 0.18676699E+03</rscale>
<asrwt>0</asrwt>
<pdfrwt beam="1">  1        2 0.79000118E-01 0.19023483E+03</pdfrwt>
<pdfrwt beam="2">  1       -2 0.12224786E-01 0.19023483E+03</pdfrwt>
<totfact> 0.28582762E+03</totfact>
</mgrwt>
</event>
<event>
 8    1  0.3466492E-004  0.9848509E+02  0.7546771E-02  0.1285097E+00
         -1   -1    0    0    0  501 -0.00000000000E+00  0.00000000000E+00  0.15421437320E+03  0.15421437320E+03  0.00000000000E+00 0.  1.
          1   -1    0    0  501    0  0.00000000000E+00 -0.00000000000E+00 -0.78474954052E+02  0.78474954052E+02  0.00000000000E+00 0. -1.
         23    2    1    2    0    0  0.22836642536E+02 -0.21929813825E+02  0.93121244852E+02  0.13553921919E+03  0.93257089383E+02 0.  0.
         23    2    1    2    0    0 -0.22836642536E+02  0.21929813825E+02 -0.17381825700E+02  0.97150108062E+02  0.90186399502E+02 0.  0.
          5    1    3    3  502    0 -0.24806197049E+02  0.66276427084E+01 -0.10296947432E+01  0.26123233551E+02  0.47000000000E+01 0. -1.
         -5    1    4    4    0  503  0.89479854107E+01  0.35233299449E+02  0.23452066348E+02  0.43514839411E+02  0.47000000000E+01 0.  1.
          5    1    4    4  503    0 -0.31784627947E+02 -0.13303485624E+02 -0.40833892048E+02  0.53635268651E+02  0.47000000000E+01 0. -1.
         -5    1    3    3    0  502  0.47642839585E+02 -0.28557456534E+02  0.94150939596E+02  0.10941598564E+03  0.47000000000E+01 0.  1.
<mgrwt>
<rscale>  0 0.97751286E+02</rscale>
<asrwt>0</asrwt>
<pdfrwt beam="1">  1        1 0.12073070E-01 0.98485094E+02</pdfrwt>
<pdfrwt beam="2">  1       -1 0.23725288E-01 0.98485094E+02</pdfrwt>
<totfact> 0.69814066E+03</totfact>
</mgrwt>
</event>
<event>
 8    1  0.3466492E-004  0.1803075E+03  0.7546771E-02  0.1169335E+00
          2   -1    0    0  501    0  0.00000000000E+00  0.00000000000E+00  0.41208829879E+03  0.41208829879E+03  0.00000000000E+00 0. -1.
         -2   -1    0    0    0  501 -0.00000000000E+00 -0.00000000000E+00 -0.12666049555E+03  0.12666049555E+03  0.00000000000E+00 0.  1.
         23    2    1    2    0    0 -0.26012900817E+02 -0.14412587604E+03 -0.29944343513E+02  0.17547151618E+03  0.91894777477E+02 0.  0.
         23    2    1    2    0    0  0.26012900817E+02  0.14412587604E+03  0.31537214675E+03  0.36327727817E+03  0.10517533330E+03 0.  0.
          5    1    3    3  502    0  0.15882554711E+02 -0.11940491079E+03 -0.51211899003E+01  0.12065697183E+03  0.47000000000E+01 0. -1.
         -5    1    4    4    0  503 -0.34591505500E+02  0.96601560154E+02  0.16753589804E+03  0.19651666802E+03  0.47000000000E+01 0.  1.
          5    1    4    4  503    0  0.60604406317E+02  0.47524315885E+02  0.14783624871E+03  0.16676061015E+03  0.47000000000E+01 0. -1.
         -5    1    3    3    0  502 -0.41895455528E+02 -0.24720965251E+02 -0.24823153613E+02  0.54814544348E+02  0.47000000000E+01 0.  1.
<mgrwt>
<rscale>  0 0.17842577E+03</rscale>
<asrwt>0</asrwt>
<pdfrwt beam="1">  1        2 0.63398199E-01 0.18030749E+03</pdfrwt>
<pdfrwt beam="2">  1       -2 0.19486230E-01 0.18030749E+03</pdfrwt>
<totfact> 0.16820436E+03</totfact>
</mgrwt>
</event>
<event>
 8    1  0.3466492E-004  0.9726568E+02  0.7546771E-02  0.1287898E+00
         -1   -1    0    0    0  501 -0.00000000000E+00  0.00000000000E+00  0.37661053829E+03  0.37661053829E+03  0.00000000000E+00 0.  1.
          1   -1    0    0  501    0  0.00000000000E+00 -0.00000000000E+00 -0.28005678750E+02  0.28005678750E+02  0.00000000000E+00 0. -1.
         23    2    1    2    0    0  0.35176128183E+01 -0.20070307847E+02  0.24524728296E+03  0.26268876573E+03  0.91891060432E+02 0.  0.
         23    2    1    2    0    0 -0.35176128183E+01  0.20070307847E+02  0.10335757658E+03  0.14192745130E+03  0.95107423160E+02 0.  0.
          5    1    3    3  502    0  0.27974806635E+02  0.22827214505E+02  0.15972593765E+03  0.16382349247E+03  0.47000000000E+01 0. -1.
         -5    1    3    3    0  502 -0.24457193817E+02 -0.42897522352E+02  0.85521345310E+02  0.98865273261E+02  0.47000000000E+01 0.  1.
          5    1    4    4  503    0  0.27033931541E+01  0.44346909449E+02  0.10857632218E+02  0.45977547669E+02  0.47000000000E+01 0. -1.
         -5    1    4    4    0  503 -0.62210059724E+01 -0.24276601602E+02  0.92499944363E+02  0.95949903636E+02  0.47000000000E+01 0.  1.
<mgrwt>
<rscale>  0 0.96470334E+02</rscale>
<asrwt>0</asrwt>
<pdfrwt beam="1">  1        1 0.43085662E-02 0.97265681E+02</pdfrwt>
<pdfrwt beam="2">  1       -1 0.57940079E-01 0.97265681E+02</pdfrwt>
<totfact> 0.58990833E+03</totfact>
</mgrwt>
</event>
<event>
 8    1  0.3466492E-004  0.1107525E+03  0.7546771E-02  0.1263367E+00
          2   -1    0    0  501    0  0.00000000000E+00  0.00000000000E+00  0.47680673404E+02  0.47680673404E+02  0.00000000000E+00 0. -1.
         -2   -1    0    0    0  501 -0.00000000000E+00 -0.00000000000E+00 -0.26295233532E+03  0.26295233532E+03  0.00000000000E+00 0.  1.
         23    2    1    2    0    0  0.24203491771E+02 -0.34112985560E+02 -0.55254085437E+02  0.11602636400E+03  0.93056963130E+02 0.  0.
         23    2    1    2    0    0 -0.24203491771E+02  0.34112985560E+02 -0.16001757648E+03  0.19460664473E+03  0.10255055627E+03 0.  0.
          5    1    3    3  502    0 -0.25758654328E+02 -0.39989151565E+02 -0.42392683297E+02  0.63889514890E+02  0.47000000000E+01 0. -1.
         -5    1    3    3    0  502  0.49962146099E+02  0.58761660058E+01 -0.12861402139E+02  0.52136849106E+02  0.47000000000E+01 0.  1.
          5    1    4    4  503    0  0.16656186490E+02  0.11622052844E+02  0.63248682856E+01  0.21785192667E+02  0.47000000000E+01 0. -1.
         -5    1    4    4    0  503 -0.40859678261E+02  0.22490932715E+02 -0.16634244476E+03  0.17282145206E+03  0.47000000000E+01 0.  1.
<mgrwt>
<rscale>  0 0.10850303E+03</rscale>
<asrwt>0</asrwt>
<pdfrwt beam="1">  1        2 0.73354883E-02 0.11075252E+03</pdfrwt>
<pdfrwt beam="2">  1       -2 0.40454205E-01 0.11075252E+03</pdfrwt>
<totfact> 0.51775393E+03</totfact>
</mgrwt>
</event>
<event>
 8    1  0.3466492E-004  0.2703924E+03  0.7546771E-02  0.1101233E+00
          1   -1    0    0  501    0  0.00000000000E+00  0.00000000000E+00  0.16119769461E+03  0.16119769461E+03  0.00000000000E+00 0. -1.
         -1   -1    0    0    0  501 -0.00000000000E+00 -0.00000000000E+00 -0.46078497250E+03  0.46078497250E+03  0.00000000000E+00 0.  1.
         23    2    1    2    0    0 -0.25103360430E+03 -0.37066217945E+02 -0.10593562199E+03  0.29040388433E+03  0.93382466375E+02 0.  0.
         23    2    1    2    0    0  0.25103360430E+03  0.37066217945E+02 -0.19365165590E+03  0.33157878278E+03  0.89731546039E+02 0.  0.
          5    1    4    4  502    0  0.80320604545E+02  0.25869424464E+02 -0.11630208376E+03  0.14376679493E+03  0.47000000000E+01 0. -1.
         -5    1    4    4    0  502  0.17071299975E+03  0.11196793481E+02 -0.77349572135E+02  0.18781198785E+03  0.47000000000E+01 0.  1.
          5    1    3    3  503    0 -0.87823042158E+02  0.24459953026E+02 -0.62378525411E+02  0.11056376653E+03  0.47000000000E+01 0. -1.
         -5    1    3    3    0  503 -0.16321056214E+03 -0.61526170971E+02 -0.43557096580E+02  0.17984011780E+03  0.47000000000E+01 0.  1.
<mgrwt>
<rscale>  0 0.27008212E+03</rscale>
<asrwt>0</asrwt>
<pdfrwt beam="1">  1        1 0.24799646E-01 0.27039242E+03</pdfrwt>
<pdfrwt beam="2">  1       -1 0.70889995E-01 0.27039242E+03</pdfrwt>
<totfact> 0.40563369E+02</totfact>
</mgrwt>
</event>
<event>
 8    1  0.3466492E-004  0.1117952E+03  0.7546771E-02  0.1260268E+00
          4   -1    0    0  501    0  0.00000000000E+00  0.00000000000E+00  0.95250045042E+02  0.95250045042E+02  0.00000000000E+00 0. -1.
         -4   -1    0    0    0  501 -0.00000000000E+00 -0.00000000000E+00 -0.12503843823E+03  0.12503843823E+03  0.00000000000E+00 0.  1.
         23    2    1    2    0    0 -0.66656866567E+02  0.27034567425E+01 -0.44797094539E+01  0.11188489723E+03  0.89709062482E+02 0.  0.
         23    2    1    2    0    0  0.66656866567E+02 -0.27034567425E+01 -0.25308683735E+02  0.10840358605E+03  0.81611037591E+02 0.  0.
          5    1    4    4  502    0  0.75047863301E+02  0.21711383153E+02 -0.24994957103E+02  0.82160841190E+02  0.47000000000E+01 0.  1.
         -5    1    4    4    0  502 -0.83909967332E+01 -0.24414839895E+02 -0.31372663243E+00  0.26242744858E+02  0.47000000000E+01 0. -1.
          5    1    3    3  503    0 -0.47380758432E+02 -0.16328638518E+02 -0.41870949504E+02  0.65473865914E+02  0.47000000000E+01 0. -1.
         -5    1    3    3    0  503 -0.19276108135E+02  0.19032095260E+02  0.37391240050E+02  0.46411031311E+02  0.47000000000E+01 0.  1.
<mgrwt>
<rscale>  0 0.11016294E+03</rscale>
<asrwt>0</asrwt>
<pdfrwt beam="1">  1        4 0.14653853E-01 0.11179518E+03</pdfrwt>
<pdfrwt beam="2">  1       -4 0.19236683E-01 0.11179518E+03</pdfrwt>
<totfact> 0.14970274E+03</totfact>
</mgrwt>
</event>
<event>
 8    1  0.3466492E-004  0.1162661E+03  0.7546771E-02  0.1249565E+00
         -2   -1    0    0    0  501 -0.00000000000E+00  0.00000000000E+00  0.65353762290E+02  0.65353762290E+02  0.00000000000E+00 0.  1.
          2   -1    0    0  501    0  0.00000000000E+00 -0.00000000000E+00 -0.28892246598E+03  0.28892246598E+03  0.00000000000E+00 0. -1.
         23    2    1    2    0    0  0.38864971137E+01  0.71065020323E+02 -0.20676381424E+03  0.23721105861E+03  0.91937312732E+02 0.  0.
         23    2    1    2    0    0 -0.38864971137E+01 -0.71065020323E+02 -0.16804889451E+02  0.11706516967E+03  0.91413935842E+02 0.  0.
          5    1    4    4  502    0 -0.46487294328E+02 -0.31805185765E+02 -0.16717483946E+02  0.58942367148E+02  0.47000000000E+01 0. -1.
         -5    1    4    4    0  502  0.42600797214E+02 -0.39259834558E+02 -0.87405504738E-01  0.58122802518E+02  0.47000000000E+01 0.  1.
          5    1    3    3  503    0 -0.37842526476E+02  0.47376954527E+02 -0.72946493664E+02  0.94973225534E+02  0.47000000000E+01 0. -1.
         -5    1    3    3    0  503  0.41729023589E+02  0.23688065796E+02 -0.13381732058E+03  0.14223783307E+03  0.47000000000E+01 0.  1.
<mgrwt>
<rscale>  0 0.11616263E+03</rscale>
<asrwt>0</asrwt>
<pdfrwt beam="1">  1        2 0.44449611E-01 0.11626612E+03</pdfrwt>
<pdfrwt beam="2">  1       -2 0.10054425E-01 0.11626612E+03</pdfrwt>
<totfact> 0.70578628E+03</totfact>
</mgrwt>
</event>
<event>
 8    1  0.3466492E-004  0.1024806E+03  0.7546771E-02  0.1276277E+00
          2   -1    0    0  501    0  0.00000000000E+00  0.00000000000E+00  0.20779253157E+03  0.20779253157E+03  0.00000000000E+00 0. -1.
         -2   -1    0    0    0  501 -0.00000000000E+00 -0.00000000000E+00 -0.49726169128E+02  0.49726169128E+02  0.00000000000E+00 0.  1.
         23    2    1    2    0    0 -0.79407539093E+01  0.38170348879E+02  0.70843161201E+02  0.12458343227E+03  0.94774717099E+02 0.  0.
         23    2    1    2    0    0  0.79407539093E+01 -0.38170348879E+02  0.87223201244E+02  0.13293526843E+03  0.92433044154E+02 0.  0.
          5    1    3    3  502    0  0.68961304416E+01  0.67057908841E+02  0.58971396673E+02  0.89688546530E+02  0.47000000000E+01 0. -1.
         -5    1    4    4    0  503  0.45072111732E+02 -0.39114257056E+02  0.68835321124E+02  0.91223965027E+02  0.47000000000E+01 0.  1.
          5    1    4    4  503    0 -0.37131357823E+02  0.94390817663E+00  0.18387880120E+02  0.41711303404E+02  0.47000000000E+01 0. -1.
         -5    1    3    3    0  502 -0.14836884351E+02 -0.28887559962E+02  0.11871764528E+02  0.34894885740E+02  0.47000000000E+01 0.  1.
<mgrwt>
<rscale>  0 0.10193589E+03</rscale>
<asrwt>0</asrwt>
<pdfrwt beam="1">  1        2 0.31968081E-01 0.10248062E+03</pdfrwt>
<pdfrwt beam="2">  1       -2 0.76501800E-02 0.10248062E+03</pdfrwt>
<totfact> 0.15112139E+04</totfact>
</mgrwt>
</event>
<event>
 8    1  0.3466492E-004  0.9592072E+02  0.7546771E-02  0.1290334E+00
          3   -1    0    0  501    0  0.00000000000E+00  0.00000000000E+00  0.19610882891E+03  0.19610882891E+03  0.00000000000E+00 0. -1.
         -3   -1    0    0    0  501 -0.00000000000E+00 -0.00000000000E+00 -0.48810745918E+02  0.48810745918E+02  0.00000000000E+00 0.  1.
         23    2    1    2    0    0 -0.19658486614E+02 -0.22658977709E+01  0.44351742674E+02  0.10567810121E+03  0.93857304507E+02 0.  0.
         23    2    1    2    0    0  0.19658486614E+02  0.22658977709E+01  0.10294634031E+03  0.13924147361E+03  0.91644141112E+02 0.  0.
          5    1    3    3  502    0 -0.28216137247E+01  0.44920799941E+02  0.25487365413E+02  0.51937804796E+02  0.47000000000E+01 0. -1.
         -5    1    3    3    0  502 -0.16836872889E+02 -0.47186697712E+02  0.18864377261E+02  0.53740296418E+02  0.47000000000E+01 0.  1.
          5    1    4    4  503    0  0.14524733676E+02  0.36733558834E+02  0.95282028776E+02  0.10325249266E+03  0.47000000000E+01 0. -1.
         -5    1    4    4    0  503  0.51337529383E+01 -0.34467661063E+02  0.76643115383E+01  0.35988980949E+02  0.47000000000E+01 0.  1.
<mgrwt>
<rscale>  0 0.95374967E+02</rscale>
<asrwt>0</asrwt>
<pdfrwt beam="1">  1        3 0.30170589E-01 0.95920717E+02</pdfrwt>
<pdfrwt beam="2">  1       -3 0.75093456E-02 0.95920717E+02</pdfrwt>
<totfact> 0.26871592E+03</totfact>
</mgrwt>
</event>
<event>
 8    1  0.3466492E-004  0.9315259E+02  0.7546771E-02  0.1301936E+00
          4   -1    0    0  501    0  0.00000000000E+00  0.00000000000E+00  0.34665000193E+03  0.34665000193E+03  0.00000000000E+00 0. -1.
         -4   -1    0    0    0  501 -0.00000000000E+00 -0.00000000000E+00 -0.22307376365E+02  0.22307376365E+02  0.00000000000E+00 0.  1.
         23    2    1    2    0    0  0.99464218075E+01  0.23319171661E+02  0.18019033308E+03  0.20284467089E+03  0.89636428431E+02 0.  0.
         23    2    1    2    0    0 -0.99464218075E+01 -0.23319171661E+02  0.14415229249E+03  0.16611270740E+03  0.78554650130E+02 0.  0.
          5    1    3    3  502    0  0.40359390330E+02 -0.40602777768E+01  0.13786156534E+03  0.14378201362E+03  0.47000000000E+01 0. -1.
         -5    1    3    3    0  502 -0.30412968523E+02  0.27379449437E+02  0.42328767742E+02  0.59062657275E+02  0.47000000000E+01 0.  1.
          5    1    4    4  503    0 -0.80453675905E+01 -0.50603744457E+02  0.11433237668E+03  0.12537722780E+03  0.47000000000E+01 0. -1.
         -5    1    4    4    0  503 -0.19010542170E+01  0.27284572796E+02  0.29819915806E+02  0.40735479603E+02  0.47000000000E+01 0.  1.
<mgrwt>
<rscale>  0 0.90379067E+02</rscale>
<asrwt>0</asrwt>
<pdfrwt beam="1">  1        4 0.53330765E-01 0.93152587E+02</pdfrwt>
<pdfrwt beam="2">  1       -4 0.34319043E-02 0.93152587E+02</pdfrwt>
<totfact> 0.22204918E+03</totfact>
</mgrwt>
</event>
<event>
 8    1  0.3466492E-004  0.9111927E+02  0.7546771E-02  0.1302441E+00
          1   -1    0    0  501    0  0.00000000000E+00  0.00000000000E+00  0.65141163551E+03  0.65141163551E+03  0.00000000000E+00 0. -1.
         -1   -1    0    0    0  501 -0.00000000000E+00 -0.00000000000E+00 -0.37868696081E+02  0.37868696081E+02  0.00000000000E+00 0.  1.
         23    2    1    2    0    0  0.41262699946E+01  0.14044132594E+02  0.25277140644E+02  0.94560325673E+02  0.89935852628E+02 0.  0.
         23    2    1    2    0    0 -0.41262699946E+01 -0.14044132594E+02  0.58826579879E+03  0.59472000592E+03  0.86145061693E+02 0.  0.
          5    1    4    4  502    0 -0.41437798833E+02 -0.10226134404E+02  0.42363142031E+03  0.42580199069E+03  0.47000000000E+01 0. -1.
         -5    1    3    3    0  503  0.22686766140E-01  0.37284712011E+02 -0.20526525417E+02  0.42820304881E+02  0.47000000000E+01 0.  1.
          5    1    3    3  503    0  0.41035832284E+01 -0.23240579417E+02  0.45803666061E+02  0.51740020792E+02  0.47000000000E+01 0. -1.
         -5    1    4    4    0  502  0.37311528839E+02 -0.38179981896E+01  0.16463437848E+03  0.16891801524E+03  0.47000000000E+01 0.  1.
<mgrwt>
<rscale>  0 0.90169669E+02</rscale>
<asrwt>0</asrwt>
<pdfrwt beam="1">  1        1 0.10021717E+00 0.91119270E+02</pdfrwt>
<pdfrwt beam="2">  1       -1 0.58259537E-02 0.91119270E+02</pdfrwt>
<totfact> 0.41662416E+03</totfact>
</mgrwt>
</event>
<event>
 8    1  0.3466492E-004  0.1403184E+03  0.7546771E-02  0.1213254E+00
         -2   -1    0    0    0  501 -0.00000000000E+00  0.00000000000E+00  0.42558528406E+02  0.42558528406E+02  0.00000000000E+00 0.  1.
          2   -1    0    0  501    0  0.00000000000E+00 -0.00000000000E+00 -0.86469178660E+03  0.86469178660E+03  0.00000000000E+00 0. -1.
         23    2    1    2    0    0 -0.73399644555E+01 -0.10486481857E+03 -0.99607055425E+02  0.17122493531E+03  0.91355939756E+02 0.  0.
         23    2    1    2    0    0  0.73399644555E+01  0.10486481857E+03 -0.72252620277E+03  0.73602537970E+03  0.92944825669E+02 0.  0.
          5    1    3    3  502    0 -0.23897857947E+02 -0.39950794851E+01 -0.53642033328E+02  0.59047658837E+02  0.47000000000E+01 0. -1.
         -5    1    4    4    0  503  0.26605101636E+02 -0.36578863984E+01 -0.93314714199E+02  0.97215932089E+02  0.47000000000E+01 0.  1.
          5    1    4    4  503    0 -0.19265137181E+02  0.10852270497E+03 -0.62921148857E+03  0.63880944761E+03  0.47000000000E+01 0. -1.
         -5    1    3    3    0  502  0.16557893492E+02 -0.10086973909E+03 -0.45965022097E+02  0.11217727647E+03  0.47000000000E+01 0.  1.
<mgrwt>
<rscale>  0 0.14005580E+03</rscale>
<asrwt>0</asrwt>
<pdfrwt beam="1">  1        2 0.13302951E+00 0.14031837E+03</pdfrwt>
<pdfrwt beam="2">  1       -2 0.65474656E-02 0.14031837E+03</pdfrwt>
<totfact> 0.40530680E+03</totfact>
</mgrwt>
</event>
<event>
 7    1  0.3466492E-004  0.5324688E+03  0.7546771E-02  0.1008355E+00
         -2   -1    0    0    0  501 -0.00000000000E+00  0.00000000000E+00  0.30125272746E+03  0.30125272746E+03  0.00000000000E+00 0.  1.
          2   -1    0    0  501    0  0.00000000000E+00 -0.00000000000E+00 -0.86697012134E+03  0.86697012134E+03  0.00000000000E+00 0. -1.
         23    2    1    2    0    0 -0.44775349076E+03  0.17523695586E+03 -0.25638294558E+03  0.55242189300E+03  0.90810538472E+02 0.  0.
          5    1    1    2  502    0  0.25545302220E+03 -0.15391477482E+03 -0.29846634251E+03  0.42196001241E+03  0.47000000000E+01 0. -1.
         -5    1    1    2    0  502  0.19230046856E+03 -0.21322181038E+02 -0.10868105782E+02  0.19384094339E+03  0.47000000000E+01 0.  1.
          5    1    3    3  503    0 -0.73176548673E+02  0.67148380134E+02 -0.53352462396E+02  0.11283743826E+03  0.47000000000E+01 0. -1.
         -5    1    3    3    0  503 -0.37457694208E+03  0.10808857572E+03 -0.20303048319E+03  0.43958445474E+03  0.47000000000E+01 0.  1.
<mgrwt>
<rscale>  0 0.52133838E+03</rscale>
<asrwt>0</asrwt>
<pdfrwt beam="1">  1        2 0.13338002E+00 0.53246879E+03</pdfrwt>
<pdfrwt beam="2">  1       -2 0.46346574E-01 0.53246879E+03</pdfrwt>
<totfact> 0.14009622E+02</totfact>
</mgrwt>
</event>
<event>
 8    1  0.3466492E-004  0.1095359E+03  0.7546771E-02  0.1261752E+00
         -1   -1    0    0    0  501 -0.00000000000E+00  0.00000000000E+00  0.20782116061E+03  0.20782116061E+03  0.00000000000E+00 0.  1.
          1   -1    0    0  501    0  0.00000000000E+00 -0.00000000000E+00 -0.91876659361E+02  0.91876659361E+02  0.00000000000E+00 0. -1.
         23    2    1    2    0    0  0.32117031828E+02 -0.50027216648E+02 -0.33972733687E+02  0.11402797096E+03  0.91181167949E+02 0.  0.
         23    2    1    2    0    0 -0.32117031828E+02  0.50027216648E+02  0.14991723493E+03  0.18566984901E+03  0.91999398699E+02 0.  0.
          5    1    3    3  502    0  0.56178184432E+02 -0.25175710690E+02 -0.46121603657E+02  0.77065537945E+02  0.47000000000E+01 0. -1.
         -5    1    4    4    0  503 -0.38966663751E+02  0.72157217777E+02  0.93241628685E+02  0.12426244920E+03  0.47000000000E+01 0.  1.
          5    1    4    4  503    0  0.68496319228E+01 -0.22130001129E+02  0.56675606248E+02  0.61407399807E+02  0.47000000000E+01 0. -1.
         -5    1    3    3    0  502 -0.24061152604E+02 -0.24851505957E+02  0.12148869970E+02  0.36962433017E+02  0.47000000000E+01 0.  1.
<mgrwt>
<rscale>  0 0.10936392E+03</rscale>
<asrwt>0</asrwt>
<pdfrwt beam="1">  1        1 0.14134871E-01 0.10953591E+03</pdfrwt>
<pdfrwt beam="2">  1       -1 0.31972486E-01 0.10953591E+03</pdfrwt>
<totfact> 0.35053855E+03</totfact>
</mgrwt>
</event>
<event>
 8    1  0.3466492E-004  0.1237802E+03  0.7546771E-02  0.1238037E+00
          1   -1    0    0  501    0  0.00000000000E+00  0.00000000000E+00  0.59167788448E+03  0.59167788448E+03  0.00000000000E+00 0. -1.
         -1   -1    0    0    0  501 -0.00000000000E+00 -0.00000000000E+00 -0.27001073044E+02  0.27001073044E+02  0.00000000000E+00 0.  1.
         23    2    1    2    0    0 -0.17803667703E+02  0.81652431617E+02  0.36166928970E+03  0.38226458531E+03  0.91309626558E+02 0.  0.
         23    2    1    2    0    0  0.17803667703E+02 -0.81652431617E+02  0.20300752174E+03  0.23641437221E+03  0.87724633558E+02 0.  0.
          5    1    3    3  502    0 -0.14063775776E+02 -0.18278575419E+02  0.62152024507E+02  0.66459463275E+02  0.47000000000E+01 0. -1.
         -5    1    4    4    0  503  0.32235996881E+02 -0.12072774651E+01  0.27107153563E+02  0.42396990319E+02  0.47000000000E+01 0.  1.
          5    1    4    4  503    0 -0.14432329178E+02 -0.80445154152E+02  0.17590036818E+03  0.19401738189E+03  0.47000000000E+01 0. -1.
         -5    1    3    3    0  502 -0.37398919269E+01  0.99931007036E+02  0.29951726519E+03  0.31580512204E+03  0.47000000000E+01 0.  1.
<mgrwt>
<rscale>  0 0.12311984E+03</rscale>
<asrwt>0</asrwt>
<pdfrwt beam="1">  1        1 0.91027357E-01 0.12378020E+03</pdfrwt>
<pdfrwt beam="2">  1       -1 0.41540117E-02 0.12378020E+03</pdfrwt>
<totfact> 0.79457429E+03</totfact>
</mgrwt>
</event>
<event>
 8    1  0.3466492E-004  0.1011766E+03  0.7546771E-02  0.1279343E+00
         -1   -1    0    0    0  501 -0.00000000000E+00  0.00000000000E+00  0.62261498920E+02  0.62261498920E+02  0.00000000000E+00 0.  1.
          1   -1    0    0  501    0  0.00000000000E+00 -0.00000000000E+00 -0.17053386430E+03  0.17053386430E+03  0.00000000000E+00 0. -1.
         23    2    1    2    0    0  0.39781024870E+02 -0.11050729107E+02 -0.24213402144E+02  0.10125593021E+03  0.89229064809E+02 0.  0.
         23    2    1    2    0    0 -0.39781024870E+02  0.11050729107E+02 -0.84058963236E+02  0.13153943301E+03  0.92369175495E+02 0.  0.
          5    1    3    3  502    0 -0.90305302652E+01  0.30444514461E+02 -0.17780216918E+02  0.36696662672E+02  0.47000000000E+01 0. -1.
         -5    1    4    4    0  503  0.29831960054E+01  0.29227411061E+02  0.57584037423E+01  0.30304953875E+02  0.47000000000E+01 0.  1.
          5    1    4    4  503    0 -0.42764220875E+02 -0.18176681954E+02 -0.89817366978E+02  0.10123447913E+03  0.47000000000E+01 0. -1.
         -5    1    3    3    0  502  0.48811555135E+02 -0.41495243567E+02 -0.64331852256E+01  0.64559267542E+02  0.47000000000E+01 0.  1.
<mgrwt>
<rscale>  0 0.10045434E+03</rscale>
<asrwt>0</asrwt>
<pdfrwt beam="1">  1        1 0.26235979E-01 0.10117664E+03</pdfrwt>
<pdfrwt beam="2">  1       -1 0.95786922E-02 0.10117664E+03</pdfrwt>
<totfact> 0.10740279E+04</totfact>
</mgrwt>
</event>
<event>
 8    1  0.3466492E-004  0.1033857E+03  0.7546771E-02  0.1273536E+00
          1   -1    0    0  501    0  0.00000000000E+00  0.00000000000E+00  0.21625548784E+02  0.21625548784E+02  0.00000000000E+00 0. -1.
         -1   -1    0    0    0  501 -0.00000000000E+00 -0.00000000000E+00 -0.52688835891E+03  0.52688835891E+03  0.00000000000E+00 0.  1.
         23    2    1    2    0    0 -0.48553003872E+02  0.39094980126E+01 -0.32240471461E+03  0.33845275287E+03  0.90734709771E+02 0.  0.
         23    2    1    2    0    0  0.48553003872E+02 -0.39094980126E+01 -0.18285809552E+03  0.21006115483E+03  0.91191706389E+02 0.  0.
          5    1    3    3  502    0 -0.26313634003E+02  0.30099715730E+02 -0.51641221480E+02  0.65477522689E+02  0.47000000000E+01 0. -1.
         -5    1    3    3    0  502 -0.22239369869E+02 -0.26190217717E+02 -0.27076349313E+03  0.27297523018E+03  0.47000000000E+01 0.  1.
          5    1    4    4  503    0  0.46975227243E+02  0.38225452524E+02 -0.11426134961E+03  0.12940480366E+03  0.47000000000E+01 0. -1.
         -5    1    4    4    0  503  0.15777766295E+01 -0.42134950537E+02 -0.68596745904E+02  0.80656351172E+02  0.47000000000E+01 0.  1.
<mgrwt>
<rscale>  0 0.10328485E+03</rscale>
<asrwt>0</asrwt>
<pdfrwt beam="1">  1        1 0.33270076E-02 0.10338571E+03</pdfrwt>
<pdfrwt beam="2">  1       -1 0.81059746E-01 0.10338571E+03</pdfrwt>
<totfact> 0.43848366E+03</totfact>
</mgrwt>
</event>
<event>
 8    1  0.3466492E-004  0.9136695E+02  0.7546771E-02  0.1301208E+00
          1   -1    0    0  501    0  0.00000000000E+00  0.00000000000E+00  0.26018236041E+03  0.26018236041E+03  0.00000000000E+00 0. -1.
         -1   -1    0    0    0  501 -0.00000000000E+00 -0.00000000000E+00 -0.73558587927E+02  0.73558587927E+02  0.00000000000E+00 0.  1.
         23    2    1    2    0    0  0.69240679050E+01  0.43652622230E+01 -0.33994420727E+02  0.94951695767E+02  0.88279134895E+02 0.  0.
         23    2    1    2    0    0 -0.69240679050E+01 -0.43652622230E+01  0.22061819321E+03  0.23878925257E+03  0.90999569984E+02 0.  0.
          5    1    4    4  502    0  0.57211155477E+01 -0.45007491902E+02  0.14355800974E+03  0.15063000249E+03  0.47000000000E+01 0. -1.
         -5    1    4    4    0  502 -0.12645183453E+02  0.40642229679E+02  0.77060183476E+02  0.88159250083E+02  0.47000000000E+01 0.  1.
          5    1    3    3  503    0  0.27464519379E+02 -0.33942030394E+02 -0.98407648441E+01  0.45003243269E+02  0.47000000000E+01 0. -1.
         -5    1    3    3    0  503 -0.20540451474E+02  0.38307292617E+02 -0.24153655883E+02  0.49948452498E+02  0.47000000000E+01 0.  1.
<mgrwt>
<rscale>  0 0.90681998E+02</rscale>
<asrwt>0</asrwt>
<pdfrwt beam="1">  1        1 0.40028055E-01 0.91366952E+02</pdfrwt>
<pdfrwt beam="2">  1       -1 0.11316706E-01 0.91366952E+02</pdfrwt>
<totfact> 0.49257046E+03</totfact>
</mgrwt>
</event>
<event>
 8    1  0.3466492E-004  0.1146275E+03  0.7546771E-02  0.1252943E+00
         -3   -1    0    0    0  501 -0.00000000000E+00  0.00000000000E+00  0.74250272580E+02  0.74250272580E+02  0.00000000000E+00 0.  1.
          3   -1    0    0  501    0  0.00000000000E+00 -0.00000000000E+00 -0.18934749757E+03  0.18934749757E+03  0.00000000000E+00 0. -1.
         23    2    1    2    0    0 -0.33450254993E+02 -0.60640860991E+02 -0.94845245765E+02  0.14877865218E+03  0.91341300180E+02 0.  0.
         23    2    1    2    0    0  0.33450254993E+02  0.60640860991E+02 -0.20251979227E+02  0.11481911798E+03  0.89314352762E+02 0.  0.
          5    1    3    3  502    0  0.28051743541E+01 -0.75041622879E+02 -0.59427272913E+02  0.95879116252E+02  0.47000000000E+01 0. -1.
         -5    1    3    3    0  502 -0.36255429347E+02  0.14400761888E+02 -0.35417972852E+02  0.52899535925E+02  0.47000000000E+01 0.  1.
          5    1    4    4  503    0  0.30743601329E+02  0.13444568318E+01 -0.41252717176E+02  0.51680298580E+02  0.47000000000E+01 0. -1.
         -5    1    4    4    0  503  0.27066536636E+01  0.59296404159E+02  0.21000737950E+02  0.63138819396E+02  0.47000000000E+01 0.  1.
<mgrwt>
<rscale>  0 0.11422324E+03</rscale>
<asrwt>0</asrwt>
<pdfrwt beam="1">  1        3 0.29130384E-01 0.11462751E+03</pdfrwt>
<pdfrwt beam="2">  1       -3 0.11423119E-01 0.11462751E+03</pdfrwt>
<totfact> 0.14941933E+03</totfact>
</mgrwt>
</event>
<event>
 8    1  0.3466492E-004  0.9876216E+02  0.7546771E-02  0.1285421E+00
          2   -1    0    0  501    0  0.00000000000E+00  0.00000000000E+00  0.13829615525E+03  0.13829615525E+03  0.00000000000E+00 0. -1.
         -2   -1    0    0    0  501 -0.00000000000E+00 -0.00000000000E+00 -0.10631135466E+03  0.10631135466E+03  0.00000000000E+00 0.  1.
         23    2    1    2    0    0  0.14592526863E+02  0.33592795990E+02 -0.58311021736E+02  0.11078935323E+03  0.86791058013E+02 0.  0.
         23    2    1    2    0    0 -0.14592526863E+02 -0.33592795990E+02  0.90295822329E+02  0.13381815668E+03  0.91719931005E+02 0.  0.
          5    1    4    4  502    0  0.12364035931E+02 -0.56749696086E+02  0.74664542274E+02  0.94711568793E+02  0.47000000000E+01 0. -1.
         -5    1    4    4    0  502 -0.26956562794E+02  0.23156900095E+02  0.15631280055E+02  0.39106587883E+02  0.47000000000E+01 0.  1.
          5    1    3    3  503    0 -0.33088816932E+02  0.14526948708E+02 -0.52829303904E+01  0.36822566426E+02  0.47000000000E+01 0. -1.
         -5    1    3    3    0  503  0.47681343795E+02  0.19065847282E+02 -0.53028091346E+02  0.73966786807E+02  0.47000000000E+01 0.  1.
<mgrwt>
<rscale>  0 0.97601950E+02</rscale>
<asrwt>0</asrwt>
<pdfrwt beam="1">  1        2 0.21276331E-01 0.98762156E+02</pdfrwt>
<pdfrwt beam="2">  1       -2 0.16355593E-01 0.98762156E+02</pdfrwt>
<totfact> 0.70768532E+03</totfact>
</mgrwt>
</event>
<event>
 8    1  0.3466492E-004  0.1357736E+03  0.7546771E-02  0.1219334E+00
          1   -1    0    0  501    0  0.00000000000E+00  0.00000000000E+00  0.22408408476E+03  0.22408408476E+03  0.00000000000E+00 0. -1.
         -1   -1    0    0    0  501 -0.00000000000E+00 -0.00000000000E+00 -0.12752075166E+03  0.12752075166E+03  0.00000000000E+00 0.  1.
         23    2    1    2    0    0 -0.56087998672E+02 -0.81946770724E+02  0.15334732554E+03  0.20443526050E+03  0.91745499392E+02 0.  0.
         23    2    1    2    0    0  0.56087998672E+02  0.81946770724E+02 -0.56783992435E+02  0.14716957592E+03  0.92592253743E+02 0.  0.
          5    1    3    3  502    0 -0.62920516537E+02 -0.49589979643E+02  0.15093785230E+03  0.17094584738E+03  0.47000000000E+01 0. -1.
         -5    1    4    4    0  503  0.32956950243E+02 -0.97026303559E+01 -0.36567720224E+02  0.50394342614E+02  0.47000000000E+01 0.  1.
          5    1    4    4  503    0  0.23131048429E+02  0.91649401080E+02 -0.20216272211E+02  0.96775233308E+02  0.47000000000E+01 0. -1.
         -5    1    3    3    0  502  0.68325178650E+01 -0.32356791081E+02  0.24094732409E+01  0.33489413114E+02  0.47000000000E+01 0.  1.
<mgrwt>
<rscale>  0 0.13562933E+03</rscale>
<asrwt>0</asrwt>
<pdfrwt beam="1">  1        1 0.34474475E-01 0.13577357E+03</pdfrwt>
<pdfrwt beam="2">  1       -1 0.19618577E-01 0.13577357E+03</pdfrwt>
<totfact> 0.25649113E+03</totfact>
</mgrwt>
</event>
<event>
 8    1  0.3466492E-004  0.1432707E+03  0.7546771E-02  0.1209055E+00
          3   -1    0    0  501    0  0.00000000000E+00  0.00000000000E+00  0.36546623221E+03  0.36546623221E+03  0.00000000000E+00 0. -1.
         -3   -1    0    0    0  501 -0.00000000000E+00 -0.00000000000E+00 -0.63252075329E+02  0.63252075329E+02  0.00000000000E+00 0.  1.
         23    2    1    2    0    0 -0.71399107980E+02 -0.84602381101E+02  0.78899762946E+02  0.16339621387E+03  0.90651831786E+02 0.  0.
         23    2    1    2    0    0  0.71399107980E+02  0.84602381101E+02  0.22331439393E+03  0.26532209367E+03  0.90945584507E+02 0.  0.
          5    1    3    3  502    0 -0.22846749375E+02 -0.76756189652E+02  0.80923870797E+02  0.11394845094E+03  0.47000000000E+01 0. -1.
         -5    1    4    4    0  503  0.24773377468E+02 -0.16793655246E+02  0.34255325707E+02  0.45730344706E+02  0.47000000000E+01 0.  1.
          5    1    4    4  503    0  0.46625730512E+02  0.10139603635E+03  0.18905906823E+03  0.21959174896E+03  0.47000000000E+01 0. -1.
         -5    1    3    3    0  502 -0.48552358604E+02 -0.78461914499E+01 -0.20241078506E+01  0.49447762931E+02  0.47000000000E+01 0.  1.
<mgrwt>
<rscale>  0 0.14322411E+03</rscale>
<asrwt>0</asrwt>
<pdfrwt beam="1">  1        3 0.56225573E-01 0.14327070E+03</pdfrwt>
<pdfrwt beam="2">  1       -3 0.97310887E-02 0.14327070E+03</pdfrwt>
<totfact> 0.56782756E+02</totfact>
</mgrwt>
</event>
<event>
 8    1  0.3466492E-004  0.1270646E+03  0.7546771E-02  0.1232013E+00
          1   -1    0    0  501    0  0.00000000000E+00  0.00000000000E+00  0.13938259375E+03  0.13938259375E+03  0.00000000000E+00 0. -1.
         -1   -1    0    0    0  501 -0.00000000000E+00 -0.00000000000E+00 -0.28164213712E+03  0.28164213712E+03  0.00000000000E+00 0.  1.
         23    2    1    2    0    0 -0.63477739351E+02 -0.62122919755E+02 -0.23284944728E+03  0.26526265625E+03  0.90866556848E+02 0.  0.
         23    2    1    2    0    0  0.63477739351E+02  0.62122919755E+02  0.90589903907E+02  0.15576207463E+03  0.90369312546E+02 0.  0.
          5    1    4    4  502    0  0.35605604384E+02  0.25992023871E+02  0.99591799152E+02  0.10901358093E+03  0.47000000000E+01 0. -1.
         -5    1    4    4    0  502  0.27872134967E+02  0.36130895884E+02 -0.90018952456E+01  0.46748493698E+02  0.47000000000E+01 0.  1.
          5    1    3    3  503    0 -0.52573651929E+00 -0.23316952757E+02 -0.32634774791E+01  0.24014515819E+02  0.47000000000E+01 0. -1.
         -5    1    3    3    0  503 -0.62952002831E+02 -0.38805966998E+02 -0.22958596980E+03  0.24124814043E+03  0.47000000000E+01 0.  1.
<mgrwt>
<rscale>  0 0.12697573E+03</rscale>
<asrwt>0</asrwt>
<pdfrwt beam="1">  1        1 0.21443476E-01 0.12706460E+03</pdfrwt>
<pdfrwt beam="2">  1       -1 0.43329559E-01 0.12706460E+03</pdfrwt>
<totfact> 0.12257432E+03</totfact>
</mgrwt>
</event>
<event>
 8    1  0.3466492E-004  0.1045278E+03  0.7546771E-02  0.1276491E+00
         -1   -1    0    0    0  501 -0.00000000000E+00  0.00000000000E+00  0.90079664725E+02  0.90079664725E+02  0.00000000000E+00 0.  1.
          1   -1    0    0  501    0  0.00000000000E+00 -0.00000000000E+00 -0.18478326465E+03  0.18478326465E+03  0.00000000000E+00 0. -1.
         23    2    1    2    0    0 -0.38261417172E+02 -0.22413305592E+02  0.41733459216E+02  0.10298759439E+03  0.83057032628E+02 0.  0.
         23    2    1    2    0    0  0.38261417172E+02  0.22413305592E+02 -0.13643705914E+03  0.17187533498E+03  0.94656047651E+02 0.  0.
          5    1    4    4  502    0  0.60192173802E+02  0.39712020015E+02 -0.74613572342E+02  0.10387212089E+03  0.47000000000E+01 0.  1.
         -5    1    3    3    0  503  0.79919361298E+01 -0.22593066109E+02  0.50112689810E+02  0.55746653346E+02  0.47000000000E+01 0.  1.
          5    1    3    3  503    0 -0.46253353302E+02  0.17976051675E+00 -0.83792305943E+01  0.47240941046E+02  0.47000000000E+01 0. -1.
         -5    1    4    4    0  502 -0.21930756629E+02 -0.17298714423E+02 -0.61823486795E+02  0.68003214089E+02  0.47000000000E+01 0. -1.
<mgrwt>
<rscale>  0 0.10183152E+03</rscale>
<asrwt>0</asrwt>
<pdfrwt beam="1">  1        1 0.28428195E-01 0.10452779E+03</pdfrwt>
<pdfrwt beam="2">  1       -1 0.13858410E-01 0.10452779E+03</pdfrwt>
<totfact> 0.55446181E+03</totfact>
</mgrwt>
</event>
<event>
 8    1  0.3466492E-004  0.1047919E+03  0.7546771E-02  0.1271261E+00
         -1   -1    0    0    0  501 -0.00000000000E+00  0.00000000000E+00  0.21855337176E+03  0.21855337176E+03  0.00000000000E+00 0.  1.
          1   -1    0    0  501    0  0.00000000000E+00 -0.00000000000E+00 -0.62364427122E+02  0.62364427122E+02  0.00000000000E+00 0. -1.
         23    2    1    2    0    0 -0.40005747763E+02  0.30172177887E+02  0.14221439668E+03  0.17665298626E+03  0.92035442962E+02 0.  0.
         23    2    1    2    0    0  0.40005747763E+02 -0.30172177887E+02  0.13974547958E+02  0.10426481262E+03  0.90360627415E+02 0.  0.
          5    1    4    4  502    0  0.66888068111E+02 -0.22566000760E+02 -0.37485530397E+01  0.70847580733E+02  0.47000000000E+01 0. -1.
         -5    1    4    4    0  502 -0.26882320347E+02 -0.76061771266E+01  0.17723100998E+02  0.33417231883E+02  0.47000000000E+01 0.  1.
          5    1    3    3  503    0  0.26703464073E+02  0.25863601033E+02  0.44633060927E+02  0.58276933512E+02  0.47000000000E+01 0. -1.
         -5    1    3    3    0  503 -0.66709211836E+02  0.43085768538E+01  0.97581335751E+02  0.11837605275E+03  0.47000000000E+01 0.  1.
<mgrwt>
<rscale>  0 0.10442300E+03</rscale>
<asrwt>0</asrwt>
<pdfrwt beam="1">  1        1 0.95945273E-02 0.10479190E+03</pdfrwt>
<pdfrwt beam="2">  1       -1 0.33623595E-01 0.10479190E+03</pdfrwt>
<totfact> 0.53217789E+03</totfact>
</mgrwt>
</event>
<event>
 8    1  0.3466492E-004  0.9929112E+02  0.7546771E-02  0.1282310E+00
         -2   -1    0    0    0  501 -0.00000000000E+00  0.00000000000E+00  0.42746528338E+03  0.42746528338E+03  0.00000000000E+00 0.  1.
          2   -1    0    0  501    0  0.00000000000E+00 -0.00000000000E+00 -0.23668005848E+02  0.23668005848E+02  0.00000000000E+00 0. -1.
         23    2    1    2    0    0 -0.25626136208E+02 -0.21296531464E+02  0.15872553396E+03  0.18671149175E+03  0.92504837234E+02 0.  0.
         23    2    1    2    0    0  0.25626136208E+02  0.21296531464E+02  0.24507174357E+03  0.26442179747E+03  0.93533343646E+02 0.  0.
          5    1    4    4  502    0  0.10090731458E+02 -0.22613030013E+02  0.14359133050E+02  0.29007700524E+02  0.47000000000E+01 0. -1.
         -5    1    3    3    0  503  0.26846368602E+02 -0.26773205463E+02  0.33757968782E+02  0.50982570494E+02  0.47000000000E+01 0.  1.
          5    1    3    3  503    0 -0.52472504810E+02  0.54766739993E+01  0.12496756518E+03  0.13572892126E+03  0.47000000000E+01 0. -1.
         -5    1    4    4    0  502  0.15535404749E+02  0.43909561477E+02  0.23071261052E+03  0.23541409695E+03  0.47000000000E+01 0.  1.
<mgrwt>
<rscale>  0 0.99048170E+02</rscale>
<asrwt>0</asrwt>
<pdfrwt beam="1">  1        2 0.36412320E-02 0.99291125E+02</pdfrwt>
<pdfrwt beam="2">  1       -2 0.65763884E-01 0.99291125E+02</pdfrwt>
<totfact> 0.48358382E+03</totfact>
</mgrwt>
</event>
<event>
 8    1  0.3466492E-004  0.1312351E+03  0.7546771E-02  0.1228330E+00
         -2   -1    0    0    0  501 -0.00000000000E+00  0.00000000000E+00  0.18390133830E+03  0.18390133830E+03  0.00000000000E+00 0.  1.
          2   -1    0    0  501    0  0.00000000000E+00 -0.00000000000E+00 -0.10577239525E+03  0.10577239525E+03  0.00000000000E+00 0. -1.
         23    2    1    2    0    0  0.23202470332E+02  0.79918967289E+02 -0.18316246686E+02  0.13250714450E+03  0.10147542801E+03 0.  0.
         23    2    1    2    0    0 -0.23202470332E+02 -0.79918967289E+02  0.96445189735E+02  0.15716658906E+03  0.92055777282E+02 0.  0.
          5    1    4    4  502    0 -0.22342253142E+02  0.15459734999E+02  0.13613569857E+02  0.30750592937E+02  0.47000000000E+01 0. -1.
         -5    1    3    3    0  503  0.33122102026E+02  0.44547664771E+01 -0.40851104453E+02  0.52988879230E+02  0.47000000000E+01 0.  1.
          5    1    3    3  503    0 -0.99196316935E+01  0.75464200812E+02  0.22534857768E+02  0.79518265271E+02  0.47000000000E+01 0. -1.
         -5    1    4    4    0  502 -0.86021718967E+00 -0.95378702288E+02  0.82831619878E+02  0.12641599612E+03  0.47000000000E+01 0.  1.
<mgrwt>
<rscale>  0 0.12941257E+03</rscale>
<asrwt>0</asrwt>
<pdfrwt beam="1">  1        2 0.16272676E-01 0.13123513E+03</pdfrwt>
<pdfrwt beam="2">  1       -2 0.28292513E-01 0.13123513E+03</pdfrwt>
<totfact> 0.38472960E+03</totfact>
</mgrwt>
</event>
<event>
 8    1  0.3466492E-004  0.9579141E+02  0.7546771E-02  0.1289577E+00
         -3   -1    0    0    0  501 -0.00000000000E+00  0.00000000000E+00  0.48036570628E+02  0.48036570628E+02  0.00000000000E+00 0.  1.
          3   -1    0    0  501    0  0.00000000000E+00 -0.00000000000E+00 -0.22461018139E+03  0.22461018139E+03  0.00000000000E+00 0. -1.
         23    2    1    2    0    0 -0.29652452951E+02  0.31674154670E+00 -0.14161167207E+03  0.17096742616E+03  0.91085821346E+02 0.  0.
         23    2    1    2    0    0  0.29652452951E+02 -0.31674154670E+00 -0.34961938696E+02  0.10167932586E+03  0.90757808805E+02 0.  0.
          5    1    3    3  502    0  0.32477584766E+02 -0.30265221569E+01 -0.41363576993E+02  0.52886565876E+02  0.47000000000E+01 0. -1.
         -5    1    4    4    0  503  0.38129763101E+02  0.38703548550E+02 -0.13839712658E+02  0.56262519948E+02  0.47000000000E+01 0.  1.
          5    1    4    4  503    0 -0.84773101500E+01 -0.39020290096E+02 -0.21122226038E+02  0.45416805913E+02  0.47000000000E+01 0. -1.
         -5    1    3    3    0  502 -0.62130037717E+02  0.33432637036E+01 -0.10024809508E+03  0.11808086028E+03  0.47000000000E+01 0.  1.
<mgrwt>
<rscale>  0 0.95713358E+02</rscale>
<asrwt>0</asrwt>
<pdfrwt beam="1">  1        3 0.34555412E-01 0.95791415E+02</pdfrwt>
<pdfrwt beam="2">  1       -3 0.73902417E-02 0.95791415E+02</pdfrwt>
<totfact> 0.21436361E+03</totfact>
</mgrwt>
</event>
<event>
 8    1  0.3466492E-004  0.1470878E+03  0.7546771E-02  0.1205183E+00
         -2   -1    0    0    0  501 -0.00000000000E+00  0.00000000000E+00  0.55471776624E+02  0.55471776624E+02  0.00000000000E+00 0.  1.
          2   -1    0    0  501    0  0.00000000000E+00 -0.00000000000E+00 -0.38289059762E+03  0.38289059762E+03  0.00000000000E+00 0. -1.
         23    2    1    2    0    0 -0.49083441444E+02 -0.10459598925E+03 -0.14662887541E+03  0.20529624824E+03  0.85422580432E+02 0.  0.
         23    2    1    2    0    0  0.49083441444E+02  0.10459598925E+03 -0.18078994559E+03  0.23306612601E+03  0.91023675351E+02 0.  0.
          5    1    4    4  502    0  0.21985565469E+02 -0.15298236810E+01 -0.10858533510E+01  0.22560463803E+02  0.47000000000E+01 0. -1.
         -5    1    4    4    0  502  0.27097875974E+02  0.10612581293E+03 -0.17970409224E+03  0.21050566221E+03  0.47000000000E+01 0.  1.
          5    1    3    3  503    0 -0.54331925669E+02 -0.41075213866E+02 -0.35133633441E+02  0.76782768508E+02  0.47000000000E+01 0. -1.
         -5    1    3    3    0  503  0.52484842248E+01 -0.63520775382E+02 -0.11149524197E+03  0.12851347973E+03  0.47000000000E+01 0.  1.
<mgrwt>
<rscale>  0 0.14623061E+03</rscale>
<asrwt>0</asrwt>
<pdfrwt beam="1">  1        2 0.58906247E-01 0.14708778E+03</pdfrwt>
<pdfrwt beam="2">  1       -2 0.85341193E-02 0.14708778E+03</pdfrwt>
<totfact> 0.68675198E+03</totfact>
</mgrwt>
</event>
<event>
 8    1  0.3466492E-004  0.1218244E+03  0.7546771E-02  0.1247725E+00
          1   -1    0    0  501    0  0.00000000000E+00  0.00000000000E+00  0.56958557185E+03  0.56958557185E+03  0.00000000000E+00 0. -1.
         -1   -1    0    0    0  501 -0.00000000000E+00 -0.00000000000E+00 -0.33093927031E+02  0.33093927031E+02  0.00000000000E+00 0.  1.
         23    2    1    2    0    0 -0.22972362038E+02 -0.44063362973E+02  0.11188881339E+03  0.16540949955E+03  0.11122898275E+03 0.  0.
         23    2    1    2    0    0  0.22972362038E+02  0.44063362973E+02  0.42460283142E+03  0.43726999933E+03  0.91913973313E+02 0.  0.
          5    1    3    3  502    0 -0.13368461796E+02  0.29065918735E+02  0.12552262156E+01  0.32360608702E+02  0.47000000000E+01 0.  1.
         -5    1    4    4    0  503  0.24705873004E+02  0.71803161463E+02  0.29685208787E+03  0.30644628605E+03  0.47000000000E+01 0.  1.
          5    1    4    4  503    0 -0.17335109659E+01 -0.27739798490E+02  0.12775074355E+03  0.13082371329E+03  0.47000000000E+01 0. -1.
         -5    1    3    3    0  502 -0.96039002419E+01 -0.73129281708E+02  0.11063358718E+03  0.13304889084E+03  0.47000000000E+01 0. -1.
<mgrwt>
<rscale>  0 0.11723740E+03</rscale>
<asrwt>0</asrwt>
<pdfrwt beam="1">  1        1 0.87628542E-01 0.12182445E+03</pdfrwt>
<pdfrwt beam="2">  1       -1 0.50913738E-02 0.12182445E+03</pdfrwt>
<totfact> 0.61932325E+03</totfact>
</mgrwt>
</event>
<event>
 8    1  0.3466492E-004  0.1278196E+03  0.7546771E-02  0.1231281E+00
          1   -1    0    0  501    0  0.00000000000E+00  0.00000000000E+00  0.17998726551E+02  0.17998726551E+02  0.00000000000E+00 0. -1.
         -1   -1    0    0    0  501 -0.00000000000E+00 -0.00000000000E+00 -0.97445477391E+03  0.97445477391E+03  0.00000000000E+00 0.  1.
         23    2    1    2    0    0  0.83781385524E+02 -0.31745354620E+02 -0.34124940866E+03  0.36440227483E+03  0.91163429579E+02 0.  0.
         23    2    1    2    0    0 -0.83781385524E+02  0.31745354620E+02 -0.61520663870E+03  0.62805122563E+03  0.89118155354E+02 0.  0.
          5    1    3    3  502    0  0.35317493643E+02 -0.60447968421E+02 -0.21272878094E+03  0.22400202340E+03  0.47000000000E+01 0. -1.
         -5    1    3    3    0  502  0.48463891881E+02  0.28702613800E+02 -0.12852062771E+03  0.14040025143E+03  0.47000000000E+01 0.  1.
          5    1    4    4  503    0  0.49564424281E+01  0.36513417498E+02 -0.16428776878E+03  0.16843502293E+03  0.47000000000E+01 0. -1.
         -5    1    4    4    0  503 -0.88737827952E+02 -0.47680628777E+01 -0.45091886992E+03  0.45961620270E+03  0.47000000000E+01 0.  1.
<mgrwt>
<rscale>  0 0.12745543E+03</rscale>
<asrwt>0</asrwt>
<pdfrwt beam="1">  1        1 0.27690338E-02 0.12781963E+03</pdfrwt>
<pdfrwt beam="2">  1       -1 0.14991618E+00 0.12781963E+03</pdfrwt>
<totfact> 0.14063334E+03</totfact>
</mgrwt>
</event>
<event>
 8    1  0.3466492E-004  0.9373269E+02  0.7546771E-02  0.1294842E+00
          1   -1    0    0  501    0  0.00000000000E+00  0.00000000000E+00  0.18884956179E+03  0.18884956179E+03  0.00000000000E+00 0. -1.
         -1   -1    0    0    0  501 -0.00000000000E+00 -0.00000000000E+00 -0.56234744449E+02  0.56234744449E+02  0.00000000000E+00 0.  1.
         23    2    1    2    0    0 -0.98834600696E+01  0.14738584407E+02  0.13255046933E+02  0.93319447829E+02  0.90652713256E+02 0.  0.
         23    2    1    2    0    0  0.98834600696E+01 -0.14738584407E+02  0.11935977041E+03  0.15176485841E+03  0.92037540182E+02 0.  0.
          5    1    4    4  502    0  0.95671216986E+01  0.21910101873E+02  0.11131320074E+03  0.11394867722E+03  0.47000000000E+01 0. -1.
         -5    1    3    3    0  503 -0.22046075565E+02 -0.33987119401E+02  0.13243350844E+02  0.42879249930E+02  0.47000000000E+01 0.  1.
          5    1    3    3  503    0  0.12162615495E+02  0.48725703808E+02  0.11696088226E-01  0.50440197899E+02  0.47000000000E+01 0. -1.
         -5    1    4    4    0  502  0.31633837098E+00 -0.36648686280E+02  0.80465696652E+01  0.37816181184E+02  0.47000000000E+01 0.  1.
<mgrwt>
<rscale>  0 0.93390975E+02</rscale>
<asrwt>0</asrwt>
<pdfrwt beam="1">  1        1 0.29053778E-01 0.93732692E+02</pdfrwt>
<pdfrwt beam="2">  1       -1 0.86514993E-02 0.93732692E+02</pdfrwt>
<totfact> 0.10960404E+04</totfact>
</mgrwt>
</event>
<event>
 8    1  0.3466492E-004  0.9188141E+02  0.7546771E-02  0.1299350E+00
          3   -1    0    0  501    0  0.00000000000E+00  0.00000000000E+00  0.12764889582E+02  0.12764889582E+02  0.00000000000E+00 0. -1.
         -3   -1    0    0    0  501 -0.00000000000E+00 -0.00000000000E+00 -0.66112572685E+03  0.66112572685E+03  0.00000000000E+00 0.  1.
         23    2    1    2    0    0  0.11946730475E+02 -0.35697221737E+01 -0.36611661988E+03  0.37706745218E+03  0.89347729976E+02 0.  0.
         23    2    1    2    0    0 -0.11946730475E+02  0.35697221737E+01 -0.28224421738E+03  0.29682316425E+03  0.91031452282E+02 0.  0.
          5    1    3    3  502    0 -0.23528625803E+02 -0.14611529599E+02 -0.40412802851E+02  0.49217656015E+02  0.47000000000E+01 0. -1.
         -5    1    4    4    0  503  0.25792545486E+02  0.32855047529E+02 -0.16169889113E+03  0.16707283125E+03  0.47000000000E+01 0.  1.
          5    1    4    4  503    0 -0.37739275962E+02 -0.29285325356E+02 -0.12054532625E+03  0.12975033300E+03  0.47000000000E+01 0. -1.
         -5    1    3    3    0  502  0.35475356278E+02  0.11041807425E+02 -0.32570381703E+03  0.32784979616E+03  0.47000000000E+01 0.  1.
<mgrwt>
<rscale>  0 0.91461572E+02</rscale>
<asrwt>0</asrwt>
<pdfrwt beam="1">  1        3 0.19638289E-02 0.91881405E+02</pdfrwt>
<pdfrwt beam="2">  1       -3 0.10171166E+00 0.91881405E+02</pdfrwt>
<totfact> 0.18236216E+03</totfact>
</mgrwt>
</event>
<event>
 8    1  0.3466492E-004  0.9347995E+02  0.7546771E-02  0.1296934E+00
         -2   -1    0    0    0  501 -0.00000000000E+00  0.00000000000E+00  0.31064780703E+02  0.31064780703E+02  0.00000000000E+00 0.  1.
          2   -1    0    0  501    0  0.00000000000E+00 -0.00000000000E+00 -0.31468086733E+03  0.31468086733E+03  0.00000000000E+00 0. -1.
         23    2    1    2    0    0  0.63114622509E+01  0.19294753030E+02 -0.73859519937E+02  0.11610175374E+03  0.87248303623E+02 0.  0.
         23    2    1    2    0    0 -0.63114622509E+01 -0.19294753030E+02 -0.20975656669E+03  0.22964389430E+03  0.91248993793E+02 0.  0.
          5    1    4    4  502    0 -0.12691790613E+02 -0.38512508334E+02 -0.20404176801E+03  0.20808514589E+03  0.47000000000E+01 0. -1.
         -5    1    3    3    0  503 -0.15922478910E+02 -0.23292728922E+02 -0.89839963871E+00  0.28617716142E+02  0.47000000000E+01 0. -1.
          5    1    3    3  503    0  0.22233941161E+02  0.42587481952E+02 -0.72961120298E+02  0.87484037594E+02  0.47000000000E+01 0.  1.
         -5    1    4    4    0  502  0.63803283619E+01  0.19217755304E+02 -0.57147986782E+01  0.21558748406E+02  0.47000000000E+01 0.  1.
<mgrwt>
<rscale>  0 0.92489056E+02</rscale>
<asrwt>0</asrwt>
<pdfrwt beam="1">  1        2 0.48412442E-01 0.93479949E+02</pdfrwt>
<pdfrwt beam="2">  1       -2 0.47791970E-02 0.93479949E+02</pdfrwt>
<totfact> 0.19626307E+04</totfact>
</mgrwt>
</event>
<event>
 8    1  0.3466492E-004  0.1020296E+03  0.7546771E-02  0.1276502E+00
          3   -1    0    0  501    0  0.00000000000E+00  0.00000000000E+00  0.11369366765E+03  0.11369366765E+03  0.00000000000E+00 0. -1.
         -3   -1    0    0    0  501 -0.00000000000E+00 -0.00000000000E+00 -0.15131009436E+03  0.15131009436E+03  0.00000000000E+00 0.  1.
         23    2    1    2    0    0  0.30588725409E+02  0.38442063336E+02  0.64913652791E+02  0.12092897214E+03  0.89423551862E+02 0.  0.
         23    2    1    2    0    0 -0.30588725409E+02 -0.38442063336E+02 -0.10253007950E+03  0.14407478987E+03  0.88496697792E+02 0.  0.
          5    1    3    3  502    0  0.51893176927E+02 -0.17400017674E+01  0.17333010997E+02  0.54940446739E+02  0.47000000000E+01 0. -1.
         -5    1    4    4    0  503 -0.22436782547E+02  0.21544813889E+02 -0.66253821381E+02  0.73343350511E+02  0.47000000000E+01 0.  1.
          5    1    4    4  503    0 -0.81519428621E+01 -0.59986877225E+02 -0.36276258116E+02  0.70731439364E+02  0.47000000000E+01 0. -1.
         -5    1    3    3    0  502 -0.21304451518E+02  0.40182065103E+02  0.47580641794E+02  0.65988525396E+02  0.47000000000E+01 0.  1.
<mgrwt>
<rscale>  0 0.10182613E+03</rscale>
<asrwt>0</asrwt>
<pdfrwt beam="1">  1        3 0.17491333E-01 0.10202957E+03</pdfrwt>
<pdfrwt beam="2">  1       -3 0.23278476E-01 0.10202957E+03</pdfrwt>
<totfact> 0.10667999E+03</totfact>
</mgrwt>
</event>
<event>
 8    1  0.3466492E-004  0.9377608E+02  0.7546771E-02  0.1294608E+00
          1   -1    0    0  501    0  0.00000000000E+00  0.00000000000E+00  0.15325837853E+02  0.15325837853E+02  0.00000000000E+00 0. -1.
         -1   -1    0    0    0  501 -0.00000000000E+00 -0.00000000000E+00 -0.68694891282E+03  0.68694891282E+03  0.00000000000E+00 0.  1.
         23    2    1    2    0    0  0.29463135019E+01  0.19460923517E+02 -0.19070945920E+03  0.21251835271E+03  0.91687207970E+02 0.  0.
         23    2    1    2    0    0 -0.29463135019E+01 -0.19460923517E+02 -0.48091361577E+03  0.48975639796E+03  0.90531846348E+02 0.  0.
          5    1    4    4  502    0  0.18529707404E+02 -0.50835598883E+02 -0.28761456836E+03  0.29269751981E+03  0.47000000000E+01 0. -1.
         -5    1    4    4    0  502 -0.21476020906E+02  0.31374675366E+02 -0.19329904741E+03  0.19705887815E+03  0.47000000000E+01 0.  1.
          5    1    3    3  503    0 -0.22664266319E+02 -0.12737522030E+01 -0.17351023251E+03  0.17505194143E+03  0.47000000000E+01 0. -1.
         -5    1    3    3    0  503  0.25610579821E+02  0.20734675720E+02 -0.17199226690E+02  0.37466411286E+02  0.47000000000E+01 0.  1.
<mgrwt>
<rscale>  0 0.93492465E+02</rscale>
<asrwt>0</asrwt>
<pdfrwt beam="1">  1        1 0.23578210E-02 0.93776076E+02</pdfrwt>
<pdfrwt beam="2">  1       -1 0.10568446E+00 0.93776076E+02</pdfrwt>
<totfact> 0.39735532E+03</totfact>
</mgrwt>
</event>
<event>
 8    1  0.3466492E-004  0.1211441E+03  0.7546771E-02  0.1244512E+00
         -1   -1    0    0    0  501 -0.00000000000E+00  0.00000000000E+00  0.12042056308E+02  0.12042056308E+02  0.00000000000E+00 0.  1.
          1   -1    0    0  501    0  0.00000000000E+00 -0.00000000000E+00 -0.11438328686E+04  0.11438328686E+04  0.00000000000E+00 0. -1.
         23    2    1    2    0    0 -0.34196158533E+02  0.71489849816E+02 -0.61043875446E+03  0.62234345227E+03  0.91628182059E+02 0.  0.
         23    2    1    2    0    0  0.34196158533E+02 -0.71489849816E+02 -0.52135205784E+03  0.53353147265E+03  0.81041274724E+02 0.  0.
          5    1    4    4  502    0 -0.20340461500E+02 -0.49808616424E+02 -0.22539330868E+03  0.23177330787E+03  0.47000000000E+01 0. -1.
         -5    1    4    4    0  502  0.54536620033E+02 -0.21681233392E+02 -0.29595874916E+03  0.30175816478E+03  0.47000000000E+01 0.  1.
          5    1    3    3  503    0 -0.52230325358E+02  0.30858497368E+02 -0.49202601038E+03  0.49577408024E+03  0.47000000000E+01 0. -1.
         -5    1    3    3    0  503  0.18034166825E+02  0.40631352448E+02 -0.11841274408E+03  0.12656937203E+03  0.47000000000E+01 0.  1.
<mgrwt>
<rscale>  0 0.11914632E+03</rscale>
<asrwt>0</asrwt>
<pdfrwt beam="1">  1        1 0.17597436E+00 0.12114413E+03</pdfrwt>
<pdfrwt beam="2">  1       -1 0.18526233E-02 0.12114413E+03</pdfrwt>
<totfact> 0.92625112E+03</totfact>
</mgrwt>
</event>
<event>
 7    1  0.3466492E-004  0.2549152E+03  0.7546771E-02  0.1110237E+00
          1   -1    0    0  501    0  0.00000000000E+00  0.00000000000E+00  0.61651280844E+03  0.61651280844E+03  0.00000000000E+00 0. -1.
         -1   -1    0    0    0  501 -0.00000000000E+00 -0.00000000000E+00 -0.26350525614E+02  0.26350525614E+02  0.00000000000E+00 0.  1.
         23    2    1    2    0    0  0.47065880325E+01  0.30182562932E+02  0.28191139586E+03  0.29808621509E+03  0.91914185174E+02 0.  0.
          5    1    1    2  502    0  0.24270182874E+02 -0.62076910739E+02  0.51417794955E+02  0.84311708924E+02  0.47000000000E+01 0.  1.
         -5    1    1    2    0  502 -0.28976770907E+02  0.31894347808E+02  0.25683309202E+03  0.26046541004E+03  0.47000000000E+01 0. -1.
          5    1    3    3  503    0 -0.42567368424E+02  0.72970339104E+01  0.14510914223E+03  0.15147270618E+03  0.47000000000E+01 0. -1.
         -5    1    3    3    0  503  0.47273956456E+02  0.22885529021E+02  0.13680225363E+03  0.14661350891E+03  0.47000000000E+01 0.  1.
<mgrwt>
<rscale>  0 0.25491517E+03</rscale>
<asrwt>0</asrwt>
<pdfrwt beam="1">  1        1 0.94848113E-01 0.25491517E+03</pdfrwt>
<pdfrwt beam="2">  1       -1 0.40539275E-02 0.25491517E+03</pdfrwt>
<totfact> 0.81023615E+03</totfact>
</mgrwt>
</event>
<event>
 8    1  0.3466492E-004  0.9294474E+02  0.7546771E-02  0.1296508E+00
         -4   -1    0    0    0  501 -0.00000000000E+00  0.00000000000E+00  0.30923157533E+02  0.30923157533E+02  0.00000000000E+00 0.  1.
          4   -1    0    0  501    0  0.00000000000E+00 -0.00000000000E+00 -0.27612743112E+03  0.27612743112E+03  0.00000000000E+00 0. -1.
         23    2    1    2    0    0 -0.93330675492E+01  0.60111213933E+01 -0.12334979995E+03  0.15379512220E+03  0.91184026758E+02 0.  0.
         23    2    1    2    0    0  0.93330675492E+01 -0.60111213933E+01 -0.12185447364E+03  0.15325546645E+03  0.92279388385E+02 0.  0.
          5    1    4    4  502    0 -0.14866044806E+02 -0.41385245810E+02 -0.87812869272E+02  0.98320536353E+02  0.47000000000E+01 0. -1.
         -5    1    4    4    0  502  0.24199112355E+02  0.35374124417E+02 -0.34041604370E+02  0.54934930100E+02  0.47000000000E+01 0.  1.
          5    1    3    3  503    0 -0.37398279539E+02 -0.27456353583E+02 -0.50601187866E+02  0.68811720498E+02  0.47000000000E+01 0. -1.
         -5    1    3    3    0  503  0.28065211989E+02  0.33467474977E+02 -0.72748612080E+02  0.84983401703E+02  0.47000000000E+01 0.  1.
<mgrwt>
<rscale>  0 0.92671685E+02</rscale>
<asrwt>0</asrwt>
<pdfrwt beam="1">  1        4 0.42481142E-01 0.92944743E+02</pdfrwt>
<pdfrwt beam="2">  1       -4 0.47574090E-02 0.92944743E+02</pdfrwt>
<totfact> 0.20924276E+03</totfact>
</mgrwt>
</event>
<event>
 8    1  0.3466492E-004  0.1014646E+03  0.7546771E-02  0.1277480E+00
         -1   -1    0    0    0  501 -0.00000000000E+00  0.00000000000E+00  0.40376374598E+03  0.40376374598E+03  0.00000000000E+00 0.  1.
          1   -1    0    0  501    0  0.00000000000E+00 -0.00000000000E+00 -0.16176191401E+03  0.16176191401E+03  0.00000000000E+00 0. -1.
         23    2    1    2    0    0  0.42418579293E+01  0.44803215125E+02  0.38058904198E+03  0.39376568728E+03  0.90432716193E+02 0.  0.
         23    2    1    2    0    0 -0.42418579293E+01 -0.44803215125E+02 -0.13858721001E+03  0.17175997271E+03  0.90938176818E+02 0.  0.
          5    1    4    4  502    0 -0.30865221666E+02 -0.54522649939E+02 -0.12516711987E+03  0.14005098772E+03  0.47000000000E+01 0. -1.
         -5    1    4    4    0  502  0.26623363737E+02  0.97194348143E+01 -0.13420090142E+02  0.31708984992E+02  0.47000000000E+01 0.  1.
          5    1    3    3  503    0  0.43203330176E+02  0.44114819729E+01  0.13912815137E+03  0.14582428266E+03  0.47000000000E+01 0. -1.
         -5    1    3    3    0  503 -0.38961472246E+02  0.40391733152E+02  0.24146089061E+03  0.24794140462E+03  0.47000000000E+01 0.  1.
<mgrwt>
<rscale>  0 0.10135126E+03</rscale>
<asrwt>0</asrwt>
<pdfrwt beam="1">  1        1 0.24886448E-01 0.10146464E+03</pdfrwt>
<pdfrwt beam="2">  1       -1 0.62117499E-01 0.10146464E+03</pdfrwt>
<totfact> 0.52338142E+02</totfact>
</mgrwt>
</event>
<event>
 8    1  0.3466492E-004  0.1202757E+03  0.7546771E-02  0.1243597E+00
         -1   -1    0    0    0  501 -0.00000000000E+00  0.00000000000E+00  0.26834773410E+03  0.26834773410E+03  0.00000000000E+00 0.  1.
          1   -1    0    0  501    0  0.00000000000E+00 -0.00000000000E+00 -0.78975399623E+02  0.78975399623E+02  0.00000000000E+00 0. -1.
         23    2    1    2    0    0  0.92368218599E+01 -0.75100926115E+02  0.19511181754E+03  0.22920485954E+03  0.93492129670E+02 0.  0.
         23    2    1    2    0    0 -0.92368218599E+01  0.75100926115E+02 -0.57394830593E+01  0.11811827419E+03  0.90518048203E+02 0.  0.
          5    1    4    4  502    0  0.38401399908E+02  0.46250352579E+02 -0.13215086719E+02  0.61729175806E+02  0.47000000000E+01 0. -1.
         -5    1    3    3    0  503  0.46009788984E+02 -0.52094611864E+02  0.15501252242E+03  0.16994623084E+03  0.47000000000E+01 0.  1.
          5    1    3    3  503    0 -0.36772967125E+02 -0.23006314251E+02  0.40099295117E+02  0.59258628700E+02  0.47000000000E+01 0. -1.
         -5    1    4    4    0  502 -0.47638221768E+02  0.28850573536E+02  0.74756036602E+01  0.56389098385E+02  0.47000000000E+01 0.  1.
<mgrwt>
<rscale>  0 0.11969731E+03</rscale>
<asrwt>0</asrwt>
<pdfrwt beam="1">  1        1 0.12150062E-01 0.12027571E+03</pdfrwt>
<pdfrwt beam="2">  1       -1 0.41284266E-01 0.12027571E+03</pdfrwt>
<totfact> 0.27637994E+03</totfact>
</mgrwt>
</event>
<event>
 8    1  0.3466492E-004  0.1230270E+03  0.7546771E-02  0.1239389E+00
         -1   -1    0    0    0  501 -0.00000000000E+00  0.00000000000E+00  0.17321400428E+03  0.17321400428E+03  0.00000000000E+00 0.  1.
          1   -1    0    0  501    0  0.00000000000E+00 -0.00000000000E+00 -0.23793379072E+03  0.23793379072E+03  0.00000000000E+00 0. -1.
         23    2    1    2    0    0  0.35186669865E+02 -0.71593245728E+02 -0.19716021391E+03  0.23239576800E+03  0.93658680659E+02 0.  0.
         23    2    1    2    0    0 -0.35186669865E+02  0.71593245728E+02  0.13244042748E+03  0.17875202700E+03  0.89711346870E+02 0.  0.
          5    1    3    3  502    0  0.58228327112E+02 -0.36387042956E+02 -0.16637709748E+03  0.18004994734E+03  0.47000000000E+01 0. -1.
         -5    1    4    4    0  503 -0.59358363253E+02  0.24429782659E+02  0.90254147360E+02  0.11085184114E+03  0.47000000000E+01 0.  1.
          5    1    4    4  503    0  0.24171693388E+02  0.47163463069E+02  0.42186280118E+02  0.67900185862E+02  0.47000000000E+01 0. -1.
         -5    1    3    3    0  502 -0.23041657247E+02 -0.35206202773E+02 -0.30783116432E+02  0.52345820651E+02  0.47000000000E+01 0.  1.
<mgrwt>
<rscale>  0 0.12227571E+03</rscale>
<asrwt>0</asrwt>
<pdfrwt beam="1">  1        1 0.36605198E-01 0.12302700E+03</pdfrwt>
<pdfrwt beam="2">  1       -1 0.26648308E-01 0.12302700E+03</pdfrwt>
<totfact> 0.14425641E+03</totfact>
</mgrwt>
</event>
<event>
 8    1  0.3466492E-004  0.9657575E+02  0.7546771E-02  0.1289148E+00
         -1   -1    0    0    0  501 -0.00000000000E+00  0.00000000000E+00  0.66525235876E+02  0.66525235876E+02  0.00000000000E+00 0.  1.
          1   -1    0    0  501    0  0.00000000000E+00 -0.00000000000E+00 -0.23071333414E+03  0.23071333414E+03  0.00000000000E+00 0. -1.
         23    2    1    2    0    0  0.19093164411E+02 -0.52754559245E+01 -0.17779686734E+03  0.20233289714E+03  0.94522462229E+02 0.  0.
         23    2    1    2    0    0 -0.19093164411E+02  0.52754559245E+01  0.13608769078E+02  0.94905672877E+02  0.91812356391E+02 0.  0.
          5    1    3    3  502    0  0.48313413511E+02  0.24487416077E+02 -0.10726603351E+03  0.12025768755E+03  0.47000000000E+01 0. -1.
         -5    1    3    3    0  502 -0.29220249100E+02 -0.29762872002E+02 -0.70530833836E+02  0.82075209588E+02  0.47000000000E+01 0.  1.
          5    1    4    4  503    0 -0.44230913478E+02  0.33240940868E+02  0.12882074983E+02  0.57003260545E+02  0.47000000000E+01 0. -1.
         -5    1    4    4    0  503  0.25137749068E+02 -0.27965484943E+02  0.72669409502E+00  0.37902412332E+02  0.47000000000E+01 0.  1.
<mgrwt>
<rscale>  0 0.95906106E+02</rscale>
<asrwt>0</asrwt>
<pdfrwt beam="1">  1        1 0.35494359E-01 0.96575749E+02</pdfrwt>
<pdfrwt beam="2">  1       -1 0.10234652E-01 0.96575749E+02</pdfrwt>
<totfact> 0.66714268E+03</totfact>
</mgrwt>
</event>
<event>
 8    1  0.3466492E-004  0.1063284E+03  0.7546771E-02  0.1269803E+00
         -2   -1    0    0    0  501 -0.00000000000E+00  0.00000000000E+00  0.30178932469E+02  0.30178932469E+02  0.00000000000E+00 0.  1.
          2   -1    0    0  501    0  0.00000000000E+00 -0.00000000000E+00 -0.40887328126E+03  0.40887328126E+03  0.00000000000E+00 0. -1.
         23    2    1    2    0    0 -0.48656653669E+02 -0.98682395988E+01 -0.10873128445E+03  0.14890434043E+03  0.88798413736E+02 0.  0.
         23    2    1    2    0    0  0.48656653669E+02  0.98682395988E+01 -0.26996306434E+03  0.29014787330E+03  0.94025954777E+02 0.  0.
          5    1    3    3  502    0 -0.20368380866E+02 -0.48915448914E+02 -0.60103927358E+02  0.80263093420E+02  0.47000000000E+01 0.  1.
         -5    1    4    4    0  503 -0.23455807484E+02 -0.16872615531E+02 -0.74668920996E+02  0.80202230782E+02  0.47000000000E+01 0.  1.
          5    1    4    4  503    0  0.72112461154E+02  0.26740855130E+02 -0.19529414335E+03  0.20994564252E+03  0.47000000000E+01 0. -1.
         -5    1    3    3    0  502 -0.28288272804E+02  0.39047209315E+02 -0.48627357089E+02  0.68641247009E+02  0.47000000000E+01 0. -1.
<mgrwt>
<rscale>  0 0.10516098E+03</rscale>
<asrwt>0</asrwt>
<pdfrwt beam="1">  1        2 0.62903581E-01 0.10632842E+03</pdfrwt>
<pdfrwt beam="2">  1       -2 0.46429128E-02 0.10632842E+03</pdfrwt>
<totfact> 0.15749555E+04</totfact>
</mgrwt>
</event>
<event>
 8    1  0.3466492E-004  0.1705467E+03  0.7546771E-02  0.1177428E+00
         -1   -1    0    0    0  501 -0.00000000000E+00  0.00000000000E+00  0.91646878002E+02  0.91646878002E+02  0.00000000000E+00 0.  1.
          1   -1    0    0  501    0  0.00000000000E+00 -0.00000000000E+00 -0.59192909624E+03  0.59192909624E+03  0.00000000000E+00 0. -1.
         23    2    1    2    0    0  0.70204945753E+02  0.12557228493E+03 -0.17138899145E+02  0.17140567452E+03  0.91591649411E+02 0.  0.
         23    2    1    2    0    0 -0.70204945753E+02 -0.12557228493E+03 -0.48314331909E+03  0.51217029972E+03  0.90519699427E+02 0.  0.
          5    1    4    4  502    0 -0.30421730321E+02 -0.18841180882E+02 -0.36980504805E+02  0.51673199130E+02  0.47000000000E+01 0.  1.
         -5    1    3    3    0  503  0.52967000603E+02  0.13803792931E+03 -0.91765025278E+01  0.14821022663E+03  0.47000000000E+01 0.  1.
          5    1    3    3  503    0  0.17237945150E+02 -0.12465644375E+02 -0.79623966169E+01  0.23195447884E+02  0.47000000000E+01 0. -1.
         -5    1    4    4    0  502 -0.39783215432E+02 -0.10673110405E+03 -0.44616281429E+03  0.46049710059E+03  0.47000000000E+01 0. -1.
<mgrwt>
<rscale>  0 0.17040316E+03</rscale>
<asrwt>0</asrwt>
<pdfrwt beam="1">  1        1 0.91066013E-01 0.17054666E+03</pdfrwt>
<pdfrwt beam="2">  1       -1 0.14099520E-01 0.17054666E+03</pdfrwt>
<totfact> 0.12677179E+03</totfact>
</mgrwt>
</event>
<event>
 8    1  0.3466492E-004  0.1055946E+03  0.7546771E-02  0.1269496E+00
         -1   -1    0    0    0  501 -0.00000000000E+00  0.00000000000E+00  0.11775065311E+02  0.11775065311E+02  0.00000000000E+00 0.  1.
          1   -1    0    0  501    0  0.00000000000E+00 -0.00000000000E+00 -0.10466540280E+04  0.10466540280E+04  0.00000000000E+00 0. -1.
         23    2    1    2    0    0 -0.51514888703E+02  0.79319518297E+01 -0.68625520071E+03  0.69416443588E+03  0.90561382046E+02 0.  0.
         23    2    1    2    0    0  0.51514888703E+02 -0.79319518297E+01 -0.34862376200E+03  0.36426465746E+03  0.91834163695E+02 0.  0.
          5    1    4    4  502    0  0.28126393852E+02  0.34817650032E+02 -0.25155880426E+03  0.25555290018E+03  0.47000000000E+01 0. -1.
         -5    1    4    4    0  502  0.23388494850E+02 -0.42749601861E+02 -0.97064957738E+02  0.10871175728E+03  0.47000000000E+01 0.  1.
          5    1    3    3  503    0  0.23043023365E+02 -0.12293499902E+02 -0.14573155917E+03  0.14812794606E+03  0.47000000000E+01 0. -1.
         -5    1    3    3    0  503 -0.74557912067E+02  0.20225451731E+02 -0.54052364154E+03  0.54603648982E+03  0.47000000000E+01 0.  1.
<mgrwt>
<rscale>  0 0.10531722E+03</rscale>
<asrwt>0</asrwt>
<pdfrwt beam="1">  1        1 0.16102374E+00 0.10559457E+03</pdfrwt>
<pdfrwt beam="2">  1       -1 0.18115480E-02 0.10559457E+03</pdfrwt>
<totfact> 0.11096186E+04</totfact>
</mgrwt>
</event>
<event>
 8    1  0.3466492E-004  0.9469417E+02  0.7546771E-02  0.1293991E+00
          1   -1    0    0  501    0  0.00000000000E+00  0.00000000000E+00  0.50069297643E+03  0.50069297643E+03  0.00000000000E+00 0. -1.
         -1   -1    0    0    0  501 -0.00000000000E+00 -0.00000000000E+00 -0.17761340075E+02  0.17761340075E+02  0.00000000000E+00 0.  1.
         23    2    1    2    0    0  0.34008837360E+01  0.13930175597E+02  0.19159764533E+03  0.21211711754E+03  0.89879909069E+02 0.  0.
         23    2    1    2    0    0 -0.34008837360E+01 -0.13930175597E+02  0.29133399102E+03  0.30633719897E+03  0.93602186631E+02 0.  0.
          5    1    4    4  502    0 -0.14823900133E+02 -0.45733493357E+02  0.23922032927E+03  0.24404867622E+03  0.47000000000E+01 0. -1.
         -5    1    4    4    0  502  0.11423016397E+02  0.31803317760E+02  0.52113661752E+02  0.62288522742E+02  0.47000000000E+01 0.  1.
          5    1    3    3  503    0 -0.40468049622E+02  0.66833314984E+01  0.57677261862E+02  0.70930152234E+02  0.47000000000E+01 0. -1.
         -5    1    3    3    0  503  0.43868933358E+02  0.72468440985E+01  0.13392038347E+03  0.14118696530E+03  0.47000000000E+01 0.  1.
<mgrwt>
<rscale>  0 0.93761063E+02</rscale>
<asrwt>0</asrwt>
<pdfrwt beam="1">  1        1 0.77029678E-01 0.94694166E+02</pdfrwt>
<pdfrwt beam="2">  1       -1 0.27325142E-02 0.94694166E+02</pdfrwt>
<totfact> 0.17804419E+04</totfact>
</mgrwt>
</event>
<event>
 8    1  0.3466492E-004  0.1668001E+03  0.7546771E-02  0.1183268E+00
          1   -1    0    0  501    0  0.00000000000E+00  0.00000000000E+00  0.10858801453E+03  0.10858801453E+03  0.00000000000E+00 0. -1.
         -1   -1    0    0    0  501 -0.00000000000E+00 -0.00000000000E+00 -0.42556897759E+03  0.42556897759E+03  0.00000000000E+00 0.  1.
         23    2    1    2    0    0  0.10539392046E+03  0.74123798333E+02  0.13418380116E+02  0.16733897809E+03  0.10592480689E+03 0.  0.
         23    2    1    2    0    0 -0.10539392046E+03 -0.74123798333E+02 -0.33039934317E+03  0.36681801402E+03  0.93752405269E+02 0.  0.
          5    1    3    3  502    0  0.10089491991E+03  0.98488105693E+02  0.66590005699E+01  0.14123074777E+03  0.47000000000E+01 0. -1.
         -5    1    4    4    0  503 -0.18830667981E+02 -0.69910579954E+02 -0.15020704929E+03  0.16681226245E+03  0.47000000000E+01 0.  1.
          5    1    4    4  503    0 -0.86563252481E+02 -0.42132183788E+01 -0.18019229388E+03  0.20000575157E+03  0.47000000000E+01 0. -1.
         -5    1    3    3    0  502  0.44990005568E+01 -0.24364307359E+02  0.67593795456E+01  0.26108230330E+02  0.47000000000E+01 0.  1.
<mgrwt>
<rscale>  0 0.16490499E+03</rscale>
<asrwt>0</asrwt>
<pdfrwt beam="1">  1        1 0.16705848E-01 0.16680012E+03</pdfrwt>
<pdfrwt beam="2">  1       -1 0.65472153E-01 0.16680012E+03</pdfrwt>
<totfact> 0.78840648E+02</totfact>
</mgrwt>
</event>
<event>
 8    1  0.3466492E-004  0.1280469E+03  0.7546771E-02  0.1242814E+00
          2   -1    0    0  501    0  0.00000000000E+00  0.00000000000E+00  0.34887167353E+03  0.34887167353E+03  0.00000000000E+00 0. -1.
         -2   -1    0    0    0  501 -0.00000000000E+00 -0.00000000000E+00 -0.10994001841E+03  0.10994001841E+03  0.00000000000E+00 0.  1.
         23    2    1    2    0    0 -0.33420093102E+02 -0.22522229733E+02 -0.61741335900E+02  0.14215484128E+03  0.12153951162E+03 0.  0.
         23    2    1    2    0    0  0.33420093102E+02  0.22522229733E+02  0.30067299101E+03  0.31665685066E+03  0.90791850341E+02 0.  0.
          5    1    4    4  502    0  0.64630496514E+02  0.14447226377E+02  0.18860215445E+03  0.19994670813E+03  0.47000000000E+01 0. -1.
         -5    1    3    3    0  503 -0.61774165159E+02  0.21110618592E+02 -0.61639273762E+02  0.89906594688E+02  0.47000000000E+01 0.  1.
          5    1    3    3  503    0  0.28354072056E+02 -0.43632848325E+02 -0.10206213777E+00  0.52248246591E+02  0.47000000000E+01 0. -1.
         -5    1    4    4    0  502 -0.31210403412E+02  0.80750033560E+01  0.11207083656E+03  0.11671014252E+03  0.47000000000E+01 0.  1.
<mgrwt>
<rscale>  0 0.12017155E+03</rscale>
<asrwt>0</asrwt>
<pdfrwt beam="1">  1        2 0.53672565E-01 0.12804689E+03</pdfrwt>
<pdfrwt beam="2">  1       -2 0.16913849E-01 0.12804689E+03</pdfrwt>
<totfact> 0.25204836E+03</totfact>
</mgrwt>
</event>
<event>
 8    1  0.3466492E-004  0.1832733E+03  0.7546771E-02  0.1164989E+00
         -1   -1    0    0    0  501 -0.00000000000E+00  0.00000000000E+00  0.33561872636E+03  0.33561872636E+03  0.00000000000E+00 0.  1.
          1   -1    0    0  501    0  0.00000000000E+00 -0.00000000000E+00 -0.11139768367E+03  0.11139768367E+03  0.00000000000E+00 0. -1.
         23    2    1    2    0    0  0.15153513200E+03 -0.44877411281E+02  0.38980911963E+02  0.18737292066E+03  0.92802056157E+02 0.  0.
         23    2    1    2    0    0 -0.15153513200E+03  0.44877411281E+02  0.18524013073E+03  0.25964348937E+03  0.90132997651E+02 0.  0.
          5    1    3    3  502    0  0.12851398236E+03 -0.67045396069E+02  0.12431282024E+02  0.14555945716E+03  0.47000000000E+01 0. -1.
         -5    1    4    4    0  503 -0.13868264472E+03  0.63391809666E+02  0.18014588713E+03  0.23606361035E+03  0.47000000000E+01 0.  1.
          5    1    4    4  503    0 -0.12852487278E+02 -0.18514398385E+02  0.50942435955E+01  0.23579879020E+02  0.47000000000E+01 0. -1.
         -5    1    3    3    0  502  0.23021149644E+02  0.22167984788E+02  0.26549629939E+02  0.41813463506E+02  0.47000000000E+01 0.  1.
<mgrwt>
<rscale>  0 0.18293814E+03</rscale>
<asrwt>0</asrwt>
<pdfrwt beam="1">  1        1 0.17138105E-01 0.18327329E+03</pdfrwt>
<pdfrwt beam="2">  1       -1 0.51633650E-01 0.18327329E+03</pdfrwt>
<totfact> 0.11991288E+03</totfact>
</mgrwt>
</event>
<event>
 8    1  0.3466492E-004  0.1953313E+03  0.7546771E-02  0.1153916E+00
          3   -1    0    0  501    0  0.00000000000E+00  0.00000000000E+00  0.23015045161E+03  0.23015045161E+03  0.00000000000E+00 0. -1.
         -3   -1    0    0    0  501 -0.00000000000E+00 -0.00000000000E+00 -0.18208624754E+03  0.18208624754E+03  0.00000000000E+00 0.  1.
         23    2    1    2    0    0  0.11021128605E+03  0.13256810704E+03  0.86960342977E+02  0.21307038636E+03  0.90089165362E+02 0.  0.
         23    2    1    2    0    0 -0.11021128605E+03 -0.13256810704E+03 -0.38896138910E+02  0.19916631280E+03  0.91833980397E+02 0.  0.
          5    1    4    4  502    0 -0.49217606747E+02 -0.52174379118E+02  0.28934585012E+02  0.77484442697E+02  0.47000000000E+01 0. -1.
         -5    1    4    4    0  502 -0.60993679303E+02 -0.80393727919E+02 -0.67830723922E+02  0.12168187010E+03  0.47000000000E+01 0.  1.
          5    1    3    3  503    0  0.12370152615E+03  0.11049253801E+03  0.62971472204E+02  0.17747722343E+03  0.47000000000E+01 0. -1.
         -5    1    3    3    0  503 -0.13490240098E+02  0.22075569030E+02  0.23988870773E+02  0.35593162923E+02  0.47000000000E+01 0.  1.
<mgrwt>
<rscale>  0 0.19512741E+03</rscale>
<asrwt>0</asrwt>
<pdfrwt beam="1">  1        3 0.35407762E-01 0.19533128E+03</pdfrwt>
<pdfrwt beam="2">  1       -3 0.28013269E-01 0.19533128E+03</pdfrwt>
<totfact> 0.23329553E+02</totfact>
</mgrwt>
</event>
<event>
 8    1  0.3466492E-004  0.1514892E+03  0.7546771E-02  0.1198869E+00
         -2   -1    0    0    0  501 -0.00000000000E+00  0.00000000000E+00  0.67877376895E+02  0.67877376895E+02  0.00000000000E+00 0.  1.
          2   -1    0    0  501    0  0.00000000000E+00 -0.00000000000E+00 -0.48761576623E+03  0.48761576623E+03  0.00000000000E+00 0. -1.
         23    2    1    2    0    0 -0.55861044719E+02  0.10674423032E+03 -0.36481247717E+03  0.39501534940E+03  0.91837877475E+02 0.  0.
         23    2    1    2    0    0  0.55861044719E+02 -0.10674423032E+03 -0.54925912175E+02  0.16047779373E+03  0.90672374132E+02 0.  0.
          5    1    4    4  502    0  0.17689929711E+02 -0.51475742915E+02 -0.72603663434E+02  0.90862905885E+02  0.47000000000E+01 0. -1.
         -5    1    3    3    0  503  0.17762501178E+02  0.44809563363E+02 -0.72054133303E+02  0.86817576233E+02  0.47000000000E+01 0.  1.
          5    1    3    3  503    0 -0.73623545897E+02  0.61934666955E+02 -0.29275834386E+03  0.30819777316E+03  0.47000000000E+01 0. -1.
         -5    1    4    4    0  502  0.38171115008E+02 -0.55268487403E+02  0.17677751260E+02  0.69614887850E+02  0.47000000000E+01 0.  1.
<mgrwt>
<rscale>  0 0.15131298E+03</rscale>
<asrwt>0</asrwt>
<pdfrwt beam="1">  1        2 0.75017808E-01 0.15148922E+03</pdfrwt>
<pdfrwt beam="2">  1       -2 0.10442674E-01 0.15148922E+03</pdfrwt>
<totfact> 0.38594170E+03</totfact>
</mgrwt>
</event>
<event>
 8    1  0.3466492E-004  0.1223034E+03  0.7546771E-02  0.1240114E+00
         -1   -1    0    0    0  501 -0.00000000000E+00  0.00000000000E+00  0.68771220637E+03  0.68771220637E+03  0.00000000000E+00 0.  1.
          1   -1    0    0  501    0  0.00000000000E+00 -0.00000000000E+00 -0.23690096005E+02  0.23690096005E+02  0.00000000000E+00 0. -1.
         23    2    1    2    0    0  0.11557236003E+02 -0.79549246428E+02  0.21942469584E+03  0.25028954835E+03  0.89643787034E+02 0.  0.
         23    2    1    2    0    0 -0.11557236003E+02  0.79549246428E+02  0.44459741452E+03  0.46111275403E+03  0.92176236734E+02 0.  0.
          5    1    3    3  502    0 -0.16110854367E+02 -0.82609418913E+02  0.19685955920E+03  0.21414866744E+03  0.47000000000E+01 0. -1.
         -5    1    4    4    0  503 -0.12444114998E+02  0.10017114092E+03  0.37384422291E+03  0.38726051499E+03  0.47000000000E+01 0.  1.
          5    1    4    4  503    0  0.88687899510E+00 -0.20621894497E+02  0.70753191617E+02  0.73852239038E+02  0.47000000000E+01 0. -1.
         -5    1    3    3    0  502  0.27668090370E+02  0.30601724848E+01  0.22565136648E+02  0.36140880901E+02  0.47000000000E+01 0.  1.
<mgrwt>
<rscale>  0 0.12182629E+03</rscale>
<asrwt>0</asrwt>
<pdfrwt beam="1">  1        1 0.36446307E-02 0.12230336E+03</pdfrwt>
<pdfrwt beam="2">  1       -1 0.10580186E+00 0.12230336E+03</pdfrwt>
<totfact> 0.22148641E+03</totfact>
</mgrwt>
</event>
<event>
 8    1  0.3466492E-004  0.9669674E+02  0.7546771E-02  0.1288568E+00
         -1   -1    0    0    0  501 -0.00000000000E+00  0.00000000000E+00  0.27276743155E+02  0.27276743155E+02  0.00000000000E+00 0.  1.
          1   -1    0    0  501    0  0.00000000000E+00 -0.00000000000E+00 -0.39562357597E+03  0.39562357597E+03  0.00000000000E+00 0. -1.
         23    2    1    2    0    0  0.31137277001E+01 -0.29398201431E+02 -0.10338480277E+03  0.14155803101E+03  0.92066873263E+02 0.  0.
         23    2    1    2    0    0 -0.31137277001E+01  0.29398201431E+02 -0.26496203004E+03  0.28134228811E+03  0.89859090628E+02 0.  0.
          5    1    4    4  502    0 -0.37330767799E+02 -0.84073805864E+01 -0.15967198064E+03  0.16426046900E+03  0.47000000000E+01 0. -1.
         -5    1    3    3    0  503  0.14640785932E+02 -0.60755153521E+02 -0.61901496988E+02  0.88087607649E+02  0.47000000000E+01 0.  1.
          5    1    3    3  503    0 -0.11527058232E+02  0.31356952090E+02 -0.41483305787E+02  0.53470423365E+02  0.47000000000E+01 0. -1.
         -5    1    4    4    0  502  0.34217040099E+02  0.37805582018E+02 -0.10529004940E+03  0.11708181912E+03  0.47000000000E+01 0.  1.
<mgrwt>
<rscale>  0 0.96167490E+02</rscale>
<asrwt>0</asrwt>
<pdfrwt beam="1">  1        1 0.60865165E-01 0.96696736E+02</pdfrwt>
<pdfrwt beam="2">  1       -1 0.41964221E-02 0.96696736E+02</pdfrwt>
<totfact> 0.12909234E+04</totfact>
</mgrwt>
</event>
<event>
 8    1  0.3466492E-004  0.1056773E+03  0.7546771E-02  0.1274191E+00
         -1   -1    0    0    0  501 -0.00000000000E+00  0.00000000000E+00  0.19076869475E+02  0.19076869475E+02  0.00000000000E+00 0.  1.
          1   -1    0    0  501    0  0.00000000000E+00 -0.00000000000E+00 -0.53442891437E+03  0.53442891437E+03  0.00000000000E+00 0. -1.
         23    2    1    2    0    0 -0.24265928749E+02  0.27799967971E+01 -0.24289052063E+03  0.26488393667E+03  0.10281600660E+03 0.  0.
         23    2    1    2    0    0  0.24265928749E+02 -0.27799967971E+01 -0.27246152426E+03  0.28862184717E+03  0.92036540471E+02 0.  0.
          5    1    4    4  502    0 -0.25974370737E+02 -0.27822685936E+02 -0.12570030912E+03  0.13142080315E+03  0.47000000000E+01 0. -1.
         -5    1    3    3    0  503  0.23852532373E+02  0.14272426775E+02 -0.15590353907E+02  0.32214819596E+02  0.47000000000E+01 0.  1.
          5    1    3    3  503    0 -0.48118461122E+02 -0.11492429978E+02 -0.22730016673E+03  0.23266911708E+03  0.47000000000E+01 0. -1.
         -5    1    4    4    0  502  0.50240299485E+02  0.25042689139E+02 -0.14676121513E+03  0.15720104401E+03  0.47000000000E+01 0.  1.
<mgrwt>
<rscale>  0 0.10296059E+03</rscale>
<asrwt>0</asrwt>
<pdfrwt beam="1">  1        1 0.82219824E-01 0.10567731E+03</pdfrwt>
<pdfrwt beam="2">  1       -1 0.29349033E-02 0.10567731E+03</pdfrwt>
<totfact> 0.14906808E+04</totfact>
</mgrwt>
</event>
<event>
 8    1  0.3466492E-004  0.1142720E+03  0.7546771E-02  0.1252986E+00
         -1   -1    0    0    0  501 -0.00000000000E+00  0.00000000000E+00  0.24782512010E+03  0.24782512010E+03  0.00000000000E+00 0.  1.
          1   -1    0    0  501    0  0.00000000000E+00 -0.00000000000E+00 -0.71075171910E+02  0.71075171910E+02  0.00000000000E+00 0. -1.
         23    2    1    2    0    0  0.61515969307E+02 -0.30490128365E+02  0.16984841766E+03  0.20471096565E+03  0.91346768250E+02 0.  0.
         23    2    1    2    0    0 -0.61515969307E+02  0.30490128365E+02  0.69015305306E+01  0.11418932636E+03  0.90981914262E+02 0.  0.
          5    1    4    4  502    0 -0.14011134447E+02 -0.32055991063E+02  0.20222692311E+01  0.35356442473E+02  0.47000000000E+01 0.  1.
         -5    1    3    3    0  503 -0.55241564112E+01 -0.40810291226E+02  0.94669720221E+02  0.10334622441E+03  0.47000000000E+01 0.  1.
          5    1    3    3  503    0  0.67040125718E+02  0.10320162861E+02  0.75178697438E+02  0.10136474124E+03  0.47000000000E+01 0. -1.
         -5    1    4    4    0  502 -0.47504834860E+02  0.62546119428E+02  0.48792612995E+01  0.78832883884E+02  0.47000000000E+01 0. -1.
<mgrwt>
<rscale>  0 0.11419909E+03</rscale>
<asrwt>0</asrwt>
<pdfrwt beam="1">  1        1 0.10934642E-01 0.11427202E+03</pdfrwt>
<pdfrwt beam="2">  1       -1 0.38126941E-01 0.11427202E+03</pdfrwt>
<totfact> 0.36345341E+03</totfact>
</mgrwt>
</event>
<event>
 8    1  0.3466492E-004  0.9567752E+02  0.7546771E-02  0.1290120E+00
         -1   -1    0    0    0  501 -0.00000000000E+00  0.00000000000E+00  0.38815335266E+02  0.38815335266E+02  0.00000000000E+00 0.  1.
          1   -1    0    0  501    0  0.00000000000E+00 -0.00000000000E+00 -0.25668725941E+03  0.25668725941E+03  0.00000000000E+00 0. -1.
         23    2    1    2    0    0  0.15262113171E+01  0.29039443803E+02 -0.15347513173E+03  0.18085575670E+03  0.91151357957E+02 0.  0.
         23    2    1    2    0    0 -0.15262113171E+01 -0.29039443803E+02 -0.64396792415E+02  0.11464683797E+03  0.90284727200E+02 0.  0.
          5    1    3    3  502    0  0.14950155604E+02 -0.27489794130E+02 -0.86285416671E+02  0.91904619383E+02  0.47000000000E+01 0. -1.
         -5    1    4    4    0  503  0.42629124220E+02 -0.10566932657E+02 -0.17614089155E+02  0.47552585990E+02  0.47000000000E+01 0.  1.
          5    1    4    4  503    0 -0.44155335537E+02 -0.18472511147E+02 -0.46782703260E+02  0.67094251980E+02  0.47000000000E+01 0. -1.
         -5    1    3    3    0  502 -0.13423944287E+02  0.56529237933E+02 -0.67189715055E+02  0.88951137321E+02  0.47000000000E+01 0.  1.
<mgrwt>
<rscale>  0 0.95470537E+02</rscale>
<asrwt>0</asrwt>
<pdfrwt beam="1">  1        1 0.39490348E-01 0.95677524E+02</pdfrwt>
<pdfrwt beam="2">  1       -1 0.59715900E-02 0.95677524E+02</pdfrwt>
<totfact> 0.13082057E+04</totfact>
</mgrwt>
</event>
<event>
 8    1  0.3466492E-004  0.1035026E+03  0.7546771E-02  0.1275454E+00
         -2   -1    0    0    0  501 -0.00000000000E+00  0.00000000000E+00  0.21344095423E+02  0.21344095423E+02  0.00000000000E+00 0.  1.
          2   -1    0    0  501    0  0.00000000000E+00 -0.00000000000E+00 -0.52575380330E+03  0.52575380330E+03  0.00000000000E+00 0. -1.
         23    2    1    2    0    0 -0.38084857465E+02 -0.16105631581E+02 -0.32771570056E+03  0.34232106297E+03  0.89868136881E+02 0.  0.
         23    2    1    2    0    0  0.38084857465E+02  0.16105631581E+02 -0.17669400732E+03  0.20477683575E+03  0.94883784180E+02 0.  0.
          5    1    3    3  502    0  0.86728956150E+01 -0.32997317925E+02 -0.23020732822E+03  0.23276929797E+03  0.47000000000E+01 0. -1.
         -5    1    3    3    0  502 -0.46757753080E+02  0.16891686344E+02 -0.97508372335E+02  0.10955176501E+03  0.47000000000E+01 0.  1.
          5    1    4    4  503    0 -0.84163772586E+01 -0.26606234700E+02 -0.17055582051E+02  0.33041035247E+02  0.47000000000E+01 0. -1.
         -5    1    4    4    0  503  0.46501234723E+02  0.42711866281E+02 -0.15963842527E+03  0.17173580051E+03  0.47000000000E+01 0.  1.
<mgrwt>
<rscale>  0 0.10233865E+03</rscale>
<asrwt>0</asrwt>
<pdfrwt beam="1">  1        2 0.80885200E-01 0.10350256E+03</pdfrwt>
<pdfrwt beam="2">  1       -2 0.32837070E-02 0.10350256E+03</pdfrwt>
<totfact> 0.19975554E+04</totfact>
</mgrwt>
</event>
<event>
 8    1  0.3466492E-004  0.1203055E+03  0.7546771E-02  0.1244373E+00
         -2   -1    0    0    0  501 -0.00000000000E+00  0.00000000000E+00  0.29754126436E+02  0.29754126436E+02  0.00000000000E+00 0.  1.
          2   -1    0    0  501    0  0.00000000000E+00 -0.00000000000E+00 -0.47077141452E+03  0.47077141452E+03  0.00000000000E+00 0. -1.
         23    2    1    2    0    0  0.19983750850E+02  0.70264160346E+02 -0.20315234971E+03  0.23396756890E+03  0.90186160660E+02 0.  0.
         23    2    1    2    0    0 -0.19983750850E+02 -0.70264160346E+02 -0.23786493837E+03  0.26655797205E+03  0.95587766133E+02 0.  0.
          5    1    3    3  502    0  0.21711938112E+02  0.13137741219E+02 -0.16033932821E+03  0.16240319785E+03  0.47000000000E+01 0. -1.
         -5    1    3    3    0  502 -0.17281872628E+01  0.57126419127E+02 -0.42813021508E+02  0.71564371053E+02  0.47000000000E+01 0.  1.
          5    1    4    4  503    0 -0.55179369504E+02 -0.60483652286E+02 -0.18228802845E+03  0.19988509281E+03  0.47000000000E+01 0. -1.
         -5    1    4    4    0  503  0.35195618655E+02 -0.97805080599E+01 -0.55576909920E+02  0.66672879244E+02  0.47000000000E+01 0.  1.
<mgrwt>
<rscale>  0 0.11922984E+03</rscale>
<asrwt>0</asrwt>
<pdfrwt beam="1">  1        2 0.72426368E-01 0.12030554E+03</pdfrwt>
<pdfrwt beam="2">  1       -2 0.45775582E-02 0.12030554E+03</pdfrwt>
<totfact> 0.13977335E+04</totfact>
</mgrwt>
</event>
<event>
 8    1  0.3466492E-004  0.1028563E+03  0.7546771E-02  0.1274758E+00
          1   -1    0    0  501    0  0.00000000000E+00  0.00000000000E+00  0.33513105079E+03  0.33513105079E+03  0.00000000000E+00 0. -1.
         -1   -1    0    0    0  501 -0.00000000000E+00 -0.00000000000E+00 -0.32387213708E+02  0.32387213708E+02  0.00000000000E+00 0.  1.
         23    2    1    2    0    0 -0.32569676316E+02 -0.35244659064E+02  0.18470267077E+03  0.21141071113E+03  0.90974954705E+02 0.  0.
         23    2    1    2    0    0  0.32569676316E+02  0.35244659064E+02  0.11804116631E+03  0.15610755337E+03  0.90182489799E+02 0.  0.
          5    1    4    4  502    0  0.21854683661E+02  0.64432308222E+02  0.95779763451E+02  0.11757977134E+03  0.47000000000E+01 0. -1.
         -5    1    4    4    0  502  0.10714992655E+02 -0.29187649158E+02  0.22261402862E+02  0.38527782033E+02  0.47000000000E+01 0.  1.
          5    1    3    3  503    0 -0.11181798917E+02  0.28535851730E+02  0.32397441745E+02  0.44844305019E+02  0.47000000000E+01 0. -1.
         -5    1    3    3    0  503 -0.21387877399E+02 -0.63780510794E+02  0.15230522903E+03  0.16656640612E+03  0.47000000000E+01 0.  1.
<mgrwt>
<rscale>  0 0.10268076E+03</rscale>
<asrwt>0</asrwt>
<pdfrwt beam="1">  1        1 0.51558621E-01 0.10285627E+03</pdfrwt>
<pdfrwt beam="2">  1       -1 0.49826485E-02 0.10285627E+03</pdfrwt>
<totfact> 0.12399035E+04</totfact>
</mgrwt>
</event>
<event>
 8    1  0.3466492E-004  0.9988026E+02  0.7546771E-02  0.1280661E+00
         -1   -1    0    0    0  501 -0.00000000000E+00  0.00000000000E+00  0.63579659330E+02  0.63579659330E+02  0.00000000000E+00 0.  1.
          1   -1    0    0  501    0  0.00000000000E+00 -0.00000000000E+00 -0.26977414020E+03  0.26977414020E+03  0.00000000000E+00 0. -1.
         23    2    1    2    0    0  0.57622029017E+01  0.34436057051E+02 -0.21100352957E+03  0.23335783586E+03  0.93350656442E+02 0.  0.
         23    2    1    2    0    0 -0.57622029017E+01 -0.34436057051E+02  0.48090487043E+01  0.99995963668E+02  0.93578954862E+02 0.  0.
          5    1    4    4  502    0  0.84159214630E+01 -0.51514889536E+02 -0.28528020251E+02  0.59670340349E+02  0.47000000000E+01 0. -1.
         -5    1    4    4    0  502 -0.14178124365E+02  0.17078832485E+02  0.33337068955E+02  0.40325623319E+02  0.47000000000E+01 0.  1.
          5    1    3    3  503    0  0.23429859821E+02  0.52007115450E+02 -0.71587315203E+02  0.91654416623E+02  0.47000000000E+01 0. -1.
         -5    1    3    3    0  503 -0.17667656920E+02 -0.17571058399E+02 -0.13941621437E+03  0.14170341924E+03  0.47000000000E+01 0.  1.
<mgrwt>
<rscale>  0 0.99826748E+02</rscale>
<asrwt>0</asrwt>
<pdfrwt beam="1">  1        1 0.41503714E-01 0.99880257E+02</pdfrwt>
<pdfrwt beam="2">  1       -1 0.97814860E-02 0.99880257E+02</pdfrwt>
<totfact> 0.59146167E+03</totfact>
</mgrwt>
</event>
<event>
 8    1  0.3466492E-004  0.1099935E+03  0.7546771E-02  0.1261168E+00
          1   -1    0    0  501    0  0.00000000000E+00  0.00000000000E+00  0.57000311118E+03  0.57000311118E+03  0.00000000000E+00 0. -1.
         -1   -1    0    0    0  501 -0.00000000000E+00 -0.00000000000E+00 -0.13058862159E+03  0.13058862159E+03  0.00000000000E+00 0.  1.
         23    2    1    2    0    0  0.13381264720E+02 -0.57231121060E+02 -0.10141597955E+03  0.14868941470E+03  0.91481591978E+02 0.  0.
         23    2    1    2    0    0 -0.13381264720E+02  0.57231121060E+02  0.54083046914E+03  0.55190231808E+03  0.92973721467E+02 0.  0.
          5    1    3    3  502    0 -0.33891838872E+02 -0.49553537943E+02 -0.62611288746E+02  0.86870439985E+02  0.47000000000E+01 0. -1.
         -5    1    3    3    0  502  0.47273103592E+02 -0.76775831167E+01 -0.38804690807E+02  0.61818974711E+02  0.47000000000E+01 0.  1.
          5    1    4    4  503    0  0.30679805222E+02  0.52133654540E+02  0.38731458202E+03  0.39203806426E+03  0.47000000000E+01 0. -1.
         -5    1    4    4    0  503 -0.44061069942E+02  0.50974665198E+01  0.15351588712E+03  0.15986425382E+03  0.47000000000E+01 0.  1.
<mgrwt>
<rscale>  0 0.10967757E+03</rscale>
<asrwt>0</asrwt>
<pdfrwt beam="1">  1        1 0.87692785E-01 0.10999351E+03</pdfrwt>
<pdfrwt beam="2">  1       -1 0.20090558E-01 0.10999351E+03</pdfrwt>
<totfact> 0.75923813E+02</totfact>
</mgrwt>
</event>
<event>
 8    1  0.3466492E-004  0.1032802E+03  0.7546771E-02  0.1273898E+00
          1   -1    0    0  501    0  0.00000000000E+00  0.00000000000E+00  0.16259663788E+03  0.16259663788E+03  0.00000000000E+00 0. -1.
         -1   -1    0    0    0  501 -0.00000000000E+00 -0.00000000000E+00 -0.65186840228E+02  0.65186840228E+02  0.00000000000E+00 0.  1.
         23    2    1    2    0    0  0.13084155347E+02 -0.46919724876E+02  0.46251465649E+02  0.11252738099E+03  0.90280439159E+02 0.  0.
         23    2    1    2    0    0 -0.13084155347E+02  0.46919724876E+02  0.51158332001E+02  0.11525609711E+03  0.91072154280E+02 0.  0.
          5    1    4    4  502    0  0.18874089682E+02  0.58728057276E+02  0.52054760041E+02  0.80851740956E+02  0.47000000000E+01 0. -1.
         -5    1    3    3    0  503  0.35379922991E+02 -0.64190819131E+02  0.27973580380E+02  0.78592693113E+02  0.47000000000E+01 0.  1.
          5    1    3    3  503    0 -0.22295767644E+02  0.17271094254E+02  0.18277885270E+02  0.33934687880E+02  0.47000000000E+01 0. -1.
         -5    1    4    4    0  502 -0.31958245029E+02 -0.11808332400E+02 -0.89642803969E+00  0.34404356158E+02  0.47000000000E+01 0.  1.
<mgrwt>
<rscale>  0 0.10310536E+03</rscale>
<asrwt>0</asrwt>
<pdfrwt beam="1">  1        1 0.25014867E-01 0.10328017E+03</pdfrwt>
<pdfrwt beam="2">  1       -1 0.10028745E-01 0.10328017E+03</pdfrwt>
<totfact> 0.10650485E+04</totfact>
</mgrwt>
</event>
<event>
 8    1  0.3466492E-004  0.1048145E+03  0.7546771E-02  0.1272323E+00
          3   -1    0    0  501    0  0.00000000000E+00  0.00000000000E+00  0.99225331728E+02  0.99225331728E+02  0.00000000000E+00 0. -1.
         -3   -1    0    0    0  501 -0.00000000000E+00 -0.00000000000E+00 -0.11570529285E+03  0.11570529285E+03  0.00000000000E+00 0.  1.
         23    2    1    2    0    0  0.48041922090E+02 -0.16648150124E+02 -0.38023948652E+02  0.11149841469E+03  0.91656361626E+02 0.  0.
         23    2    1    2    0    0 -0.48041922090E+02  0.16648150124E+02  0.21543987526E+02  0.10343220989E+03  0.87457941115E+02 0.  0.
          5    1    4    4  502    0 -0.59290458826E+02  0.40749910134E+02  0.61871446514E+01  0.72362175497E+02  0.47000000000E+01 0. -1.
         -5    1    4    4    0  502  0.11248536736E+02 -0.24101760010E+02  0.15356842874E+02  0.31070034395E+02  0.47000000000E+01 0.  1.
          5    1    3    3  503    0 -0.15940404554E+02  0.13092183130E+02  0.12515877897E+02  0.24581272465E+02  0.47000000000E+01 0. -1.
         -5    1    3    3    0  503  0.63982326645E+02 -0.29740333254E+02 -0.50539826549E+02  0.86917142225E+02  0.47000000000E+01 0.  1.
<mgrwt>
<rscale>  0 0.10388960E+03</rscale>
<asrwt>0</asrwt>
<pdfrwt beam="1">  1        3 0.15265436E-01 0.10481448E+03</pdfrwt>
<pdfrwt beam="2">  1       -3 0.17800814E-01 0.10481448E+03</pdfrwt>
<totfact> 0.21670698E+03</totfact>
</mgrwt>
</event>
<event>
 8    1  0.3466492E-004  0.1174927E+03  0.7546771E-02  0.1247299E+00
         -2   -1    0    0    0  501 -0.00000000000E+00  0.00000000000E+00  0.26471440143E+02  0.26471440143E+02  0.00000000000E+00 0.  1.
          2   -1    0    0  501    0  0.00000000000E+00 -0.00000000000E+00 -0.52281421235E+03  0.52281421235E+03  0.00000000000E+00 0. -1.
         23    2    1    2    0    0  0.65177950832E+02 -0.30282661330E+02 -0.23397690429E+03  0.26182004726E+03  0.92948052980E+02 0.  0.
         23    2    1    2    0    0 -0.65177950832E+02  0.30282661330E+02 -0.26236586792E+03  0.28746560523E+03  0.92926964296E+02 0.  0.
          5    1    4    4  502    0 -0.17924852286E+02 -0.30421718726E+02 -0.48794101645E+02  0.60413042094E+02  0.47000000000E+01 0. -1.
         -5    1    4    4    0  502 -0.47253098546E+02  0.60704380056E+02 -0.21357176627E+03  0.22705256314E+03  0.47000000000E+01 0.  1.
          5    1    3    3  503    0  0.64421897534E+02 -0.60133233943E+01 -0.22705096463E+03  0.23613676436E+03  0.47000000000E+01 0. -1.
         -5    1    3    3    0  503  0.75605329814E+00 -0.24269337936E+02 -0.69259396573E+01  0.25683282901E+02  0.47000000000E+01 0.  1.
<mgrwt>
<rscale>  0 0.11748858E+03</rscale>
<asrwt>0</asrwt>
<pdfrwt beam="1">  1        2 0.80432955E-01 0.11749275E+03</pdfrwt>
<pdfrwt beam="2">  1       -2 0.40725293E-02 0.11749275E+03</pdfrwt>
<totfact> 0.14802446E+04</totfact>
</mgrwt>
</event>
<event>
 8    1  0.3466492E-004  0.9142652E+02  0.7546771E-02  0.1299688E+00
          1   -1    0    0  501    0  0.00000000000E+00  0.00000000000E+00  0.13201415016E+02  0.13201415016E+02  0.00000000000E+00 0. -1.
         -1   -1    0    0    0  501 -0.00000000000E+00 -0.00000000000E+00 -0.68699019661E+03  0.68699019661E+03  0.00000000000E+00 0.  1.
         23    2    1    2    0    0  0.41046147377E+00  0.17592872763E+02 -0.43827219007E+03  0.44770673482E+03  0.89716944694E+02 0.  0.
         23    2    1    2    0    0 -0.41046147377E+00 -0.17592872763E+02 -0.23551659152E+03  0.25248487680E+03  0.89279731635E+02 0.  0.
          5    1    3    3  502    0 -0.28012503066E+02  0.43933939558E+02 -0.24200875630E+03  0.24759890852E+03  0.47000000000E+01 0. -1.
         -5    1    4    4    0  503 -0.32771926995E+02 -0.38934863176E+02 -0.15018707210E+03  0.15864479000E+03  0.47000000000E+01 0.  1.
          5    1    4    4  503    0  0.32361465521E+02  0.21341990413E+02 -0.85329519427E+02  0.93840086803E+02  0.47000000000E+01 0. -1.
         -5    1    3    3    0  502  0.28422964539E+02 -0.26341066795E+02 -0.19626343377E+03  0.20010782630E+03  0.47000000000E+01 0.  1.
<mgrwt>
<rscale>  0 0.91319077E+02</rscale>
<asrwt>0</asrwt>
<pdfrwt beam="1">  1        1 0.20309867E-02 0.91426516E+02</pdfrwt>
<pdfrwt beam="2">  1       -1 0.10569081E+00 0.91426516E+02</pdfrwt>
<totfact> 0.48695265E+03</totfact>
</mgrwt>
</event>
<event>
 8    1  0.3466492E-004  0.1005004E+03  0.7546771E-02  0.1279442E+00
         -2   -1    0    0    0  501 -0.00000000000E+00  0.00000000000E+00  0.14897233368E+02  0.14897233368E+02  0.00000000000E+00 0.  1.
          2   -1    0    0  501    0  0.00000000000E+00 -0.00000000000E+00 -0.92781254242E+03  0.92781254242E+03  0.00000000000E+00 0. -1.
         23    2    1    2    0    0 -0.75492194159E+01 -0.40607624799E+02 -0.21003176919E+03  0.23267766319E+03  0.91211737031E+02 0.  0.
         23    2    1    2    0    0  0.75492194159E+01  0.40607624799E+02 -0.70288353986E+03  0.71003211260E+03  0.91620742233E+02 0.  0.
          5    1    4    4  502    0  0.48703337199E+02  0.14088188726E+02 -0.32586831704E+03  0.32982228876E+03  0.47000000000E+01 0. -1.
         -5    1    4    4    0  502 -0.41154117783E+02  0.26519436073E+02 -0.37701522283E+03  0.38020982384E+03  0.47000000000E+01 0.  1.
          5    1    3    3  503    0  0.37900870087E+02 -0.17121800741E+02 -0.53472802777E+02  0.67904805801E+02  0.47000000000E+01 0. -1.
         -5    1    3    3    0  503 -0.45450089503E+02 -0.23485824058E+02 -0.15655896642E+03  0.16477285739E+03  0.47000000000E+01 0.  1.
<mgrwt>
<rscale>  0 0.10040709E+03</rscale>
<asrwt>0</asrwt>
<pdfrwt beam="1">  1        2 0.14274044E+00 0.10050040E+03</pdfrwt>
<pdfrwt beam="2">  1       -2 0.22918812E-02 0.10050040E+03</pdfrwt>
<totfact> 0.17181866E+04</totfact>
</mgrwt>
</event>
<event>
 8    1  0.3466492E-004  0.9807755E+02  0.7546771E-02  0.1284871E+00
          1   -1    0    0  501    0  0.00000000000E+00  0.00000000000E+00  0.20561659046E+03  0.20561659046E+03  0.00000000000E+00 0. -1.
         -1   -1    0    0    0  501 -0.00000000000E+00 -0.00000000000E+00 -0.76300851119E+02  0.76300851119E+02  0.00000000000E+00 0.  1.
         23    2    1    2    0    0 -0.19264971128E+02  0.26132012222E+02 -0.23461466166E+02  0.10084466393E+03  0.92548282934E+02 0.  0.
         23    2    1    2    0    0  0.19264971128E+02 -0.26132012222E+02  0.15277720550E+03  0.18107277764E+03  0.91610343882E+02 0.  0.
          5    1    3    3  502    0  0.34847827972E+02 -0.42608727447E+00  0.20398474921E+01  0.35225042832E+02  0.47000000000E+01 0. -1.
         -5    1    4    4    0  503  0.86259221281E+01  0.33794319174E+02  0.68476750639E+02  0.76991024925E+02  0.47000000000E+01 0.  1.
          5    1    4    4  503    0  0.10639049000E+02 -0.59926331396E+02  0.84300454864E+02  0.10408175272E+03  0.47000000000E+01 0. -1.
         -5    1    3    3    0  502 -0.54112799100E+02  0.26558099497E+02 -0.25501313658E+02  0.65619621102E+02  0.47000000000E+01 0.  1.
<mgrwt>
<rscale>  0 0.97855657E+02</rscale>
<asrwt>0</asrwt>
<pdfrwt beam="1">  1        1 0.31633321E-01 0.98077550E+02</pdfrwt>
<pdfrwt beam="2">  1       -1 0.11738593E-01 0.98077550E+02</pdfrwt>
<totfact> 0.62446773E+03</totfact>
</mgrwt>
</event>
<event>
 8    1  0.3466492E-004  0.9919323E+02  0.7546771E-02  0.1283754E+00
          2   -1    0    0  501    0  0.00000000000E+00  0.00000000000E+00  0.34193256068E+03  0.34193256068E+03  0.00000000000E+00 0. -1.
         -2   -1    0    0    0  501 -0.00000000000E+00 -0.00000000000E+00 -0.13973526649E+03  0.13973526649E+03  0.00000000000E+00 0.  1.
         23    2    1    2    0    0 -0.23255678153E+02  0.28468605812E+02 -0.11473801013E+03  0.14957253406E+03  0.88633198606E+02 0.  0.
         23    2    1    2    0    0  0.23255678153E+02 -0.28468605812E+02  0.31693530432E+03  0.33209529310E+03  0.92130388538E+02 0.  0.
          5    1    4    4  502    0  0.21397100091E+02  0.14073373389E+02  0.25758741240E+03  0.25890009802E+03  0.47000000000E+01 0. -1.
         -5    1    3    3    0  503  0.20504302598E+02 -0.17075475690E+02 -0.60107350322E+02  0.65931645344E+02  0.47000000000E+01 0.  1.
          5    1    3    3  503    0 -0.43759980751E+02  0.45544081501E+02 -0.54630659804E+02  0.83640888719E+02  0.47000000000E+01 0. -1.
         -5    1    4    4    0  502  0.18585780622E+01 -0.42541979201E+02  0.59347891920E+02  0.73195195075E+02  0.47000000000E+01 0.  1.
<mgrwt>
<rscale>  0 0.98373260E+02</rscale>
<asrwt>0</asrwt>
<pdfrwt beam="1">  1        2 0.52605009E-01 0.99193228E+02</pdfrwt>
<pdfrwt beam="2">  1       -2 0.21497733E-01 0.99193228E+02</pdfrwt>
<totfact> 0.17059907E+03</totfact>
</mgrwt>
</event>
<event>
 8    1  0.3466492E-004  0.1693207E+03  0.7546771E-02  0.1178610E+00
          2   -1    0    0  501    0  0.00000000000E+00  0.00000000000E+00  0.11098683335E+04  0.11098683335E+04  0.00000000000E+00 0. -1.
         -2   -1    0    0    0  501 -0.00000000000E+00 -0.00000000000E+00 -0.28343474012E+02  0.28343474012E+02  0.00000000000E+00 0.  1.
         23    2    1    2    0    0  0.46260099498E+02 -0.13486425487E+03  0.71091072272E+03  0.73075098578E+03  0.90964737619E+02 0.  0.
         23    2    1    2    0    0 -0.46260099498E+02  0.13486425487E+03  0.37061413681E+03  0.40746082178E+03  0.91329725881E+02 0.  0.
          5    1    4    4  502    0 -0.70177653851E+02  0.89817523222E+02  0.29345680086E+03  0.31485087669E+03  0.47000000000E+01 0. -1.
         -5    1    4    4    0  502  0.23917554353E+02  0.45046731652E+02  0.77157335952E+02  0.92609945092E+02  0.47000000000E+01 0.  1.
          5    1    3    3  503    0  0.15840433300E+02 -0.51084938569E+02  0.10137572534E+03  0.11471581392E+03  0.47000000000E+01 0. -1.
         -5    1    3    3    0  503  0.30419666197E+02 -0.83779316305E+02  0.60953499738E+03  0.61603517186E+03  0.47000000000E+01 0.  1.
<mgrwt>
<rscale>  0 0.16927148E+03</rscale>
<asrwt>0</asrwt>
<pdfrwt beam="1">  1        2 0.17074894E+00 0.16932065E+03</pdfrwt>
<pdfrwt beam="2">  1       -2 0.43605353E-02 0.16932065E+03</pdfrwt>
<totfact> 0.53543085E+03</totfact>
</mgrwt>
</event>
<event>
 8    1  0.3466492E-004  0.1019641E+03  0.7546771E-02  0.1278866E+00
          1   -1    0    0  501    0  0.00000000000E+00  0.00000000000E+00  0.15439570076E+03  0.15439570076E+03  0.00000000000E+00 0. -1.
         -1   -1    0    0    0  501 -0.00000000000E+00 -0.00000000000E+00 -0.15067406481E+03  0.15067406481E+03  0.00000000000E+00 0.  1.
         23    2    1    2    0    0 -0.75075194862E+01 -0.29698667162E+02 -0.11379404127E+03  0.14948500273E+03  0.91969062915E+02 0.  0.
         23    2    1    2    0    0  0.75075194862E+01  0.29698667162E+02  0.11751567722E+03  0.15558476284E+03  0.97253844940E+02 0.  0.
          5    1    4    4  502    0  0.15309008992E+01  0.49544805685E+02  0.12378751782E+03  0.13342590077E+03  0.47000000000E+01 0. -1.
         -5    1    4    4    0  502  0.59766185870E+01 -0.19846138522E+02 -0.62718405962E+01  0.22158862075E+02  0.47000000000E+01 0.  1.
          5    1    3    3  503    0 -0.29708497146E+02 -0.11197754062E+02 -0.11395867508E+00  0.32094976013E+02  0.47000000000E+01 0. -1.
         -5    1    3    3    0  503  0.22200977660E+02 -0.18500913101E+02 -0.11368008259E+03  0.11739002672E+03  0.47000000000E+01 0.  1.
<mgrwt>
<rscale>  0 0.10068329E+03</rscale>
<asrwt>0</asrwt>
<pdfrwt beam="1">  1        1 0.23753185E-01 0.10196413E+03</pdfrwt>
<pdfrwt beam="2">  1       -1 0.23180625E-01 0.10196413E+03</pdfrwt>
<totfact> 0.30704572E+03</totfact>
</mgrwt>
</event>
<event>
 8    1  0.3466492E-004  0.1098646E+03  0.7546771E-02  0.1263671E+00
          2   -1    0    0  501    0  0.00000000000E+00  0.00000000000E+00  0.11081650284E+03  0.11081650284E+03  0.00000000000E+00 0. -1.
         -2   -1    0    0    0  501 -0.00000000000E+00 -0.00000000000E+00 -0.18043142580E+03  0.18043142580E+03  0.00000000000E+00 0.  1.
         23    2    1    2    0    0 -0.49386580482E+02  0.11181466689E+01 -0.12957416948E+03  0.16608662756E+03  0.91405786870E+02 0.  0.
         23    2    1    2    0    0  0.49386580482E+02 -0.11181466689E+01  0.59959246530E+02  0.12516130108E+03  0.98132336465E+02 0.  0.
          5    1    3    3  502    0  0.11558156946E+02  0.29959659780E+02 -0.64791483890E+02  0.72465154321E+02  0.47000000000E+01 0. -1.
         -5    1    4    4    0  503  0.10060470668E+01 -0.44400941103E+02  0.27266752119E+02  0.52326106989E+02  0.47000000000E+01 0.  1.
          5    1    4    4  503    0  0.48380533415E+02  0.43282794434E+02  0.32692494411E+02  0.72835194092E+02  0.47000000000E+01 0. -1.
         -5    1    3    3    0  502 -0.60944737428E+02 -0.28841513111E+02 -0.64782685593E+02  0.93621473238E+02  0.47000000000E+01 0.  1.
<mgrwt>
<rscale>  0 0.10834224E+03</rscale>
<asrwt>0</asrwt>
<pdfrwt beam="1">  1        2 0.17048693E-01 0.10986464E+03</pdfrwt>
<pdfrwt beam="2">  1       -2 0.27758681E-01 0.10986464E+03</pdfrwt>
<totfact> 0.37299338E+03</totfact>
</mgrwt>
</event>
<event>
 8    1  0.3466492E-004  0.9159415E+02  0.7546771E-02  0.1299120E+00
          2   -1    0    0  501    0  0.00000000000E+00  0.00000000000E+00  0.21848911237E+02  0.21848911237E+02  0.00000000000E+00 0. -1.
         -2   -1    0    0    0  501 -0.00000000000E+00 -0.00000000000E+00 -0.40478287955E+03  0.40478287955E+03  0.00000000000E+00 0.  1.
         23    2    1    2    0    0 -0.11735174510E+02  0.60610793016E+01 -0.14228107379E+03  0.16913751086E+03  0.90493881661E+02 0.  0.
         23    2    1    2    0    0  0.11735174510E+02 -0.60610793016E+01 -0.24065289452E+03  0.25749427993E+03  0.90636844330E+02 0.  0.
          5    1    3    3  502    0 -0.30635496128E+02 -0.34546496300E+02 -0.73007630508E+02  0.86511260203E+02  0.47000000000E+01 0. -1.
         -5    1    4    4    0  503 -0.13896438769E+02  0.28016908098E+02 -0.18255562913E+03  0.18527467684E+03  0.47000000000E+01 0.  1.
          5    1    4    4  503    0  0.25631613279E+02 -0.34077987400E+02 -0.58097265394E+02  0.72219603092E+02  0.47000000000E+01 0. -1.
         -5    1    3    3    0  502  0.18900321618E+02  0.40607575601E+02 -0.69273443285E+02  0.82626250659E+02  0.47000000000E+01 0.  1.
<mgrwt>
<rscale>  0 0.91558764E+02</rscale>
<asrwt>0</asrwt>
<pdfrwt beam="1">  1        2 0.33613709E-02 0.91594151E+02</pdfrwt>
<pdfrwt beam="2">  1       -2 0.62274290E-01 0.91594151E+02</pdfrwt>
<totfact> 0.59699265E+03</totfact>
</mgrwt>
</event>
<event>
 8    1  0.3466492E-004  0.9914159E+02  0.7546771E-02  0.1282675E+00
         -2   -1    0    0    0  501 -0.00000000000E+00  0.00000000000E+00  0.74607942775E+02  0.74607942775E+02  0.00000000000E+00 0.  1.
          2   -1    0    0  501    0  0.00000000000E+00 -0.00000000000E+00 -0.82678898550E+03  0.82678898550E+03  0.00000000000E+00 0. -1.
         23    2    1    2    0    0 -0.30119933733E+02 -0.22542618182E+02  0.37240331404E+02  0.10590512944E+03  0.91726081983E+02 0.  0.
         23    2    1    2    0    0  0.30119933733E+02  0.22542618182E+02 -0.78942137413E+03  0.79549179884E+03  0.90585407442E+02 0.  0.
          5    1    3    3  502    0  0.11243423810E+02  0.29794865747E+02  0.10166528077E+02  0.33757916064E+02  0.47000000000E+01 0. -1.
         -5    1    3    3    0  502 -0.41363357543E+02 -0.52337483929E+02  0.27073803327E+02  0.72147213375E+02  0.47000000000E+01 0.  1.
          5    1    4    4  503    0  0.24326598940E+02 -0.32857847786E+02 -0.39294549759E+03  0.39509451483E+03  0.47000000000E+01 0. -1.
         -5    1    4    4    0  503  0.57933347929E+01  0.55400465968E+02 -0.39647587654E+03  0.40039728400E+03  0.47000000000E+01 0.  1.
<mgrwt>
<rscale>  0 0.98876928E+02</rscale>
<asrwt>0</asrwt>
<pdfrwt beam="1">  1        2 0.12719830E+00 0.99141586E+02</pdfrwt>
<pdfrwt beam="2">  1       -2 0.11478145E-01 0.99141586E+02</pdfrwt>
<totfact> 0.17798273E+03</totfact>
</mgrwt>
</event>
<event>
 8    1  0.3466492E-004  0.9871304E+02  0.7546771E-02  0.1283739E+00
          3   -1    0    0  501    0  0.00000000000E+00  0.00000000000E+00  0.27315922361E+03  0.27315922361E+03  0.00000000000E+00 0. -1.
         -3   -1    0    0    0  501 -0.00000000000E+00 -0.00000000000E+00 -0.35708806518E+02  0.35708806518E+02  0.00000000000E+00 0.  1.
         23    2    1    2    0    0 -0.18532327078E+01 -0.38075249612E+02  0.99426361740E+02  0.13917741838E+03  0.89619156846E+02 0.  0.
         23    2    1    2    0    0  0.18532327078E+01  0.38075249612E+02  0.13802405535E+03  0.16969061175E+03  0.91055503704E+02 0.  0.
          5    1    4    4  502    0  0.54027921309E+01  0.63045903458E+02  0.12659058308E+03  0.14160240757E+03  0.47000000000E+01 0. -1.
         -5    1    4    4    0  502 -0.35495594231E+01 -0.24970653846E+02  0.11433472273E+02  0.28088204176E+02  0.47000000000E+01 0.  1.
          5    1    3    3  503    0 -0.12289942456E+01  0.27443782785E+02  0.13362400658E+02  0.30908176779E+02  0.47000000000E+01 0. -1.
         -5    1    3    3    0  503 -0.62423846226E+00 -0.65519032397E+02  0.86063961082E+02  0.10826924160E+03  0.47000000000E+01 0.  1.
<mgrwt>
<rscale>  0 0.98380525E+02</rscale>
<asrwt>0</asrwt>
<pdfrwt beam="1">  1        3 0.42024495E-01 0.98713038E+02</pdfrwt>
<pdfrwt beam="2">  1       -3 0.54936627E-02 0.98713038E+02</pdfrwt>
<totfact> 0.23846328E+03</totfact>
</mgrwt>
</event>
<event>
 8    1  0.3466492E-004  0.2238093E+03  0.7546771E-02  0.1131449E+00
         -1   -1    0    0    0  501 -0.00000000000E+00  0.00000000000E+00  0.90139715878E+02  0.90139715878E+02  0.00000000000E+00 0.  1.
          1   -1    0    0  501    0  0.00000000000E+00 -0.00000000000E+00 -0.15483443988E+04  0.15483443988E+04  0.00000000000E+00 0. -1.
         23    2    1    2    0    0 -0.18828174109E+03  0.73573889319E+02 -0.72665919531E+02  0.23531033109E+03  0.96059798232E+02 0.  0.
         23    2    1    2    0    0  0.18828174109E+03 -0.73573889319E+02 -0.13855387634E+04  0.14031737836E+04  0.91191396977E+02 0.  0.
          5    1    4    4  502    0  0.11563566345E+03 -0.46855774891E+02 -0.11077551268E+04  0.11147692951E+04  0.47000000000E+01 0. -1.
         -5    1    3    3    0  503 -0.15476463370E+03  0.82083857226E+02 -0.26196023978E+02  0.17719529659E+03  0.47000000000E+01 0.  1.
          5    1    3    3  503    0 -0.33517107391E+02 -0.85099679073E+01 -0.46469895553E+02  0.58115034495E+02  0.47000000000E+01 0. -1.
         -5    1    4    4    0  502  0.72646077644E+02 -0.26718114428E+02 -0.27778363657E+03  0.28840448849E+03  0.47000000000E+01 0.  1.
<mgrwt>
<rscale>  0 0.22329608E+03</rscale>
<asrwt>0</asrwt>
<pdfrwt beam="1">  1        1 0.23820683E+00 0.22380933E+03</pdfrwt>
<pdfrwt beam="2">  1       -1 0.13867648E-01 0.22380933E+03</pdfrwt>
<totfact> 0.24574706E+02</totfact>
</mgrwt>
</event>
<event>
 8    1  0.3466492E-004  0.1175568E+03  0.7546771E-02  0.1248798E+00
         -1   -1    0    0    0  501 -0.00000000000E+00  0.00000000000E+00  0.29042796509E+02  0.29042796509E+02  0.00000000000E+00 0.  1.
          1   -1    0    0  501    0  0.00000000000E+00 -0.00000000000E+00 -0.46504633657E+03  0.46504633657E+03  0.00000000000E+00 0. -1.
         23    2    1    2    0    0 -0.58469966997E+01  0.74271986021E+02 -0.19088600773E+03  0.22223954520E+03  0.86037388543E+02 0.  0.
         23    2    1    2    0    0  0.58469966997E+01 -0.74271986021E+02 -0.24511753233E+03  0.27184958788E+03  0.90934473628E+02 0.  0.
          5    1    4    4  502    0  0.41414497390E+02 -0.49339307256E+02 -0.19471347682E+03  0.20514618176E+03  0.47000000000E+01 0. -1.
         -5    1    4    4    0  502 -0.35567500691E+02 -0.24932678765E+02 -0.50404055515E+02  0.66703406121E+02  0.47000000000E+01 0.  1.
          5    1    3    3  503    0  0.22677561401E+02 -0.90785236379E+01 -0.52978909983E+02  0.58528166600E+02  0.47000000000E+01 0. -1.
         -5    1    3    3    0  503 -0.28524558101E+02  0.83350509659E+02 -0.13790709774E+03  0.16371137860E+03  0.47000000000E+01 0.  1.
<mgrwt>
<rscale>  0 0.11660893E+03</rscale>
<asrwt>0</asrwt>
<pdfrwt beam="1">  1        1 0.71545585E-01 0.11755677E+03</pdfrwt>
<pdfrwt beam="2">  1       -1 0.44681229E-02 0.11755677E+03</pdfrwt>
<totfact> 0.97597836E+03</totfact>
</mgrwt>
</event>
<event>
 8    1  0.3466492E-004  0.1376976E+03  0.7546771E-02  0.1219174E+00
         -1   -1    0    0    0  501 -0.00000000000E+00  0.00000000000E+00  0.33257985436E+02  0.33257985436E+02  0.00000000000E+00 0.  1.
          1   -1    0    0  501    0  0.00000000000E+00 -0.00000000000E+00 -0.10303365432E+04  0.10303365432E+04  0.00000000000E+00 0. -1.
         23    2    1    2    0    0  0.58931202252E+02 -0.72558016413E+02 -0.12387675115E+03  0.17960243458E+03  0.90410357185E+02 0.  0.
         23    2    1    2    0    0 -0.58931202252E+02  0.72558016413E+02 -0.87320180661E+03  0.88399209405E+03  0.10110922281E+03 0.  0.
          5    1    4    4  502    0 -0.32323387796E+02  0.86368114616E+02 -0.79094525865E+03  0.79631698764E+03  0.47000000000E+01 0. -1.
         -5    1    3    3    0  503  0.53177705186E+02 -0.43518541389E+02 -0.20342920824E+02  0.71816823942E+02  0.47000000000E+01 0.  1.
          5    1    3    3  503    0  0.57534970652E+01 -0.29039475024E+02 -0.10353383033E+03  0.10778561064E+03  0.47000000000E+01 0. -1.
         -5    1    4    4    0  502 -0.26607814455E+02 -0.13810098203E+02 -0.82256547953E+02  0.87675106408E+02  0.47000000000E+01 0.  1.
<mgrwt>
<rscale>  0 0.13574311E+03</rscale>
<asrwt>0</asrwt>
<pdfrwt beam="1">  1        1 0.15851332E+00 0.13769759E+03</pdfrwt>
<pdfrwt beam="2">  1       -1 0.51166131E-02 0.13769759E+03</pdfrwt>
<totfact> 0.25499410E+03</totfact>
</mgrwt>
</event>
<event>
 8    1  0.3466492E-004  0.9302829E+02  0.7546771E-02  0.1296470E+00
          3   -1    0    0  501    0  0.00000000000E+00  0.00000000000E+00  0.10115076316E+03  0.10115076316E+03  0.00000000000E+00 0. -1.
         -3   -1    0    0    0  501 -0.00000000000E+00 -0.00000000000E+00 -0.86809177259E+02  0.86809177259E+02  0.00000000000E+00 0.  1.
         23    2    1    2    0    0  0.16234183482E+01  0.21208567989E+02 -0.88027960670E+01  0.92095840541E+02  0.89172393616E+02 0.  0.
         23    2    1    2    0    0 -0.16234183482E+01 -0.21208567989E+02  0.23144381970E+02  0.95864099880E+02  0.90563924306E+02 0.  0.
          5    1    3    3  502    0  0.21115779362E+02  0.40380144540E+02 -0.32044575049E+02  0.55905071337E+02  0.47000000000E+01 0. -1.
         -5    1    3    3    0  502 -0.19492361014E+02 -0.19171576551E+02  0.23241778981E+02  0.36190769204E+02  0.47000000000E+01 0.  1.
          5    1    4    4  503    0  0.42319573496E+02  0.24746260097E+01  0.14052507443E+02  0.44906937551E+02  0.47000000000E+01 0. -1.
         -5    1    4    4    0  503 -0.43942991844E+02 -0.23683193999E+02  0.90918745268E+01  0.50957162329E+02  0.47000000000E+01 0.  1.
<mgrwt>
<rscale>  0 0.92687900E+02</rscale>
<asrwt>0</asrwt>
<pdfrwt beam="1">  1        3 0.15561656E-01 0.93028293E+02</pdfrwt>
<pdfrwt beam="2">  1       -3 0.13355258E-01 0.93028293E+02</pdfrwt>
<totfact> 0.33390958E+03</totfact>
</mgrwt>
</event>
<event>
 8    1  0.3466492E-004  0.9627129E+02  0.7546771E-02  0.1289415E+00
          1   -1    0    0  501    0  0.00000000000E+00  0.00000000000E+00  0.51861388584E+02  0.51861388584E+02  0.00000000000E+00 0. -1.
         -1   -1    0    0    0  501 -0.00000000000E+00 -0.00000000000E+00 -0.17625211239E+03  0.17625211239E+03  0.00000000000E+00 0.  1.
         23    2    1    2    0    0  0.17496669080E+02  0.27470374344E+02 -0.53821758363E+02  0.11029479773E+03  0.90594734046E+02 0.  0.
         23    2    1    2    0    0 -0.17496669080E+02 -0.27470374344E+02 -0.70568965443E+02  0.11781870325E+03  0.88546671624E+02 0.  0.
          5    1    3    3  502    0  0.32442239494E+02 -0.18237178481E+02  0.60183592482E+00  0.37517273206E+02  0.47000000000E+01 0. -1.
         -5    1    4    4    0  503  0.31826488840E+02 -0.16457529352E+02 -0.52921747675E+02  0.64082579858E+02  0.47000000000E+01 0. -1.
          5    1    4    4  503    0 -0.49323157920E+02 -0.11012844992E+02 -0.17647217768E+02  0.53736123389E+02  0.47000000000E+01 0.  1.
         -5    1    3    3    0  502 -0.14945570414E+02  0.45707552825E+02 -0.54423594288E+02  0.72777524521E+02  0.47000000000E+01 0.  1.
<mgrwt>
<rscale>  0 0.95786448E+02</rscale>
<asrwt>0</asrwt>
<pdfrwt beam="1">  1        1 0.79786751E-02 0.96271287E+02</pdfrwt>
<pdfrwt beam="2">  1       -1 0.27115710E-01 0.96271287E+02</pdfrwt>
<totfact> 0.96555231E+03</totfact>
</mgrwt>
</event>
<event>
 8    1  0.3466492E-004  0.2084835E+03  0.7546771E-02  0.1142941E+00
         -2   -1    0    0    0  501 -0.00000000000E+00  0.00000000000E+00  0.73205710815E+02  0.73205710815E+02  0.00000000000E+00 0.  1.
          2   -1    0    0  501    0  0.00000000000E+00 -0.00000000000E+00 -0.61849067322E+03  0.61849067322E+03  0.00000000000E+00 0. -1.
         23    2    1    2    0    0 -0.12872086250E+03 -0.13425727544E+03 -0.20071771311E+03  0.28940102243E+03  0.94187445953E+02 0.  0.
         23    2    1    2    0    0  0.12872086250E+03  0.13425727544E+03 -0.34456724929E+03  0.40229536160E+03  0.92308679062E+02 0.  0.
          5    1    3    3  502    0 -0.14236933866E+03 -0.11694671967E+03 -0.18904529405E+03  0.26401851647E+03  0.47000000000E+01 0. -1.
         -5    1    3    3    0  502  0.13648476159E+02 -0.17310555768E+02 -0.11672419063E+02  0.25382505968E+02  0.47000000000E+01 0.  1.
          5    1    4    4  503    0  0.23286281763E+02  0.92917073202E+01 -0.13006820357E+03  0.13254589516E+03  0.47000000000E+01 0. -1.
         -5    1    4    4    0  503  0.10543458074E+03  0.12496556812E+03 -0.21449904572E+03  0.26974946644E+03  0.47000000000E+01 0.  1.
<mgrwt>
<rscale>  0 0.20827263E+03</rscale>
<asrwt>0</asrwt>
<pdfrwt beam="1">  1        2 0.95152411E-01 0.20848346E+03</pdfrwt>
<pdfrwt beam="2">  1       -2 0.11262417E-01 0.20848346E+03</pdfrwt>
<totfact> 0.26448697E+03</totfact>
</mgrwt>
</event>
<event>
 8    1  0.3466492E-004  0.1775198E+03  0.7546771E-02  0.1170370E+00
          2   -1    0    0  501    0  0.00000000000E+00  0.00000000000E+00  0.68087090060E+03  0.68087090060E+03  0.00000000000E+00 0. -1.
         -2   -1    0    0    0  501 -0.00000000000E+00 -0.00000000000E+00 -0.62062395700E+02  0.62062395700E+02  0.00000000000E+00 0.  1.
         23    2    1    2    0    0  0.13533047872E+03  0.70228371363E+02  0.49799079922E+03  0.52868527333E+03  0.90922601786E+02 0.  0.
         23    2    1    2    0    0 -0.13533047872E+03 -0.70228371363E+02  0.12081770568E+03  0.21424802296E+03  0.89771569684E+02 0.  0.
          5    1    3    3  502    0  0.78664131431E+02  0.58447526012E+01  0.14228993759E+03  0.16275970953E+03  0.47000000000E+01 0. -1.
         -5    1    3    3    0  502  0.56666347290E+02  0.64383618762E+02  0.35570086163E+03  0.36592556380E+03  0.47000000000E+01 0.  1.
          5    1    4    4  503    0 -0.38283129813E+02  0.53539351919E+01  0.71937888789E+02  0.81801054356E+02  0.47000000000E+01 0. -1.
         -5    1    4    4    0  503 -0.97047348909E+02 -0.75582306555E+02  0.48879816887E+02  0.13244696861E+03  0.47000000000E+01 0.  1.
<mgrwt>
<rscale>  0 0.17737293E+03</rscale>
<asrwt>0</asrwt>
<pdfrwt beam="1">  1        2 0.10474936E+00 0.17751981E+03</pdfrwt>
<pdfrwt beam="2">  1       -2 0.95480613E-02 0.17751981E+03</pdfrwt>
<totfact> 0.30572778E+03</totfact>
</mgrwt>
</event>
<event>
 8    1  0.3466492E-004  0.9256902E+02  0.7546771E-02  0.1297734E+00
         -1   -1    0    0    0  501 -0.00000000000E+00  0.00000000000E+00  0.12444082954E+02  0.12444082954E+02  0.00000000000E+00 0.  1.
          1   -1    0    0  501    0  0.00000000000E+00 -0.00000000000E+00 -0.68117236446E+03  0.68117236446E+03  0.00000000000E+00 0. -1.
         23    2    1    2    0    0 -0.16868203306E+02 -0.36720648961E+01 -0.36098164527E+03  0.37224903265E+03  0.89238857813E+02 0.  0.
         23    2    1    2    0    0  0.16868203306E+02  0.36720648961E+01 -0.30774663624E+03  0.32136741477E+03  0.90945053820E+02 0.  0.
          5    1    4    4  502    0  0.29374779530E+02 -0.36667611240E+02 -0.12192054879E+03  0.13074441328E+03  0.47000000000E+01 0. -1.
         -5    1    4    4    0  502 -0.12506576224E+02  0.40339676136E+02 -0.18582608745E+03  0.19062300149E+03  0.47000000000E+01 0.  1.
          5    1    3    3  503    0 -0.38967010386E+02 -0.34301979945E+02 -0.23107956138E+03  0.23688585313E+03  0.47000000000E+01 0. -1.
         -5    1    3    3    0  503  0.22098807080E+02  0.30629915049E+02 -0.12990208388E+03  0.13536317951E+03  0.47000000000E+01 0.  1.
<mgrwt>
<rscale>  0 0.92147217E+02</rscale>
<asrwt>0</asrwt>
<pdfrwt beam="1">  1        1 0.10479577E+00 0.92569018E+02</pdfrwt>
<pdfrwt beam="2">  1       -1 0.19144739E-02 0.92569018E+02</pdfrwt>
<totfact> 0.19607989E+04</totfact>
</mgrwt>
</event>
<event>
 8    1  0.3466492E-004  0.9589283E+02  0.7546771E-02  0.1292190E+00
         -2   -1    0    0    0  501 -0.00000000000E+00  0.00000000000E+00  0.64633065507E+01  0.64633065507E+01  0.00000000000E+00 0.  1.
          2   -1    0    0  501    0  0.00000000000E+00 -0.00000000000E+00 -0.14088560492E+04  0.14088560492E+04  0.00000000000E+00 0. -1.
         23    2    1    2    0    0  0.16338599447E+02 -0.63445844060E+01 -0.86970000393E+03  0.87497058908E+03  0.94277416928E+02 0.  0.
         23    2    1    2    0    0 -0.16338599447E+02  0.63445844060E+01 -0.53269273873E+03  0.54034876668E+03  0.88927117187E+02 0.  0.
          5    1    4    4  502    0  0.23252211787E+02 -0.28916994127E+02 -0.22388981276E+03  0.22699250243E+03  0.47000000000E+01 0. -1.
         -5    1    3    3    0  503 -0.39067781835E+02  0.24518759070E+01 -0.38412655165E+03  0.38614453376E+03  0.47000000000E+01 0.  1.
          5    1    3    3  503    0  0.55406381282E+02 -0.87964603130E+01 -0.48557345228E+03  0.48882605532E+03  0.47000000000E+01 0. -1.
         -5    1    4    4    0  502 -0.39590811234E+02  0.35261578533E+02 -0.30880292597E+03  0.31335626425E+03  0.47000000000E+01 0.  1.
<mgrwt>
<rscale>  0 0.94551214E+02</rscale>
<asrwt>0</asrwt>
<pdfrwt beam="1">  1        2 0.21674730E+00 0.95892830E+02</pdfrwt>
<pdfrwt beam="2">  1       -2 0.99435385E-03 0.95892830E+02</pdfrwt>
<totfact> 0.30549307E+04</totfact>
</mgrwt>
</event>
<event>
 8    1  0.3466492E-004  0.1355584E+03  0.7546771E-02  0.1220200E+00
          1   -1    0    0  501    0  0.00000000000E+00  0.00000000000E+00  0.14105032505E+04  0.14105032505E+04  0.00000000000E+00 0. -1.
         -1   -1    0    0    0  501 -0.00000000000E+00 -0.00000000000E+00 -0.14482441212E+02  0.14482441212E+02  0.00000000000E+00 0.  1.
         23    2    1    2    0    0  0.66989294300E+02 -0.73667611201E+02  0.94432233009E+03  0.95400248042E+03  0.91986885280E+02 0.  0.
         23    2    1    2    0    0 -0.66989294300E+02  0.73667611201E+02  0.45169847918E+03  0.47098321127E+03  0.88764783053E+02 0.  0.
          5    1    3    3  502    0  0.85342206586E+02 -0.36392456843E+02  0.69832838838E+03  0.70448018507E+03  0.47000000000E+01 0. -1.
         -5    1    4    4    0  503 -0.23559728066E+02 -0.15131090324E+02  0.52326840491E+02  0.59533174926E+02  0.47000000000E+01 0.  1.
          5    1    4    4  503    0 -0.43429566234E+02  0.88798701526E+02  0.39937163869E+03  0.41145003634E+03  0.47000000000E+01 0. -1.
         -5    1    3    3    0  502 -0.18352912286E+02 -0.37275154358E+02  0.24599394171E+03  0.24952229536E+03  0.47000000000E+01 0.  1.
<mgrwt>
<rscale>  0 0.13501373E+03</rscale>
<asrwt>0</asrwt>
<pdfrwt beam="1">  1        1 0.21700039E+00 0.13555836E+03</pdfrwt>
<pdfrwt beam="2">  1       -1 0.22280690E-02 0.13555836E+03</pdfrwt>
<totfact> 0.47242733E+03</totfact>
</mgrwt>
</event>
<event>
 8    1  0.3466492E-004  0.9861276E+02  0.7546771E-02  0.1283962E+00
         -2   -1    0    0    0  501 -0.00000000000E+00  0.00000000000E+00  0.41447327058E+02  0.41447327058E+02  0.00000000000E+00 0.  1.
          2   -1    0    0  501    0  0.00000000000E+00 -0.00000000000E+00 -0.34626048246E+03  0.34626048246E+03  0.00000000000E+00 0. -1.
         23    2    1    2    0    0  0.32882529437E+02 -0.18588271608E+02 -0.26333387040E+03  0.28072647037E+03  0.89642842910E+02 0.  0.
         23    2    1    2    0    0 -0.32882529437E+02  0.18588271608E+02 -0.41479285004E+02  0.10698133915E+03  0.91091664040E+02 0.  0.
          5    1    4    4  502    0 -0.54000336741E+02 -0.52999859066E+01 -0.49688304930E+02  0.73723428200E+02  0.47000000000E+01 0. -1.
         -5    1    4    4    0  502  0.21117807304E+02  0.23888257514E+02  0.82090199259E+01  0.33257910947E+02  0.47000000000E+01 0.  1.
          5    1    3    3  503    0 -0.68358533489E+01 -0.45689921609E+02 -0.97419217397E+02  0.10792076606E+03  0.47000000000E+01 0. -1.
         -5    1    3    3    0  503  0.39718382786E+02  0.27101650001E+02 -0.16591465300E+03  0.17280570431E+03  0.47000000000E+01 0.  1.
<mgrwt>
<rscale>  0 0.98276860E+02</rscale>
<asrwt>0</asrwt>
<pdfrwt beam="1">  1        2 0.53270844E-01 0.98612757E+02</pdfrwt>
<pdfrwt beam="2">  1       -2 0.63765117E-02 0.98612757E+02</pdfrwt>
<totfact> 0.11592763E+04</totfact>
</mgrwt>
</event>
<event>
 8    1  0.3466492E-004  0.1553257E+03  0.7546771E-02  0.1194187E+00
          2   -1    0    0  501    0  0.00000000000E+00  0.00000000000E+00  0.16501830576E+04  0.16501830576E+04  0.00000000000E+00 0. -1.
         -2   -1    0    0    0  501 -0.00000000000E+00 -0.00000000000E+00 -0.14586596500E+02  0.14586596500E+02  0.00000000000E+00 0.  1.
         23    2    1    2    0    0 -0.26644559855E+02  0.12251867303E+03  0.81086245479E+03  0.82560522742E+03  0.91680494904E+02 0.  0.
         23    2    1    2    0    0  0.26644559855E+02 -0.12251867303E+03  0.82473400627E+03  0.83916442664E+03  0.91049415304E+02 0.  0.
          5    1    4    4  502    0  0.52500511997E+02 -0.52022908338E+02  0.29699012346E+03  0.30608480881E+03  0.47000000000E+01 0. -1.
         -5    1    3    3    0  503 -0.69336807937E+01  0.50718919215E+02  0.11765753188E+03  0.12839731113E+03  0.47000000000E+01 0.  1.
          5    1    3    3  503    0 -0.19710879061E+02  0.71799753816E+02  0.69320492291E+03  0.69720791629E+03  0.47000000000E+01 0. -1.
         -5    1    4    4    0  502 -0.25855952142E+02 -0.70495764693E+02  0.52774388280E+03  0.53307961782E+03  0.47000000000E+01 0.  1.
<mgrwt>
<rscale>  0 0.15523270E+03</rscale>
<asrwt>0</asrwt>
<pdfrwt beam="1">  1        2 0.25387417E+00 0.15532569E+03</pdfrwt>
<pdfrwt beam="2">  1       -2 0.22440931E-02 0.15532569E+03</pdfrwt>
<totfact> 0.73010873E+03</totfact>
</mgrwt>
</event>
<event>
 7    1  0.3466492E-004  0.2424217E+03  0.7546771E-02  0.1142322E+00
         -2   -1    0    0    0  501 -0.00000000000E+00  0.00000000000E+00  0.20526607984E+03  0.20526607984E+03  0.00000000000E+00 0.  1.
          2   -1    0    0  501    0  0.00000000000E+00 -0.00000000000E+00 -0.26052833902E+03  0.26052833902E+03  0.00000000000E+00 0. -1.
         23    2    1    2    0    0  0.82722157894E+02 -0.54216275409E+02 -0.15388004180E+03  0.20408133845E+03  0.90486272507E+02 0.  0.
          5    1    1    2  502    0  0.14498025370E+01  0.98264093812E+02 -0.28977842960E+02  0.10256578105E+03  0.47000000000E+01 0. -1.
         -5    1    3    3    0  503 -0.14601848486E+01 -0.22913238250E+02 -0.91937043881E+02  0.94877071332E+02  0.47000000000E+01 0.  1.
          5    1    3    3  503    0  0.84182342743E+02 -0.31303037159E+02 -0.61942997917E+02  0.10920426711E+03  0.47000000000E+01 0. -1.
         -5    1    1    2    0  502 -0.84171960431E+02 -0.44047818403E+02  0.12759562557E+03  0.15914729936E+03  0.47000000000E+01 0.  1.
<mgrwt>
<rscale>  0 0.20904870E+03</rscale>
<asrwt>0</asrwt>
<pdfrwt beam="1">  1        2 0.40081283E-01 0.24242168E+03</pdfrwt>
<pdfrwt beam="2">  1       -2 0.31579397E-01 0.24242168E+03</pdfrwt>
<totfact> 0.11843743E+03</totfact>
</mgrwt>
</event>
<event>
 8    1  0.3466492E-004  0.1046858E+03  0.7546771E-02  0.1270990E+00
         -3   -1    0    0    0  501 -0.00000000000E+00  0.00000000000E+00  0.60263892509E+02  0.60263892509E+02  0.00000000000E+00 0.  1.
          3   -1    0    0  501    0  0.00000000000E+00 -0.00000000000E+00 -0.20431894073E+03  0.20431894073E+03  0.00000000000E+00 0. -1.
         23    2    1    2    0    0 -0.20888699280E+02 -0.45291025456E+02 -0.11689436976E+03  0.15691845825E+03  0.92040719872E+02 0.  0.
         23    2    1    2    0    0  0.20888699280E+02  0.45291025456E+02 -0.27160678459E+02  0.10766437498E+03  0.91467482976E+02 0.  0.
          5    1    4    4  502    0 -0.23712829230E+02  0.52524944863E+02 -0.22318833207E+02  0.61978935282E+02  0.47000000000E+01 0. -1.
         -5    1    4    4    0  502  0.44601528510E+02 -0.72339194068E+01 -0.48418452527E+01  0.45685439703E+02  0.47000000000E+01 0.  1.
          5    1    3    3  503    0 -0.32400214707E+02 -0.10161096647E+02 -0.11456118006E+03  0.11957999739E+03  0.47000000000E+01 0. -1.
         -5    1    3    3    0  503  0.11511515427E+02 -0.35129928809E+02 -0.23331896967E+01  0.37338460864E+02  0.47000000000E+01 0.  1.
<mgrwt>
<rscale>  0 0.10455963E+03</rscale>
<asrwt>0</asrwt>
<pdfrwt beam="1">  1        3 0.31433684E-01 0.10468576E+03</pdfrwt>
<pdfrwt beam="2">  1       -3 0.92713679E-02 0.10468576E+03</pdfrwt>
<totfact> 0.18017203E+03</totfact>
</mgrwt>
</event>
<event>
 8    1  0.3466492E-004  0.1625209E+03  0.7546771E-02  0.1186064E+00
         -2   -1    0    0    0  501 -0.00000000000E+00  0.00000000000E+00  0.48194416946E+02  0.48194416946E+02  0.00000000000E+00 0.  1.
          2   -1    0    0  501    0  0.00000000000E+00 -0.00000000000E+00 -0.56148247551E+03  0.56148247551E+03  0.00000000000E+00 0. -1.
         23    2    1    2    0    0 -0.12750741059E+03 -0.42636430159E+02 -0.30807146252E+03  0.34831174421E+03  0.91307394022E+02 0.  0.
         23    2    1    2    0    0  0.12750741059E+03  0.42636430159E+02 -0.20521659604E+03  0.26136514825E+03  0.90121498518E+02 0.  0.
          5    1    3    3  502    0 -0.39255208070E+02 -0.66629876741E+01 -0.20071488145E+03  0.20468004397E+03  0.47000000000E+01 0. -1.
         -5    1    4    4    0  503  0.48283534670E+02 -0.26256454134E+02 -0.88714494183E+02  0.10446555692E+03  0.47000000000E+01 0.  1.
          5    1    4    4  503    0  0.79223875917E+02  0.68892884292E+02 -0.11650210186E+03  0.15689959133E+03  0.47000000000E+01 0. -1.
         -5    1    3    3    0  502 -0.88252202518E+02 -0.35973442484E+02 -0.10735658107E+03  0.14363170023E+03  0.47000000000E+01 0.  1.
<mgrwt>
<rscale>  0 0.16235483E+03</rscale>
<asrwt>0</asrwt>
<pdfrwt beam="1">  1        2 0.86381918E-01 0.16252091E+03</pdfrwt>
<pdfrwt beam="2">  1       -2 0.74145258E-02 0.16252091E+03</pdfrwt>
<totfact> 0.56488691E+03</totfact>
</mgrwt>
</event>
<event>
 8    1  0.3466492E-004  0.1045860E+03  0.7546771E-02  0.1273432E+00
          1   -1    0    0  501    0  0.00000000000E+00  0.00000000000E+00  0.57348496057E+03  0.57348496057E+03  0.00000000000E+00 0. -1.
         -1   -1    0    0    0  501 -0.00000000000E+00 -0.00000000000E+00 -0.20928353187E+02  0.20928353187E+02  0.00000000000E+00 0.  1.
         23    2    1    2    0    0  0.19578187461E+02 -0.89280151299E+01  0.17453914048E+03  0.20347517084E+03  0.10234851590E+03 0.  0.
         23    2    1    2    0    0 -0.19578187461E+02  0.89280151299E+01  0.37801746689E+03  0.39093814292E+03  0.97326314173E+02 0.  0.
          5    1    3    3  502    0  0.48958541375E+02 -0.38214480649E+01  0.16437969007E+03  0.17162259392E+03  0.47000000000E+01 0. -1.
         -5    1    3    3    0  502 -0.29380353913E+02 -0.51065670650E+01  0.10159450419E+02  0.31852576914E+02  0.47000000000E+01 0.  1.
          5    1    4    4  503    0  0.16753690444E+02 -0.35090892848E+02  0.10719595200E+03  0.11412764358E+03  0.47000000000E+01 0. -1.
         -5    1    4    4    0  503 -0.36331877905E+02  0.44018907978E+02  0.27082151489E+03  0.27681049933E+03  0.47000000000E+01 0.  1.
<mgrwt>
<rscale>  0 0.10333644E+03</rscale>
<asrwt>0</asrwt>
<pdfrwt beam="1">  1        1 0.88228444E-01 0.10458601E+03</pdfrwt>
<pdfrwt beam="2">  1       -1 0.32197471E-02 0.10458601E+03</pdfrwt>
<totfact> 0.11866831E+04</totfact>
</mgrwt>
</event>
<event>
 8    1  0.3466492E-004  0.1064019E+03  0.7546771E-02  0.1276177E+00
          2   -1    0    0  501    0  0.00000000000E+00  0.00000000000E+00  0.50879848615E+03  0.50879848615E+03  0.00000000000E+00 0. -1.
         -2   -1    0    0    0  501 -0.00000000000E+00 -0.00000000000E+00 -0.22877127987E+02  0.22877127987E+02  0.00000000000E+00 0.  1.
         23    2    1    2    0    0  0.40563590043E+02 -0.36492633787E+02  0.11566712815E+03  0.14643600711E+03  0.71326730513E+02 0.  0.
         23    2    1    2    0    0 -0.40563590043E+02  0.36492633787E+02  0.37025423001E+03  0.38523960703E+03  0.91346827108E+02 0.  0.
          5    1    3    3  502    0  0.21596256239E+00 -0.47202138717E+02  0.67840381221E+02  0.82779803476E+02  0.47000000000E+01 0. -1.
         -5    1    4    4    0  503 -0.24827436968E+02  0.63706473982E+02  0.30565106169E+03  0.31324044752E+03  0.47000000000E+01 0.  1.
          5    1    4    4  503    0 -0.15736153076E+02 -0.27213840195E+02  0.64603168325E+02  0.71999159505E+02  0.47000000000E+01 0. -1.
         -5    1    3    3    0  502  0.40347627481E+02  0.10709504930E+02  0.47826746930E+02  0.63656203634E+02  0.47000000000E+01 0.  1.
<mgrwt>
<rscale>  0 0.10198469E+03</rscale>
<asrwt>0</asrwt>
<pdfrwt beam="1">  1        2 0.78276682E-01 0.10640188E+03</pdfrwt>
<pdfrwt beam="2">  1       -2 0.35195585E-02 0.10640188E+03</pdfrwt>
<totfact> 0.18750526E+04</totfact>
</mgrwt>
</event>
<event>
 8    1  0.3466492E-004  0.1016034E+03  0.7546771E-02  0.1277319E+00
         -1   -1    0    0    0  501 -0.00000000000E+00  0.00000000000E+00  0.99049857137E+02  0.99049857137E+02  0.00000000000E+00 0.  1.
          1   -1    0    0  501    0  0.00000000000E+00 -0.00000000000E+00 -0.63093908192E+03  0.63093908192E+03  0.00000000000E+00 0. -1.
         23    2    1    2    0    0 -0.37600935259E+02  0.32599925958E+02  0.67619104901E+02  0.12204754636E+03  0.88581458112E+02 0.  0.
         23    2    1    2    0    0  0.37600935259E+02 -0.32599925958E+02 -0.59950832968E+03  0.60794139269E+03  0.87783336014E+02 0.  0.
          5    1    3    3  502    0  0.22436139572E+02  0.18883117217E+02 -0.10127943275E+01  0.29716463906E+02  0.47000000000E+01 0. -1.
         -5    1    4    4    0  503  0.58581527392E+02  0.69101050810E+00 -0.28913292367E+03  0.29504611571E+03  0.47000000000E+01 0.  1.
          5    1    4    4  503    0 -0.20980592133E+02 -0.33290936466E+02 -0.31037540602E+03  0.31289527698E+03  0.47000000000E+01 0. -1.
         -5    1    3    3    0  502 -0.60037074831E+02  0.13716808741E+02  0.68631899229E+02  0.92331082459E+02  0.47000000000E+01 0.  1.
<mgrwt>
<rscale>  0 0.10142923E+03</rscale>
<asrwt>0</asrwt>
<pdfrwt beam="1">  1        1 0.97067547E-01 0.10160345E+03</pdfrwt>
<pdfrwt beam="2">  1       -1 0.15238440E-01 0.10160345E+03</pdfrwt>
<totfact> 0.10229452E+03</totfact>
</mgrwt>
</event>
<event>
 8    1  0.3466492E-004  0.1070742E+03  0.7546771E-02  0.1266109E+00
         -1   -1    0    0    0  501 -0.00000000000E+00  0.00000000000E+00  0.19745660089E+03  0.19745660089E+03  0.00000000000E+00 0.  1.
          1   -1    0    0  501    0  0.00000000000E+00 -0.00000000000E+00 -0.63442965638E+02  0.63442965638E+02  0.00000000000E+00 0. -1.
         23    2    1    2    0    0 -0.22422285218E+02  0.51857791326E+02  0.10509985446E+03  0.15003620165E+03  0.90955445146E+02 0.  0.
         23    2    1    2    0    0  0.22422285218E+02 -0.51857791326E+02  0.28913780794E+02  0.11086336488E+03  0.90899337499E+02 0.  0.
          5    1    3    3  502    0 -0.22190779067E+02 -0.22825984995E+02  0.29280402606E+02  0.43507335512E+02  0.47000000000E+01 0. -1.
         -5    1    4    4    0  503  0.36365528351E+02 -0.25926548956E+02 -0.23408320325E+02  0.50642640664E+02  0.47000000000E+01 0. -1.
          5    1    4    4  503    0 -0.13943243133E+02 -0.25931242370E+02  0.52322101118E+02  0.60220724218E+02  0.47000000000E+01 0.  1.
         -5    1    3    3    0  502 -0.23150615161E+00  0.74683776321E+02  0.75819451853E+02  0.10652886613E+03  0.47000000000E+01 0.  1.
<mgrwt>
<rscale>  0 0.10706227E+03</rscale>
<asrwt>0</asrwt>
<pdfrwt beam="1">  1        1 0.97604563E-02 0.10707419E+03</pdfrwt>
<pdfrwt beam="2">  1       -1 0.30377938E-01 0.10707419E+03</pdfrwt>
<totfact> 0.61825836E+03</totfact>
</mgrwt>
</event>
<event>
 8    1  0.3466492E-004  0.9748539E+02  0.7546771E-02  0.1286258E+00
         -1   -1    0    0    0  501 -0.00000000000E+00  0.00000000000E+00  0.78232597163E+02  0.78232597163E+02  0.00000000000E+00 0.  1.
          1   -1    0    0  501    0  0.00000000000E+00 -0.00000000000E+00 -0.16588312131E+03  0.16588312131E+03  0.00000000000E+00 0. -1.
         23    2    1    2    0    0 -0.31524052626E+02  0.93885550635E+01  0.20087526493E+02  0.99533459763E+02  0.91768676746E+02 0.  0.
         23    2    1    2    0    0  0.31524052626E+02 -0.93885550635E+01 -0.10773805064E+03  0.14458225871E+03  0.90634602211E+02 0.  0.
          5    1    4    4  502    0 -0.12978704791E+02  0.30763270502E+02 -0.55480012713E+02  0.64922626261E+02  0.47000000000E+01 0. -1.
         -5    1    4    4    0  502  0.44502757417E+02 -0.40151825566E+02 -0.52258037930E+02  0.79659632451E+02  0.47000000000E+01 0.  1.
          5    1    3    3  503    0 -0.23875039976E+02 -0.40194912336E+02  0.73405849114E+01  0.47556521093E+02  0.47000000000E+01 0. -1.
         -5    1    3    3    0  503 -0.76490126492E+01  0.49583467400E+02  0.12746941582E+02  0.51976938671E+02  0.47000000000E+01 0.  1.
<mgrwt>
<rscale>  0 0.97217584E+02</rscale>
<asrwt>0</asrwt>
<pdfrwt beam="1">  1        1 0.25520480E-01 0.97485388E+02</pdfrwt>
<pdfrwt beam="2">  1       -1 0.12035784E-01 0.97485388E+02</pdfrwt>
<totfact> 0.78308844E+03</totfact>
</mgrwt>
</event>
<event>
 8    1  0.3466492E-004  0.1072643E+03  0.7546771E-02  0.1267559E+00
          1   -1    0    0  501    0  0.00000000000E+00  0.00000000000E+00  0.47468844329E+02  0.47468844329E+02  0.00000000000E+00 0. -1.
         -1   -1    0    0    0  501 -0.00000000000E+00 -0.00000000000E+00 -0.23664664514E+03  0.23664664514E+03  0.00000000000E+00 0.  1.
         23    2    1    2    0    0  0.85932422334E+01  0.47198853704E+02 -0.77753710426E+02  0.12945143846E+03  0.91708559208E+02 0.  0.
         23    2    1    2    0    0 -0.85932422334E+01 -0.47198853704E+02 -0.11142409039E+03  0.15466405101E+03  0.95937819198E+02 0.  0.
          5    1    3    3  502    0  0.44077458438E+02  0.43050896770E+01 -0.19128958513E+02  0.48470229969E+02  0.47000000000E+01 0. -1.
         -5    1    4    4    0  503  0.24356348285E+02 -0.61590575373E+01 -0.96398918317E+02  0.99729670330E+02  0.47000000000E+01 0.  1.
          5    1    4    4  503    0 -0.32949590518E+02 -0.41039796167E+02 -0.15025172071E+02  0.54934380678E+02  0.47000000000E+01 0. -1.
         -5    1    3    3    0  502 -0.35484216205E+02  0.42893764027E+02 -0.58624751913E+02  0.80981208493E+02  0.47000000000E+01 0.  1.
<mgrwt>
<rscale>  0 0.10631035E+03</rscale>
<asrwt>0</asrwt>
<pdfrwt beam="1">  1        1 0.73028990E-02 0.10726435E+03</pdfrwt>
<pdfrwt beam="2">  1       -1 0.36407177E-01 0.10726435E+03</pdfrwt>
<totfact> 0.66894832E+03</totfact>
</mgrwt>
</event>
<event>
 8    1  0.3466492E-004  0.9996749E+02  0.7546771E-02  0.1282713E+00
         -2   -1    0    0    0  501 -0.00000000000E+00  0.00000000000E+00  0.17042011511E+03  0.17042011511E+03  0.00000000000E+00 0.  1.
          2   -1    0    0  501    0  0.00000000000E+00 -0.00000000000E+00 -0.82280700181E+02  0.82280700181E+02  0.00000000000E+00 0. -1.
         23    2    1    2    0    0  0.15533858258E+02 -0.21245867151E+02 -0.26505538050E+02  0.10342167859E+03  0.96440719779E+02 0.  0.
         23    2    1    2    0    0 -0.15533858258E+02  0.21245867151E+02  0.11464495298E+03  0.14927913671E+03  0.91913588700E+02 0.  0.
          5    1    3    3  502    0  0.54905509116E+02 -0.26722666024E+00 -0.14315918265E+02  0.56936120847E+02  0.47000000000E+01 0. -1.
         -5    1    4    4    0  503 -0.47636772649E+02  0.32393968798E+02  0.51490068946E+02  0.77407677416E+02  0.47000000000E+01 0.  1.
          5    1    4    4  503    0  0.32102914391E+02 -0.11148101647E+02  0.63154884036E+02  0.71871459289E+02  0.47000000000E+01 0. -1.
         -5    1    3    3    0  502 -0.39371650858E+02 -0.20978640491E+02 -0.12189619785E+02  0.46485557742E+02  0.47000000000E+01 0.  1.
<mgrwt>
<rscale>  0 0.98859203E+02</rscale>
<asrwt>0</asrwt>
<pdfrwt beam="1">  1        2 0.12658569E-01 0.99967495E+02</pdfrwt>
<pdfrwt beam="2">  1       -2 0.26218479E-01 0.99967495E+02</pdfrwt>
<totfact> 0.57921354E+03</totfact>
</mgrwt>
</event>
<event>
 8    1  0.3466492E-004  0.9365565E+02  0.7546771E-02  0.1294734E+00
         -1   -1    0    0    0  501 -0.00000000000E+00  0.00000000000E+00  0.67001646180E+03  0.67001646180E+03  0.00000000000E+00 0.  1.
          1   -1    0    0  501    0  0.00000000000E+00 -0.00000000000E+00 -0.40654978814E+03  0.40654978814E+03  0.00000000000E+00 0. -1.
         23    2    1    2    0    0  0.22545470520E+02 -0.91526384612E+00  0.66137984703E+03  0.66797805574E+03  0.90896891848E+02 0.  0.
         23    2    1    2    0    0 -0.22545470520E+02  0.91526384612E+00 -0.39791317336E+03  0.40858819420E+03  0.90001571961E+02 0.  0.
          5    1    4    4  502    0 -0.36891928420E+02  0.26412637870E+02 -0.34449591558E+03  0.34750275923E+03  0.47000000000E+01 0. -1.
         -5    1    3    3    0  503 -0.34191929102E+02 -0.58222352650E+01  0.31184394347E+03  0.31380204193E+03  0.47000000000E+01 0.  1.
          5    1    3    3  503    0  0.56737399622E+02  0.49069714189E+01  0.34953590355E+03  0.35417601381E+03  0.47000000000E+01 0. -1.
         -5    1    4    4    0  502  0.14346457900E+02 -0.25497374024E+02 -0.53417257783E+02  0.61085434970E+02  0.47000000000E+01 0.  1.
<mgrwt>
<rscale>  0 0.93437717E+02</rscale>
<asrwt>0</asrwt>
<pdfrwt beam="1">  1        1 0.62546121E-01 0.93655651E+02</pdfrwt>
<pdfrwt beam="2">  1       -1 0.10307946E+00 0.93655651E+02</pdfrwt>
<totfact> 0.60151033E+01</totfact>
</mgrwt>
</event>
<event>
 8    1  0.3466492E-004  0.1386515E+03  0.7546771E-02  0.1215519E+00
         -1   -1    0    0    0  501 -0.00000000000E+00  0.00000000000E+00  0.10893329204E+03  0.10893329204E+03  0.00000000000E+00 0.  1.
          1   -1    0    0  501    0  0.00000000000E+00 -0.00000000000E+00 -0.20530391524E+03  0.20530391524E+03  0.00000000000E+00 0. -1.
         23    2    1    2    0    0  0.71734279548E+02 -0.75119662044E+02 -0.10826478867E+03  0.17507646265E+03  0.90231551127E+02 0.  0.
         23    2    1    2    0    0 -0.71734279548E+02  0.75119662044E+02  0.11894165476E+02  0.13916074464E+03  0.91844821234E+02 0.  0.
          5    1    3    3  502    0  0.77152680629E+02 -0.38966170082E+02 -0.10775120051E+03  0.13821472335E+03  0.47000000000E+01 0. -1.
         -5    1    3    3    0  502 -0.54184010804E+01 -0.36153491962E+02 -0.51358816309E+00  0.36861739299E+02  0.47000000000E+01 0.  1.
          5    1    4    4  503    0 -0.87831684574E+02  0.48667801180E+02 -0.98914077575E+01  0.10100935419E+03  0.47000000000E+01 0. -1.
         -5    1    4    4    0  503  0.16097405026E+02  0.26451860864E+02  0.21785573233E+02  0.38151390444E+02  0.47000000000E+01 0.  1.
<mgrwt>
<rscale>  0 0.13838491E+03</rscale>
<asrwt>0</asrwt>
<pdfrwt beam="1">  1        1 0.31585218E-01 0.13865151E+03</pdfrwt>
<pdfrwt beam="2">  1       -1 0.16758968E-01 0.13865151E+03</pdfrwt>
<totfact> 0.36775300E+03</totfact>
</mgrwt>
</event>
<event>
 8    1  0.3466492E-004  0.9902441E+02  0.7546771E-02  0.1282743E+00
          1   -1    0    0  501    0  0.00000000000E+00  0.00000000000E+00  0.44690043505E+02  0.44690043505E+02  0.00000000000E+00 0. -1.
         -1   -1    0    0    0  501 -0.00000000000E+00 -0.00000000000E+00 -0.21991988056E+03  0.21991988056E+03  0.00000000000E+00 0.  1.
         23    2    1    2    0    0  0.37182602995E+02 -0.97865533914E+01 -0.10017335611E+03  0.14035490748E+03  0.90479147802E+02 0.  0.
         23    2    1    2    0    0 -0.37182602995E+02  0.97865533914E+01 -0.75056480944E+02  0.12425501658E+03  0.91255198327E+02 0.  0.
          5    1    3    3  502    0  0.15577000300E+02 -0.39750399909E+02 -0.11932390491E+02  0.44578124390E+02  0.47000000000E+01 0. -1.
         -5    1    3    3    0  502  0.21605602694E+02  0.29963846518E+02 -0.88240965619E+02  0.95776783092E+02  0.47000000000E+01 0.  1.
          5    1    4    4  503    0 -0.61154253972E+02 -0.15715516295E+02 -0.42785093117E+02  0.76416453884E+02  0.47000000000E+01 0. -1.
         -5    1    4    4    0  503  0.23971650977E+02  0.25502069686E+02 -0.32271387827E+02  0.47838562699E+02  0.47000000000E+01 0.  1.
<mgrwt>
<rscale>  0 0.98845249E+02</rscale>
<asrwt>0</asrwt>
<pdfrwt beam="1">  1        1 0.68753913E-02 0.99024410E+02</pdfrwt>
<pdfrwt beam="2">  1       -1 0.33833828E-01 0.99024410E+02</pdfrwt>
<totfact> 0.81602381E+03</totfact>
</mgrwt>
</event>
<event>
 8    1  0.3466492E-004  0.9620561E+02  0.7546771E-02  0.1292083E+00
         -1   -1    0    0    0  501 -0.00000000000E+00  0.00000000000E+00  0.45548486820E+02  0.45548486820E+02  0.00000000000E+00 0.  1.
          1   -1    0    0  501    0  0.00000000000E+00 -0.00000000000E+00 -0.19039654852E+03  0.19039654852E+03  0.00000000000E+00 0. -1.
         23    2    1    2    0    0  0.22181676200E+02  0.43200516876E+01 -0.78893481463E+02  0.12441744792E+03  0.93513797508E+02 0.  0.
         23    2    1    2    0    0 -0.22181676200E+02 -0.43200516876E+01 -0.65954580240E+02  0.11152758742E+03  0.87050022952E+02 0.  0.
          5    1    4    4  502    0  0.61077868411E+01 -0.35685446864E+02 -0.44646837248E+01  0.36780151967E+02  0.47000000000E+01 0. -1.
         -5    1    4    4    0  502 -0.28289463041E+02  0.31365395176E+02 -0.61489896516E+02  0.74747435455E+02  0.47000000000E+01 0.  1.
          5    1    3    3  503    0 -0.20745939854E+02  0.15230258504E+01 -0.78285764204E+02  0.81138551288E+02  0.47000000000E+01 0. -1.
         -5    1    3    3    0  503  0.42927616053E+02  0.27970258371E+01 -0.60771725891E+00  0.43278896634E+02  0.47000000000E+01 0.  1.
<mgrwt>
<rscale>  0 0.94598251E+02</rscale>
<asrwt>0</asrwt>
<pdfrwt beam="1">  1        1 0.29291777E-01 0.96205613E+02</pdfrwt>
<pdfrwt beam="2">  1       -1 0.70074595E-02 0.96205613E+02</pdfrwt>
<totfact> 0.14897839E+04</totfact>
</mgrwt>
</event>
<event>
 8    1  0.3466492E-004  0.1595820E+03  0.7546771E-02  0.1189762E+00
          4   -1    0    0  501    0  0.00000000000E+00  0.00000000000E+00  0.78079487415E+02  0.78079487415E+02  0.00000000000E+00 0. -1.
         -4   -1    0    0    0  501 -0.00000000000E+00 -0.00000000000E+00 -0.32329142401E+03  0.32329142401E+03  0.00000000000E+00 0.  1.
         23    2    1    2    0    0  0.10967118464E+03 -0.64913669661E+02 -0.13483670100E+03  0.20733716554E+03  0.92553827727E+02 0.  0.
         23    2    1    2    0    0 -0.10967118464E+03  0.64913669661E+02 -0.11037523560E+03  0.19403374589E+03  0.96046075713E+02 0.  0.
          5    1    3    3  502    0  0.11577018095E+03 -0.28812219353E+02 -0.91586571706E+02  0.15047614063E+03  0.47000000000E+01 0. -1.
         -5    1    4    4    0  503 -0.90643402898E+02  0.54925582330E+02 -0.12770964999E+03  0.16602677731E+03  0.47000000000E+01 0.  1.
          5    1    4    4  503    0 -0.19027781746E+02  0.99880873313E+01  0.17334414391E+02  0.28006968579E+02  0.47000000000E+01 0. -1.
         -5    1    3    3    0  502 -0.60989963039E+01 -0.36101450308E+02 -0.43250129290E+02  0.56861024910E+02  0.47000000000E+01 0.  1.
<mgrwt>
<rscale>  0 0.15906012E+03</rscale>
<asrwt>0</asrwt>
<pdfrwt beam="1">  1        4 0.12012229E-01 0.15958196E+03</pdfrwt>
<pdfrwt beam="2">  1       -4 0.49737143E-01 0.15958196E+03</pdfrwt>
<totfact> 0.37256887E+02</totfact>
</mgrwt>
</event>
<event>
 8    1  0.3466492E-004  0.9378518E+02  0.7546771E-02  0.1295631E+00
         -3   -1    0    0    0  501 -0.00000000000E+00  0.00000000000E+00  0.27174566846E+03  0.27174566846E+03  0.00000000000E+00 0.  1.
          3   -1    0    0  501    0  0.00000000000E+00 -0.00000000000E+00 -0.35356452629E+02  0.35356452629E+02  0.00000000000E+00 0. -1.
         23    2    1    2    0    0  0.12515569390E+01 -0.13725141739E+02  0.64993621471E+02  0.11172528219E+03  0.89824395010E+02 0.  0.
         23    2    1    2    0    0 -0.12515569390E+01  0.13725141739E+02  0.17139559436E+03  0.19537683890E+03  0.92766984970E+02 0.  0.
          5    1    3    3  502    0 -0.40600973921E+02 -0.23009717424E+02  0.41427630692E+02  0.62579747235E+02  0.47000000000E+01 0. -1.
         -5    1    4    4    0  503  0.39932257292E+02  0.19536163277E+02  0.50513875993E+02  0.67453602690E+02  0.47000000000E+01 0.  1.
          5    1    4    4  503    0 -0.41183814231E+02 -0.58110215378E+01  0.12088171837E+03  0.12792323621E+03  0.47000000000E+01 0. -1.
         -5    1    3    3    0  502  0.41852530860E+02  0.92845756849E+01  0.23565990779E+02  0.49145534959E+02  0.47000000000E+01 0.  1.
<mgrwt>
<rscale>  0 0.93049154E+02</rscale>
<asrwt>0</asrwt>
<pdfrwt beam="1">  1        3 0.54394544E-02 0.93785177E+02</pdfrwt>
<pdfrwt beam="2">  1       -3 0.41807024E-01 0.93785177E+02</pdfrwt>
<totfact> 0.24207290E+03</totfact>
</mgrwt>
</event>
<event>
 8    1  0.3466492E-004  0.1103794E+03  0.7546771E-02  0.1261338E+00
         -2   -1    0    0    0  501 -0.00000000000E+00  0.00000000000E+00  0.23187692382E+02  0.23187692382E+02  0.00000000000E+00 0.  1.
          2   -1    0    0  501    0  0.00000000000E+00 -0.00000000000E+00 -0.55982306799E+03  0.55982306799E+03  0.00000000000E+00 0. -1.
         23    2    1    2    0    0  0.45551516855E+02  0.29226490564E+02 -0.18541769168E+03  0.21578538809E+03  0.96200233284E+02 0.  0.
         23    2    1    2    0    0 -0.45551516855E+02 -0.29226490564E+02 -0.35121768392E+03  0.36722537228E+03  0.92582309922E+02 0.  0.
          5    1    3    3  502    0 -0.25884331840E+02  0.24928333790E+02 -0.84831168341E+02  0.92248780927E+02  0.47000000000E+01 0. -1.
         -5    1    4    4    0  503  0.26501488361E+02 -0.56303906038E+01 -0.55941334943E+02  0.62334205208E+02  0.47000000000E+01 0.  1.
          5    1    4    4  503    0 -0.72053005216E+02 -0.23596099960E+02 -0.29527634898E+03  0.30489116708E+03  0.47000000000E+01 0. -1.
         -5    1    3    3    0  502  0.71435848695E+02  0.42981567734E+01 -0.10058652334E+03  0.12353660716E+03  0.47000000000E+01 0.  1.
<mgrwt>
<rscale>  0 0.10958627E+03</rscale>
<asrwt>0</asrwt>
<pdfrwt beam="1">  1        2 0.86126634E-01 0.11037941E+03</pdfrwt>
<pdfrwt beam="2">  1       -2 0.35673370E-02 0.11037941E+03</pdfrwt>
<totfact> 0.16601988E+04</totfact>
</mgrwt>
</event>
<event>
 8    1  0.3466492E-004  0.1139228E+03  0.7546771E-02  0.1254130E+00
          2   -1    0    0  501    0  0.00000000000E+00  0.00000000000E+00  0.10684482803E+04  0.10684482803E+04  0.00000000000E+00 0. -1.
         -2   -1    0    0    0  501 -0.00000000000E+00 -0.00000000000E+00 -0.11990556664E+02  0.11990556664E+02  0.00000000000E+00 0.  1.
         23    2    1    2    0    0  0.22223751670E+02 -0.62729641279E+02  0.52802233341E+03  0.54017217813E+03  0.92463476099E+02 0.  0.
         23    2    1    2    0    0 -0.22223751670E+02  0.62729641279E+02  0.52843539024E+03  0.54026665885E+03  0.90637729299E+02 0.  0.
          5    1    3    3  502    0 -0.19605315621E+02 -0.61666200319E+02  0.22262457435E+03  0.23188548848E+03  0.47000000000E+01 0. -1.
         -5    1    3    3    0  502  0.41829067291E+02 -0.10634409599E+01  0.30539775906E+03  0.30828668965E+03  0.47000000000E+01 0.  1.
          5    1    4    4  503    0 -0.34787804786E+02 -0.11364297131E+02  0.15726584117E+03  0.16153629131E+03  0.47000000000E+01 0. -1.
         -5    1    4    4    0  503  0.12564053115E+02  0.74093938410E+02  0.37116954907E+03  0.37873036754E+03  0.47000000000E+01 0.  1.
<mgrwt>
<rscale>  0 0.11355177E+03</rscale>
<asrwt>0</asrwt>
<pdfrwt beam="1">  1        2 0.16437658E+00 0.11392277E+03</pdfrwt>
<pdfrwt beam="2">  1       -2 0.18447019E-02 0.11392277E+03</pdfrwt>
<totfact> 0.19594900E+04</totfact>
</mgrwt>
</event>
<event>
 8    1  0.3466492E-004  0.9036890E+02  0.7546771E-02  0.1302405E+00
         -1   -1    0    0    0  501 -0.00000000000E+00  0.00000000000E+00  0.41244842746E+02  0.41244842746E+02  0.00000000000E+00 0.  1.
          1   -1    0    0  501    0  0.00000000000E+00 -0.00000000000E+00 -0.26424151140E+03  0.26424151140E+03  0.00000000000E+00 0. -1.
         23    2    1    2    0    0  0.69682579441E+01 -0.57572259224E+01 -0.18855721630E+03  0.20877743883E+03  0.89176750758E+02 0.  0.
         23    2    1    2    0    0 -0.69682579441E+01  0.57572259224E+01 -0.34439452352E+02  0.96708915317E+02  0.89915716948E+02 0.  0.
          5    1    3    3  502    0  0.44329120614E+02  0.88973059360E+01 -0.12927762012E+03  0.13703658654E+03  0.47000000000E+01 0. -1.
         -5    1    4    4    0  503 -0.45583338096E+02  0.18500800555E+02 -0.17932451007E+02  0.52571695162E+02  0.47000000000E+01 0.  1.
          5    1    4    4  503    0  0.38615080152E+02 -0.12743574633E+02 -0.16507001345E+02  0.44137220154E+02  0.47000000000E+01 0. -1.
         -5    1    3    3    0  502 -0.37360862670E+02 -0.14654531858E+02 -0.59279596187E+02  0.71740852291E+02  0.47000000000E+01 0.  1.
<mgrwt>
<rscale>  0 0.90184531E+02</rscale>
<asrwt>0</asrwt>
<pdfrwt beam="1">  1        1 0.40652540E-01 0.90368902E+02</pdfrwt>
<pdfrwt beam="2">  1       -1 0.63453604E-02 0.90368902E+02</pdfrwt>
<totfact> 0.11484466E+04</totfact>
</mgrwt>
</event>
<event>
 8    1  0.3466492E-004  0.1057303E+03  0.7546771E-02  0.1268923E+00
          1   -1    0    0  501    0  0.00000000000E+00  0.00000000000E+00  0.82135668228E+02  0.82135668228E+02  0.00000000000E+00 0. -1.
         -1   -1    0    0    0  501 -0.00000000000E+00 -0.00000000000E+00 -0.23377978518E+03  0.23377978518E+03  0.00000000000E+00 0.  1.
         23    2    1    2    0    0  0.51711313096E+01  0.52175337821E+02  0.26702355677E+02  0.10858394085E+03  0.91260341530E+02 0.  0.
         23    2    1    2    0    0 -0.51711313096E+01 -0.52175337821E+02 -0.17834647263E+03  0.20733151256E+03  0.91814406955E+02 0.  0.
          5    1    3    3  502    0 -0.48299367738E+01  0.74483251396E+02  0.40039953168E+01  0.74894626017E+02  0.47000000000E+01 0. -1.
         -5    1    4    4    0  503  0.25871150065E+02 -0.65959063369E+02 -0.11120861048E+03  0.13194453188E+03  0.47000000000E+01 0.  1.
          5    1    4    4  503    0 -0.31042281374E+02  0.13783725548E+02 -0.67137862146E+02  0.75386980683E+02  0.47000000000E+01 0. -1.
         -5    1    3    3    0  502  0.10001068083E+02 -0.22307913575E+02  0.22698360360E+02  0.33689314833E+02  0.47000000000E+01 0.  1.
<mgrwt>
<rscale>  0 0.10560988E+03</rscale>
<asrwt>0</asrwt>
<pdfrwt beam="1">  1        1 0.12636257E-01 0.10573028E+03</pdfrwt>
<pdfrwt beam="2">  1       -1 0.35966121E-01 0.10573028E+03</pdfrwt>
<totfact> 0.33113282E+03</totfact>
</mgrwt>
</event>
<event>
 8    1  0.3466492E-004  0.1190199E+03  0.7546771E-02  0.1244978E+00
          1   -1    0    0  501    0  0.00000000000E+00  0.00000000000E+00  0.11985485432E+04  0.11985485432E+04  0.00000000000E+00 0. -1.
         -1   -1    0    0    0  501 -0.00000000000E+00 -0.00000000000E+00 -0.18918752664E+02  0.18918752664E+02  0.00000000000E+00 0.  1.
         23    2    1    2    0    0 -0.75737090594E+02  0.70966568591E+01  0.21626469991E+03  0.24685252273E+03  0.91538396959E+02 0.  0.
         23    2    1    2    0    0  0.75737090594E+02 -0.70966568591E+01  0.96336509066E+03  0.97061477318E+03  0.90742881650E+02 0.  0.
          5    1    3    3  502    0 -0.56398816657E+02 -0.15104775072E+01  0.40145451180E+02  0.69403568446E+02  0.47000000000E+01 0.  1.
         -5    1    3    3    0  502 -0.19338273937E+02  0.86071343663E+01  0.17611924873E+03  0.17744895428E+03  0.47000000000E+01 0. -1.
          5    1    4    4  503    0  0.75026691694E+02 -0.37957837827E+02  0.78843425690E+03  0.79291895511E+03  0.47000000000E+01 0. -1.
         -5    1    4    4    0  503  0.71039889978E+00  0.30861180968E+02  0.17493083377E+03  0.17769581807E+03  0.47000000000E+01 0.  1.
<mgrwt>
<rscale>  0 0.11886697E+03</rscale>
<asrwt>0</asrwt>
<pdfrwt beam="1">  1        1 0.18439202E+00 0.11901995E+03</pdfrwt>
<pdfrwt beam="2">  1       -1 0.29105783E-02 0.11901995E+03</pdfrwt>
<totfact> 0.44240417E+03</totfact>
</mgrwt>
</event>
<event>
 8    1  0.3466492E-004  0.9409451E+02  0.7546771E-02  0.1293300E+00
         -3   -1    0    0    0  501 -0.00000000000E+00  0.00000000000E+00  0.21000116488E+03  0.21000116488E+03  0.00000000000E+00 0.  1.
          3   -1    0    0  501    0  0.00000000000E+00 -0.00000000000E+00 -0.72931200334E+02  0.72931200334E+02  0.00000000000E+00 0. -1.
         23    2    1    2    0    0 -0.90772690583E+01  0.19687939492E+02  0.16048171134E+03  0.18596903759E+03  0.91433535927E+02 0.  0.
         23    2    1    2    0    0  0.90772690583E+01 -0.19687939492E+02 -0.23411746803E+02  0.96963327617E+02  0.91562903183E+02 0.  0.
          5    1    3    3  502    0  0.32425119424E+02 -0.14570059743E+02  0.38780738828E+02  0.52817712130E+02  0.47000000000E+01 0. -1.
         -5    1    3    3    0  502 -0.41502388482E+02  0.34257999234E+02  0.12170097252E+03  0.13315132546E+03  0.47000000000E+01 0.  1.
          5    1    4    4  503    0  0.48872384987E+02 -0.60473465699E+01 -0.23186042208E+02  0.54632984250E+02  0.47000000000E+01 0. -1.
         -5    1    4    4    0  503 -0.39795115928E+02 -0.13640592922E+02 -0.22570459437E+00  0.42330343367E+02  0.47000000000E+01 0.  1.
<mgrwt>
<rscale>  0 0.94063025E+02</rscale>
<asrwt>0</asrwt>
<pdfrwt beam="1">  1        3 0.11220185E-01 0.94094511E+02</pdfrwt>
<pdfrwt beam="2">  1       -3 0.32307871E-01 0.94094511E+02</pdfrwt>
<totfact> 0.12266185E+03</totfact>
</mgrwt>
</event>
<event>
 8    1  0.3466492E-004  0.1060698E+03  0.7546771E-02  0.1268092E+00
          2   -1    0    0  501    0  0.00000000000E+00  0.00000000000E+00  0.17758471749E+03  0.17758471749E+03  0.00000000000E+00 0. -1.
         -2   -1    0    0    0  501 -0.00000000000E+00 -0.00000000000E+00 -0.10162797713E+03  0.10162797713E+03  0.00000000000E+00 0.  1.
         23    2    1    2    0    0  0.18544089776E+02  0.49965724306E+02 -0.47770971357E+02  0.11633084239E+03  0.91707918502E+02 0.  0.
         23    2    1    2    0    0 -0.18544089776E+02 -0.49965724306E+02  0.12372771172E+03  0.16288185224E+03  0.91550501202E+02 0.  0.
          5    1    3    3  502    0  0.53082723615E+02  0.32428115324E+02 -0.12267985394E+02  0.63576345251E+02  0.47000000000E+01 0. -1.
         -5    1    3    3    0  502 -0.34538633839E+02  0.17537608982E+02 -0.35502985962E+02  0.52754497140E+02  0.47000000000E+01 0.  1.
          5    1    4    4  503    0 -0.21997936969E+02 -0.75224558369E+02  0.10397651532E+03  0.13029140091E+03  0.47000000000E+01 0. -1.
         -5    1    4    4    0  503  0.34538471925E+01  0.25258834063E+02  0.19751196400E+02  0.32590451330E+02  0.47000000000E+01 0.  1.
<mgrwt>
<rscale>  0 0.10603575E+03</rscale>
<asrwt>0</asrwt>
<pdfrwt beam="1">  1        2 0.27320726E-01 0.10606978E+03</pdfrwt>
<pdfrwt beam="2">  1       -2 0.15635073E-01 0.10606978E+03</pdfrwt>
<totfact> 0.58206504E+03</totfact>
</mgrwt>
</event>
<event>
 8    1  0.3466492E-004  0.9885639E+02  0.7546771E-02  0.1284066E+00
         -1   -1    0    0    0  501 -0.00000000000E+00  0.00000000000E+00  0.27212675227E+03  0.27212675227E+03  0.00000000000E+00 0.  1.
          1   -1    0    0  501    0  0.00000000000E+00 -0.00000000000E+00 -0.45018273346E+02  0.45018273346E+02  0.00000000000E+00 0. -1.
         23    2    1    2    0    0 -0.27821272186E+02 -0.87488291925E+01  0.18717739213E+03  0.21052852592E+03  0.91849436058E+02 0.  0.
         23    2    1    2    0    0  0.27821272186E+02  0.87488291925E+01  0.39931086790E+02  0.10661649969E+03  0.94456450895E+02 0.  0.
          5    1    3    3  502    0  0.57166918039E+01 -0.43199784048E+02  0.58616278812E+02  0.73190573497E+02  0.47000000000E+01 0. -1.
         -5    1    4    4    0  503 -0.20699054375E+02 -0.15212638366E+02  0.45035296065E+02  0.52059034853E+02  0.47000000000E+01 0.  1.
          5    1    4    4  503    0  0.48520326561E+02  0.23961467559E+02 -0.51042092751E+01  0.54557464837E+02  0.47000000000E+01 0. -1.
         -5    1    3    3    0  502 -0.33537963990E+02  0.34450954855E+02  0.12856111332E+03  0.13733795243E+03  0.47000000000E+01 0.  1.
<mgrwt>
<rscale>  0 0.98228457E+02</rscale>
<asrwt>0</asrwt>
<pdfrwt beam="1">  1        1 0.69258884E-02 0.98856392E+02</pdfrwt>
<pdfrwt beam="2">  1       -1 0.41865653E-01 0.98856392E+02</pdfrwt>
<totfact> 0.55994081E+03</totfact>
</mgrwt>
</event>
<event>
 8    1  0.3466492E-004  0.1056431E+03  0.7546771E-02  0.1270903E+00
         -4   -1    0    0    0  501 -0.00000000000E+00  0.00000000000E+00  0.27767512944E+03  0.27767512944E+03  0.00000000000E+00 0.  1.
          4   -1    0    0  501    0  0.00000000000E+00 -0.00000000000E+00 -0.47501400959E+02  0.47501400959E+02  0.00000000000E+00 0. -1.
         23    2    1    2    0    0 -0.47643398030E+02 -0.60988492099E+01  0.43055998017E+02  0.11029632990E+03  0.89467156466E+02 0.  0.
         23    2    1    2    0    0  0.47643398030E+02  0.60988492099E+01  0.18711773046E+03  0.21488020050E+03  0.94092327932E+02 0.  0.
          5    1    3    3  502    0 -0.40990401297E+02 -0.40765330831E+02  0.50600532664E+01  0.58221296235E+02  0.47000000000E+01 0. -1.
         -5    1    4    4    0  503  0.70877867322E+02 -0.16119233786E+02  0.13683668424E+03  0.15501570865E+03  0.47000000000E+01 0.  1.
          5    1    4    4  503    0 -0.23234469293E+02  0.22218082996E+02  0.50281046223E+02  0.59864491851E+02  0.47000000000E+01 0. -1.
         -5    1    3    3    0  502 -0.66529967324E+01  0.34666481621E+02  0.37995944750E+02  0.52075033662E+02  0.47000000000E+01 0.  1.
<mgrwt>
<rscale>  0 0.10460339E+03</rscale>
<asrwt>0</asrwt>
<pdfrwt beam="1">  1        4 0.73079080E-02 0.10564306E+03</pdfrwt>
<pdfrwt beam="2">  1       -4 0.42719250E-01 0.10564306E+03</pdfrwt>
<totfact> 0.10688553E+03</totfact>
</mgrwt>
</event>
<event>
 8    1  0.3466492E-004  0.1163832E+03  0.7546771E-02  0.1251247E+00
          4   -1    0    0  501    0  0.00000000000E+00  0.00000000000E+00  0.19005290231E+03  0.19005290231E+03  0.00000000000E+00 0. -1.
         -4   -1    0    0    0  501 -0.00000000000E+00 -0.00000000000E+00 -0.93965058389E+02  0.93965058389E+02  0.00000000000E+00 0.  1.
         23    2    1    2    0    0 -0.50242265097E+02 -0.42969279751E+02  0.12134892942E+03  0.16492483150E+03  0.90022181531E+02 0.  0.
         23    2    1    2    0    0  0.50242265097E+02  0.42969279751E+02 -0.25261085499E+02  0.11909312921E+03  0.95783123666E+02 0.  0.
          5    1    3    3  502    0 -0.46737721711E+02  0.14059353064E+01  0.10868050145E+03  0.11840579665E+03  0.47000000000E+01 0. -1.
         -5    1    4    4    0  503  0.63417123128E+02  0.47726778474E+01 -0.40625222539E+02  0.75610903089E+02  0.47000000000E+01 0.  1.
          5    1    4    4  503    0 -0.13174858031E+02  0.38196601904E+02  0.15364137040E+02  0.43482226117E+02  0.47000000000E+01 0. -1.
         -5    1    3    3    0  502 -0.35045433858E+01 -0.44375215057E+02  0.12668427972E+02  0.46519034846E+02  0.47000000000E+01 0.  1.
<mgrwt>
<rscale>  0 0.11519171E+03</rscale>
<asrwt>0</asrwt>
<pdfrwt beam="1">  1        4 0.29238908E-01 0.11638321E+03</pdfrwt>
<pdfrwt beam="2">  1       -4 0.14456163E-01 0.11638321E+03</pdfrwt>
<totfact> 0.71917748E+02</totfact>
</mgrwt>
</event>
<event>
 8    1  0.3466492E-004  0.1109060E+03  0.7546771E-02  0.1259621E+00
         -1   -1    0    0    0  501 -0.00000000000E+00  0.00000000000E+00  0.25255848472E+03  0.25255848472E+03  0.00000000000E+00 0.  1.
          1   -1    0    0  501    0  0.00000000000E+00 -0.00000000000E+00 -0.48038158375E+02  0.48038158375E+02  0.00000000000E+00 0. -1.
         23    2    1    2    0    0  0.10678859292E+02  0.62158124462E+02  0.10450403780E+03  0.15125341082E+03  0.89324296216E+02 0.  0.
         23    2    1    2    0    0 -0.10678859292E+02 -0.62158124462E+02  0.10001628855E+03  0.14934323228E+03  0.91227586733E+02 0.  0.
          5    1    4    4  502    0  0.40040052720E+02 -0.22132595363E+02  0.37921840946E+02  0.59608838439E+02  0.47000000000E+01 0. -1.
         -5    1    3    3    0  503  0.31170259139E+02  0.14897936300E+02  0.24298317158E+00  0.34866640240E+02  0.47000000000E+01 0.  1.
          5    1    3    3  503    0 -0.20491399847E+02  0.47260188162E+02  0.10426105463E+03  0.11638677057E+03  0.47000000000E+01 0. -1.
         -5    1    4    4    0  502 -0.50718912012E+02 -0.40025529099E+02  0.62094447600E+02  0.89734393842E+02  0.47000000000E+01 0.  1.
<mgrwt>
<rscale>  0 0.11051388E+03</rscale>
<asrwt>0</asrwt>
<pdfrwt beam="1">  1        1 0.73904860E-02 0.11090601E+03</pdfrwt>
<pdfrwt beam="2">  1       -1 0.38855151E-01 0.11090601E+03</pdfrwt>
<totfact> 0.59003005E+03</totfact>
</mgrwt>
</event>
<event>
 8    1  0.3466492E-004  0.1365361E+03  0.7546771E-02  0.1224938E+00
          1   -1    0    0  501    0  0.00000000000E+00  0.00000000000E+00  0.66577444594E+02  0.66577444594E+02  0.00000000000E+00 0. -1.
         -1   -1    0    0    0  501 -0.00000000000E+00 -0.00000000000E+00 -0.27158581848E+03  0.27158581848E+03  0.00000000000E+00 0.  1.
         23    2    1    2    0    0  0.48321326751E+02 -0.32831730295E+02 -0.16313191919E+03  0.21273018247E+03  0.12340678402E+03 0.  0.
         23    2    1    2    0    0 -0.48321326751E+02  0.32831730295E+02 -0.41876454688E+02  0.12543308060E+03  0.10279565709E+03 0.  0.
          5    1    4    4  502    0  0.69603939807E+01  0.48756833219E+02  0.67833461078E+01  0.49937757802E+02  0.47000000000E+01 0. -1.
         -5    1    3    3    0  503  0.84602912359E+02 -0.31401896722E+02 -0.14736936631E+03  0.17286859756E+03  0.47000000000E+01 0.  1.
          5    1    3    3  503    0 -0.36281585607E+02 -0.14298335731E+01 -0.15762552889E+02  0.39861584913E+02  0.47000000000E+01 0.  1.
         -5    1    4    4    0  502 -0.55281720732E+02 -0.15925102923E+02 -0.48659800796E+02  0.75495322794E+02  0.47000000000E+01 0.  1.
<mgrwt>
<rscale>  0 0.13171139E+03</rscale>
<asrwt>0</asrwt>
<pdfrwt beam="1">  1        1 0.10242684E-01 0.13653610E+03</pdfrwt>
<pdfrwt beam="2">  1       -1 0.41782433E-01 0.13653610E+03</pdfrwt>
<totfact> 0.34110892E+03</totfact>
</mgrwt>
</event>
<event>
 7    1  0.3466492E-004  0.5492897E+03  0.7546771E-02  0.1001658E+00
          2   -1    0    0  501    0  0.00000000000E+00  0.00000000000E+00  0.98864519765E+03  0.98864519765E+03  0.00000000000E+00 0. -1.
         -2   -1    0    0    0  501 -0.00000000000E+00 -0.00000000000E+00 -0.76296112913E+02  0.76296112913E+02  0.00000000000E+00 0.  1.
         23    2    1    2    0    0 -0.15605705100E+03 -0.68722532347E+02  0.33820201588E+03  0.38954289399E+03  0.91030066981E+02 0.  0.
          5    1    1    2  502    0  0.14094629955E+03  0.18815561146E+03  0.38627761384E+03  0.45221773344E+03  0.47000000000E+01 0. -1.
         -5    1    3    3    0  503 -0.10095861703E+03 -0.24650483408E+02  0.27746684127E+03  0.29632790400E+03  0.47000000000E+01 0.  1.
          5    1    3    3  503    0 -0.55098433973E+02 -0.44072048940E+02  0.60735174604E+02  0.93214989986E+02  0.47000000000E+01 0. -1.
         -5    1    1    2    0  502  0.15110751453E+02 -0.11943307911E+03  0.18786945502E+03  0.22318068314E+03  0.47000000000E+01 0.  1.
<mgrwt>
<rscale>  0 0.54928967E+03</rscale>
<asrwt>0</asrwt>
<pdfrwt beam="1">  1        2 0.15209925E+00 0.54928967E+03</pdfrwt>
<pdfrwt beam="2">  1       -2 0.11737864E-01 0.54928967E+03</pdfrwt>
<totfact> 0.13622217E+03</totfact>
</mgrwt>
</event>
<event>
 8    1  0.3466492E-004  0.9786608E+02  0.7546771E-02  0.1284864E+00
         -1   -1    0    0    0  501 -0.00000000000E+00  0.00000000000E+00  0.17761463001E+02  0.17761463001E+02  0.00000000000E+00 0.  1.
          1   -1    0    0  501    0  0.00000000000E+00 -0.00000000000E+00 -0.55229047268E+03  0.55229047268E+03  0.00000000000E+00 0. -1.
         23    2    1    2    0    0  0.10625036347E+02  0.28233263050E+02 -0.22322733068E+03  0.24373799515E+03  0.93100808684E+02 0.  0.
         23    2    1    2    0    0 -0.10625036347E+02 -0.28233263050E+02 -0.31130167900E+03  0.32631394053E+03  0.93070102057E+02 0.  0.
          5    1    4    4  502    0  0.19602797145E+02 -0.48041495239E+02 -0.10968089551E+03  0.12142587764E+03  0.47000000000E+01 0. -1.
         -5    1    3    3    0  503  0.49759768611E+01  0.55267303331E+02 -0.19917630470E+03  0.20681519653E+03  0.47000000000E+01 0.  1.
          5    1    3    3  503    0  0.56490594864E+01 -0.27034040281E+02 -0.24051025979E+02  0.36922798616E+02  0.47000000000E+01 0. -1.
         -5    1    4    4    0  502 -0.30227833493E+02  0.19808232189E+02 -0.20162078349E+03  0.20488806289E+03  0.47000000000E+01 0.  1.
<mgrwt>
<rscale>  0 0.97858774E+02</rscale>
<asrwt>0</asrwt>
<pdfrwt beam="1">  1        1 0.84967766E-01 0.97866077E+02</pdfrwt>
<pdfrwt beam="2">  1       -1 0.27325327E-02 0.97866077E+02</pdfrwt>
<totfact> 0.15719425E+04</totfact>
</mgrwt>
</event>
<event>
 8    1  0.3466492E-004  0.1208568E+03  0.7546771E-02  0.1244137E+00
          1   -1    0    0  501    0  0.00000000000E+00  0.00000000000E+00  0.56920063734E+03  0.56920063734E+03  0.00000000000E+00 0. -1.
         -1   -1    0    0    0  501 -0.00000000000E+00 -0.00000000000E+00 -0.31562713207E+02  0.31562713207E+02  0.00000000000E+00 0.  1.
         23    2    1    2    0    0  0.91742298872E+01 -0.72659974352E+02  0.13128267826E+03  0.17844191861E+03  0.96139161329E+02 0.  0.
         23    2    1    2    0    0 -0.91742298872E+01  0.72659974352E+02  0.40635524587E+03  0.42232143193E+03  0.88697055496E+02 0.  0.
          5    1    4    4  502    0  0.35658842393E+02  0.16734287185E+02  0.98308908195E+02  0.10601094679E+03  0.47000000000E+01 0. -1.
         -5    1    3    3    0  503 -0.31491262340E+02 -0.41745372529E+02  0.20506540985E+02  0.56364740348E+02  0.47000000000E+01 0.  1.
          5    1    3    3  503    0  0.40665492228E+02 -0.30914601823E+02  0.11077613727E+03  0.12207717827E+03  0.47000000000E+01 0. -1.
         -5    1    4    4    0  502 -0.44833072280E+02  0.55925687167E+02  0.30804633768E+03  0.31631048514E+03  0.47000000000E+01 0.  1.
<mgrwt>
<rscale>  0 0.11937179E+03</rscale>
<asrwt>0</asrwt>
<pdfrwt beam="1">  1        1 0.87569321E-01 0.12085684E+03</pdfrwt>
<pdfrwt beam="2">  1       -1 0.48558025E-02 0.12085684E+03</pdfrwt>
<totfact> 0.66442233E+03</totfact>
</mgrwt>
</event>
<event>
 8    1  0.3466492E-004  0.1450316E+03  0.7546771E-02  0.1206949E+00
          1   -1    0    0  501    0  0.00000000000E+00  0.00000000000E+00  0.50084240532E+02  0.50084240532E+02  0.00000000000E+00 0. -1.
         -1   -1    0    0    0  501 -0.00000000000E+00 -0.00000000000E+00 -0.48169572198E+03  0.48169572198E+03  0.00000000000E+00 0.  1.
         23    2    1    2    0    0  0.57496334895E+02  0.96427998670E+02 -0.11949050173E+03  0.18791525712E+03  0.91814902937E+02 0.  0.
         23    2    1    2    0    0 -0.57496334895E+02 -0.96427998670E+02 -0.31212097971E+03  0.34386470539E+03  0.90660036283E+02 0.  0.
          5    1    3    3  502    0  0.20354923970E+02 -0.15619811228E+02 -0.29702021758E+02  0.39529754985E+02  0.47000000000E+01 0. -1.
         -5    1    4    4    0  503 -0.33656933610E+02 -0.18162536215E+02 -0.20709535030E+03  0.21064956923E+03  0.47000000000E+01 0.  1.
          5    1    4    4  503    0 -0.23839401285E+02 -0.78265462456E+02 -0.10502562942E+03  0.13321513616E+03  0.47000000000E+01 0. -1.
         -5    1    3    3    0  502  0.37141410925E+02  0.11204780990E+03 -0.89788479970E+02  0.14838550214E+03  0.47000000000E+01 0.  1.
<mgrwt>
<rscale>  0 0.14484917E+03</rscale>
<asrwt>0</asrwt>
<pdfrwt beam="1">  1        1 0.77052677E-02 0.14503160E+03</pdfrwt>
<pdfrwt beam="2">  1       -1 0.74107035E-01 0.14503160E+03</pdfrwt>
<totfact> 0.17087984E+03</totfact>
</mgrwt>
</event>
<event>
 8    1  0.3466492E-004  0.1016615E+03  0.7546771E-02  0.1277698E+00
          2   -1    0    0  501    0  0.00000000000E+00  0.00000000000E+00  0.24530394554E+02  0.24530394554E+02  0.00000000000E+00 0. -1.
         -2   -1    0    0    0  501 -0.00000000000E+00 -0.00000000000E+00 -0.41560460909E+03  0.41560460909E+03  0.00000000000E+00 0.  1.
         23    2    1    2    0    0  0.41056714004E+02  0.21138108197E+02 -0.18575771406E+03  0.21175690354E+03  0.90568120649E+02 0.  0.
         23    2    1    2    0    0 -0.41056714004E+02 -0.21138108197E+02 -0.20531650047E+03  0.22837810011E+03  0.88708612093E+02 0.  0.
          5    1    3    3  502    0  0.41381090177E+02 -0.24839539341E+02 -0.56345686385E+02  0.74339247461E+02  0.47000000000E+01 0. -1.
         -5    1    3    3    0  502 -0.32437617273E+00  0.45977647538E+02 -0.12941202768E+03  0.13741765607E+03  0.47000000000E+01 0.  1.
          5    1    4    4  503    0 -0.67338542645E+02 -0.26929156742E+02 -0.14755575109E+03  0.16448236528E+03  0.47000000000E+01 0. -1.
         -5    1    4    4    0  503  0.26281828640E+02  0.57910485450E+01 -0.57760749386E+02  0.63895734830E+02  0.47000000000E+01 0.  1.
<mgrwt>
<rscale>  0 0.10124568E+03</rscale>
<asrwt>0</asrwt>
<pdfrwt beam="1">  1        2 0.37739070E-02 0.10166149E+03</pdfrwt>
<pdfrwt beam="2">  1       -2 0.63939169E-01 0.10166149E+03</pdfrwt>
<totfact> 0.49012179E+03</totfact>
</mgrwt>
</event>
<event>
 8    1  0.3466492E-004  0.1062826E+03  0.7546771E-02  0.1268151E+00
          2   -1    0    0  501    0  0.00000000000E+00  0.00000000000E+00  0.44050186424E+03  0.44050186424E+03  0.00000000000E+00 0. -1.
         -2   -1    0    0    0  501 -0.00000000000E+00 -0.00000000000E+00 -0.62349230571E+02  0.62349230571E+02  0.00000000000E+00 0.  1.
         23    2    1    2    0    0  0.43695183502E+02  0.31851501475E+02 -0.49341925387E+01  0.10529418270E+03  0.90214918096E+02 0.  0.
         23    2    1    2    0    0 -0.43695183502E+02 -0.31851501475E+02  0.38308682620E+03  0.39755691211E+03  0.91499698058E+02 0.  0.
          5    1    4    4  502    0 -0.71048939962E+02 -0.25953688321E+02  0.23991725453E+03  0.25160271228E+03  0.47000000000E+01 0. -1.
         -5    1    4    4    0  502  0.27353756460E+02 -0.58978131534E+01  0.14316957168E+03  0.14595419982E+03  0.47000000000E+01 0.  1.
          5    1    3    3  503    0  0.35564999944E+02  0.60085383871E+02  0.12085107354E+02  0.71015930577E+02  0.47000000000E+01 0. -1.
         -5    1    3    3    0  503  0.81301835581E+01 -0.28233882396E+02 -0.17019299893E+02  0.34278252124E+02  0.47000000000E+01 0.  1.
<mgrwt>
<rscale>  0 0.10600546E+03</rscale>
<asrwt>0</asrwt>
<pdfrwt beam="1">  1        2 0.67769516E-01 0.10628256E+03</pdfrwt>
<pdfrwt beam="2">  1       -2 0.95921896E-02 0.10628256E+03</pdfrwt>
<totfact> 0.48354618E+03</totfact>
</mgrwt>
</event>
<event>
 8    1  0.3466492E-004  0.1301054E+03  0.7546771E-02  0.1227465E+00
         -2   -1    0    0    0  501 -0.00000000000E+00  0.00000000000E+00  0.11991210450E+03  0.11991210450E+03  0.00000000000E+00 0.  1.
          2   -1    0    0  501    0  0.00000000000E+00 -0.00000000000E+00 -0.14583709340E+03  0.14583709340E+03  0.00000000000E+00 0. -1.
         23    2    1    2    0    0  0.76532044926E+02 -0.52051794228E+02  0.12043177003E+02  0.13021690467E+03  0.90801216772E+02 0.  0.
         23    2    1    2    0    0 -0.76532044926E+02  0.52051794228E+02 -0.37968165905E+02  0.13553229323E+03  0.91437835183E+02 0.  0.
          5    1    3    3  502    0  0.85243240504E+02 -0.28759459740E+02  0.34416588932E+02  0.96437068443E+02  0.47000000000E+01 0. -1.
         -5    1    4    4    0  503 -0.35731927019E+02  0.63215477327E+01  0.27470013429E+02  0.45753952967E+02  0.47000000000E+01 0.  1.
          5    1    4    4  503    0 -0.40800117907E+02  0.45730246495E+02 -0.65438179335E+02  0.89778340263E+02  0.47000000000E+01 0. -1.
         -5    1    3    3    0  502 -0.87111955780E+01 -0.23292334488E+02 -0.22373411930E+02  0.33779836229E+02  0.47000000000E+01 0.  1.
<mgrwt>
<rscale>  0 0.12999362E+03</rscale>
<asrwt>0</asrwt>
<pdfrwt beam="1">  1        2 0.22436476E-01 0.13010542E+03</pdfrwt>
<pdfrwt beam="2">  1       -2 0.18448016E-01 0.13010542E+03</pdfrwt>
<totfact> 0.55785234E+03</totfact>
</mgrwt>
</event>
<event>
 8    1  0.3466492E-004  0.1742236E+03  0.7546771E-02  0.1173747E+00
         -1   -1    0    0    0  501 -0.00000000000E+00  0.00000000000E+00  0.22650345395E+03  0.22650345395E+03  0.00000000000E+00 0.  1.
          1   -1    0    0  501    0  0.00000000000E+00 -0.00000000000E+00 -0.13351635608E+03  0.13351635608E+03  0.00000000000E+00 0. -1.
         23    2    1    2    0    0 -0.58744311369E+02 -0.13648227163E+03  0.39402901729E+02  0.17862379567E+03  0.90970144161E+02 0.  0.
         23    2    1    2    0    0  0.58744311369E+02  0.13648227163E+03  0.53584196142E+02  0.18139601436E+03  0.89190489197E+02 0.  0.
          5    1    4    4  502    0 -0.14635027317E+01  0.98876872051E+02  0.14005045137E+02  0.99985043662E+02  0.47000000000E+01 0. -1.
         -5    1    3    3    0  503 -0.33295284761E+02 -0.12004672623E+03  0.63240049671E+02  0.13978979344E+03  0.47000000000E+01 0.  1.
          5    1    3    3  503    0 -0.25449026608E+02 -0.16435545399E+02 -0.23837147942E+02  0.38834002239E+02  0.47000000000E+01 0. -1.
         -5    1    4    4    0  502  0.60207814101E+02  0.37605399579E+02  0.39579151005E+02  0.81410970702E+02  0.47000000000E+01 0.  1.
<mgrwt>
<rscale>  0 0.17399252E+03</rscale>
<asrwt>0</asrwt>
<pdfrwt beam="1">  1        1 0.20540978E-01 0.17422363E+03</pdfrwt>
<pdfrwt beam="2">  1       -1 0.34846685E-01 0.17422363E+03</pdfrwt>
<totfact> 0.19132630E+03</totfact>
</mgrwt>
</event>
<event>
 8    1  0.3466492E-004  0.9742305E+02  0.7546771E-02  0.1286227E+00
         -1   -1    0    0    0  501 -0.00000000000E+00  0.00000000000E+00  0.16285314702E+03  0.16285314702E+03  0.00000000000E+00 0.  1.
          1   -1    0    0  501    0  0.00000000000E+00 -0.00000000000E+00 -0.66457869561E+02  0.66457869561E+02  0.00000000000E+00 0. -1.
         23    2    1    2    0    0  0.22162593363E+02  0.22111920065E+02  0.67125074387E+01  0.96894061735E+02  0.91450991738E+02 0.  0.
         23    2    1    2    0    0 -0.22162593363E+02 -0.22111920065E+02  0.89682770016E+02  0.13241695484E+03  0.92255802736E+02 0.  0.
          5    1    3    3  502    0  0.33346752700E+02  0.49883230540E+02  0.20523858548E+02  0.63589789860E+02  0.47000000000E+01 0. -1.
         -5    1    4    4    0  503 -0.51511368293E+02 -0.24043799719E+02  0.84852095151E+02  0.10224232695E+03  0.47000000000E+01 0.  1.
          5    1    4    4  503    0  0.29348774930E+02  0.19318796546E+01  0.48306748655E+01  0.30174627894E+02  0.47000000000E+01 0. -1.
         -5    1    3    3    0  502 -0.11184159337E+02 -0.27771310475E+02 -0.13811351110E+02  0.33304271874E+02  0.47000000000E+01 0.  1.
<mgrwt>
<rscale>  0 0.97232045E+02</rscale>
<asrwt>0</asrwt>
<pdfrwt beam="1">  1        1 0.10224288E-01 0.97423050E+02</pdfrwt>
<pdfrwt beam="2">  1       -1 0.25054330E-01 0.97423050E+02</pdfrwt>
<totfact> 0.79306873E+03</totfact>
</mgrwt>
</event>
<event>
 8    1  0.3466492E-004  0.9363612E+02  0.7546771E-02  0.1299483E+00
          4   -1    0    0  501    0  0.00000000000E+00  0.00000000000E+00  0.50314251641E+03  0.50314251641E+03  0.00000000000E+00 0. -1.
         -4   -1    0    0    0  501 -0.00000000000E+00 -0.00000000000E+00 -0.20486427345E+02  0.20486427345E+02  0.00000000000E+00 0.  1.
         23    2    1    2    0    0  0.22676631831E+02 -0.20722498542E+01  0.10802922634E+03  0.13747740698E+03  0.81921913034E+02 0.  0.
         23    2    1    2    0    0 -0.22676631831E+02  0.20722498542E+01  0.37462686272E+03  0.38615153677E+03  0.90825102422E+02 0.  0.
          5    1    4    4  502    0 -0.47960891341E+02 -0.26014132820E+02  0.19576857450E+03  0.20328405487E+03  0.47000000000E+01 0. -1.
         -5    1    3    3    0  503  0.42063277263E+02 -0.19482852543E+02  0.30846268002E+02  0.55879182948E+02  0.47000000000E+01 0.  1.
          5    1    3    3  503    0 -0.19386645432E+02  0.17410602688E+02  0.77182958340E+02  0.81598224032E+02  0.47000000000E+01 0. -1.
         -5    1    4    4    0  502  0.25284259510E+02  0.28086382675E+02  0.17885828822E+03  0.18286748190E+03  0.47000000000E+01 0.  1.
<mgrwt>
<rscale>  0 0.91405593E+02</rscale>
<asrwt>0</asrwt>
<pdfrwt beam="1">  1        4 0.77406532E-01 0.93636121E+02</pdfrwt>
<pdfrwt beam="2">  1       -4 0.31517584E-02 0.93636121E+02</pdfrwt>
<totfact> 0.11577691E+03</totfact>
</mgrwt>
</event>
<event>
 8    1  0.3466492E-004  0.9436803E+02  0.7546771E-02  0.1293805E+00
          1   -1    0    0  501    0  0.00000000000E+00  0.00000000000E+00  0.36963520619E+02  0.36963520619E+02  0.00000000000E+00 0. -1.
         -1   -1    0    0    0  501 -0.00000000000E+00 -0.00000000000E+00 -0.25651318137E+03  0.25651318137E+03  0.00000000000E+00 0.  1.
         23    2    1    2    0    0 -0.17055829651E+02  0.24371245481E+01 -0.15051851876E+03  0.17655526319E+03  0.90659227708E+02 0.  0.
         23    2    1    2    0    0  0.17055829651E+02 -0.24371245481E+01 -0.69031141985E+02  0.11692143879E+03  0.92781913027E+02 0.  0.
          5    1    4    4  502    0 -0.30683891835E+02  0.95310114732E+01 -0.57353879343E+00  0.32477074138E+02  0.47000000000E+01 0. -1.
         -5    1    3    3    0  503  0.12135891123E+02  0.36957050146E+02 -0.35462044928E+02  0.52846476129E+02  0.47000000000E+01 0.  1.
          5    1    3    3  503    0 -0.29191720774E+02 -0.34519925597E+02 -0.11505647383E+03  0.12370878706E+03  0.47000000000E+01 0. -1.
         -5    1    4    4    0  502  0.47739721486E+02 -0.11968136021E+02 -0.68457603192E+02  0.84444364656E+02  0.47000000000E+01 0.  1.
<mgrwt>
<rscale>  0 0.93842097E+02</rscale>
<asrwt>0</asrwt>
<pdfrwt beam="1">  1        1 0.56866955E-02 0.94368026E+02</pdfrwt>
<pdfrwt beam="2">  1       -1 0.39463566E-01 0.94368026E+02</pdfrwt>
<totfact> 0.80539329E+03</totfact>
</mgrwt>
</event>
<event>
 8    1  0.3466492E-004  0.1706762E+03  0.7546771E-02  0.1177456E+00
          1   -1    0    0  501    0  0.00000000000E+00  0.00000000000E+00  0.54927125568E+03  0.54927125568E+03  0.00000000000E+00 0. -1.
         -1   -1    0    0    0  501 -0.00000000000E+00 -0.00000000000E+00 -0.52920611661E+02  0.52920611661E+02  0.00000000000E+00 0.  1.
         23    2    1    2    0    0  0.14330654593E+03  0.82044883411E+01  0.27001870582E+03  0.31943775019E+03  0.92337939212E+02 0.  0.
         23    2    1    2    0    0 -0.14330654593E+03 -0.82044883411E+01  0.22633193820E+03  0.28275411715E+03  0.90109182557E+02 0.  0.
          5    1    3    3  502    0  0.53928511844E+02  0.30635263532E+02  0.18035032422E+03  0.19077508540E+03  0.47000000000E+01 0. -1.
         -5    1    4    4    0  503 -0.24977724765E+02 -0.33960984441E+00 -0.19196672506E+01  0.25490727562E+02  0.47000000000E+01 0.  1.
          5    1    4    4  503    0 -0.11832882117E+03 -0.78648784966E+01  0.22825160545E+03  0.25726338959E+03  0.47000000000E+01 0. -1.
         -5    1    3    3    0  502  0.89378034086E+02 -0.22430775191E+02  0.89668381594E+02  0.12866266479E+03  0.47000000000E+01 0.  1.
<mgrwt>
<rscale>  0 0.17037658E+03</rscale>
<asrwt>0</asrwt>
<pdfrwt beam="1">  1        1 0.84503266E-01 0.17067623E+03</pdfrwt>
<pdfrwt beam="2">  1       -1 0.81416330E-02 0.17067623E+03</pdfrwt>
<totfact> 0.32716290E+03</totfact>
</mgrwt>
</event>
<event>
 8    1  0.3466492E-004  0.9132861E+02  0.7546771E-02  0.1300623E+00
          2   -1    0    0  501    0  0.00000000000E+00  0.00000000000E+00  0.24395618891E+03  0.24395618891E+03  0.00000000000E+00 0. -1.
         -2   -1    0    0    0  501 -0.00000000000E+00 -0.00000000000E+00 -0.34822703704E+02  0.34822703704E+02  0.00000000000E+00 0.  1.
         23    2    1    2    0    0 -0.79351928410E+01 -0.11839988882E+02  0.12984716027E+03  0.15783578320E+03  0.88592871072E+02 0.  0.
         23    2    1    2    0    0  0.79351928410E+01  0.11839988882E+02  0.79286324930E+02  0.12094310941E+03  0.90209543682E+02 0.  0.
          5    1    3    3  502    0  0.21789106224E+02  0.26103059928E+02  0.85647110965E+02  0.92269455966E+02  0.47000000000E+01 0. -1.
         -5    1    3    3    0  502 -0.29724299065E+02 -0.37943048810E+02  0.44200049308E+02  0.65566327233E+02  0.47000000000E+01 0.  1.
          5    1    4    4  503    0  0.35983658060E+02 -0.24399717365E+02  0.49674321603E+02  0.66180042925E+02  0.47000000000E+01 0. -1.
         -5    1    4    4    0  503 -0.28048465219E+02  0.36239706247E+02  0.29612003327E+02  0.54763066487E+02  0.47000000000E+01 0.  1.
<mgrwt>
<rscale>  0 0.90926836E+02</rscale>
<asrwt>0</asrwt>
<pdfrwt beam="1">  1        2 0.37531720E-01 0.91328607E+02</pdfrwt>
<pdfrwt beam="2">  1       -2 0.53573392E-02 0.91328607E+02</pdfrwt>
<totfact> 0.21569575E+04</totfact>
</mgrwt>
</event>
<event>
 8    1  0.3466492E-004  0.9504579E+02  0.7546771E-02  0.1295346E+00
         -1   -1    0    0    0  501 -0.00000000000E+00  0.00000000000E+00  0.13580822517E+02  0.13580822517E+02  0.00000000000E+00 0.  1.
          1   -1    0    0  501    0  0.00000000000E+00 -0.00000000000E+00 -0.61579207890E+03  0.61579207890E+03  0.00000000000E+00 0. -1.
         23    2    1    2    0    0  0.55222140374E+01  0.17157448629E+02 -0.29855542149E+03  0.31118967053E+03  0.85899932783E+02 0.  0.
         23    2    1    2    0    0 -0.55222140374E+01 -0.17157448629E+02 -0.30365583489E+03  0.31818323089E+03  0.93321109414E+02 0.  0.
          5    1    3    3  502    0 -0.20446911441E+02 -0.20672725562E+02 -0.20252843886E+03  0.20465897565E+03  0.47000000000E+01 0. -1.
         -5    1    4    4    0  503  0.47876156612E+01  0.37712490175E+02 -0.10461268505E+03  0.11140492382E+03  0.47000000000E+01 0.  1.
          5    1    4    4  503    0 -0.10309829699E+02 -0.54869938803E+02 -0.19904314984E+03  0.20677830706E+03  0.47000000000E+01 0. -1.
         -5    1    3    3    0  502  0.25969125478E+02  0.37830174190E+02 -0.96026982638E+02  0.10653069488E+03  0.47000000000E+01 0.  1.
<mgrwt>
<rscale>  0 0.93172315E+02</rscale>
<asrwt>0</asrwt>
<pdfrwt beam="1">  1        1 0.94737219E-01 0.95045791E+02</pdfrwt>
<pdfrwt beam="2">  1       -1 0.20893578E-02 0.95045791E+02</pdfrwt>
<totfact> 0.19927915E+04</totfact>
</mgrwt>
</event>
<event>
 8    1  0.3466492E-004  0.1025276E+03  0.7546771E-02  0.1275454E+00
          2   -1    0    0  501    0  0.00000000000E+00  0.00000000000E+00  0.33284932336E+03  0.33284932336E+03  0.00000000000E+00 0. -1.
         -2   -1    0    0    0  501 -0.00000000000E+00 -0.00000000000E+00 -0.81225268480E+02  0.81225268480E+02  0.00000000000E+00 0.  1.
         23    2    1    2    0    0 -0.21880043071E+02  0.39037235765E+02 -0.36244030255E+02  0.10874533849E+03  0.92245741659E+02 0.  0.
         23    2    1    2    0    0  0.21880043071E+02 -0.39037235765E+02  0.28786808513E+03  0.30532925334E+03  0.91407201291E+02 0.  0.
          5    1    3    3  502    0  0.21542815649E+02 -0.19116148476E+02 -0.50805906440E+01  0.29621317322E+02  0.47000000000E+01 0. -1.
         -5    1    3    3    0  502 -0.43422858720E+02  0.58153384240E+02 -0.31163439611E+02  0.79124021172E+02  0.47000000000E+01 0.  1.
          5    1    4    4  503    0 -0.16433408379E+02 -0.24073982417E+02  0.24097230098E+03  0.24277428485E+03  0.47000000000E+01 0. -1.
         -5    1    4    4    0  503  0.38313451451E+02 -0.14963253348E+02  0.46895784147E+02  0.62554968496E+02  0.47000000000E+01 0.  1.
<mgrwt>
<rscale>  0 0.10233868E+03</rscale>
<asrwt>0</asrwt>
<pdfrwt beam="1">  1        2 0.51207587E-01 0.10252765E+03</pdfrwt>
<pdfrwt beam="2">  1       -2 0.12496195E-01 0.10252765E+03</pdfrwt>
<totfact> 0.42801022E+03</totfact>
</mgrwt>
</event>
<event>
 8    1  0.3466492E-004  0.1041731E+03  0.7546771E-02  0.1272762E+00
          1   -1    0    0  501    0  0.00000000000E+00  0.00000000000E+00  0.39508993709E+03  0.39508993709E+03  0.00000000000E+00 0. -1.
         -1   -1    0    0    0  501 -0.00000000000E+00 -0.00000000000E+00 -0.27738323711E+02  0.27738323711E+02  0.00000000000E+00 0.  1.
         23    2    1    2    0    0 -0.42217092651E+02 -0.20209156505E+02  0.22119991215E+03  0.24450243329E+03  0.93066351763E+02 0.  0.
         23    2    1    2    0    0  0.42217092651E+02  0.20209156505E+02  0.14615170123E+03  0.17832582751E+03  0.90824490461E+02 0.  0.
          5    1    4    4  502    0  0.15318248370E+02  0.38970251287E+02  0.13788551879E+03  0.14417987207E+03  0.47000000000E+01 0. -1.
         -5    1    3    3    0  503 -0.63976560515E+02 -0.32452140954E+02  0.11760286526E+03  0.13783564730E+03  0.47000000000E+01 0.  1.
          5    1    3    3  503    0  0.21759467865E+02  0.12242984449E+02  0.10359704689E+03  0.10666678599E+03  0.47000000000E+01 0. -1.
         -5    1    4    4    0  502  0.26898844281E+02 -0.18761094782E+02  0.82661824422E+01  0.34145955444E+02  0.47000000000E+01 0.  1.
<mgrwt>
<rscale>  0 0.10367002E+03</rscale>
<asrwt>0</asrwt>
<pdfrwt beam="1">  1        1 0.60783063E-01 0.10417312E+03</pdfrwt>
<pdfrwt beam="2">  1       -1 0.42674347E-02 0.10417312E+03</pdfrwt>
<totfact> 0.12701406E+04</totfact>
</mgrwt>
</event>
<event>
 8    1  0.3466492E-004  0.1037866E+03  0.7546771E-02  0.1276641E+00
         -2   -1    0    0    0  501 -0.00000000000E+00  0.00000000000E+00  0.32414090909E+03  0.32414090909E+03  0.00000000000E+00 0.  1.
          2   -1    0    0  501    0  0.00000000000E+00 -0.00000000000E+00 -0.31036470943E+02  0.31036470943E+02  0.00000000000E+00 0. -1.
         23    2    1    2    0    0 -0.30653569525E+02  0.30514321009E+02  0.15767048196E+03  0.18454908614E+03  0.85601514028E+02 0.  0.
         23    2    1    2    0    0  0.30653569525E+02 -0.30514321009E+02  0.13543395619E+03  0.17062829389E+03  0.94344544496E+02 0.  0.
          5    1    3    3  502    0  0.26292082062E+02  0.24887681465E+02  0.43774752728E+02  0.56999905651E+02  0.47000000000E+01 0. -1.
         -5    1    3    3    0  502 -0.56945651586E+02  0.56266395435E+01  0.11389572923E+03  0.12754918049E+03  0.47000000000E+01 0.  1.
          5    1    4    4  503    0  0.50116957442E+02 -0.37960193304E+02  0.44374292644E+02  0.77096391268E+02  0.47000000000E+01 0. -1.
         -5    1    4    4    0  503 -0.19463387917E+02  0.74458722956E+01  0.91059663548E+02  0.93531902626E+02  0.47000000000E+01 0.  1.
<mgrwt>
<rscale>  0 0.10175831E+03</rscale>
<asrwt>0</asrwt>
<pdfrwt beam="1">  1        2 0.47748419E-02 0.10378660E+03</pdfrwt>
<pdfrwt beam="2">  1       -2 0.49867830E-01 0.10378660E+03</pdfrwt>
<totfact> 0.59597792E+03</totfact>
</mgrwt>
</event>
<event>
 8    1  0.3466492E-004  0.9698678E+02  0.7546771E-02  0.1289028E+00
          2   -1    0    0  501    0  0.00000000000E+00  0.00000000000E+00  0.25582942932E+03  0.25582942932E+03  0.00000000000E+00 0. -1.
         -2   -1    0    0    0  501 -0.00000000000E+00 -0.00000000000E+00 -0.50305317731E+02  0.50305317731E+02  0.00000000000E+00 0.  1.
         23    2    1    2    0    0  0.28194391334E+02  0.20103459712E+02  0.20576471658E+02  0.99145484292E+02  0.90594498037E+02 0.  0.
         23    2    1    2    0    0 -0.28194391334E+02 -0.20103459712E+02  0.18494763993E+03  0.20698926276E+03  0.86254580088E+02 0.  0.
          5    1    4    4  502    0 -0.57611030800E+02 -0.21520079054E+02  0.14074601227E+03  0.15366741568E+03  0.47000000000E+01 0. -1.
         -5    1    4    4    0  502  0.29416639466E+02  0.14166193428E+01  0.44201627661E+02  0.53321847077E+02  0.47000000000E+01 0.  1.
          5    1    3    3  503    0  0.25402461680E+02 -0.28673411961E+02  0.30351366961E+02  0.49099338991E+02  0.47000000000E+01 0. -1.
         -5    1    3    3    0  503  0.27919296538E+01  0.48776871672E+02 -0.97748953036E+01  0.50046145301E+02  0.47000000000E+01 0.  1.
<mgrwt>
<rscale>  0 0.95960362E+02</rscale>
<asrwt>0</asrwt>
<pdfrwt beam="1">  1        2 0.39358373E-01 0.96986782E+02</pdfrwt>
<pdfrwt beam="2">  1       -2 0.77392798E-02 0.96986782E+02</pdfrwt>
<totfact> 0.11849091E+04</totfact>
</mgrwt>
</event>
<event>
 8    1  0.3466492E-004  0.9888772E+02  0.7546771E-02  0.1283012E+00
         -2   -1    0    0    0  501 -0.00000000000E+00  0.00000000000E+00  0.22896940748E+03  0.22896940748E+03  0.00000000000E+00 0.  1.
          2   -1    0    0  501    0  0.00000000000E+00 -0.00000000000E+00 -0.10915771144E+03  0.10915771144E+03  0.00000000000E+00 0. -1.
         23    2    1    2    0    0 -0.75257738804E+01 -0.36002763474E+02 -0.72367778857E+02  0.12199814742E+03  0.91069293989E+02 0.  0.
         23    2    1    2    0    0  0.75257738804E+01  0.36002763474E+02  0.19217947490E+03  0.21612897149E+03  0.91792949055E+02 0.  0.
          5    1    4    4  502    0 -0.24610065706E+02 -0.15764217616E+01  0.95395598085E+01  0.26855793433E+02  0.47000000000E+01 0. -1.
         -5    1    3    3    0  503  0.27031304573E+02 -0.41205494814E+02 -0.10226337133E+02  0.50549502480E+02  0.47000000000E+01 0.  1.
          5    1    3    3  503    0 -0.34557078454E+02  0.52027313397E+01 -0.62141441724E+02  0.71448644943E+02  0.47000000000E+01 0. -1.
         -5    1    4    4    0  502  0.32135839586E+02  0.37579185236E+02  0.18263991509E+03  0.18927317806E+03  0.47000000000E+01 0.  1.
<mgrwt>
<rscale>  0 0.98719452E+02</rscale>
<asrwt>0</asrwt>
<pdfrwt beam="1">  1        2 0.16793494E-01 0.98887723E+02</pdfrwt>
<pdfrwt beam="2">  1       -2 0.35226063E-01 0.98887723E+02</pdfrwt>
<totfact> 0.24550169E+03</totfact>
</mgrwt>
</event>
<event>
 8    1  0.3466492E-004  0.9342461E+02  0.7546771E-02  0.1295211E+00
         -1   -1    0    0    0  501 -0.00000000000E+00  0.00000000000E+00  0.14955074116E+02  0.14955074116E+02  0.00000000000E+00 0.  1.
          1   -1    0    0  501    0  0.00000000000E+00 -0.00000000000E+00 -0.66371085560E+03  0.66371085560E+03  0.00000000000E+00 0. -1.
         23    2    1    2    0    0  0.13789757489E+02  0.76162223842E+01 -0.20184382434E+03  0.22209342098E+03  0.91303855144E+02 0.  0.
         23    2    1    2    0    0 -0.13789757489E+02 -0.76162223842E+01 -0.44691195715E+03  0.45657250874E+03  0.92086883100E+02 0.  0.
          5    1    3    3  502    0  0.25429860916E+02 -0.34601582521E+02 -0.13744394272E+03  0.14407246347E+03  0.47000000000E+01 0. -1.
         -5    1    3    3    0  502 -0.11640103427E+02  0.42217804905E+02 -0.64399881620E+02  0.78020957514E+02  0.47000000000E+01 0.  1.
          5    1    4    4  503    0 -0.42093169124E+02 -0.21602128274E+02 -0.37360516111E+03  0.37661836551E+03  0.47000000000E+01 0. -1.
         -5    1    4    4    0  503  0.28303411635E+02  0.13985905890E+02 -0.73306796038E+02  0.79954143227E+02  0.47000000000E+01 0.  1.
<mgrwt>
<rscale>  0 0.93231082E+02</rscale>
<asrwt>0</asrwt>
<pdfrwt beam="1">  1        1 0.10210935E+00 0.93424613E+02</pdfrwt>
<pdfrwt beam="2">  1       -1 0.23007808E-02 0.93424613E+02</pdfrwt>
<totfact> 0.15644786E+04</totfact>
</mgrwt>
</event>
<event>
 8    1  0.3466492E-004  0.1228574E+03  0.7546771E-02  0.1242940E+00
         -2   -1    0    0    0  501 -0.00000000000E+00  0.00000000000E+00  0.96666945902E+01  0.96666945902E+01  0.00000000000E+00 0.  1.
          2   -1    0    0  501    0  0.00000000000E+00 -0.00000000000E+00 -0.14478758203E+04  0.14478758203E+04  0.00000000000E+00 0. -1.
         23    2    1    2    0    0 -0.53069266087E+02  0.33825977900E+02 -0.66744181270E+03  0.67865492940E+03  0.10551490930E+03 0.  0.
         23    2    1    2    0    0  0.53069266087E+02 -0.33825977900E+02 -0.77076731303E+03  0.77888758551E+03  0.92860520301E+02 0.  0.
          5    1    3    3  502    0 -0.99891171118E+01 -0.33706921563E+02 -0.32538545625E+03  0.32731288419E+03  0.47000000000E+01 0. -1.
         -5    1    4    4    0  503  0.30083939764E+02  0.28869403423E+02 -0.21097678838E+03  0.21510876579E+03  0.47000000000E+01 0.  1.
          5    1    4    4  503    0  0.22985326322E+02 -0.62695381323E+02 -0.55979052465E+03  0.56377881971E+03  0.47000000000E+01 0. -1.
         -5    1    3    3    0  502 -0.43080148975E+02  0.67532899463E+02 -0.34205635645E+03  0.35134204521E+03  0.47000000000E+01 0.  1.
<mgrwt>
<rscale>  0 0.12009548E+03</rscale>
<asrwt>0</asrwt>
<pdfrwt beam="1">  1        2 0.22275007E+00 0.12285740E+03</pdfrwt>
<pdfrwt beam="2">  1       -2 0.14871842E-02 0.12285740E+03</pdfrwt>
<totfact> 0.16704438E+04</totfact>
</mgrwt>
</event>
<event>
 8    1  0.3466492E-004  0.1044337E+03  0.7546771E-02  0.1271279E+00
          1   -1    0    0  501    0  0.00000000000E+00  0.00000000000E+00  0.42832221988E+02  0.42832221988E+02  0.00000000000E+00 0. -1.
         -1   -1    0    0    0  501 -0.00000000000E+00 -0.00000000000E+00 -0.31273957055E+03  0.31273957055E+03  0.00000000000E+00 0.  1.
         23    2    1    2    0    0  0.37213660347E+02  0.30958922751E+02 -0.21175740809E+03  0.23610928629E+03  0.92536931959E+02 0.  0.
         23    2    1    2    0    0 -0.37213660347E+02 -0.30958922751E+02 -0.58149940473E+02  0.11946250625E+03  0.92447625217E+02 0.  0.
          5    1    3    3  502    0  0.24939182496E+02 -0.21817068697E+02 -0.25503579053E+02  0.42076951584E+02  0.47000000000E+01 0. -1.
         -5    1    3    3    0  502  0.12274477851E+02  0.52775991449E+02 -0.18625382904E+03  0.19403233470E+03  0.47000000000E+01 0.  1.
          5    1    4    4  503    0 -0.54147071884E+02 -0.14541184972E+01 -0.29479017540E+01  0.54449976850E+02  0.47000000000E+01 0. -1.
         -5    1    4    4    0  503  0.16933411537E+02 -0.29504804254E+02 -0.55202038719E+02  0.65012529401E+02  0.47000000000E+01 0.  1.
<mgrwt>
<rscale>  0 0.10441390E+03</rscale>
<asrwt>0</asrwt>
<pdfrwt beam="1">  1        1 0.65895724E-02 0.10443369E+03</pdfrwt>
<pdfrwt beam="2">  1       -1 0.48113782E-01 0.10443369E+03</pdfrwt>
<totfact> 0.46955281E+03</totfact>
</mgrwt>
</event>
<event>
 8    1  0.3466492E-004  0.1039106E+03  0.7546771E-02  0.1273376E+00
          3   -1    0    0  501    0  0.00000000000E+00  0.00000000000E+00  0.98607667647E+02  0.98607667647E+02  0.00000000000E+00 0. -1.
         -3   -1    0    0    0  501 -0.00000000000E+00 -0.00000000000E+00 -0.11256405707E+03  0.11256405707E+03  0.00000000000E+00 0.  1.
         23    2    1    2    0    0 -0.34021878298E+02  0.33111980371E+02 -0.29899982142E+02  0.10604505686E+03  0.89986964091E+02 0.  0.
         23    2    1    2    0    0  0.34021878298E+02 -0.33111980371E+02  0.15943592723E+02  0.10512666785E+03  0.92431199802E+02 0.  0.
          5    1    3    3  502    0  0.59265451471E+01 -0.27754868130E+02 -0.93643050268E+01  0.30252881696E+02  0.47000000000E+01 0. -1.
         -5    1    3    3    0  502 -0.39948423445E+02  0.60866848501E+02 -0.20535677115E+02  0.75792175168E+02  0.47000000000E+01 0.  1.
          5    1    4    4  503    0  0.24878577514E+02 -0.60058414966E+02  0.31464645574E+02  0.72374517259E+02  0.47000000000E+01 0. -1.
         -5    1    4    4    0  503  0.91433007842E+01  0.26946434595E+02 -0.15521052852E+02  0.32752150589E+02  0.47000000000E+01 0.  1.
<mgrwt>
<rscale>  0 0.10336431E+03</rscale>
<asrwt>0</asrwt>
<pdfrwt beam="1">  1        3 0.15170410E-01 0.10391063E+03</pdfrwt>
<pdfrwt beam="2">  1       -3 0.17317547E-01 0.10391063E+03</pdfrwt>
<totfact> 0.22928873E+03</totfact>
</mgrwt>
</event>
<event>
 8    1  0.3466492E-004  0.2565853E+03  0.7546771E-02  0.1109324E+00
          3   -1    0    0  501    0  0.00000000000E+00  0.00000000000E+00  0.68756468492E+02  0.68756468492E+02  0.00000000000E+00 0. -1.
         -3   -1    0    0    0  501 -0.00000000000E+00 -0.00000000000E+00 -0.18113809674E+04  0.18113809674E+04  0.00000000000E+00 0.  1.
         23    2    1    2    0    0 -0.21114338561E+03 -0.11331480732E+03 -0.15171137523E+04  0.15385366004E+04  0.89660238961E+02 0.  0.
         23    2    1    2    0    0  0.21114338561E+03  0.11331480732E+03 -0.22551074655E+03  0.34160083545E+03  0.91729270826E+02 0.  0.
          5    1    3    3  502    0 -0.58746237056E+02 -0.62312201174E+02 -0.34765626645E+03  0.35807946099E+03  0.47000000000E+01 0. -1.
         -5    1    4    4    0  503  0.28514010944E+02  0.49669110154E+01 -0.77094813523E+02  0.82482842442E+02  0.47000000000E+01 0.  1.
          5    1    4    4  503    0  0.18262937467E+03  0.10834789630E+03 -0.14841593303E+03  0.25911799301E+03  0.47000000000E+01 0. -1.
         -5    1    3    3    0  502 -0.15239714856E+03 -0.51002606145E+02 -0.11694574859E+04  0.11804571394E+04  0.47000000000E+01 0.  1.
<mgrwt>
<rscale>  0 0.25640204E+03</rscale>
<asrwt>0</asrwt>
<pdfrwt beam="1">  1        3 0.10577920E-01 0.25658533E+03</pdfrwt>
<pdfrwt beam="2">  1       -3 0.27867396E+00 0.25658533E+03</pdfrwt>
<totfact> 0.95031505E+00</totfact>
</mgrwt>
</event>
<event>
 8    1  0.3466492E-004  0.1080789E+03  0.7546771E-02  0.1265942E+00
          2   -1    0    0  501    0  0.00000000000E+00  0.00000000000E+00  0.90929295115E+03  0.90929295115E+03  0.00000000000E+00 0. -1.
         -2   -1    0    0    0  501 -0.00000000000E+00 -0.00000000000E+00 -0.16956983400E+02  0.16956983400E+02  0.00000000000E+00 0.  1.
         23    2    1    2    0    0 -0.38448054411E+02 -0.34154411223E+02  0.68022256554E+03  0.68818871869E+03  0.90863618535E+02 0.  0.
         23    2    1    2    0    0  0.38448054411E+02  0.34154411223E+02  0.21211340221E+03  0.23806121586E+03  0.95059299409E+02 0.  0.
          5    1    4    4  502    0 -0.49135666216E+01  0.44681626227E+02  0.17212399112E+03  0.17795884125E+03  0.47000000000E+01 0. -1.
         -5    1    4    4    0  502  0.43361621032E+02 -0.10527215004E+02  0.39989411089E+02  0.60102374608E+02  0.47000000000E+01 0.  1.
          5    1    3    3  503    0 -0.67424800380E+02 -0.14901887048E+02  0.43758263928E+03  0.44302237657E+03  0.47000000000E+01 0. -1.
         -5    1    3    3    0  503  0.28976745969E+02 -0.19252524175E+02  0.24263992626E+03  0.24516634212E+03  0.47000000000E+01 0.  1.
<mgrwt>
<rscale>  0 0.10714917E+03</rscale>
<asrwt>0</asrwt>
<pdfrwt beam="1">  1        2 0.13989119E+00 0.10807889E+03</pdfrwt>
<pdfrwt beam="2">  1       -2 0.26087674E-02 0.10807889E+03</pdfrwt>
<totfact> 0.14701624E+04</totfact>
</mgrwt>
</event>
<event>
 8    1  0.3466492E-004  0.1512338E+03  0.7546771E-02  0.1199121E+00
          2   -1    0    0  501    0  0.00000000000E+00  0.00000000000E+00  0.61700803105E+03  0.61700803105E+03  0.00000000000E+00 0. -1.
         -2   -1    0    0    0  501 -0.00000000000E+00 -0.00000000000E+00 -0.37132904409E+02  0.37132904409E+02  0.00000000000E+00 0.  1.
         23    2    1    2    0    0  0.58506070183E+02 -0.10497993150E+03  0.26705018656E+03  0.30689978010E+03  0.91803739677E+02 0.  0.
         23    2    1    2    0    0 -0.58506070183E+02  0.10497993150E+03  0.31282494008E+03  0.34724115536E+03  0.90957300826E+02 0.  0.
          5    1    3    3  502    0  0.17589089700E+02 -0.27542029097E+02  0.18114515472E+03  0.18412929295E+03  0.47000000000E+01 0. -1.
         -5    1    4    4    0  503  0.13595462284E+02  0.56562181592E+02  0.82633110028E+02  0.10116539850E+03  0.47000000000E+01 0.  1.
          5    1    4    4  503    0 -0.72101532467E+02  0.48417749904E+02  0.23019183006E+03  0.24607575686E+03  0.47000000000E+01 0. -1.
         -5    1    3    3    0  502  0.40916980483E+02 -0.77437902399E+02  0.85905031836E+02  0.12277048715E+03  0.47000000000E+01 0.  1.
<mgrwt>
<rscale>  0 0.15110559E+03</rscale>
<asrwt>0</asrwt>
<pdfrwt beam="1">  1        2 0.94924305E-01 0.15123384E+03</pdfrwt>
<pdfrwt beam="2">  1       -2 0.57127550E-02 0.15123384E+03</pdfrwt>
<totfact> 0.75302823E+03</totfact>
</mgrwt>
</event>
<event>
 8    1  0.3466492E-004  0.1051839E+03  0.7546771E-02  0.1270949E+00
          1   -1    0    0  501    0  0.00000000000E+00  0.00000000000E+00  0.54880535588E+03  0.54880535588E+03  0.00000000000E+00 0. -1.
         -1   -1    0    0    0  501 -0.00000000000E+00 -0.00000000000E+00 -0.24955763798E+03  0.24955763798E+03  0.00000000000E+00 0.  1.
         23    2    1    2    0    0  0.48370503533E+02 -0.13275374623E+02 -0.23360921701E+03  0.25522382504E+03  0.89721755528E+02 0.  0.
         23    2    1    2    0    0 -0.48370503533E+02  0.13275374623E+02  0.53285693491E+03  0.54313916881E+03  0.92453785396E+02 0.  0.
          5    1    4    4  502    0 -0.65761591173E+02  0.17137356437E+01  0.49716511732E+03  0.50152045586E+03  0.47000000000E+01 0. -1.
         -5    1    3    3    0  503  0.47902152077E+02  0.14098794784E+02 -0.21729654889E+03  0.22300957905E+03  0.47000000000E+01 0.  1.
          5    1    3    3  503    0  0.46835145537E+00 -0.27374169407E+02 -0.16312668117E+02  0.32214245993E+02  0.47000000000E+01 0. -1.
         -5    1    4    4    0  502  0.17391087640E+02  0.11561638979E+02  0.35691817586E+02  0.41618712952E+02  0.47000000000E+01 0.  1.
<mgrwt>
<rscale>  0 0.10458040E+03</rscale>
<asrwt>0</asrwt>
<pdfrwt beam="1">  1        1 0.84431593E-01 0.10518386E+03</pdfrwt>
<pdfrwt beam="2">  1       -1 0.38393483E-01 0.10518386E+03</pdfrwt>
<totfact> 0.27315529E+02</totfact>
</mgrwt>
</event>
<event>
 8    1  0.3466492E-004  0.1211455E+03  0.7546771E-02  0.1242082E+00
          2   -1    0    0  501    0  0.00000000000E+00  0.00000000000E+00  0.57448118171E+03  0.57448118171E+03  0.00000000000E+00 0. -1.
         -2   -1    0    0    0  501 -0.00000000000E+00 -0.00000000000E+00 -0.53474553869E+02  0.53474553869E+02  0.00000000000E+00 0.  1.
         23    2    1    2    0    0 -0.30761009120E+02 -0.71934014638E+02  0.32889161350E+02  0.12553060090E+03  0.92495906307E+02 0.  0.
         23    2    1    2    0    0  0.30761009120E+02  0.71934014638E+02  0.48811746649E+03  0.50242513468E+03  0.89730779124E+02 0.  0.
          5    1    3    3  502    0  0.23073488339E+02  0.43508262653E+01  0.19922253137E+02  0.31149666505E+02  0.47000000000E+01 0. -1.
         -5    1    3    3    0  502 -0.53834497459E+02 -0.76284840903E+02  0.12966908213E+02  0.94380934393E+02  0.47000000000E+01 0.  1.
          5    1    4    4  503    0  0.47138571025E+02  0.84847328782E+02  0.38120638477E+03  0.39339739688E+03  0.47000000000E+01 0. -1.
         -5    1    4    4    0  503 -0.16377561905E+02 -0.12913314144E+02  0.10691108172E+03  0.10902773780E+03  0.47000000000E+01 0.  1.
<mgrwt>
<rscale>  0 0.12061762E+03</rscale>
<asrwt>0</asrwt>
<pdfrwt beam="1">  1        2 0.88381716E-01 0.12114551E+03</pdfrwt>
<pdfrwt beam="2">  1       -2 0.82268549E-02 0.12114551E+03</pdfrwt>
<totfact> 0.46216694E+03</totfact>
</mgrwt>
</event>
<event>
 8    1  0.3466492E-004  0.9184398E+02  0.7546771E-02  0.1298798E+00
         -3   -1    0    0    0  501 -0.00000000000E+00  0.00000000000E+00  0.45077201253E+02  0.45077201253E+02  0.00000000000E+00 0.  1.
          3   -1    0    0  501    0  0.00000000000E+00 -0.00000000000E+00 -0.19560733544E+03  0.19560733544E+03  0.00000000000E+00 0. -1.
         23    2    1    2    0    0  0.28159721621E+01 -0.14991467177E+01 -0.10181310669E+03  0.13671980459E+03  0.91193306403E+02 0.  0.
         23    2    1    2    0    0 -0.28159721621E+01  0.14991467177E+01 -0.48717027488E+02  0.10396473210E+03  0.91788559268E+02 0.  0.
          5    1    3    3  502    0  0.21842737397E+02 -0.24499818349E+02 -0.10120198949E+03  0.10649544099E+03  0.47000000000E+01 0. -1.
         -5    1    3    3    0  502 -0.19026765235E+02  0.23000671631E+02 -0.61111720831E+00  0.30224363600E+02  0.47000000000E+01 0.  1.
          5    1    4    4  503    0 -0.19136999884E+02 -0.38638968943E+02 -0.41035626906E+02  0.59709357400E+02  0.47000000000E+01 0. -1.
         -5    1    4    4    0  503  0.16321027722E+02  0.40138115660E+02 -0.76814005816E+01  0.44255374697E+02  0.47000000000E+01 0.  1.
<mgrwt>
<rscale>  0 0.91694895E+02</rscale>
<asrwt>0</asrwt>
<pdfrwt beam="1">  1        3 0.30093436E-01 0.91843980E+02</pdfrwt>
<pdfrwt beam="2">  1       -3 0.69349541E-02 0.91843980E+02</pdfrwt>
<totfact> 0.30396194E+03</totfact>
</mgrwt>
</event>
<event>
 8    1  0.3466492E-004  0.9383166E+02  0.7546771E-02  0.1294321E+00
          1   -1    0    0  501    0  0.00000000000E+00  0.00000000000E+00  0.49491589428E+03  0.49491589428E+03  0.00000000000E+00 0. -1.
         -1   -1    0    0    0  501 -0.00000000000E+00 -0.00000000000E+00 -0.17642398353E+02  0.17642398353E+02  0.00000000000E+00 0.  1.
         23    2    1    2    0    0  0.11675411030E+02 -0.15536388355E+02  0.24705926360E+03  0.26427761964E+03  0.91796982125E+02 0.  0.
         23    2    1    2    0    0 -0.11675411030E+02  0.15536388355E+02  0.23021423232E+03  0.24828067299E+03  0.90923073138E+02 0.  0.
          5    1    4    4  502    0 -0.48291905994E+02  0.10095414639E+02  0.85423870301E+02  0.98759066411E+02  0.47000000000E+01 0. -1.
         -5    1    3    3    0  503  0.28826353748E+02 -0.39536378738E+02  0.75187332570E+02  0.89829332030E+02  0.47000000000E+01 0.  1.
          5    1    3    3  503    0 -0.17150942717E+02  0.23999990383E+02  0.17187193103E+03  0.17444828761E+03  0.47000000000E+01 0. -1.
         -5    1    4    4    0  502  0.36616494963E+02  0.54409737157E+01  0.14479036202E+03  0.14952160657E+03  0.47000000000E+01 0.  1.
<mgrwt>
<rscale>  0 0.93617231E+02</rscale>
<asrwt>0</asrwt>
<pdfrwt beam="1">  1        1 0.76140896E-01 0.93831661E+02</pdfrwt>
<pdfrwt beam="2">  1       -1 0.27142155E-02 0.93831661E+02</pdfrwt>
<totfact> 0.18231448E+04</totfact>
</mgrwt>
</event>
<event>
 8    1  0.3466492E-004  0.1222305E+03  0.7546771E-02  0.1239799E+00
         -2   -1    0    0    0  501 -0.00000000000E+00  0.00000000000E+00  0.97921504400E+02  0.97921504400E+02  0.00000000000E+00 0.  1.
          2   -1    0    0  501    0  0.00000000000E+00 -0.00000000000E+00 -0.15736418738E+03  0.15736418738E+03  0.00000000000E+00 0. -1.
         23    2    1    2    0    0 -0.80681805743E+02 -0.24343760074E+01 -0.54190753111E+02  0.13294237787E+03  0.90672808195E+02 0.  0.
         23    2    1    2    0    0  0.80681805743E+02  0.24343760074E+01 -0.52519298679E+01  0.12234331391E+03  0.91786838529E+02 0.  0.
          5    1    3    3  502    0 -0.44830289642E+02 -0.40220860305E+02 -0.53411344628E+02  0.80637052327E+02  0.47000000000E+01 0. -1.
         -5    1    3    3    0  502 -0.35851516101E+02  0.37786484298E+02 -0.77940848342E+00  0.52305325541E+02  0.47000000000E+01 0.  1.
          5    1    4    4  503    0  0.30406779267E+02 -0.41330349776E+02  0.12870805819E+02  0.53108546209E+02  0.47000000000E+01 0. -1.
         -5    1    4    4    0  503  0.50275026475E+02  0.43764725783E+02 -0.18122735687E+02  0.69234767702E+02  0.47000000000E+01 0.  1.
<mgrwt>
<rscale>  0 0.12202142E+03</rscale>
<asrwt>0</asrwt>
<pdfrwt beam="1">  1        2 0.24209874E-01 0.12223054E+03</pdfrwt>
<pdfrwt beam="2">  1       -2 0.15064847E-01 0.12223054E+03</pdfrwt>
<totfact> 0.71318384E+03</totfact>
</mgrwt>
</event>
<event>
 8    1  0.3466492E-004  0.1018298E+03  0.7546771E-02  0.1282281E+00
         -2   -1    0    0    0  501 -0.00000000000E+00  0.00000000000E+00  0.15653113806E+02  0.15653113806E+02  0.00000000000E+00 0.  1.
          2   -1    0    0  501    0  0.00000000000E+00 -0.00000000000E+00 -0.61964322538E+03  0.61964322538E+03  0.00000000000E+00 0. -1.
         23    2    1    2    0    0  0.32411135971E+01  0.14233848119E+02 -0.38108614021E+03  0.39445653599E+03  0.10077799996E+03 0.  0.
         23    2    1    2    0    0 -0.32411135971E+01 -0.14233848119E+02 -0.22290397136E+03  0.24083980319E+03  0.90025124849E+02 0.  0.
          5    1    4    4  502    0 -0.11520372248E+01 -0.50343098012E+02 -0.16338929522E+03  0.17103773414E+03  0.47000000000E+01 0. -1.
         -5    1    4    4    0  502 -0.20890763723E+01  0.36109249893E+02 -0.59514676141E+02  0.69802069054E+02  0.47000000000E+01 0.  1.
          5    1    3    3  503    0  0.39521701410E+02  0.97788463300E+01 -0.32350877359E+03  0.32609447605E+03  0.47000000000E+01 0. -1.
         -5    1    3    3    0  503 -0.36280587813E+02  0.44550017888E+01 -0.57577366617E+02  0.68362059942E+02  0.47000000000E+01 0.  1.
<mgrwt>
<rscale>  0 0.99061794E+02</rscale>
<asrwt>0</asrwt>
<pdfrwt beam="1">  1        2 0.95329714E-01 0.10182982E+03</pdfrwt>
<pdfrwt beam="2">  1       -2 0.24081717E-02 0.10182982E+03</pdfrwt>
<totfact> 0.26089529E+04</totfact>
</mgrwt>
</event>
<event>
 8    1  0.3466492E-004  0.9353398E+02  0.7546771E-02  0.1295696E+00
          1   -1    0    0  501    0  0.00000000000E+00  0.00000000000E+00  0.49034896804E+02  0.49034896804E+02  0.00000000000E+00 0. -1.
         -1   -1    0    0    0  501 -0.00000000000E+00 -0.00000000000E+00 -0.20283902649E+03  0.20283902649E+03  0.00000000000E+00 0.  1.
         23    2    1    2    0    0  0.24782464069E+01  0.16455505627E+02 -0.12319850727E+03  0.15345994849E+03  0.89973097238E+02 0.  0.
         23    2    1    2    0    0 -0.24782464069E+01 -0.16455505627E+02 -0.30605622409E+02  0.98413974798E+02  0.92041734783E+02 0.  0.
          5    1    3    3  502    0 -0.32524336017E+02  0.35158770696E+02 -0.87559039631E+02  0.99913197384E+02  0.47000000000E+01 0. -1.
         -5    1    4    4    0  503  0.12611825545E+02  0.17579994580E+02 -0.51075488074E+02  0.55667852797E+02  0.47000000000E+01 0.  1.
          5    1    4    4  503    0 -0.15090071952E+02 -0.34035500206E+02  0.20469865665E+02  0.42746122001E+02  0.47000000000E+01 0. -1.
         -5    1    3    3    0  502  0.35002582424E+02 -0.18703265069E+02 -0.35639467642E+02  0.53546751110E+02  0.47000000000E+01 0.  1.
<mgrwt>
<rscale>  0 0.93021057E+02</rscale>
<asrwt>0</asrwt>
<pdfrwt beam="1">  1        1 0.75438301E-02 0.93533985E+02</pdfrwt>
<pdfrwt beam="2">  1       -1 0.31206005E-01 0.93533985E+02</pdfrwt>
<totfact> 0.82191562E+03</totfact>
</mgrwt>
</event>
<event>
 8    1  0.3466492E-004  0.1079759E+03  0.7546771E-02  0.1265012E+00
         -1   -1    0    0    0  501 -0.00000000000E+00  0.00000000000E+00  0.38932668715E+02  0.38932668715E+02  0.00000000000E+00 0.  1.
          1   -1    0    0  501    0  0.00000000000E+00 -0.00000000000E+00 -0.31210594771E+03  0.31210594771E+03  0.00000000000E+00 0. -1.
         23    2    1    2    0    0  0.52623592193E+02  0.15771059536E+02 -0.97181612619E+02  0.14526892257E+03  0.92956039398E+02 0.  0.
         23    2    1    2    0    0 -0.52623592193E+02 -0.15771059536E+02 -0.17599166638E+03  0.20576969385E+03  0.91379053944E+02 0.  0.
          5    1    3    3  502    0  0.42995967384E+02  0.44589934447E+02 -0.96191869694E+02  0.11450712319E+03  0.47000000000E+01 0. -1.
         -5    1    4    4    0  503 -0.46614692375E+01 -0.45477744167E+02 -0.51582485525E+02  0.69085434955E+02  0.47000000000E+01 0.  1.
          5    1    4    4  503    0 -0.47962122955E+02  0.29706684630E+02 -0.12440918085E+03  0.13668425890E+03  0.47000000000E+01 0. -1.
         -5    1    3    3    0  502  0.96276248084E+01 -0.28818874910E+02 -0.98974292519E+00  0.30761799388E+02  0.47000000000E+01 0.  1.
<mgrwt>
<rscale>  0 0.10763564E+03</rscale>
<asrwt>0</asrwt>
<pdfrwt beam="1">  1        1 0.48016298E-01 0.10797590E+03</pdfrwt>
<pdfrwt beam="2">  1       -1 0.59896415E-02 0.10797590E+03</pdfrwt>
<totfact> 0.10361424E+04</totfact>
</mgrwt>
</event>
<event>
 8    1  0.3466492E-004  0.9408776E+02  0.7546771E-02  0.1294904E+00
          1   -1    0    0  501    0  0.00000000000E+00  0.00000000000E+00  0.27455532525E+02  0.27455532525E+02  0.00000000000E+00 0. -1.
         -1   -1    0    0    0  501 -0.00000000000E+00 -0.00000000000E+00 -0.35466286243E+03  0.35466286243E+03  0.00000000000E+00 0.  1.
         23    2    1    2    0    0 -0.36697230999E+01 -0.12900831360E+02 -0.23154790986E+03  0.24993387222E+03  0.93126836128E+02 0.  0.
         23    2    1    2    0    0  0.36697230999E+01  0.12900831360E+02 -0.95659420043E+02  0.13218452273E+03  0.90233724784E+02 0.  0.
          5    1    3    3  502    0 -0.15819331460E+02  0.32753260947E+02 -0.48363417772E+02  0.60697096546E+02  0.47000000000E+01 0. -1.
         -5    1    4    4    0  503  0.46380338578E+02  0.97171142140E+00 -0.49476161180E+02  0.67985737878E+02  0.47000000000E+01 0.  1.
          5    1    4    4  503    0 -0.42710615478E+02  0.11929119939E+02 -0.46183258863E+02  0.64198784850E+02  0.47000000000E+01 0. -1.
         -5    1    3    3    0  502  0.12149608360E+02 -0.45654092307E+02 -0.18318449209E+03  0.18923677568E+03  0.47000000000E+01 0.  1.
<mgrwt>
<rscale>  0 0.93363785E+02</rscale>
<asrwt>0</asrwt>
<pdfrwt beam="1">  1        1 0.42239283E-02 0.94087757E+02</pdfrwt>
<pdfrwt beam="2">  1       -1 0.54563515E-01 0.94087757E+02</pdfrwt>
<totfact> 0.67547849E+03</totfact>
</mgrwt>
</event>
<event>
 8    1  0.3466492E-004  0.1128034E+03  0.7546771E-02  0.1258906E+00
         -1   -1    0    0    0  501 -0.00000000000E+00  0.00000000000E+00  0.20796244422E+02  0.20796244422E+02  0.00000000000E+00 0.  1.
          1   -1    0    0  501    0  0.00000000000E+00 -0.00000000000E+00 -0.57239475143E+03  0.57239475143E+03  0.00000000000E+00 0. -1.
         23    2    1    2    0    0 -0.12490350267E+02  0.51213588789E+02 -0.28218907572E+03  0.30390012659E+03  0.99728491210E+02 0.  0.
         23    2    1    2    0    0  0.12490350267E+02 -0.51213588789E+02 -0.26940943129E+03  0.28929086927E+03  0.91262943437E+02 0.  0.
          5    1    4    4  502    0 -0.57824328759E+01 -0.65206454745E+02 -0.25102212872E+03  0.25946004968E+03  0.47000000000E+01 0. -1.
         -5    1    4    4    0  502  0.18272783143E+02  0.13992865956E+02 -0.18387302568E+02  0.29830819586E+02  0.47000000000E+01 0.  1.
          5    1    3    3  503    0 -0.26920176028E+02  0.81703939314E+01 -0.24018601697E+03  0.24187365289E+03  0.47000000000E+01 0. -1.
         -5    1    3    3    0  503  0.14429825761E+02  0.43043194858E+02 -0.42003058744E+02  0.62026473694E+02  0.47000000000E+01 0.  1.
<mgrwt>
<rscale>  0 0.11090345E+03</rscale>
<asrwt>0</asrwt>
<pdfrwt beam="1">  1        1 0.88060735E-01 0.11280342E+03</pdfrwt>
<pdfrwt beam="2">  1       -1 0.31994221E-02 0.11280342E+03</pdfrwt>
<totfact> 0.12078970E+04</totfact>
</mgrwt>
</event>
<event>
 8    1  0.3466492E-004  0.9838639E+02  0.7546771E-02  0.1284575E+00
          1   -1    0    0  501    0  0.00000000000E+00  0.00000000000E+00  0.11937117886E+02  0.11937117886E+02  0.00000000000E+00 0. -1.
         -1   -1    0    0    0  501 -0.00000000000E+00 -0.00000000000E+00 -0.84993075260E+03  0.84993075260E+03  0.00000000000E+00 0.  1.
         23    2    1    2    0    0  0.35753023487E+02 -0.12830034039E+02 -0.31569239663E+03  0.33066837063E+03  0.90757884432E+02 0.  0.
         23    2    1    2    0    0 -0.35753023487E+02  0.12830034039E+02 -0.52230123809E+03  0.53119949985E+03  0.89058614836E+02 0.  0.
          5    1    4    4  502    0  0.27828006272E+02  0.29390072344E+01 -0.98139832002E+02  0.10215944558E+03  0.47000000000E+01 0. -1.
         -5    1    3    3    0  503  0.23614858589E+02 -0.44692860849E+02 -0.98978432038E+02  0.11123818304E+03  0.47000000000E+01 0.  1.
          5    1    3    3  503    0  0.12138164898E+02  0.31862826810E+02 -0.21671396459E+03  0.21943018759E+03  0.47000000000E+01 0. -1.
         -5    1    4    4    0  502 -0.63581029760E+02  0.98910268046E+01 -0.42416140608E+03  0.42904005427E+03  0.47000000000E+01 0.  1.
<mgrwt>
<rscale>  0 0.97992712E+02</rscale>
<asrwt>0</asrwt>
<pdfrwt beam="1">  1        1 0.18364792E-02 0.98386392E+02</pdfrwt>
<pdfrwt beam="2">  1       -1 0.13075861E+00 0.98386392E+02</pdfrwt>
<totfact> 0.34401653E+03</totfact>
</mgrwt>
</event>
<event>
 8    1  0.3466492E-004  0.9610263E+02  0.7546771E-02  0.1291397E+00
          1   -1    0    0  501    0  0.00000000000E+00  0.00000000000E+00  0.26409788240E+03  0.26409788240E+03  0.00000000000E+00 0. -1.
         -1   -1    0    0    0  501 -0.00000000000E+00 -0.00000000000E+00 -0.33615940530E+02  0.33615940530E+02  0.00000000000E+00 0.  1.
         23    2    1    2    0    0 -0.23135588596E+02  0.20493507300E+02  0.12732672035E+03  0.15672901666E+03  0.86003788562E+02 0.  0.
         23    2    1    2    0    0  0.23135588596E+02 -0.20493507300E+02  0.10315522153E+03  0.14098480628E+03  0.90997123973E+02 0.  0.
          5    1    4    4  502    0 -0.22403515898E+02 -0.27588493651E+01 -0.37360531386E+01  0.23357586935E+02  0.47000000000E+01 0. -1.
         -5    1    4    4    0  502  0.45539104494E+02 -0.17734657934E+02  0.10689127467E+03  0.11762721934E+03  0.47000000000E+01 0.  1.
          5    1    3    3  503    0 -0.13274525974E+02 -0.29109890807E+02  0.83854067983E+02  0.89873207910E+02  0.47000000000E+01 0. -1.
         -5    1    3    3    0  503 -0.98610626219E+01  0.49603398107E+02  0.43472652364E+02  0.66855808748E+02  0.47000000000E+01 0.  1.
<mgrwt>
<rscale>  0 0.94901825E+02</rscale>
<asrwt>0</asrwt>
<pdfrwt beam="1">  1        1 0.40630442E-01 0.96102632E+02</pdfrwt>
<pdfrwt beam="2">  1       -1 0.51716833E-02 0.96102632E+02</pdfrwt>
<totfact> 0.15619193E+04</totfact>
</mgrwt>
</event>
<event>
 8    1  0.3466492E-004  0.9429131E+02  0.7546771E-02  0.1293381E+00
         -3   -1    0    0    0  501 -0.00000000000E+00  0.00000000000E+00  0.42323944447E+02  0.42323944447E+02  0.00000000000E+00 0.  1.
          3   -1    0    0  501    0  0.00000000000E+00 -0.00000000000E+00 -0.21554955451E+03  0.21554955451E+03  0.00000000000E+00 0. -1.
         23    2    1    2    0    0  0.90034681238E+01 -0.16658678938E+02 -0.62530787551E+02  0.11314128681E+03  0.92370327310E+02 0.  0.
         23    2    1    2    0    0 -0.90034681238E+01  0.16658678938E+02 -0.11069482251E+03  0.14473221214E+03  0.91298934712E+02 0.  0.
          5    1    3    3  502    0 -0.35229460138E+02 -0.31263189861E+02 -0.34499602906E+02  0.58573155136E+02  0.47000000000E+01 0. -1.
         -5    1    4    4    0  503 -0.12150124627E+02  0.39315936697E+02 -0.11726584900E+02  0.43046151979E+02  0.47000000000E+01 0.  1.
          5    1    4    4  503    0  0.31466565033E+01 -0.22657257759E+02 -0.98968237610E+02  0.10168606017E+03  0.47000000000E+01 0. -1.
         -5    1    3    3    0  502  0.44232928262E+02  0.14604510922E+02 -0.28031184645E+02  0.54568131675E+02  0.47000000000E+01 0.  1.
<mgrwt>
<rscale>  0 0.94027880E+02</rscale>
<asrwt>0</asrwt>
<pdfrwt beam="1">  1        3 0.33161470E-01 0.94291311E+02</pdfrwt>
<pdfrwt beam="2">  1       -3 0.65113761E-02 0.94291311E+02</pdfrwt>
<totfact> 0.28248570E+03</totfact>
</mgrwt>
</event>
<event>
 8    1  0.3466492E-004  0.1110376E+03  0.7546771E-02  0.1258865E+00
          3   -1    0    0  501    0  0.00000000000E+00  0.00000000000E+00  0.17521681782E+03  0.17521681782E+03  0.00000000000E+00 0. -1.
         -3   -1    0    0    0  501 -0.00000000000E+00 -0.00000000000E+00 -0.11786799189E+03  0.11786799189E+03  0.00000000000E+00 0.  1.
         23    2    1    2    0    0 -0.62919137640E+02  0.62203663375E+01 -0.64597354346E+02  0.12846078053E+03  0.91278930247E+02 0.  0.
         23    2    1    2    0    0  0.62919137640E+02 -0.62203663375E+01  0.12194618028E+03  0.16462402918E+03  0.90734168089E+02 0.  0.
          5    1    4    4  502    0  0.56337104768E+02 -0.43885993639E+02  0.86557981665E+02  0.11231306247E+03  0.47000000000E+01 0. -1.
         -5    1    4    4    0  502  0.65820328727E+01  0.37665627301E+02  0.35388198615E+02  0.52310966708E+02  0.47000000000E+01 0.  1.
          5    1    3    3  503    0  0.20840597191E+02 -0.14318668483E+01  0.13840902282E+01  0.21456617621E+02  0.47000000000E+01 0. -1.
         -5    1    3    3    0  503 -0.83759734832E+02  0.76522331858E+01 -0.65981444574E+02  0.10700416291E+03  0.47000000000E+01 0.  1.
<mgrwt>
<rscale>  0 0.11092561E+03</rscale>
<asrwt>0</asrwt>
<pdfrwt beam="1">  1        3 0.26956434E-01 0.11103762E+03</pdfrwt>
<pdfrwt beam="2">  1       -3 0.18133537E-01 0.11103762E+03</pdfrwt>
<totfact> 0.78149609E+02</totfact>
</mgrwt>
</event>
<event>
 8    1  0.3466492E-004  0.1038658E+03  0.7546771E-02  0.1273123E+00
         -1   -1    0    0    0  501 -0.00000000000E+00  0.00000000000E+00  0.77116310744E+02  0.77116310744E+02  0.00000000000E+00 0.  1.
          1   -1    0    0  501    0  0.00000000000E+00 -0.00000000000E+00 -0.14212539477E+03  0.14212539477E+03  0.00000000000E+00 0. -1.
         23    2    1    2    0    0  0.36971509866E+02 -0.35121637451E+02 -0.51202886529E+02  0.11446231511E+03  0.88766345156E+02 0.  0.
         23    2    1    2    0    0 -0.36971509866E+02  0.35121637451E+02 -0.13806197497E+02  0.10477939040E+03  0.90485842016E+02 0.  0.
          5    1    3    3  502    0 -0.18925042856E+02 -0.39009673176E+02 -0.99732769675E+01  0.44737770417E+02  0.47000000000E+01 0. -1.
         -5    1    3    3    0  502  0.55896552722E+02  0.38880357253E+01 -0.41229609562E+02  0.69724544692E+02  0.47000000000E+01 0.  1.
          5    1    4    4  503    0 -0.26549086160E+02 -0.13743556562E+02 -0.38400474603E+02  0.48891980658E+02  0.47000000000E+01 0. -1.
         -5    1    4    4    0  503 -0.10422423706E+02  0.48865194013E+02  0.24594277107E+02  0.55887409747E+02  0.47000000000E+01 0.  1.
<mgrwt>
<rscale>  0 0.10349016E+03</rscale>
<asrwt>0</asrwt>
<pdfrwt beam="1">  1        1 0.21865445E-01 0.10386582E+03</pdfrwt>
<pdfrwt beam="2">  1       -1 0.11864048E-01 0.10386582E+03</pdfrwt>
<totfact> 0.97597418E+03</totfact>
</mgrwt>
</event>
<event>
 8    1  0.3466492E-004  0.1196352E+03  0.7546771E-02  0.1245670E+00
          3   -1    0    0  501    0  0.00000000000E+00  0.00000000000E+00  0.22173547610E+03  0.22173547610E+03  0.00000000000E+00 0. -1.
         -3   -1    0    0    0  501 -0.00000000000E+00 -0.00000000000E+00 -0.65691688712E+02  0.65691688712E+02  0.00000000000E+00 0.  1.
         23    2    1    2    0    0 -0.57578358450E+02 -0.47174888281E+02  0.42773148135E+02  0.12267638313E+03  0.87631132193E+02 0.  0.
         23    2    1    2    0    0  0.57578358450E+02  0.47174888281E+02  0.11327063925E+03  0.16475078168E+03  0.93658127799E+02 0.  0.
          5    1    3    3  502    0 -0.61559610446E+02 -0.13263647465E+02  0.57304182825E+02  0.85272324653E+02  0.47000000000E+01 0. -1.
         -5    1    3    3    0  502  0.39812519962E+01 -0.33911240816E+02 -0.14531034690E+02  0.37404058474E+02  0.47000000000E+01 0.  1.
          5    1    4    4  503    0  0.57414759886E+02  0.68256870455E+02  0.11180490863E+03  0.14310095251E+03  0.47000000000E+01 0. -1.
         -5    1    4    4    0  503  0.16359856391E+00 -0.21081982174E+02  0.14657306259E+01  0.21649829171E+02  0.47000000000E+01 0.  1.
<mgrwt>
<rscale>  0 0.11845352E+03</rscale>
<asrwt>0</asrwt>
<pdfrwt beam="1">  1        3 0.34113150E-01 0.11963521E+03</pdfrwt>
<pdfrwt beam="2">  1       -3 0.10106414E-01 0.11963521E+03</pdfrwt>
<totfact> 0.13756570E+03</totfact>
</mgrwt>
</event>
<event>
 8    1  0.3466492E-004  0.9437029E+02  0.7546771E-02  0.1292980E+00
         -1   -1    0    0    0  501 -0.00000000000E+00  0.00000000000E+00  0.34366252383E+03  0.34366252383E+03  0.00000000000E+00 0.  1.
          1   -1    0    0  501    0  0.00000000000E+00 -0.00000000000E+00 -0.71430834183E+02  0.71430834183E+02  0.00000000000E+00 0. -1.
         23    2    1    2    0    0  0.17172910935E+02  0.10508246489E+02  0.30229545134E+03  0.31668326736E+03  0.92197721298E+02 0.  0.
         23    2    1    2    0    0 -0.17172910935E+02 -0.10508246489E+02 -0.30063761692E+02  0.98410090651E+02  0.91517124412E+02 0.  0.
          5    1    4    4  502    0 -0.38788195707E+02  0.24250190503E+02 -0.33755345423E+02  0.57044800028E+02  0.47000000000E+01 0. -1.
         -5    1    4    4    0  502  0.21615284772E+02 -0.34758436992E+02  0.36915837314E+01  0.41365290623E+02  0.47000000000E+01 0.  1.
          5    1    3    3  503    0  0.92833833433E+01 -0.29501059578E+02  0.38003731484E+02  0.49222630255E+02  0.47000000000E+01 0. -1.
         -5    1    3    3    0  503  0.78895275919E+01  0.40009306067E+02  0.26429171985E+03  0.26746063710E+03  0.47000000000E+01 0.  1.
<mgrwt>
<rscale>  0 0.94203647E+02</rscale>
<asrwt>0</asrwt>
<pdfrwt beam="1">  1        1 0.10989359E-01 0.94370292E+02</pdfrwt>
<pdfrwt beam="2">  1       -1 0.52871157E-01 0.94370292E+02</pdfrwt>
<totfact> 0.19979583E+03</totfact>
</mgrwt>
</event>
<event>
 8    1  0.3466492E-004  0.1196429E+03  0.7546771E-02  0.1244371E+00
          2   -1    0    0  501    0  0.00000000000E+00  0.00000000000E+00  0.14639658984E+04  0.14639658984E+04  0.00000000000E+00 0. -1.
         -2   -1    0    0    0  501 -0.00000000000E+00 -0.00000000000E+00 -0.10713953017E+02  0.10713953017E+02  0.00000000000E+00 0.  1.
         23    2    1    2    0    0 -0.76628041062E+02  0.48193553901E-01  0.96410710898E+03  0.97150241124E+03  0.91883395971E+02 0.  0.
         23    2    1    2    0    0  0.76628041062E+02 -0.48193553901E-01  0.48914483640E+03  0.50317744018E+03  0.89738544258E+02 0.  0.
          5    1    3    3  502    0 -0.69406984201E+02 -0.38517162406E+02  0.68855418530E+03  0.69313047642E+03  0.47000000000E+01 0. -1.
         -5    1    4    4    0  503  0.95419749397E+02  0.99118266291E+01  0.38764890322E+03  0.39937067375E+03  0.47000000000E+01 0.  1.
          5    1    4    4  503    0 -0.18791708335E+02 -0.99600201830E+01  0.10149593318E+03  0.10380676643E+03  0.47000000000E+01 0. -1.
         -5    1    3    3    0  502 -0.72210568613E+01  0.38565355960E+02  0.27555292369E+03  0.27837193482E+03  0.47000000000E+01 0.  1.
<mgrwt>
<rscale>  0 0.11923095E+03</rscale>
<asrwt>0</asrwt>
<pdfrwt beam="1">  1        2 0.22522536E+00 0.11964287E+03</pdfrwt>
<pdfrwt beam="2">  1       -2 0.16483016E-02 0.11964287E+03</pdfrwt>
<totfact> 0.14109102E+04</totfact>
</mgrwt>
</event>
<event>
 8    1  0.3466492E-004  0.9453060E+02  0.7546771E-02  0.1293217E+00
          4   -1    0    0  501    0  0.00000000000E+00  0.00000000000E+00  0.17793555326E+03  0.17793555326E+03  0.00000000000E+00 0. -1.
         -4   -1    0    0    0  501 -0.00000000000E+00 -0.00000000000E+00 -0.78874173148E+02  0.78874173148E+02  0.00000000000E+00 0.  1.
         23    2    1    2    0    0 -0.54139467303E+01 -0.25650649167E+02 -0.29356907299E+02  0.97350358384E+02  0.89039303959E+02 0.  0.
         23    2    1    2    0    0  0.54139467303E+01  0.25650649167E+02  0.12841828742E+03  0.15945936803E+03  0.90822722307E+02 0.  0.
          5    1    3    3  502    0  0.18540436709E+02  0.21772552248E+02  0.10438277501E+02  0.30803237848E+02  0.47000000000E+01 0. -1.
         -5    1    3    3    0  502 -0.23954383440E+02 -0.47423201414E+02 -0.39795184800E+02  0.66547120536E+02  0.47000000000E+01 0.  1.
          5    1    4    4  503    0  0.32803907124E+02  0.14392725313E+02  0.12399426399E+03  0.12915074280E+03  0.47000000000E+01 0. -1.
         -5    1    4    4    0  503 -0.27389960393E+02  0.11257923854E+02  0.44240234292E+01  0.30308625227E+02  0.47000000000E+01 0.  1.
<mgrwt>
<rscale>  0 0.94099620E+02</rscale>
<asrwt>0</asrwt>
<pdfrwt beam="1">  1        4 0.27374700E-01 0.94530596E+02</pdfrwt>
<pdfrwt beam="2">  1       -4 0.12134488E-01 0.94530596E+02</pdfrwt>
<totfact> 0.10471055E+03</totfact>
</mgrwt>
</event>
<event>
 8    1  0.3466492E-004  0.9371116E+02  0.7546771E-02  0.1294229E+00
         -2   -1    0    0    0  501 -0.00000000000E+00  0.00000000000E+00  0.12379282068E+02  0.12379282068E+02  0.00000000000E+00 0.  1.
          2   -1    0    0  501    0  0.00000000000E+00 -0.00000000000E+00 -0.76131397308E+03  0.76131397308E+03  0.00000000000E+00 0. -1.
         23    2    1    2    0    0  0.11722207206E+02  0.97224875340E+01 -0.47666222054E+03  0.48574520630E+03  0.92247471774E+02 0.  0.
         23    2    1    2    0    0 -0.11722207206E+02 -0.97224875340E+01 -0.27227247048E+03  0.28794804885E+03  0.92465365152E+02 0.  0.
          5    1    3    3  502    0 -0.14587867681E+01  0.45874016738E+02 -0.35678898464E+03  0.35975967399E+03  0.47000000000E+01 0. -1.
         -5    1    4    4    0  503 -0.29907550118E+01 -0.50879237439E+02 -0.15816799560E+03  0.16624333445E+03  0.47000000000E+01 0.  1.
          5    1    4    4  503    0 -0.87314521947E+01  0.41156749905E+02 -0.11410447488E+03  0.12170471440E+03  0.47000000000E+01 0. -1.
         -5    1    3    3    0  502  0.13180993975E+02 -0.36151529204E+02 -0.11987323590E+03  0.12598553230E+03  0.47000000000E+01 0.  1.
<mgrwt>
<rscale>  0 0.93657362E+02</rscale>
<asrwt>0</asrwt>
<pdfrwt beam="1">  1        2 0.11712522E+00 0.93711155E+02</pdfrwt>
<pdfrwt beam="2">  1       -2 0.19045050E-02 0.93711155E+02</pdfrwt>
<totfact> 0.28552651E+04</totfact>
</mgrwt>
</event>
<event>
 8    1  0.3466492E-004  0.1032669E+03  0.7546771E-02  0.1276120E+00
          1   -1    0    0  501    0  0.00000000000E+00  0.00000000000E+00  0.41533963654E+03  0.41533963654E+03  0.00000000000E+00 0. -1.
         -1   -1    0    0    0  501 -0.00000000000E+00 -0.00000000000E+00 -0.24964339066E+02  0.24964339066E+02  0.00000000000E+00 0.  1.
         23    2    1    2    0    0 -0.44699074708E+00 -0.31611124211E+02  0.16874279636E+03  0.19783371653E+03  0.98308621691E+02 0.  0.
         23    2    1    2    0    0  0.44699074708E+00  0.31611124211E+02  0.22163250112E+03  0.24247025908E+03  0.93120341553E+02 0.  0.
          5    1    3    3  502    0 -0.26479843809E+02 -0.54253408027E+02  0.67056767105E+02  0.90351062114E+02  0.47000000000E+01 0.  1.
         -5    1    3    3    0  502  0.26032853062E+02  0.22642283816E+02  0.10168602925E+03  0.10748265441E+03  0.47000000000E+01 0. -1.
          5    1    4    4  503    0 -0.42497197527E+02  0.20319319887E+02  0.15648992062E+03  0.16349333874E+03  0.47000000000E+01 0. -1.
         -5    1    4    4    0  503  0.42944188274E+02  0.11291804325E+02  0.65142580503E+02  0.78976920338E+02  0.47000000000E+01 0.  1.
<mgrwt>
<rscale>  0 0.10201263E+03</rscale>
<asrwt>0</asrwt>
<pdfrwt beam="1">  1        1 0.63898401E-01 0.10326688E+03</pdfrwt>
<pdfrwt beam="2">  1       -1 0.38406678E-02 0.10326688E+03</pdfrwt>
<totfact> 0.13902650E+04</totfact>
</mgrwt>
</event>
<event>
 8    1  0.3466492E-004  0.1050341E+03  0.7546771E-02  0.1273904E+00
          3   -1    0    0  501    0  0.00000000000E+00  0.00000000000E+00  0.37275527047E+02  0.37275527047E+02  0.00000000000E+00 0. -1.
         -3   -1    0    0    0  501 -0.00000000000E+00 -0.00000000000E+00 -0.33462346873E+03  0.33462346873E+03  0.00000000000E+00 0.  1.
         23    2    1    2    0    0 -0.34981369146E+02  0.15769914460E+02 -0.22247826130E+03  0.24291203562E+03  0.89650955973E+02 0.  0.
         23    2    1    2    0    0  0.34981369146E+02 -0.15769914460E+02 -0.74869680386E+02  0.12898696016E+03  0.97774129819E+02 0.  0.
          5    1    4    4  502    0  0.58558884983E+02 -0.37166196280E+02 -0.35250911711E+02  0.77943479091E+02  0.47000000000E+01 0. -1.
         -5    1    4    4    0  502 -0.23577515837E+02  0.21396281820E+02 -0.39618768675E+02  0.51043481073E+02  0.47000000000E+01 0.  1.
          5    1    3    3  503    0  0.24948123026E+02  0.25069912087E+02 -0.66003985114E+02  0.75030163172E+02  0.47000000000E+01 0. -1.
         -5    1    3    3    0  503 -0.59929492171E+02 -0.92999976277E+01 -0.15647427619E+03  0.16788187245E+03  0.47000000000E+01 0.  1.
<mgrwt>
<rscale>  0 0.10310235E+03</rscale>
<asrwt>0</asrwt>
<pdfrwt beam="1">  1        3 0.57346966E-02 0.10503412E+03</pdfrwt>
<pdfrwt beam="2">  1       -3 0.51480533E-01 0.10503412E+03</pdfrwt>
<totfact> 0.15144548E+03</totfact>
</mgrwt>
</event>
<event>
 8    1  0.3466492E-004  0.9361856E+02  0.7546771E-02  0.1297505E+00
          3   -1    0    0  501    0  0.00000000000E+00  0.00000000000E+00  0.15035350068E+02  0.15035350068E+02  0.00000000000E+00 0. -1.
         -3   -1    0    0    0  501 -0.00000000000E+00 -0.00000000000E+00 -0.57691497870E+03  0.57691497870E+03  0.00000000000E+00 0.  1.
         23    2    1    2    0    0  0.18419440370E+02  0.29612680329E+02 -0.33700784766E+03  0.34836922804E+03  0.81059503074E+02 0.  0.
         23    2    1    2    0    0 -0.18419440370E+02 -0.29612680329E+02 -0.22487178097E+03  0.24358110073E+03  0.86880654559E+02 0.  0.
          5    1    3    3  502    0  0.44050073448E+02 -0.52767523996E+01 -0.17810617583E+03  0.18360869520E+03  0.47000000000E+01 0. -1.
         -5    1    4    4    0  503 -0.31564085161E+02  0.11163880384E+02 -0.17237051690E+03  0.17565480008E+03  0.47000000000E+01 0.  1.
          5    1    4    4  503    0  0.13144644790E+02 -0.40776560713E+02 -0.52501264073E+02  0.67926300646E+02  0.47000000000E+01 0. -1.
         -5    1    3    3    0  502 -0.25630633078E+02  0.34889432729E+02 -0.15890167183E+03  0.16476053283E+03  0.47000000000E+01 0.  1.
<mgrwt>
<rscale>  0 0.92244727E+02</rscale>
<asrwt>0</asrwt>
<pdfrwt beam="1">  1        3 0.23131305E-02 0.93618560E+02</pdfrwt>
<pdfrwt beam="2">  1       -3 0.88756163E-01 0.93618560E+02</pdfrwt>
<totfact> 0.19347008E+03</totfact>
</mgrwt>
</event>
<event>
 8    1  0.3466492E-004  0.9095516E+02  0.7546771E-02  0.1300950E+00
          4   -1    0    0  501    0  0.00000000000E+00  0.00000000000E+00  0.72394723378E+02  0.72394723378E+02  0.00000000000E+00 0. -1.
         -4   -1    0    0    0  501 -0.00000000000E+00 -0.00000000000E+00 -0.11451333594E+03  0.11451333594E+03  0.00000000000E+00 0.  1.
         23    2    1    2    0    0 -0.56274575583E+01 -0.52335230646E+01 -0.12114999930E+02  0.91758459422E+02  0.90629926680E+02 0.  0.
         23    2    1    2    0    0  0.56274575583E+01  0.52335230646E+01 -0.30003612633E+02  0.95149599896E+02  0.89967613879E+02 0.  0.
          5    1    3    3  502    0  0.55680005795E+01 -0.43334357655E+02  0.11361497945E+02  0.45387694581E+02  0.47000000000E+01 0. -1.
         -5    1    4    4    0  503 -0.21783840507E+02  0.29068435158E+02 -0.42816386002E+02  0.56345741099E+02  0.47000000000E+01 0.  1.
          5    1    4    4  503    0  0.27411298065E+02 -0.23834912094E+02  0.12812773369E+02  0.38803858797E+02  0.47000000000E+01 0. -1.
         -5    1    3    3    0  502 -0.11195458138E+02  0.38100834591E+02 -0.23476497875E+02  0.46370764841E+02  0.47000000000E+01 0.  1.
<mgrwt>
<rscale>  0 0.90789730E+02</rscale>
<asrwt>0</asrwt>
<pdfrwt beam="1">  1        4 0.11137650E-01 0.90955163E+02</pdfrwt>
<pdfrwt beam="2">  1       -4 0.17617436E-01 0.90955163E+02</pdfrwt>
<totfact> 0.26546158E+03</totfact>
</mgrwt>
</event>
<event>
 7    1  0.3466492E-004  0.1803026E+03  0.7546771E-02  0.1189139E+00
         -1   -1    0    0    0  501 -0.00000000000E+00  0.00000000000E+00  0.78212771400E+02  0.78212771400E+02  0.00000000000E+00 0.  1.
          1   -1    0    0  501    0  0.00000000000E+00 -0.00000000000E+00 -0.30749525845E+03  0.30749525845E+03  0.00000000000E+00 0. -1.
         23    2    1    2    0    0  0.40806284173E+02 -0.16489921100E+02 -0.25511347300E+02  0.11362032248E+03  0.10159566188E+03 0.  0.
          5    1    3    3  502    0  0.25380789050E+02  0.13731146790E+01 -0.63551504058E+02  0.68607241344E+02  0.47000000000E+01 0. -1.
         -5    1    1    2    0  503  0.61115643332E+02  0.31412854109E+02 -0.43346101242E+02  0.81380979080E+02  0.47000000000E+01 0.  1.
          5    1    1    2  503    0 -0.10192192751E+03 -0.14922933009E+02 -0.16042503851E+03  0.19070672830E+03  0.47000000000E+01 0. -1.
         -5    1    3    3    0  502  0.15425495123E+02 -0.17863035779E+02  0.38040156758E+02  0.45013081134E+02  0.47000000000E+01 0.  1.
<mgrwt>
<rscale>  0 0.15960899E+03</rscale>
<asrwt>0</asrwt>
<pdfrwt beam="1">  1        1 0.47306963E-01 0.18030264E+03</pdfrwt>
<pdfrwt beam="2">  1       -1 0.12032734E-01 0.18030264E+03</pdfrwt>
<totfact> 0.37876596E+03</totfact>
</mgrwt>
</event>
<event>
 8    1  0.3466492E-004  0.9659321E+02  0.7546771E-02  0.1294132E+00
         -1   -1    0    0    0  501 -0.00000000000E+00  0.00000000000E+00  0.74604744633E+02  0.74604744633E+02  0.00000000000E+00 0.  1.
          1   -1    0    0  501    0  0.00000000000E+00 -0.00000000000E+00 -0.20038729979E+03  0.20038729979E+03  0.00000000000E+00 0. -1.
         23    2    1    2    0    0  0.24925441908E+02 -0.20626424041E+02  0.30890462695E+02  0.90935848205E+02  0.79173106420E+02 0.  0.
         23    2    1    2    0    0 -0.24925441908E+02  0.20626424041E+02 -0.15667301785E+03  0.18405619621E+03  0.91013855101E+02 0.  0.
          5    1    4    4  502    0 -0.58462795681E+02  0.12770398716E+02 -0.11552400162E+03  0.13018781246E+03  0.47000000000E+01 0. -1.
         -5    1    4    4    0  502  0.33537353773E+02  0.78560253257E+01 -0.41149016227E+02  0.53868383756E+02  0.47000000000E+01 0.  1.
          5    1    3    3  503    0 -0.27140494573E+02  0.20131790950E+01  0.16521271490E+02  0.32182320416E+02  0.47000000000E+01 0. -1.
         -5    1    3    3    0  503  0.52065936480E+02 -0.22639603136E+02  0.14369191205E+02  0.58753527789E+02  0.47000000000E+01 0.  1.
<mgrwt>
<rscale>  0 0.93699560E+02</rscale>
<asrwt>0</asrwt>
<pdfrwt beam="1">  1        1 0.30828815E-01 0.96593213E+02</pdfrwt>
<pdfrwt beam="2">  1       -1 0.11477653E-01 0.96593213E+02</pdfrwt>
<totfact> 0.66628761E+03</totfact>
</mgrwt>
</event>
<event>
 8    1  0.3466492E-004  0.1236562E+03  0.7546771E-02  0.1237196E+00
          4   -1    0    0  501    0  0.00000000000E+00  0.00000000000E+00  0.27907894690E+03  0.27907894690E+03  0.00000000000E+00 0. -1.
         -4   -1    0    0    0  501 -0.00000000000E+00 -0.00000000000E+00 -0.76283339289E+02  0.76283339289E+02  0.00000000000E+00 0.  1.
         23    2    1    2    0    0 -0.83518133347E+02  0.24120944055E+01  0.19574727635E+03  0.23153369622E+03  0.91157882205E+02 0.  0.
         23    2    1    2    0    0  0.83518133347E+02 -0.24120944055E+01  0.70483312567E+01  0.12382858997E+03  0.91119393781E+02 0.  0.
          5    1    3    3  502    0 -0.86038284366E+02 -0.29584928287E+02  0.13989432850E+03  0.16694420477E+03  0.47000000000E+01 0. -1.
         -5    1    4    4    0  503  0.35853857896E+02  0.20418144897E+02 -0.36422201923E+02  0.55236460422E+02  0.47000000000E+01 0.  1.
          5    1    4    4  503    0  0.47664275451E+02 -0.22830239303E+02  0.43470533179E+02  0.68592129547E+02  0.47000000000E+01 0. -1.
         -5    1    3    3    0  502  0.25201510195E+01  0.31997022692E+02  0.55852947845E+02  0.64589491446E+02  0.47000000000E+01 0.  1.
<mgrwt>
<rscale>  0 0.12364911E+03</rscale>
<asrwt>0</asrwt>
<pdfrwt beam="1">  1        4 0.42935222E-01 0.12365620E+03</pdfrwt>
<pdfrwt beam="2">  1       -4 0.11735899E-01 0.12365620E+03</pdfrwt>
<totfact> 0.49662964E+02</totfact>
</mgrwt>
</event>
<event>
 8    1  0.3466492E-004  0.9793772E+02  0.7546771E-02  0.1285070E+00
          2   -1    0    0  501    0  0.00000000000E+00  0.00000000000E+00  0.65310325191E+03  0.65310325191E+03  0.00000000000E+00 0. -1.
         -2   -1    0    0    0  501 -0.00000000000E+00 -0.00000000000E+00 -0.14687292610E+02  0.14687292610E+02  0.00000000000E+00 0.  1.
         23    2    1    2    0    0  0.26693685766E+01 -0.33441552483E+02  0.34852891042E+03  0.36202789601E+03  0.92012679200E+02 0.  0.
         23    2    1    2    0    0 -0.26693685766E+01  0.33441552483E+02  0.28988704888E+03  0.30576264851E+03  0.91273397829E+02 0.  0.
          5    1    4    4  502    0  0.23721999471E+02  0.50551776371E+02  0.11405831427E+03  0.12708109382E+03  0.47000000000E+01 0. -1.
         -5    1    3    3    0  503  0.30638518739E+02 -0.51932697281E+02  0.17309201000E+03  0.18335391407E+03  0.47000000000E+01 0.  1.
          5    1    3    3  503    0 -0.27969150163E+02  0.18491144798E+02  0.17543690041E+03  0.17867398194E+03  0.47000000000E+01 0. -1.
         -5    1    4    4    0  502 -0.26391368047E+02 -0.17110223887E+02  0.17582873461E+03  0.17868155469E+03  0.47000000000E+01 0.  1.
<mgrwt>
<rscale>  0 0.97763695E+02</rscale>
<asrwt>0</asrwt>
<pdfrwt beam="1">  1        2 0.10047740E+00 0.97937715E+02</pdfrwt>
<pdfrwt beam="2">  1       -2 0.22595840E-02 0.97937715E+02</pdfrwt>
<totfact> 0.26837294E+04</totfact>
</mgrwt>
</event>
<event>
 8    1  0.3466492E-004  0.9640504E+02  0.7546771E-02  0.1288562E+00
          2   -1    0    0  501    0  0.00000000000E+00  0.00000000000E+00  0.92024027928E+02  0.92024027928E+02  0.00000000000E+00 0. -1.
         -2   -1    0    0    0  501 -0.00000000000E+00 -0.00000000000E+00 -0.11687292501E+03  0.11687292501E+03  0.00000000000E+00 0.  1.
         23    2    1    2    0    0  0.17197924802E+02 -0.24742852385E+02  0.27293890373E+02  0.99294021860E+02  0.90589011275E+02 0.  0.
         23    2    1    2    0    0 -0.17197924802E+02  0.24742852385E+02 -0.52142787458E+02  0.10960293108E+03  0.91574859301E+02 0.  0.
          5    1    4    4  502    0  0.13844446021E+01 -0.32873569000E+02 -0.70670266713E+01  0.33979715885E+02  0.47000000000E+01 0. -1.
         -5    1    3    3    0  503 -0.36059445578E+02 -0.84767697702E+01  0.21559420348E+02  0.43116561167E+02  0.47000000000E+01 0.  1.
          5    1    3    3  503    0  0.53257370380E+02 -0.16266082615E+02  0.57344700248E+01  0.56177460693E+02  0.47000000000E+01 0. -1.
         -5    1    4    4    0  502 -0.18582369405E+02  0.57616421386E+02 -0.45075760786E+02  0.75623215195E+02  0.47000000000E+01 0.  1.
<mgrwt>
<rscale>  0 0.96170197E+02</rscale>
<asrwt>0</asrwt>
<pdfrwt beam="1">  1        2 0.14157543E-01 0.96405042E+02</pdfrwt>
<pdfrwt beam="2">  1       -2 0.17980450E-01 0.96405042E+02</pdfrwt>
<totfact> 0.96097103E+03</totfact>
</mgrwt>
</event>
<event>
 8    1  0.3466492E-004  0.1443540E+03  0.7546771E-02  0.1208137E+00
          2   -1    0    0  501    0  0.00000000000E+00  0.00000000000E+00  0.16369254284E+03  0.16369254284E+03  0.00000000000E+00 0. -1.
         -2   -1    0    0    0  501 -0.00000000000E+00 -0.00000000000E+00 -0.12698930063E+03  0.12698930063E+03  0.00000000000E+00 0.  1.
         23    2    1    2    0    0 -0.43119090063E+02  0.10166190463E+03  0.42632305028E+01  0.14272767217E+03  0.90325049057E+02 0.  0.
         23    2    1    2    0    0  0.43119090063E+02 -0.10166190463E+03  0.32440011716E+02  0.14795417130E+03  0.92971413149E+02 0.  0.
          5    1    4    4  502    0 -0.23913290325E+02 -0.10700000480E+02  0.21725127828E+02  0.34357046492E+02  0.47000000000E+01 0. -1.
         -5    1    3    3    0  503 -0.29285410089E+02  0.75930715179E+02  0.44429048978E+02  0.92839318959E+02  0.47000000000E+01 0.  1.
          5    1    3    3  503    0 -0.13833679973E+02  0.25731189456E+02 -0.40165818475E+02  0.49888353212E+02  0.47000000000E+01 0. -1.
         -5    1    4    4    0  502  0.67032380388E+02 -0.90961904154E+02  0.10714883887E+02  0.11359712481E+03  0.47000000000E+01 0.  1.
<mgrwt>
<rscale>  0 0.14392964E+03</rscale>
<asrwt>0</asrwt>
<pdfrwt beam="1">  1        2 0.25183468E-01 0.14435402E+03</pdfrwt>
<pdfrwt beam="2">  1       -2 0.19536815E-01 0.14435402E+03</pdfrwt>
<totfact> 0.44855864E+03</totfact>
</mgrwt>
</event>
<event>
 8    1  0.3466492E-004  0.9944912E+02  0.7546771E-02  0.1282192E+00
          3   -1    0    0  501    0  0.00000000000E+00  0.00000000000E+00  0.27350527071E+02  0.27350527071E+02  0.00000000000E+00 0. -1.
         -3   -1    0    0    0  501 -0.00000000000E+00 -0.00000000000E+00 -0.40906735728E+03  0.40906735728E+03  0.00000000000E+00 0.  1.
         23    2    1    2    0    0  0.30195899317E+02  0.13928126762E+02 -0.11388923180E+03  0.15119816651E+03  0.93724828003E+02 0.  0.
         23    2    1    2    0    0 -0.30195899317E+02 -0.13928126762E+02 -0.26782759841E+03  0.28521971785E+03  0.92265269346E+02 0.  0.
          5    1    4    4  502    0 -0.55339884890E+02 -0.31045498446E+02 -0.14067738125E+03  0.15439734917E+03  0.47000000000E+01 0. -1.
         -5    1    4    4    0  502  0.25143985574E+02  0.17117371684E+02 -0.12715021716E+03  0.13082236868E+03  0.47000000000E+01 0.  1.
          5    1    3    3  503    0 -0.18846811974E+02 -0.11089544624E+02  0.23542919682E+01  0.22490287064E+02  0.47000000000E+01 0. -1.
         -5    1    3    3    0  503  0.49042711291E+02  0.25017671386E+02 -0.11624352377E+03  0.12870787944E+03  0.47000000000E+01 0.  1.
<mgrwt>
<rscale>  0 0.99103747E+02</rscale>
<asrwt>0</asrwt>
<pdfrwt beam="1">  1        3 0.42077734E-02 0.99449125E+02</pdfrwt>
<pdfrwt beam="2">  1       -3 0.62933439E-01 0.99449125E+02</pdfrwt>
<totfact> 0.16220194E+03</totfact>
</mgrwt>
</event>
<event>
 8    1  0.3466492E-004  0.1809625E+03  0.7546771E-02  0.1166962E+00
          1   -1    0    0  501    0  0.00000000000E+00  0.00000000000E+00  0.12428979144E+04  0.12428979144E+04  0.00000000000E+00 0. -1.
         -1   -1    0    0    0  501 -0.00000000000E+00 -0.00000000000E+00 -0.27791994174E+02  0.27791994174E+02  0.00000000000E+00 0.  1.
         23    2    1    2    0    0  0.12312053512E+03  0.94752900084E+02  0.45952833598E+03  0.49374402971E+03  0.92087442477E+02 0.  0.
         23    2    1    2    0    0 -0.12312053512E+03 -0.94752900084E+02  0.75557758427E+03  0.77694587889E+03  0.92793505328E+02 0.  0.
          5    1    4    4  502    0 -0.40588949847E+02 -0.82038830232E+01  0.39124898265E+03  0.39346235267E+03  0.47000000000E+01 0. -1.
         -5    1    3    3    0  503  0.80900865767E+02  0.18386931314E+02  0.30606195192E+03  0.31714198357E+03  0.47000000000E+01 0.  1.
          5    1    3    3  503    0  0.42219669350E+02  0.76365968770E+02  0.15346638406E+03  0.17660204614E+03  0.47000000000E+01 0. -1.
         -5    1    4    4    0  502 -0.82531585270E+02 -0.86549017061E+02  0.36432860162E+03  0.38348352622E+03  0.47000000000E+01 0.  1.
<mgrwt>
<rscale>  0 0.18087214E+03</rscale>
<asrwt>0</asrwt>
<pdfrwt beam="1">  1        1 0.19121502E+00 0.18096246E+03</pdfrwt>
<pdfrwt beam="2">  1       -1 0.42756924E-02 0.18096246E+03</pdfrwt>
<totfact> 0.23705651E+03</totfact>
</mgrwt>
</event>
<event>
 8    1  0.3466492E-004  0.9628163E+02  0.7546771E-02  0.1290224E+00
         -1   -1    0    0    0  501 -0.00000000000E+00  0.00000000000E+00  0.29786073694E+02  0.29786073694E+02  0.00000000000E+00 0.  1.
          1   -1    0    0  501    0  0.00000000000E+00 -0.00000000000E+00 -0.31725562957E+03  0.31725562957E+03  0.00000000000E+00 0. -1.
         23    2    1    2    0    0 -0.19534220711E+02  0.21378079377E+01 -0.10128201788E+03  0.13743265779E+03  0.90793900015E+02 0.  0.
         23    2    1    2    0    0  0.19534220711E+02 -0.21378079377E+01 -0.18618753799E+03  0.20960904547E+03  0.94254955509E+02 0.  0.
          5    1    3    3  502    0  0.33686558625E+02  0.80836051154E+01 -0.60809630765E+02  0.70142926211E+02  0.47000000000E+01 0. -1.
         -5    1    4    4    0  503 -0.17640188077E+02  0.35115269743E+02 -0.10991038005E+03  0.11681883430E+03  0.47000000000E+01 0.  1.
          5    1    4    4  503    0  0.37174408788E+02 -0.37253077681E+02 -0.76277157949E+02  0.92790211176E+02  0.47000000000E+01 0. -1.
         -5    1    3    3    0  502 -0.53220779336E+02 -0.59457971777E+01 -0.40472387114E+02  0.67289731579E+02  0.47000000000E+01 0.  1.
<mgrwt>
<rscale>  0 0.95423858E+02</rscale>
<asrwt>0</asrwt>
<pdfrwt beam="1">  1        1 0.48808559E-01 0.96281632E+02</pdfrwt>
<pdfrwt beam="2">  1       -1 0.45824728E-02 0.96281632E+02</pdfrwt>
<totfact> 0.14902786E+04</totfact>
</mgrwt>
</event>
<event>
 8    1  0.3466492E-004  0.3013973E+03  0.7546771E-02  0.1084717E+00
         -1   -1    0    0    0  501 -0.00000000000E+00  0.00000000000E+00  0.81218602583E+02  0.81218602583E+02  0.00000000000E+00 0.  1.
          1   -1    0    0  501    0  0.00000000000E+00 -0.00000000000E+00 -0.11146092769E+04  0.11146092769E+04  0.00000000000E+00 0. -1.
         23    2    1    2    0    0  0.27027505356E+03  0.95669667073E+02 -0.49763570022E+03  0.58179171056E+03  0.92946299339E+02 0.  0.
         23    2    1    2    0    0 -0.27027505356E+03 -0.95669667073E+02 -0.53575497411E+03  0.61403616894E+03  0.88350069101E+02 0.  0.
          5    1    3    3  502    0  0.10091366276E+03  0.50023735061E+02 -0.11601372548E+03  0.16176283844E+03  0.47000000000E+01 0. -1.
         -5    1    4    4    0  503 -0.22994900439E+02 -0.33304559077E+02 -0.43362160317E+02  0.59500639063E+02  0.47000000000E+01 0.  1.
          5    1    4    4  503    0 -0.24728015312E+03 -0.62365107996E+02 -0.49239281379E+03  0.55453552988E+03  0.47000000000E+01 0. -1.
         -5    1    3    3    0  502  0.16936139080E+03  0.45645932012E+02 -0.38162197474E+03  0.42002887211E+03  0.47000000000E+01 0.  1.
<mgrwt>
<rscale>  0 0.30105027E+03</rscale>
<asrwt>0</asrwt>
<pdfrwt beam="1">  1        1 0.17147834E+00 0.30139725E+03</pdfrwt>
<pdfrwt beam="2">  1       -1 0.12495170E-01 0.30139725E+03</pdfrwt>
<totfact> 0.56649271E+02</totfact>
</mgrwt>
</event>
<event>
 8    1  0.3466492E-004  0.9638284E+02  0.7546771E-02  0.1289146E+00
         -1   -1    0    0    0  501 -0.00000000000E+00  0.00000000000E+00  0.42346644045E+02  0.42346644045E+02  0.00000000000E+00 0.  1.
          1   -1    0    0  501    0  0.00000000000E+00 -0.00000000000E+00 -0.40847146741E+03  0.40847146741E+03  0.00000000000E+00 0. -1.
         23    2    1    2    0    0 -0.26897026004E+02  0.42868186397E+01 -0.28926570146E+02  0.10063001058E+03  0.92454452281E+02 0.  0.
         23    2    1    2    0    0  0.26897026004E+02 -0.42868186397E+01 -0.33719825322E+03  0.35018810088E+03  0.90483242644E+02 0.  0.
          5    1    4    4  502    0  0.22411975649E+02 -0.42838489145E+02 -0.11929286947E+03  0.12880338315E+03  0.47000000000E+01 0. -1.
         -5    1    3    3    0  503  0.31875018549E+02  0.16458165337E+02 -0.10952019455E+02  0.37801120934E+02  0.47000000000E+01 0.  1.
          5    1    3    3  503    0 -0.58772044553E+02 -0.12171346697E+02 -0.17974550691E+02  0.62828889644E+02  0.47000000000E+01 0. -1.
         -5    1    4    4    0  502  0.44850503554E+01  0.38551670505E+02 -0.21790538375E+03  0.22138471773E+03  0.47000000000E+01 0.  1.
<mgrwt>
<rscale>  0 0.95907026E+02</rscale>
<asrwt>0</asrwt>
<pdfrwt beam="1">  1        1 0.62841762E-01 0.96382844E+02</pdfrwt>
<pdfrwt beam="2">  1       -1 0.65148685E-02 0.96382844E+02</pdfrwt>
<totfact> 0.65009461E+03</totfact>
</mgrwt>
</event>
<event>
 8    1  0.3466492E-004  0.1165857E+03  0.7546771E-02  0.1255806E+00
         -2   -1    0    0    0  501 -0.00000000000E+00  0.00000000000E+00  0.64736534159E+02  0.64736534159E+02  0.00000000000E+00 0.  1.
          2   -1    0    0  501    0  0.00000000000E+00 -0.00000000000E+00 -0.19374118047E+03  0.19374118047E+03  0.00000000000E+00 0. -1.
         23    2    1    2    0    0 -0.38065233648E+02 -0.24425336081E+02 -0.39312820231E+02  0.12303546636E+03  0.10745542840E+03 0.  0.
         23    2    1    2    0    0  0.38065233648E+02  0.24425336081E+02 -0.89691826077E+02  0.13544224827E+03  0.90853838092E+02 0.  0.
          5    1    4    4  502    0  0.60380402521E+01  0.50554112616E+02 -0.76094091556E+02  0.91676480093E+02  0.47000000000E+01 0. -1.
         -5    1    4    4    0  502  0.32027193395E+02 -0.26128776535E+02 -0.13597734521E+02  0.43765768177E+02  0.47000000000E+01 0.  1.
          5    1    3    3  503    0 -0.22135478604E+02 -0.16359384222E+01 -0.74537301302E+02  0.77913766389E+02  0.47000000000E+01 0. -1.
         -5    1    3    3    0  503 -0.15929755043E+02 -0.22789397658E+02  0.35224481070E+02  0.45121699969E+02  0.47000000000E+01 0.  1.
<mgrwt>
<rscale>  0 0.11261300E+03</rscale>
<asrwt>0</asrwt>
<pdfrwt beam="1">  1        2 0.29806335E-01 0.11658571E+03</pdfrwt>
<pdfrwt beam="2">  1       -2 0.99594668E-02 0.11658571E+03</pdfrwt>
<totfact> 0.10962339E+04</totfact>
</mgrwt>
</event>
<event>
 8    1  0.3466492E-004  0.9588805E+02  0.7546771E-02  0.1290504E+00
          3   -1    0    0  501    0  0.00000000000E+00  0.00000000000E+00  0.21309109467E+03  0.21309109467E+03  0.00000000000E+00 0. -1.
         -3   -1    0    0    0  501 -0.00000000000E+00 -0.00000000000E+00 -0.31113940599E+03  0.31113940599E+03  0.00000000000E+00 0.  1.
         23    2    1    2    0    0  0.11040773750E+02  0.15434766247E+02 -0.29283914354E+03  0.30813841254E+03  0.93991417714E+02 0.  0.
         23    2    1    2    0    0 -0.11040773750E+02 -0.15434766247E+02  0.19479083222E+03  0.21609208811E+03  0.91608905321E+02 0.  0.
          5    1    4    4  502    0 -0.69409009592E+01 -0.36779122629E+02  0.18952180423E+03  0.19323944795E+03  0.47000000000E+01 0. -1.
         -5    1    3    3    0  503  0.32414398281E+02  0.38991984566E+02 -0.95802916450E+02  0.10849588415E+03  0.47000000000E+01 0.  1.
          5    1    3    3  503    0 -0.21373624531E+02 -0.23557218319E+02 -0.19703622709E+03  0.19964252840E+03  0.47000000000E+01 0. -1.
         -5    1    4    4    0  502 -0.40998727908E+01  0.21344356381E+02  0.52690279898E+01  0.22852640158E+02  0.47000000000E+01 0.  1.
<mgrwt>
<rscale>  0 0.95299092E+02</rscale>
<asrwt>0</asrwt>
<pdfrwt beam="1">  1        3 0.32783245E-01 0.95888046E+02</pdfrwt>
<pdfrwt beam="2">  1       -3 0.47867601E-01 0.95888046E+02</pdfrwt>
<totfact> 0.89625036E+01</totfact>
</mgrwt>
</event>
<event>
 8    1  0.3466492E-004  0.1299922E+03  0.7546771E-02  0.1228064E+00
          1   -1    0    0  501    0  0.00000000000E+00  0.00000000000E+00  0.88734431784E+03  0.88734431784E+03  0.00000000000E+00 0. -1.
         -1   -1    0    0    0  501 -0.00000000000E+00 -0.00000000000E+00 -0.19377127401E+02  0.19377127401E+02  0.00000000000E+00 0.  1.
         23    2    1    2    0    0  0.61924828042E+02 -0.64651169328E+02  0.35903935651E+03  0.38184711445E+03  0.94252327687E+02 0.  0.
         23    2    1    2    0    0 -0.61924828042E+02  0.64651169328E+02  0.50892783393E+03  0.52487433078E+03  0.92038388420E+02 0.  0.
          5    1    3    3  502    0 -0.18113709193E+02 -0.25154850951E+02  0.41759478640E+02  0.52218933764E+02  0.47000000000E+01 0.  1.
         -5    1    3    3    0  502  0.80038537234E+02 -0.39496318376E+02  0.31727987786E+03  0.32962818069E+03  0.47000000000E+01 0. -1.
          5    1    4    4  503    0 -0.12380855518E+01 -0.21000734507E+02  0.12412512855E+03  0.12598294029E+03  0.47000000000E+01 0. -1.
         -5    1    4    4    0  503 -0.60686742490E+02  0.85651903835E+02  0.38480270538E+03  0.39889139049E+03  0.47000000000E+01 0.  1.
<mgrwt>
<rscale>  0 0.12959125E+03</rscale>
<asrwt>0</asrwt>
<pdfrwt beam="1">  1        1 0.13651448E+00 0.12999215E+03</pdfrwt>
<pdfrwt beam="2">  1       -1 0.29810972E-02 0.12999215E+03</pdfrwt>
<totfact> 0.71855283E+03</totfact>
</mgrwt>
</event>
<event>
 8    1  0.3466492E-004  0.9620789E+02  0.7546771E-02  0.1293055E+00
          2   -1    0    0  501    0  0.00000000000E+00  0.00000000000E+00  0.28563919179E+02  0.28563919179E+02  0.00000000000E+00 0. -1.
         -2   -1    0    0    0  501 -0.00000000000E+00 -0.00000000000E+00 -0.41797053728E+03  0.41797053728E+03  0.00000000000E+00 0.  1.
         23    2    1    2    0    0  0.80522679823E+01  0.24975559968E+02 -0.30830141019E+03  0.32070117887E+03  0.84325968637E+02 0.  0.
         23    2    1    2    0    0 -0.80522679823E+01 -0.24975559968E+02 -0.81105207910E+02  0.12583327759E+03  0.92559934008E+02 0.  0.
          5    1    3    3  502    0 -0.37526264897E+02  0.54441076393E+01 -0.12096530594E+03  0.12685643108E+03  0.47000000000E+01 0. -1.
         -5    1    3    3    0  502  0.45578532879E+02  0.19531452328E+02 -0.18733610425E+03  0.19384474779E+03  0.47000000000E+01 0.  1.
          5    1    4    4  503    0 -0.14590215642E+02 -0.56715740363E+02 -0.32252981925E+02  0.67021596821E+02  0.47000000000E+01 0. -1.
         -5    1    4    4    0  503  0.65379476592E+01  0.31740180396E+02 -0.48852225985E+02  0.58811680769E+02  0.47000000000E+01 0.  1.
<mgrwt>
<rscale>  0 0.94170806E+02</rscale>
<asrwt>0</asrwt>
<pdfrwt beam="1">  1        2 0.43944494E-02 0.96207895E+02</pdfrwt>
<pdfrwt beam="2">  1       -2 0.64303155E-01 0.96207895E+02</pdfrwt>
<totfact> 0.39487616E+03</totfact>
</mgrwt>
</event>
<event>
 8    1  0.3466492E-004  0.1708585E+03  0.7546771E-02  0.1176987E+00
         -1   -1    0    0    0  501 -0.00000000000E+00  0.00000000000E+00  0.25858114636E+02  0.25858114636E+02  0.00000000000E+00 0.  1.
          1   -1    0    0  501    0  0.00000000000E+00 -0.00000000000E+00 -0.12468910559E+04  0.12468910559E+04  0.00000000000E+00 0. -1.
         23    2    1    2    0    0 -0.33768745881E+02  0.13961003087E+03 -0.41433160946E+03  0.44817777897E+03  0.92527563751E+02 0.  0.
         23    2    1    2    0    0  0.33768745881E+02 -0.13961003087E+03 -0.80670133180E+03  0.82457139156E+03  0.92301961667E+02 0.  0.
          5    1    4    4  502    0  0.59537935260E+02 -0.99292780522E+02 -0.66276150501E+03  0.67281403413E+03  0.47000000000E+01 0. -1.
         -5    1    3    3    0  503 -0.49938205909E+02  0.65796590653E+02 -0.13128068403E+03  0.15517642782E+03  0.47000000000E+01 0.  1.
          5    1    3    3  503    0  0.16169460028E+02  0.73813440213E+02 -0.28305092543E+03  0.29300135116E+03  0.47000000000E+01 0. -1.
         -5    1    4    4    0  502 -0.25769189379E+02 -0.40317250345E+02 -0.14393982679E+03  0.15175735743E+03  0.47000000000E+01 0.  1.
<mgrwt>
<rscale>  0 0.17082801E+03</rscale>
<asrwt>0</asrwt>
<pdfrwt beam="1">  1        1 0.19182939E+00 0.17085853E+03</pdfrwt>
<pdfrwt beam="2">  1       -1 0.39781716E-02 0.17085853E+03</pdfrwt>
<totfact> 0.26190603E+03</totfact>
</mgrwt>
</event>
<event>
 8    1  0.3466492E-004  0.1478822E+03  0.7546771E-02  0.1203432E+00
          2   -1    0    0  501    0  0.00000000000E+00  0.00000000000E+00  0.18985715488E+03  0.18985715488E+03  0.00000000000E+00 0. -1.
         -2   -1    0    0    0  501 -0.00000000000E+00 -0.00000000000E+00 -0.12660666344E+03  0.12660666344E+03  0.00000000000E+00 0.  1.
         23    2    1    2    0    0 -0.10912372833E+03 -0.36805532577E+02 -0.17679562540E+02  0.14788496386E+03  0.91075574615E+02 0.  0.
         23    2    1    2    0    0  0.10912372833E+03  0.36805532577E+02  0.80930053979E+02  0.16857885445E+03  0.92771338350E+02 0.  0.
          5    1    3    3  502    0 -0.18176748198E+02 -0.30735291756E+02  0.28190096383E+02  0.45736461040E+02  0.47000000000E+01 0. -1.
         -5    1    3    3    0  502 -0.90946980133E+02 -0.60702408211E+01 -0.45869658923E+02  0.10214850282E+03  0.47000000000E+01 0.  1.
          5    1    4    4  503    0 -0.12759893678E+02  0.19891039282E+02  0.19325502632E+02  0.30887430815E+02  0.47000000000E+01 0. -1.
         -5    1    4    4    0  503  0.12188362201E+03  0.16914493295E+02  0.61604551347E+02  0.13769142364E+03  0.47000000000E+01 0.  1.
<mgrwt>
<rscale>  0 0.14761706E+03</rscale>
<asrwt>0</asrwt>
<pdfrwt beam="1">  1        2 0.29208793E-01 0.14788224E+03</pdfrwt>
<pdfrwt beam="2">  1       -2 0.19477948E-01 0.14788224E+03</pdfrwt>
<totfact> 0.38373698E+03</totfact>
</mgrwt>
</event>
<event>
 8    1  0.3466492E-004  0.9897650E+02  0.7546771E-02  0.1282827E+00
         -1   -1    0    0    0  501 -0.00000000000E+00  0.00000000000E+00  0.23877589517E+02  0.23877589517E+02  0.00000000000E+00 0.  1.
          1   -1    0    0  501    0  0.00000000000E+00 -0.00000000000E+00 -0.40745996474E+03  0.40745996474E+03  0.00000000000E+00 0. -1.
         23    2    1    2    0    0  0.17947231580E+02  0.29824497609E+02 -0.19083305572E+03  0.21466118583E+03  0.91926958862E+02 0.  0.
         23    2    1    2    0    0 -0.17947231580E+02 -0.29824497609E+02 -0.19274931950E+03  0.21667636843E+03  0.92653897320E+02 0.  0.
          5    1    4    4  502    0  0.11431799489E+00 -0.56624584897E+02 -0.16255350268E+03  0.17219781623E+03  0.47000000000E+01 0. -1.
         -5    1    3    3    0  503 -0.14196184742E+02  0.50129562467E+02 -0.14910155043E+03  0.15801223698E+03  0.47000000000E+01 0.  1.
          5    1    3    3  503    0  0.32143416322E+02 -0.20305064858E+02 -0.41731505293E+02  0.56648948850E+02  0.47000000000E+01 0. -1.
         -5    1    4    4    0  502 -0.18061549574E+02  0.26800087287E+02 -0.30195816821E+02  0.44478552192E+02  0.47000000000E+01 0.  1.
<mgrwt>
<rscale>  0 0.98806022E+02</rscale>
<asrwt>0</asrwt>
<pdfrwt beam="1">  1        1 0.62686140E-01 0.98976505E+02</pdfrwt>
<pdfrwt beam="2">  1       -1 0.36734758E-02 0.98976505E+02</pdfrwt>
<totfact> 0.15133166E+04</totfact>
</mgrwt>
</event>
<event>
 8    1  0.3466492E-004  0.1079377E+03  0.7546771E-02  0.1266278E+00
         -3   -1    0    0    0  501 -0.00000000000E+00  0.00000000000E+00  0.71353014322E+02  0.71353014322E+02  0.00000000000E+00 0.  1.
          3   -1    0    0  501    0  0.00000000000E+00 -0.00000000000E+00 -0.15904641906E+03  0.15904641906E+03  0.00000000000E+00 0. -1.
         23    2    1    2    0    0 -0.50840394463E+02  0.84681955770E+01 -0.54135176971E+02  0.11736540247E+03  0.90485160477E+02 0.  0.
         23    2    1    2    0    0  0.50840394463E+02 -0.84681955770E+01 -0.33558227771E+02  0.11303403091E+03  0.94837131166E+02 0.  0.
          5    1    4    4  502    0  0.10473565387E+02  0.30292669946E+02 -0.45268680081E+02  0.55665831716E+02  0.47000000000E+01 0. -1.
         -5    1    3    3    0  503 -0.18076716313E+02 -0.26913621418E+02  0.12426622515E+02  0.35037431950E+02  0.47000000000E+01 0.  1.
          5    1    3    3  503    0 -0.32763678150E+02  0.35381816995E+02 -0.66561799486E+02  0.82327970524E+02  0.47000000000E+01 0. -1.
         -5    1    4    4    0  502  0.40366829077E+02 -0.38760865523E+02  0.11710452310E+02  0.57368199197E+02  0.47000000000E+01 0.  1.
<mgrwt>
<rscale>  0 0.10697407E+03</rscale>
<asrwt>0</asrwt>
<pdfrwt beam="1">  1        3 0.24468680E-01 0.10793766E+03</pdfrwt>
<pdfrwt beam="2">  1       -3 0.10977387E-01 0.10793766E+03</pdfrwt>
<totfact> 0.21658213E+03</totfact>
</mgrwt>
</event>
<event>
 8    1  0.3466492E-004  0.1069357E+03  0.7546771E-02  0.1267423E+00
         -3   -1    0    0    0  501 -0.00000000000E+00  0.00000000000E+00  0.13036385675E+03  0.13036385675E+03  0.00000000000E+00 0.  1.
          3   -1    0    0  501    0  0.00000000000E+00 -0.00000000000E+00 -0.71019475491E+03  0.71019475491E+03  0.00000000000E+00 0. -1.
         23    2    1    2    0    0 -0.52569986547E+02  0.25926482786E+01  0.10448416824E+03  0.14793869474E+03  0.90546069365E+02 0.  0.
         23    2    1    2    0    0  0.52569986547E+02 -0.25926482786E+01 -0.68431506640E+03  0.69261991692E+03  0.93085519323E+02 0.  0.
          5    1    4    4  502    0  0.65607219664E+02 -0.32942863731E+02 -0.46701716418E+03  0.47277548708E+03  0.47000000000E+01 0. -1.
         -5    1    3    3    0  503 -0.18686451684E+02  0.22068884412E+02  0.10454755102E+03  0.10857485694E+03  0.47000000000E+01 0.  1.
          5    1    3    3  503    0 -0.33883534863E+02 -0.19476236133E+02 -0.63382777722E-01  0.39363837797E+02  0.47000000000E+01 0. -1.
         -5    1    4    4    0  502 -0.13037233117E+02  0.30350215453E+02 -0.21729790221E+03  0.21984442984E+03  0.47000000000E+01 0.  1.
<mgrwt>
<rscale>  0 0.10638060E+03</rscale>
<asrwt>0</asrwt>
<pdfrwt beam="1">  1        3 0.10926073E+00 0.10693568E+03</pdfrwt>
<pdfrwt beam="2">  1       -3 0.20055978E-01 0.10693568E+03</pdfrwt>
<totfact> 0.38264838E+01</totfact>
</mgrwt>
</event>
<event>
 8    1  0.3466492E-004  0.1295918E+03  0.7546771E-02  0.1228612E+00
         -2   -1    0    0    0  501 -0.00000000000E+00  0.00000000000E+00  0.34543327039E+02  0.34543327039E+02  0.00000000000E+00 0.  1.
          2   -1    0    0  501    0  0.00000000000E+00 -0.00000000000E+00 -0.48836997993E+03  0.48836997993E+03  0.00000000000E+00 0. -1.
         23    2    1    2    0    0 -0.30340088117E+02 -0.86143116103E+02 -0.25842351489E+03  0.28844277325E+03  0.89863023478E+02 0.  0.
         23    2    1    2    0    0  0.30340088117E+02  0.86143116103E+02 -0.19540313800E+03  0.23447053373E+03  0.91939585853E+02 0.  0.
          5    1    4    4  502    0 -0.13559015478E+02  0.20024969277E+02 -0.12767300153E+03  0.13002819546E+03  0.47000000000E+01 0. -1.
         -5    1    4    4    0  502  0.43899103596E+02  0.66118146826E+02 -0.67730136473E+02  0.10444233827E+03  0.47000000000E+01 0.  1.
          5    1    3    3  503    0  0.11064038276E+02 -0.85385612937E+02 -0.18202573080E+03  0.20141641570E+03  0.47000000000E+01 0. -1.
         -5    1    3    3    0  503 -0.41404126393E+02 -0.75750316584E+00 -0.76397784093E+02  0.87026357547E+02  0.47000000000E+01 0.  1.
<mgrwt>
<rscale>  0 0.12922406E+03</rscale>
<asrwt>0</asrwt>
<pdfrwt beam="1">  1        2 0.75133837E-01 0.12959184E+03</pdfrwt>
<pdfrwt beam="2">  1       -2 0.53143584E-02 0.12959184E+03</pdfrwt>
<totfact> 0.10802884E+04</totfact>
</mgrwt>
</event>
<event>
 8    1  0.3466492E-004  0.9744318E+02  0.7546771E-02  0.1287072E+00
          4   -1    0    0  501    0  0.00000000000E+00  0.00000000000E+00  0.79984177096E+02  0.79984177096E+02  0.00000000000E+00 0. -1.
         -4   -1    0    0    0  501 -0.00000000000E+00 -0.00000000000E+00 -0.11941241682E+03  0.11941241682E+03  0.00000000000E+00 0.  1.
         23    2    1    2    0    0  0.30208367779E+02  0.15624247050E+02 -0.37177287188E+02  0.10429441101E+03  0.91315447248E+02 0.  0.
         23    2    1    2    0    0 -0.30208367779E+02 -0.15624247050E+02 -0.22509525354E+01  0.95102182903E+02  0.88784547225E+02 0.  0.
          5    1    4    4  502    0 -0.41652456328E+02 -0.41366559460E+02  0.16225690853E+02  0.61085860912E+02  0.47000000000E+01 0. -1.
         -5    1    3    3    0  503  0.20469009434E+02 -0.26405428603E+02 -0.48835924090E+02  0.59357092993E+02  0.47000000000E+01 0.  1.
          5    1    3    3  503    0  0.97393583452E+01  0.42029675652E+02  0.11658636902E+02  0.44937318020E+02  0.47000000000E+01 0. -1.
         -5    1    4    4    0  502  0.11444088549E+02  0.25742312410E+02 -0.18476643388E+02  0.34016321991E+02  0.47000000000E+01 0.  1.
<mgrwt>
<rscale>  0 0.96845800E+02</rscale>
<asrwt>0</asrwt>
<pdfrwt beam="1">  1        4 0.12305258E-01 0.97443181E+02</pdfrwt>
<pdfrwt beam="2">  1       -4 0.18371141E-01 0.97443181E+02</pdfrwt>
<totfact> 0.21200880E+03</totfact>
</mgrwt>
</event>
<event>
 8    1  0.3466492E-004  0.1821064E+03  0.7546771E-02  0.1166115E+00
          2   -1    0    0  501    0  0.00000000000E+00  0.00000000000E+00  0.13048066769E+04  0.13048066769E+04  0.00000000000E+00 0. -1.
         -2   -1    0    0    0  501 -0.00000000000E+00 -0.00000000000E+00 -0.28887132599E+02  0.28887132599E+02  0.00000000000E+00 0.  1.
         23    2    1    2    0    0  0.15703736699E+03 -0.12294722532E+02  0.87338245795E+03  0.89188066856E+03  0.88556841982E+02 0.  0.
         23    2    1    2    0    0 -0.15703736699E+03  0.12294722532E+02  0.40253708632E+03  0.44181314091E+03  0.91382989578E+02 0.  0.
          5    1    4    4  502    0 -0.48694530503E+02  0.47149191118E+02  0.13923380107E+03  0.15492690174E+03  0.47000000000E+01 0. -1.
         -5    1    3    3    0  503  0.34151263772E+02 -0.41719694134E+02  0.24607663883E+03  0.25195762318E+03  0.47000000000E+01 0.  1.
          5    1    3    3  503    0  0.12288610322E+03  0.29424971602E+02  0.62730581912E+03  0.63992304539E+03  0.47000000000E+01 0. -1.
         -5    1    4    4    0  502 -0.10834283649E+03 -0.34854468585E+02  0.26330328525E+03  0.28688623917E+03  0.47000000000E+01 0.  1.
<mgrwt>
<rscale>  0 0.18175498E+03</rscale>
<asrwt>0</asrwt>
<pdfrwt beam="1">  1        2 0.20073944E+00 0.18210641E+03</pdfrwt>
<pdfrwt beam="2">  1       -2 0.44441753E-02 0.18210641E+03</pdfrwt>
<totfact> 0.40559917E+03</totfact>
</mgrwt>
</event>
<event>
 8    1  0.3466492E-004  0.1015909E+03  0.7546771E-02  0.1278699E+00
         -2   -1    0    0    0  501 -0.00000000000E+00  0.00000000000E+00  0.27168859846E+02  0.27168859846E+02  0.00000000000E+00 0.  1.
          2   -1    0    0  501    0  0.00000000000E+00 -0.00000000000E+00 -0.39099946373E+03  0.39099946373E+03  0.00000000000E+00 0. -1.
         23    2    1    2    0    0 -0.33146309630E+02  0.18535856405E+02 -0.12813515515E+03  0.16151087093E+03  0.90691166203E+02 0.  0.
         23    2    1    2    0    0  0.33146309630E+02 -0.18535856405E+02 -0.23569544874E+03  0.25665745265E+03  0.94225514760E+02 0.  0.
          5    1    4    4  502    0  0.13362169042E+02 -0.45799074598E+02 -0.55755788851E+02  0.73531631194E+02  0.47000000000E+01 0. -1.
         -5    1    4    4    0  502  0.19784140588E+02  0.27263218193E+02 -0.17993965989E+03  0.18312582146E+03  0.47000000000E+01 0.  1.
          5    1    3    3  503    0 -0.29601595390E+02 -0.22980510781E+02 -0.10911594933E+03  0.11546747907E+03  0.47000000000E+01 0. -1.
         -5    1    3    3    0  503 -0.35447142404E+01  0.41516367186E+02 -0.19019205821E+02  0.46043391854E+02  0.47000000000E+01 0.  1.
<mgrwt>
<rscale>  0 0.10076350E+03</rscale>
<asrwt>0</asrwt>
<pdfrwt beam="1">  1        2 0.60153760E-01 0.10159086E+03</pdfrwt>
<pdfrwt beam="2">  1       -2 0.41798249E-02 0.10159086E+03</pdfrwt>
<totfact> 0.19211962E+04</totfact>
</mgrwt>
</event>
<event>
 8    1  0.3466492E-004  0.1140369E+03  0.7546771E-02  0.1257654E+00
          3   -1    0    0  501    0  0.00000000000E+00  0.00000000000E+00  0.29099721931E+03  0.29099721931E+03  0.00000000000E+00 0. -1.
         -3   -1    0    0    0  501 -0.00000000000E+00 -0.00000000000E+00 -0.14336316101E+03  0.14336316101E+03  0.00000000000E+00 0.  1.
         23    2    1    2    0    0  0.50956042637E+02 -0.86411180644E+01 -0.10868629310E+03  0.15753453996E+03  0.10165251482E+03 0.  0.
         23    2    1    2    0    0 -0.50956042637E+02  0.86411180644E+01  0.25632035140E+03  0.27682584036E+03  0.90891342536E+02 0.  0.
          5    1    4    4  502    0 -0.71844039522E+02 -0.72357954596E+01  0.22120828721E+03  0.23274260263E+03  0.47000000000E+01 0. -1.
         -5    1    3    3    0  503  0.25615935081E+02 -0.21839443411E+02 -0.12128474996E+03  0.12595720698E+03  0.47000000000E+01 0.  1.
          5    1    3    3  503    0  0.25340107556E+02  0.13198325346E+02  0.12598456853E+02  0.31577332978E+02  0.47000000000E+01 0. -1.
         -5    1    4    4    0  502  0.20887996885E+02  0.15876913524E+02  0.35112064190E+02  0.44083237728E+02  0.47000000000E+01 0.  1.
<mgrwt>
<rscale>  0 0.11158959E+03</rscale>
<asrwt>0</asrwt>
<pdfrwt beam="1">  1        3 0.44768803E-01 0.11403693E+03</pdfrwt>
<pdfrwt beam="2">  1       -3 0.22055871E-01 0.11403693E+03</pdfrwt>
<totfact> 0.21442744E+02</totfact>
</mgrwt>
</event>
<event>
 8    1  0.3466492E-004  0.1167840E+03  0.7546771E-02  0.1254622E+00
          2   -1    0    0  501    0  0.00000000000E+00  0.00000000000E+00  0.58395484517E+03  0.58395484517E+03  0.00000000000E+00 0. -1.
         -2   -1    0    0    0  501 -0.00000000000E+00 -0.00000000000E+00 -0.22172269886E+02  0.22172269886E+02  0.00000000000E+00 0.  1.
         23    2    1    2    0    0 -0.41972451276E+02 -0.65962470791E+02  0.18824018325E+03  0.21475461852E+03  0.67619859260E+02 0.  0.
         23    2    1    2    0    0  0.41972451276E+02  0.65962470791E+02  0.37354239203E+03  0.39137249653E+03  0.86751243102E+02 0.  0.
          5    1    3    3  502    0 -0.17512441559E+02 -0.14595479353E+02  0.13400638657E+03  0.13601292316E+03  0.47000000000E+01 0. -1.
         -5    1    3    3    0  502 -0.24460009717E+02 -0.51366991437E+02  0.54233796682E+02  0.78741695354E+02  0.47000000000E+01 0.  1.
          5    1    4    4  503    0 -0.13849248440E+02  0.23740315284E+02  0.22916936875E+03  0.23085946770E+03  0.47000000000E+01 0. -1.
         -5    1    4    4    0  503  0.55821699716E+02  0.42222155507E+02  0.14437302328E+03  0.16051302883E+03  0.47000000000E+01 0.  1.
<mgrwt>
<rscale>  0 0.11327533E+03</rscale>
<asrwt>0</asrwt>
<pdfrwt beam="1">  1        2 0.89839195E-01 0.11678404E+03</pdfrwt>
<pdfrwt beam="2">  1       -2 0.34111189E-02 0.11678404E+03</pdfrwt>
<totfact> 0.16996173E+04</totfact>
</mgrwt>
</event>
<event>
 8    1  0.3466492E-004  0.9560285E+02  0.7546771E-02  0.1291309E+00
          2   -1    0    0  501    0  0.00000000000E+00  0.00000000000E+00  0.58257058614E+03  0.58257058614E+03  0.00000000000E+00 0. -1.
         -2   -1    0    0    0  501 -0.00000000000E+00 -0.00000000000E+00 -0.15438895484E+02  0.15438895484E+02  0.00000000000E+00 0.  1.
         23    2    1    2    0    0 -0.16834906759E+02 -0.37839769606E+01  0.31947206798E+03  0.33347010014E+03  0.94032828865E+02 0.  0.
         23    2    1    2    0    0  0.16834906759E+02  0.37839769606E+01  0.24765962268E+03  0.26453938148E+03  0.91367735454E+02 0.  0.
          5    1    4    4  502    0 -0.37092009811E+02 -0.32892285532E+01  0.83696180476E+02  0.91726641945E+02  0.47000000000E+01 0. -1.
         -5    1    4    4    0  502  0.53926916570E+02  0.70732055138E+01  0.16396344220E+03  0.17281273953E+03  0.47000000000E+01 0.  1.
          5    1    3    3  503    0 -0.22694079049E+02  0.38570527749E+02  0.97692788419E+02  0.10755778793E+03  0.47000000000E+01 0. -1.
         -5    1    3    3    0  503  0.58591722900E+01 -0.42354504710E+02  0.22177927956E+03  0.22591231222E+03  0.47000000000E+01 0.  1.
<mgrwt>
<rscale>  0 0.94940991E+02</rscale>
<asrwt>0</asrwt>
<pdfrwt beam="1">  1        2 0.89626227E-01 0.95602853E+02</pdfrwt>
<pdfrwt beam="2">  1       -2 0.23752151E-02 0.95602853E+02</pdfrwt>
<totfact> 0.28342304E+04</totfact>
</mgrwt>
</event>
<event>
 8    1  0.3466492E-004  0.1035474E+03  0.7546771E-02  0.1276425E+00
          2   -1    0    0  501    0  0.00000000000E+00  0.00000000000E+00  0.23077415627E+03  0.23077415627E+03  0.00000000000E+00 0. -1.
         -2   -1    0    0    0  501 -0.00000000000E+00 -0.00000000000E+00 -0.59910441052E+03  0.59910441052E+03  0.00000000000E+00 0.  1.
         23    2    1    2    0    0  0.20946017099E+02 -0.69079558034E+01 -0.58328077029E+03  0.59128729684E+03  0.94433865373E+02 0.  0.
         23    2    1    2    0    0 -0.20946017099E+02  0.69079558034E+01  0.21495051604E+03  0.23859126996E+03  0.10117121264E+03 0.  0.
          5    1    4    4  502    0 -0.60084351869E+02  0.15372491826E+02  0.14637818077E+03  0.15904434806E+03  0.47000000000E+01 0. -1.
         -5    1    4    4    0  502  0.39138334770E+02 -0.84645360223E+01  0.68572335275E+02  0.79546921900E+02  0.47000000000E+01 0.  1.
          5    1    3    3  503    0  0.44383078361E+02 -0.36459168661E+02 -0.30193106928E+03  0.30738182968E+03  0.47000000000E+01 0. -1.
         -5    1    3    3    0  503 -0.23437061263E+02  0.29551212858E+02 -0.28134970101E+03  0.28390546715E+03  0.47000000000E+01 0.  1.
<mgrwt>
<rscale>  0 0.10186378E+03</rscale>
<asrwt>0</asrwt>
<pdfrwt beam="1">  1        2 0.35503718E-01 0.10354743E+03</pdfrwt>
<pdfrwt beam="2">  1       -2 0.92169906E-01 0.10354743E+03</pdfrwt>
<totfact> 0.15374504E+02</totfact>
</mgrwt>
</event>
<event>
 8    1  0.3466492E-004  0.9544221E+02  0.7546771E-02  0.1294776E+00
         -2   -1    0    0    0  501 -0.00000000000E+00  0.00000000000E+00  0.16038127416E+02  0.16038127416E+02  0.00000000000E+00 0.  1.
          2   -1    0    0  501    0  0.00000000000E+00 -0.00000000000E+00 -0.52392219228E+03  0.52392219228E+03  0.00000000000E+00 0. -1.
         23    2    1    2    0    0 -0.22517986985E+01 -0.24208775416E+01 -0.24972891237E+03  0.26734574112E+03  0.95384927405E+02 0.  0.
         23    2    1    2    0    0  0.22517986985E+01  0.24208775416E+01 -0.25815515249E+03  0.27261457857E+03  0.87542529364E+02 0.  0.
          5    1    4    4  502    0  0.14484812530E+02  0.41053229497E+02 -0.97851686193E+02  0.10720177208E+03  0.47000000000E+01 0.  1.
         -5    1    3    3    0  503 -0.13788402862E+02  0.43426326175E+02 -0.15075035516E+03  0.15755546782E+03  0.47000000000E+01 0.  1.
          5    1    3    3  503    0  0.11536604164E+02 -0.45847203717E+02 -0.98978557212E+02  0.10979027330E+03  0.47000000000E+01 0. -1.
         -5    1    4    4    0  502 -0.12233013832E+02 -0.38632351955E+02 -0.16030346630E+03  0.16541280649E+03  0.47000000000E+01 0. -1.
<mgrwt>
<rscale>  0 0.93419496E+02</rscale>
<asrwt>0</asrwt>
<pdfrwt beam="1">  1        2 0.80603413E-01 0.95442211E+02</pdfrwt>
<pdfrwt beam="2">  1       -2 0.24674043E-02 0.95442211E+02</pdfrwt>
<totfact> 0.30145235E+04</totfact>
</mgrwt>
</event>
<event>
 8    1  0.3466492E-004  0.1096659E+03  0.7546771E-02  0.1262378E+00
         -1   -1    0    0    0  501 -0.00000000000E+00  0.00000000000E+00  0.25245964779E+02  0.25245964779E+02  0.00000000000E+00 0.  1.
          1   -1    0    0  501    0  0.00000000000E+00 -0.00000000000E+00 -0.47824831147E+03  0.47824831147E+03  0.00000000000E+00 0. -1.
         23    2    1    2    0    0 -0.40675661482E+01 -0.60265966315E+02 -0.18793378625E+03  0.21759072294E+03  0.91531868247E+02 0.  0.
         23    2    1    2    0    0  0.40675661482E+01  0.60265966315E+02 -0.26506856045E+03  0.28590355331E+03  0.88492758292E+02 0.  0.
          5    1    4    4  502    0  0.28743596592E+02  0.45386559030E+02 -0.24402880105E+03  0.24991654573E+03  0.47000000000E+01 0. -1.
         -5    1    4    4    0  502 -0.24676030444E+02  0.14879407285E+02 -0.21039759394E+02  0.35987007586E+02  0.47000000000E+01 0.  1.
          5    1    3    3  503    0 -0.26854709904E+02 -0.70993953976E+02 -0.97810540189E+02  0.12389636281E+03  0.47000000000E+01 0. -1.
         -5    1    3    3    0  503  0.22787143756E+02  0.10727987660E+02 -0.90123246060E+02  0.93694360130E+02  0.47000000000E+01 0.  1.
<mgrwt>
<rscale>  0 0.10902953E+03</rscale>
<asrwt>0</asrwt>
<pdfrwt beam="1">  1        1 0.73576661E-01 0.10966592E+03</pdfrwt>
<pdfrwt beam="2">  1       -1 0.38839947E-02 0.10966592E+03</pdfrwt>
<totfact> 0.11497053E+04</totfact>
</mgrwt>
</event>
<event>
 8    1  0.3466492E-004  0.1196384E+03  0.7546771E-02  0.1243725E+00
          1   -1    0    0  501    0  0.00000000000E+00  0.00000000000E+00  0.52943610528E+02  0.52943610528E+02  0.00000000000E+00 0. -1.
         -1   -1    0    0    0  501 -0.00000000000E+00 -0.00000000000E+00 -0.37560644663E+03  0.37560644663E+03  0.00000000000E+00 0.  1.
         23    2    1    2    0    0 -0.71157360029E+02  0.31813954340E+02 -0.27488607974E+03  0.29979276571E+03  0.90762591203E+02 0.  0.
         23    2    1    2    0    0  0.71157360029E+02 -0.31813954340E+02 -0.47776756355E+02  0.12875729144E+03  0.90666002855E+02 0.  0.
          5    1    3    3  502    0 -0.30269605510E+02 -0.42578138465E+01 -0.15307470094E+02  0.34507776474E+02  0.47000000000E+01 0. -1.
         -5    1    3    3    0  502 -0.40887754519E+02  0.36071768187E+02 -0.25957860965E+03  0.26528498924E+03  0.47000000000E+01 0.  1.
          5    1    4    4  503    0  0.56854946161E+02 -0.62871976522E+02 -0.36902683483E+02  0.92570342891E+02  0.47000000000E+01 0. -1.
         -5    1    4    4    0  503  0.14302413868E+02  0.31058022182E+02 -0.10874072872E+02  0.36186948547E+02  0.47000000000E+01 0.  1.
<mgrwt>
<rscale>  0 0.11962008E+03</rscale>
<asrwt>0</asrwt>
<pdfrwt beam="1">  1        1 0.81451709E-02 0.11963839E+03</pdfrwt>
<pdfrwt beam="2">  1       -1 0.57785607E-01 0.11963839E+03</pdfrwt>
<totfact> 0.25472539E+03</totfact>
</mgrwt>
</event>
<event>
 8    1  0.3466492E-004  0.1205525E+03  0.7546771E-02  0.1242346E+00
         -4   -1    0    0    0  501 -0.00000000000E+00  0.00000000000E+00  0.22580350476E+03  0.22580350476E+03  0.00000000000E+00 0.  1.
          4   -1    0    0  501    0  0.00000000000E+00 -0.00000000000E+00 -0.10005957667E+03  0.10005957667E+03  0.00000000000E+00 0. -1.
         23    2    1    2    0    0 -0.59995788704E+02 -0.50750055431E+02  0.16053483571E+03  0.20075939706E+03  0.91421218767E+02 0.  0.
         23    2    1    2    0    0  0.59995788704E+02  0.50750055431E+02 -0.34790907627E+02  0.12510368437E+03  0.90914585197E+02 0.  0.
          5    1    4    4  502    0  0.37685394260E+02  0.60852495921E+02 -0.57069432584E+02  0.91663653297E+02  0.47000000000E+01 0. -1.
         -5    1    4    4    0  502  0.22310394444E+02 -0.10102440490E+02  0.22278524957E+02  0.33440031076E+02  0.47000000000E+01 0.  1.
          5    1    3    3  503    0 -0.19614686153E+02 -0.12080666074E+02 -0.66315061504E+01  0.24428370381E+02  0.47000000000E+01 0. -1.
         -5    1    3    3    0  503 -0.40381102551E+02 -0.38669389358E+02  0.16716634187E+03  0.17633102668E+03  0.47000000000E+01 0.  1.
<mgrwt>
<rscale>  0 0.12045643E+03</rscale>
<asrwt>0</asrwt>
<pdfrwt beam="1">  1        4 0.15393781E-01 0.12055249E+03</pdfrwt>
<pdfrwt beam="2">  1       -4 0.34739001E-01 0.12055249E+03</pdfrwt>
<totfact> 0.46806940E+02</totfact>
</mgrwt>
</event>
<event>
 8    1  0.3466492E-004  0.9967504E+02  0.7546771E-02  0.1281695E+00
          1   -1    0    0  501    0  0.00000000000E+00  0.00000000000E+00  0.35385585964E+03  0.35385585964E+03  0.00000000000E+00 0. -1.
         -1   -1    0    0    0  501 -0.00000000000E+00 -0.00000000000E+00 -0.31835048953E+02  0.31835048953E+02  0.00000000000E+00 0.  1.
         23    2    1    2    0    0 -0.32673861417E+02  0.57228108150E+01  0.23146056568E+03  0.25201013368E+03  0.93993522273E+02 0.  0.
         23    2    1    2    0    0  0.32673861417E+02 -0.57228108150E+01  0.90560245003E+02  0.13368077491E+03  0.92569216382E+02 0.  0.
          5    1    4    4  502    0  0.72872654505E+01  0.42623131057E+02  0.41684080589E+02  0.60245233118E+02  0.47000000000E+01 0. -1.
         -5    1    4    4    0  502  0.25386595967E+02 -0.48345941872E+02  0.48876164414E+02  0.73435541791E+02  0.47000000000E+01 0.  1.
          5    1    3    3  503    0 -0.22921403529E+02 -0.16432165312E+02  0.22460334404E+03  0.22641589818E+03  0.47000000000E+01 0. -1.
         -5    1    3    3    0  503 -0.97524578883E+01  0.22154976127E+02  0.68572216406E+01  0.25594235497E+02  0.47000000000E+01 0.  1.
<mgrwt>
<rscale>  0 0.99337840E+02</rscale>
<asrwt>0</asrwt>
<pdfrwt beam="1">  1        1 0.54439360E-01 0.99675042E+02</pdfrwt>
<pdfrwt beam="2">  1       -1 0.48977001E-02 0.99675042E+02</pdfrwt>
<totfact> 0.11858097E+04</totfact>
</mgrwt>
</event>
<event>
 8    1  0.3466492E-004  0.9922098E+02  0.7546771E-02  0.1283406E+00
         -1   -1    0    0    0  501 -0.00000000000E+00  0.00000000000E+00  0.63699304650E+02  0.63699304650E+02  0.00000000000E+00 0.  1.
          1   -1    0    0  501    0  0.00000000000E+00 -0.00000000000E+00 -0.23936569621E+03  0.23936569621E+03  0.00000000000E+00 0. -1.
         23    2    1    2    0    0 -0.35373673297E+02  0.16262335850E+02 -0.18099933730E+03  0.20641115166E+03  0.91263591284E+02 0.  0.
         23    2    1    2    0    0  0.35373673297E+02 -0.16262335850E+02  0.53329457405E+01  0.96653849207E+02  0.88304959806E+02 0.  0.
          5    1    4    4  502    0 -0.15484758114E+02  0.25387262886E+02  0.62280328388E+01  0.30743604924E+02  0.47000000000E+01 0. -1.
         -5    1    4    4    0  502  0.50858431412E+02 -0.41649598736E+02 -0.89508709832E+00  0.65910244283E+02  0.47000000000E+01 0.  1.
          5    1    3    3  503    0 -0.55604150383E+02  0.39016382004E+02 -0.11667304123E+03  0.13508807554E+03  0.47000000000E+01 0. -1.
         -5    1    3    3    0  503  0.20230477086E+02 -0.22754046153E+02 -0.64326296079E+02  0.71323076117E+02  0.47000000000E+01 0.  1.
<mgrwt>
<rscale>  0 0.98535315E+02</rscale>
<asrwt>0</asrwt>
<pdfrwt beam="1">  1        1 0.36825492E-01 0.99220983E+02</pdfrwt>
<pdfrwt beam="2">  1       -1 0.97998930E-02 0.99220983E+02</pdfrwt>
<totfact> 0.68240754E+03</totfact>
</mgrwt>
</event>
<event>
 8    1  0.3466492E-004  0.1198087E+03  0.7546771E-02  0.1249153E+00
          3   -1    0    0  501    0  0.00000000000E+00  0.00000000000E+00  0.95090031121E+02  0.95090031121E+02  0.00000000000E+00 0. -1.
         -3   -1    0    0    0  501 -0.00000000000E+00 -0.00000000000E+00 -0.27056683490E+03  0.27056683490E+03  0.00000000000E+00 0.  1.
         23    2    1    2    0    0  0.62448392257E+00  0.59522628198E+02  0.44114300367E+02  0.11550813224E+03  0.88615596077E+02 0.  0.
         23    2    1    2    0    0 -0.62448392257E+00 -0.59522628198E+02 -0.21959110415E+03  0.25014873379E+03  0.10397501020E+03 0.  0.
          5    1    4    4  502    0  0.46139418846E+02 -0.26258202942E+02 -0.58802336178E+02  0.79360846349E+02  0.47000000000E+01 0. -1.
         -5    1    4    4    0  502 -0.46763902769E+02 -0.33264425256E+02 -0.16078876797E+03  0.17078788744E+03  0.47000000000E+01 0.  1.
          5    1    3    3  503    0  0.24807763482E+02  0.71429046952E+02  0.45026875670E+02  0.88130831211E+02  0.47000000000E+01 0. -1.
         -5    1    3    3    0  503 -0.24183279559E+02 -0.11906418753E+02 -0.91257530303E+00  0.27377301026E+02  0.47000000000E+01 0.  1.
<mgrwt>
<rscale>  0 0.11640208E+03</rscale>
<asrwt>0</asrwt>
<pdfrwt beam="1">  1        3 0.14629236E-01 0.11980875E+03</pdfrwt>
<pdfrwt beam="2">  1       -3 0.41625666E-01 0.11980875E+03</pdfrwt>
<totfact> 0.50699654E+02</totfact>
</mgrwt>
</event>
<event>
 8    1  0.3466492E-004  0.1466423E+03  0.7546771E-02  0.1204864E+00
          1   -1    0    0  501    0  0.00000000000E+00  0.00000000000E+00  0.31564195100E+03  0.31564195100E+03  0.00000000000E+00 0. -1.
         -1   -1    0    0    0  501 -0.00000000000E+00 -0.00000000000E+00 -0.82678107961E+02  0.82678107961E+02  0.00000000000E+00 0.  1.
         23    2    1    2    0    0  0.94165112168E+02 -0.63726388697E+02  0.32293492743E+02  0.15015598855E+03  0.92605778757E+02 0.  0.
         23    2    1    2    0    0 -0.94165112168E+02  0.63726388697E+02  0.20067035030E+03  0.24816407041E+03  0.91589821415E+02 0.  0.
          5    1    4    4  502    0 -0.64185334811E+02  0.83651541881E+02  0.12068310832E+03  0.16032417253E+03  0.47000000000E+01 0. -1.
         -5    1    4    4    0  502 -0.29979777358E+02 -0.19925153184E+02  0.79987241982E+02  0.87839897881E+02  0.47000000000E+01 0.  1.
          5    1    3    3  503    0  0.17283967061E+02  0.14901603821E+02  0.32619824635E+02  0.40086609647E+02  0.47000000000E+01 0. -1.
         -5    1    3    3    0  503  0.76881145107E+02 -0.78627992519E+02 -0.32633189162E+00  0.11006937891E+03  0.47000000000E+01 0.  1.
<mgrwt>
<rscale>  0 0.14648213E+03</rscale>
<asrwt>0</asrwt>
<pdfrwt beam="1">  1        1 0.48560299E-01 0.14664226E+03</pdfrwt>
<pdfrwt beam="2">  1       -1 0.12719709E-01 0.14664226E+03</pdfrwt>
<totfact> 0.33324395E+03</totfact>
</mgrwt>
</event>
<event>
 8    1  0.3466492E-004  0.9347226E+02  0.7546771E-02  0.1294828E+00
          4   -1    0    0  501    0  0.00000000000E+00  0.00000000000E+00  0.36117592850E+02  0.36117592850E+02  0.00000000000E+00 0. -1.
         -4   -1    0    0    0  501 -0.00000000000E+00 -0.00000000000E+00 -0.25510888378E+03  0.25510888378E+03  0.00000000000E+00 0.  1.
         23    2    1    2    0    0  0.13135863667E+02 -0.20644606980E+02 -0.75573734239E+02  0.12020171986E+03  0.90212601331E+02 0.  0.
         23    2    1    2    0    0 -0.13135863667E+02  0.20644606980E+02 -0.14341755669E+03  0.17102475677E+03  0.89900618182E+02 0.  0.
          5    1    3    3  502    0  0.40256701124E+02  0.14489014551E+02 -0.16348739975E+02  0.46042424206E+02  0.47000000000E+01 0. -1.
         -5    1    3    3    0  502 -0.27120837457E+02 -0.35133621531E+02 -0.59224994264E+02  0.74159295654E+02  0.47000000000E+01 0.  1.
          5    1    4    4  503    0  0.26092475842E+02  0.40363114211E+02 -0.85490755566E+02  0.98187359531E+02  0.47000000000E+01 0. -1.
         -5    1    4    4    0  503 -0.39228339509E+02 -0.19718507231E+02 -0.57926801121E+02  0.72837397236E+02  0.47000000000E+01 0.  1.
<mgrwt>
<rscale>  0 0.93396906E+02</rscale>
<asrwt>0</asrwt>
<pdfrwt beam="1">  1        4 0.55565528E-02 0.93472264E+02</pdfrwt>
<pdfrwt beam="2">  1       -4 0.39247520E-01 0.93472264E+02</pdfrwt>
<totfact> 0.19093850E+03</totfact>
</mgrwt>
</event>
<event>
 8    1  0.3466492E-004  0.9760722E+02  0.7546771E-02  0.1289977E+00
          2   -1    0    0  501    0  0.00000000000E+00  0.00000000000E+00  0.27386676451E+03  0.27386676451E+03  0.00000000000E+00 0. -1.
         -2   -1    0    0    0  501 -0.00000000000E+00 -0.00000000000E+00 -0.39969036126E+02  0.39969036126E+02  0.00000000000E+00 0.  1.
         23    2    1    2    0    0  0.52209120427E+01  0.30873639327E+02  0.18301865647E+03  0.20376378469E+03  0.83925036822E+02 0.  0.
         23    2    1    2    0    0 -0.52209120427E+01 -0.30873639327E+02  0.50879071906E+02  0.11007201594E+03  0.92448521934E+02 0.  0.
          5    1    3    3  502    0  0.36004829319E+01 -0.28878728803E+02  0.65730561826E+02  0.72038470365E+02  0.47000000000E+01 0. -1.
         -5    1    3    3    0  502  0.16204291108E+01  0.59752368130E+02  0.11728809465E+03  0.13172531432E+03  0.47000000000E+01 0.  1.
          5    1    4    4  503    0  0.38012470017E+02 -0.32222343639E+02  0.42718834291E+02  0.65804377587E+02  0.47000000000E+01 0. -1.
         -5    1    4    4    0  503 -0.43233382060E+02  0.13487043118E+01  0.81602376148E+01  0.44267638356E+02  0.47000000000E+01 0.  1.
<mgrwt>
<rscale>  0 0.95534296E+02</rscale>
<asrwt>0</asrwt>
<pdfrwt beam="1">  1        2 0.42133347E-01 0.97607217E+02</pdfrwt>
<pdfrwt beam="2">  1       -2 0.61490827E-02 0.97607217E+02</pdfrwt>
<totfact> 0.15643217E+04</totfact>
</mgrwt>
</event>
<event>
 8    1  0.3466492E-004  0.9945050E+02  0.7546771E-02  0.1281527E+00
         -1   -1    0    0    0  501 -0.00000000000E+00  0.00000000000E+00  0.31474556324E+03  0.31474556324E+03  0.00000000000E+00 0.  1.
          1   -1    0    0  501    0  0.00000000000E+00 -0.00000000000E+00 -0.40258763672E+02  0.40258763672E+02  0.00000000000E+00 0. -1.
         23    2    1    2    0    0  0.34148913405E+02 -0.24309885425E+02  0.53817378219E+02  0.11296012656E+03  0.90036443615E+02 0.  0.
         23    2    1    2    0    0 -0.34148913405E+02  0.24309885425E+02  0.22066942135E+03  0.24204420035E+03  0.90184713716E+02 0.  0.
          5    1    4    4  502    0  0.23611547021E+02  0.22329008083E+02  0.37145966110E+02  0.49578246771E+02  0.47000000000E+01 0. -1.
         -5    1    4    4    0  502 -0.57760460426E+02  0.19808773417E+01  0.18352345524E+03  0.19246595358E+03  0.47000000000E+01 0.  1.
          5    1    3    3  503    0  0.52259221888E+02 -0.12702880222E+02 -0.88460175156E+00  0.53993165850E+02  0.47000000000E+01 0. -1.
         -5    1    3    3    0  503 -0.18110308483E+02 -0.11607005203E+02  0.54701979970E+02  0.58966960714E+02  0.47000000000E+01 0.  1.
<mgrwt>
<rscale>  0 0.99416871E+02</rscale>
<asrwt>0</asrwt>
<pdfrwt beam="1">  1        1 0.61936562E-02 0.99450497E+02</pdfrwt>
<pdfrwt beam="2">  1       -1 0.48422393E-01 0.99450497E+02</pdfrwt>
<totfact> 0.50260248E+03</totfact>
</mgrwt>
</event>
<event>
 8    1  0.3466492E-004  0.9071438E+02  0.7546771E-02  0.1306469E+00
          1   -1    0    0  501    0  0.00000000000E+00  0.00000000000E+00  0.54267452125E+03  0.54267452125E+03  0.00000000000E+00 0. -1.
         -1   -1    0    0    0  501 -0.00000000000E+00 -0.00000000000E+00 -0.20168850197E+02  0.20168850197E+02  0.00000000000E+00 0.  1.
         23    2    1    2    0    0 -0.21689809901E+02 -0.16792663015E+02  0.42819581001E+03  0.43769938319E+03  0.86467664223E+02 0.  0.
         23    2    1    2    0    0  0.21689809901E+02  0.16792663015E+02  0.94309861050E+02  0.12514398826E+03  0.77551444352E+02 0.  0.
          5    1    3    3  502    0 -0.14810483293E+02 -0.47317135486E+02  0.34700891072E+03  0.35056459582E+03  0.47000000000E+01 0. -1.
         -5    1    3    3    0  502 -0.68793266082E+01  0.30524472471E+02  0.81186899286E+02  0.87134787369E+02  0.47000000000E+01 0.  1.
          5    1    4    4  503    0  0.13345306101E+02 -0.30455361332E+02  0.45386258609E+02  0.56459088722E+02  0.47000000000E+01 0. -1.
         -5    1    4    4    0  503  0.83445038004E+01  0.47248024348E+02  0.48923602440E+02  0.68684899535E+02  0.47000000000E+01 0.  1.
<mgrwt>
<rscale>  0 0.88522557E+02</rscale>
<asrwt>0</asrwt>
<pdfrwt beam="1">  1        1 0.83488377E-01 0.90714378E+02</pdfrwt>
<pdfrwt beam="2">  1       -1 0.31029004E-02 0.90714378E+02</pdfrwt>
<totfact> 0.13304212E+04</totfact>
</mgrwt>
</event>
<event>
 8    1  0.3466492E-004  0.1119422E+03  0.7546771E-02  0.1257577E+00
          2   -1    0    0  501    0  0.00000000000E+00  0.00000000000E+00  0.40599589167E+03  0.40599589167E+03  0.00000000000E+00 0. -1.
         -2   -1    0    0    0  501 -0.00000000000E+00 -0.00000000000E+00 -0.32711777756E+02  0.32711777756E+02  0.00000000000E+00 0.  1.
         23    2    1    2    0    0  0.33142833227E+01  0.63313477399E+02  0.13089992039E+03  0.17223776706E+03  0.92257673669E+02 0.  0.
         23    2    1    2    0    0 -0.33142833227E+01 -0.63313477399E+02  0.24238419352E+03  0.26646990236E+03  0.90755334281E+02 0.  0.
          5    1    4    4  502    0  0.34190150393E+02 -0.29464859538E+02  0.18213092220E+03  0.18769898016E+03  0.47000000000E+01 0. -1.
         -5    1    3    3    0  503  0.29735450957E+02  0.55058996244E+02  0.34038295099E+02  0.71388974248E+02  0.47000000000E+01 0.  1.
          5    1    3    3  503    0 -0.26421167635E+02  0.82544811555E+01  0.96861625291E+02  0.10084879282E+03  0.47000000000E+01 0. -1.
         -5    1    4    4    0  502 -0.37504433715E+02 -0.33848617861E+02  0.60253271322E+02  0.78770922201E+02  0.47000000000E+01 0.  1.
<mgrwt>
<rscale>  0 0.11163221E+03</rscale>
<asrwt>0</asrwt>
<pdfrwt beam="1">  1        2 0.62460903E-01 0.11194221E+03</pdfrwt>
<pdfrwt beam="2">  1       -2 0.50325815E-02 0.11194221E+03</pdfrwt>
<totfact> 0.14136105E+04</totfact>
</mgrwt>
</event>
<event>
 8    1  0.3466492E-004  0.1261381E+03  0.7546771E-02  0.1235449E+00
          1   -1    0    0  501    0  0.00000000000E+00  0.00000000000E+00  0.69153450575E+02  0.69153450575E+02  0.00000000000E+00 0. -1.
         -1   -1    0    0    0  501 -0.00000000000E+00 -0.00000000000E+00 -0.28598954066E+03  0.28598954066E+03  0.00000000000E+00 0.  1.
         23    2    1    2    0    0  0.21490223077E+02  0.80431866151E+02 -0.19535840621E+03  0.23254190484E+03  0.94761362643E+02 0.  0.
         23    2    1    2    0    0 -0.21490223077E+02 -0.80431866151E+02 -0.21477683876E+02  0.12260108639E+03  0.87399203086E+02 0.  0.
          5    1    3    3  502    0 -0.61376194240E+01 -0.19889060664E+02 -0.42674170394E+02  0.47711842608E+02  0.47000000000E+01 0. -1.
         -5    1    4    4    0  503 -0.13570616048E+02 -0.60571469991E+02 -0.54663687416E+02  0.82844875030E+02  0.47000000000E+01 0.  1.
          5    1    4    4  503    0 -0.79196070281E+01 -0.19860396160E+02  0.33186003540E+02  0.39756211365E+02  0.47000000000E+01 0. -1.
         -5    1    3    3    0  502  0.27627842500E+02  0.10032092681E+03 -0.15268423582E+03  0.18483006223E+03  0.47000000000E+01 0.  1.
<mgrwt>
<rscale>  0 0.12475739E+03</rscale>
<asrwt>0</asrwt>
<pdfrwt beam="1">  1        1 0.10638992E-01 0.12613814E+03</pdfrwt>
<pdfrwt beam="2">  1       -1 0.43998391E-01 0.12613814E+03</pdfrwt>
<totfact> 0.29473611E+03</totfact>
</mgrwt>
</event>
<event>
 8    1  0.3466492E-004  0.1155709E+03  0.7546771E-02  0.1253761E+00
          1   -1    0    0  501    0  0.00000000000E+00  0.00000000000E+00  0.73805310208E+02  0.73805310208E+02  0.00000000000E+00 0. -1.
         -1   -1    0    0    0  501 -0.00000000000E+00 -0.00000000000E+00 -0.17703884101E+03  0.17703884101E+03  0.00000000000E+00 0.  1.
         23    2    1    2    0    0 -0.52431781830E+02 -0.38780771381E+02 -0.74937884372E+02  0.13185980278E+03  0.86708022126E+02 0.  0.
         23    2    1    2    0    0  0.52431781830E+02  0.38780771381E+02 -0.28295646433E+02  0.11898434844E+03  0.95412743338E+02 0.  0.
          5    1    4    4  502    0 -0.24718526817E+02 -0.55952448744E+01 -0.10929300660E+01  0.25799163345E+02  0.47000000000E+01 0. -1.
         -5    1    4    4    0  502  0.77150308647E+02  0.44376016255E+02 -0.27202716367E+02  0.93185185093E+02  0.47000000000E+01 0.  1.
          5    1    3    3  503    0 -0.42623074739E+02  0.28773693067E+00 -0.80220634376E+02  0.90962901628E+02  0.47000000000E+01 0. -1.
         -5    1    3    3    0  503 -0.98087070910E+01 -0.39068508311E+02  0.52827500043E+01  0.40896901155E+02  0.47000000000E+01 0.  1.
<mgrwt>
<rscale>  0 0.11375998E+03</rscale>
<asrwt>0</asrwt>
<pdfrwt beam="1">  1        1 0.11354663E-01 0.11557089E+03</pdfrwt>
<pdfrwt beam="2">  1       -1 0.27236745E-01 0.11557089E+03</pdfrwt>
<totfact> 0.61113044E+03</totfact>
</mgrwt>
</event>
<event>
 8    1  0.3466492E-004  0.1248390E+03  0.7546771E-02  0.1235929E+00
          2   -1    0    0  501    0  0.00000000000E+00  0.00000000000E+00  0.22510269339E+03  0.22510269339E+03  0.00000000000E+00 0. -1.
         -2   -1    0    0    0  501 -0.00000000000E+00 -0.00000000000E+00 -0.71240217608E+02  0.71240217608E+02  0.00000000000E+00 0.  1.
         23    2    1    2    0    0  0.92089581305E+01 -0.83328928535E+02  0.46785403979E+02  0.13187324593E+03  0.90405551416E+02 0.  0.
         23    2    1    2    0    0 -0.92089581305E+01  0.83328928535E+02  0.10707707181E+03  0.16446966507E+03  0.92500033407E+02 0.  0.
          5    1    3    3  502    0  0.47589386880E+02 -0.46884151869E+02  0.40756850138E+02  0.78396965970E+02  0.47000000000E+01 0. -1.
         -5    1    3    3    0  502 -0.38380428750E+02 -0.36444776666E+02  0.60285538404E+01  0.53476279962E+02  0.47000000000E+01 0.  1.
          5    1    4    4  503    0  0.34362439927E+02  0.53896210221E+01  0.35644617722E+02  0.50024534631E+02  0.47000000000E+01 0. -1.
         -5    1    4    4    0  503 -0.43571398057E+02  0.77939307513E+02  0.71432454084E+02  0.11444513044E+03  0.47000000000E+01 0.  1.
<mgrwt>
<rscale>  0 0.12445121E+03</rscale>
<asrwt>0</asrwt>
<pdfrwt beam="1">  1        2 0.34631183E-01 0.12483898E+03</pdfrwt>
<pdfrwt beam="2">  1       -2 0.10960034E-01 0.12483898E+03</pdfrwt>
<totfact> 0.80711270E+03</totfact>
</mgrwt>
</event>
<event>
 8    1  0.3466492E-004  0.9530750E+02  0.7546771E-02  0.1290905E+00
         -2   -1    0    0    0  501 -0.00000000000E+00  0.00000000000E+00  0.21637532049E+02  0.21637532049E+02  0.00000000000E+00 0.  1.
          2   -1    0    0  501    0  0.00000000000E+00 -0.00000000000E+00 -0.41844626299E+03  0.41844626299E+03  0.00000000000E+00 0. -1.
         23    2    1    2    0    0  0.16339720611E+02 -0.12737875531E+02 -0.21409304784E+03  0.23434878439E+03  0.93028380985E+02 0.  0.
         23    2    1    2    0    0 -0.16339720611E+02  0.12737875531E+02 -0.18271568310E+03  0.20573501064E+03  0.92263935603E+02 0.  0.
          5    1    3    3  502    0 -0.32380569805E+02  0.61081180350E+01 -0.37546894939E+02  0.50176386143E+02  0.47000000000E+01 0. -1.
         -5    1    4    4    0  503  0.31512476771E+02 -0.18475213622E+02 -0.80939340595E+02  0.88924892840E+02  0.47000000000E+01 0.  1.
          5    1    4    4  503    0 -0.47852197382E+02  0.31213089152E+02 -0.10177634250E+03  0.11681011780E+03  0.47000000000E+01 0. -1.
         -5    1    3    3    0  502  0.48720290416E+02 -0.18845993566E+02 -0.17654615290E+03  0.18417239825E+03  0.47000000000E+01 0.  1.
<mgrwt>
<rscale>  0 0.95120446E+02</rscale>
<asrwt>0</asrwt>
<pdfrwt beam="1">  1        2 0.64376342E-01 0.95307500E+02</pdfrwt>
<pdfrwt beam="2">  1       -2 0.33288514E-02 0.95307500E+02</pdfrwt>
<totfact> 0.24824053E+04</totfact>
</mgrwt>
</event>
<event>
 8    1  0.3466492E-004  0.1135491E+03  0.7546771E-02  0.1263533E+00
         -4   -1    0    0    0  501 -0.00000000000E+00  0.00000000000E+00  0.79352285371E+02  0.79352285371E+02  0.00000000000E+00 0.  1.
          4   -1    0    0  501    0  0.00000000000E+00 -0.00000000000E+00 -0.13698462623E+03  0.13698462623E+03  0.00000000000E+00 0. -1.
         23    2    1    2    0    0 -0.58035875286E+01 -0.15910616120E+02 -0.39658545096E+02  0.12027549130E+03  0.11227895740E+03 0.  0.
         23    2    1    2    0    0  0.58035875286E+01  0.15910616120E+02 -0.17973795766E+02  0.96061420307E+02  0.92832697923E+02 0.  0.
          5    1    3    3  502    0 -0.29431261887E+02  0.22828210291E+02 -0.59640362341E+02  0.70472612989E+02  0.47000000000E+01 0. -1.
         -5    1    3    3    0  502  0.23627674359E+02 -0.38738826410E+02  0.19981817245E+02  0.49802878307E+02  0.47000000000E+01 0.  1.
          5    1    4    4  503    0 -0.27898588683E+02 -0.26132317774E+02 -0.16645158379E+02  0.41956889544E+02  0.47000000000E+01 0. -1.
         -5    1    4    4    0  503  0.33702176211E+02  0.42042933894E+02 -0.13286373863E+01  0.54104530763E+02  0.47000000000E+01 0.  1.
<mgrwt>
<rscale>  0 0.10841525E+03</rscale>
<asrwt>0</asrwt>
<pdfrwt beam="1">  1        4 0.21074558E-01 0.11354908E+03</pdfrwt>
<pdfrwt beam="2">  1       -4 0.12208044E-01 0.11354908E+03</pdfrwt>
<totfact> 0.17465455E+03</totfact>
</mgrwt>
</event>
<event>
 8    1  0.3466492E-004  0.1223015E+03  0.7546771E-02  0.1240466E+00
         -2   -1    0    0    0  501 -0.00000000000E+00  0.00000000000E+00  0.52758184009E+02  0.52758184009E+02  0.00000000000E+00 0.  1.
          2   -1    0    0  501    0  0.00000000000E+00 -0.00000000000E+00 -0.30661504071E+03  0.30661504071E+03  0.00000000000E+00 0. -1.
         23    2    1    2    0    0  0.51406224746E+02  0.59570768448E+02 -0.72563977912E+02  0.14220821307E+03  0.93628887517E+02 0.  0.
         23    2    1    2    0    0 -0.51406224746E+02 -0.59570768448E+02 -0.18129287879E+03  0.21716501165E+03  0.90012543511E+02 0.  0.
          5    1    3    3  502    0  0.69579359305E+02  0.43124257696E+02 -0.81587513915E+02  0.11567022638E+03  0.47000000000E+01 0. -1.
         -5    1    4    4    0  503 -0.68656416788E+02 -0.13689656245E+02 -0.11181693653E+03  0.13200843742E+03  0.47000000000E+01 0.  1.
          5    1    4    4  503    0  0.17250192041E+02 -0.45881112203E+02 -0.69475942261E+02  0.85156574235E+02  0.47000000000E+01 0. -1.
         -5    1    3    3    0  502 -0.18173134559E+02  0.16446510752E+02  0.90235360037E+01  0.26537986691E+02  0.47000000000E+01 0.  1.
<mgrwt>
<rscale>  0 0.12160912E+03</rscale>
<asrwt>0</asrwt>
<pdfrwt beam="1">  1        2 0.47171545E-01 0.12230145E+03</pdfrwt>
<pdfrwt beam="2">  1       -2 0.81166437E-02 0.12230145E+03</pdfrwt>
<totfact> 0.92786875E+03</totfact>
</mgrwt>
</event>
<event>
 8    1  0.3466492E-004  0.1215515E+03  0.7546771E-02  0.1243643E+00
          2   -1    0    0  501    0  0.00000000000E+00  0.00000000000E+00  0.23351633951E+03  0.23351633951E+03  0.00000000000E+00 0. -1.
         -2   -1    0    0    0  501 -0.00000000000E+00 -0.00000000000E+00 -0.82451458054E+02  0.82451458054E+02  0.00000000000E+00 0.  1.
         23    2    1    2    0    0  0.64637841813E+02  0.46675030625E+02 -0.60886710985E+01  0.12170390689E+03  0.91750531107E+02 0.  0.
         23    2    1    2    0    0 -0.64637841813E+02 -0.46675030625E+02  0.15715355255E+03  0.19426389067E+03  0.81759470776E+02 0.  0.
          5    1    4    4  502    0 -0.49166975979E+02 -0.23972776850E+02  0.15707373219E+03  0.16639210588E+03  0.47000000000E+01 0. -1.
         -5    1    4    4    0  502 -0.15470865834E+02 -0.22702253775E+02  0.79820365385E-01  0.27871784791E+02  0.47000000000E+01 0.  1.
          5    1    3    3  503    0  0.15284953157E+02  0.57328879029E+02  0.22338263054E+02  0.63571362735E+02  0.47000000000E+01 0. -1.
         -5    1    3    3    0  503  0.49352888656E+02 -0.10653848404E+02 -0.28426934153E+02  0.58132544155E+02  0.47000000000E+01 0.  1.
<mgrwt>
<rscale>  0 0.11966993E+03</rscale>
<asrwt>0</asrwt>
<pdfrwt beam="1">  1        2 0.35925590E-01 0.12155151E+03</pdfrwt>
<pdfrwt beam="2">  1       -2 0.12684840E-01 0.12155151E+03</pdfrwt>
<totfact> 0.61398449E+03</totfact>
</mgrwt>
</event>
<event>
 8    1  0.3466492E-004  0.1076946E+03  0.7546771E-02  0.1265044E+00
         -1   -1    0    0    0  501 -0.00000000000E+00  0.00000000000E+00  0.87520808842E+03  0.87520808842E+03  0.00000000000E+00 0.  1.
          1   -1    0    0  501    0  0.00000000000E+00 -0.00000000000E+00 -0.13459219046E+02  0.13459219046E+02  0.00000000000E+00 0. -1.
         23    2    1    2    0    0 -0.52923896147E+02 -0.22228543119E+02  0.49016887350E+03  0.50179545658E+03  0.90764028053E+02 0.  0.
         23    2    1    2    0    0  0.52923896147E+02  0.22228543119E+02  0.37157999588E+03  0.38687185089E+03  0.91121285972E+02 0.  0.
          5    1    4    4  502    0  0.24246237595E+02  0.50151045393E+02  0.12380819386E+03  0.13584390401E+03  0.47000000000E+01 0. -1.
         -5    1    3    3    0  503 -0.55097376711E+02  0.19505207401E+02  0.36676661156E+03  0.37142430103E+03  0.47000000000E+01 0.  1.
          5    1    3    3  503    0  0.21734805638E+01 -0.41733750520E+02  0.12340226193E+03  0.13037115555E+03  0.47000000000E+01 0. -1.
         -5    1    4    4    0  502  0.28677658552E+02 -0.27922502273E+02  0.24777180203E+03  0.25102794688E+03  0.47000000000E+01 0.  1.
<mgrwt>
<rscale>  0 0.10761903E+03</rscale>
<asrwt>0</asrwt>
<pdfrwt beam="1">  1        1 0.20706498E-02 0.10769464E+03</pdfrwt>
<pdfrwt beam="2">  1       -1 0.13464735E+00 0.10769464E+03</pdfrwt>
<totfact> 0.27308060E+03</totfact>
</mgrwt>
</event>
<event>
 8    1  0.3466492E-004  0.1331385E+03  0.7546771E-02  0.1223181E+00
         -1   -1    0    0    0  501 -0.00000000000E+00  0.00000000000E+00  0.25476362382E+02  0.25476362382E+02  0.00000000000E+00 0.  1.
          1   -1    0    0  501    0  0.00000000000E+00 -0.00000000000E+00 -0.88096883432E+03  0.88096883432E+03  0.00000000000E+00 0. -1.
         23    2    1    2    0    0 -0.80855795940E+02  0.51545100076E+02 -0.63912254865E+03  0.65284262452E+03  0.92365053547E+02 0.  0.
         23    2    1    2    0    0  0.80855795940E+02 -0.51545100076E+02 -0.21636992329E+03  0.25360257218E+03  0.91124990181E+02 0.  0.
          5    1    4    4  502    0  0.11632017578E+02 -0.17020688201E+02  0.26179304098E+01  0.21306131029E+02  0.47000000000E+01 0. -1.
         -5    1    4    4    0  502  0.69223778362E+02 -0.34524411875E+02 -0.21898785370E+03  0.23229644116E+03  0.47000000000E+01 0.  1.
          5    1    3    3  503    0 -0.47347371463E+02  0.69636423535E+02 -0.30239319455E+03  0.31393429118E+03  0.47000000000E+01 0. -1.
         -5    1    3    3    0  503 -0.33508424477E+02 -0.18091323459E+02 -0.33672935410E+03  0.33890833334E+03  0.47000000000E+01 0.  1.
<mgrwt>
<rscale>  0 0.13292366E+03</rscale>
<asrwt>0</asrwt>
<pdfrwt beam="1">  1        1 0.13553367E+00 0.13313850E+03</pdfrwt>
<pdfrwt beam="2">  1       -1 0.39194402E-02 0.13313850E+03</pdfrwt>
<totfact> 0.48791076E+03</totfact>
</mgrwt>
</event>
<event>
 8    1  0.3466492E-004  0.1156423E+03  0.7546771E-02  0.1254191E+00
         -1   -1    0    0    0  501 -0.00000000000E+00  0.00000000000E+00  0.46197014733E+03  0.46197014733E+03  0.00000000000E+00 0.  1.
          1   -1    0    0  501    0  0.00000000000E+00 -0.00000000000E+00 -0.32560130648E+02  0.32560130648E+02  0.00000000000E+00 0. -1.
         23    2    1    2    0    0  0.58968714264E+02  0.24685492034E+02  0.31101807717E+03  0.32903162505E+03  0.86272146027E+02 0.  0.
         23    2    1    2    0    0 -0.58968714264E+02 -0.24685492034E+02  0.11839193951E+03  0.16549865292E+03  0.96366332292E+02 0.  0.
          5    1    3    3  502    0  0.15754516372E+02  0.46596170866E+02  0.89557424581E+02  0.10228406632E+03  0.47000000000E+01 0. -1.
         -5    1    3    3    0  502  0.43214197892E+02 -0.21910678832E+02  0.22146065259E+03  0.22674755873E+03  0.47000000000E+01 0.  1.
          5    1    4    4  503    0 -0.40174304434E+02 -0.58317514781E+02  0.49847059719E+02  0.86727888419E+02  0.47000000000E+01 0. -1.
         -5    1    4    4    0  503 -0.18794409830E+02  0.33632022747E+02  0.68544879791E+02  0.78770764504E+02  0.47000000000E+01 0.  1.
<mgrwt>
<rscale>  0 0.11351789E+03</rscale>
<asrwt>0</asrwt>
<pdfrwt beam="1">  1        1 0.50092512E-02 0.11564235E+03</pdfrwt>
<pdfrwt beam="2">  1       -1 0.71072326E-01 0.11564235E+03</pdfrwt>
<totfact> 0.32887117E+03</totfact>
</mgrwt>
</event>
<event>
 8    1  0.3466492E-004  0.1049477E+03  0.7546771E-02  0.1270458E+00
         -1   -1    0    0    0  501 -0.00000000000E+00  0.00000000000E+00  0.37004089804E+02  0.37004089804E+02  0.00000000000E+00 0.  1.
          1   -1    0    0  501    0  0.00000000000E+00 -0.00000000000E+00 -0.42925645277E+03  0.42925645277E+03  0.00000000000E+00 0. -1.
         23    2    1    2    0    0  0.16120402725E+02  0.47761529580E+02 -0.32556747833E+03  0.34191867325E+03  0.91505000271E+02 0.  0.
         23    2    1    2    0    0 -0.16120402725E+02 -0.47761529580E+02 -0.66684884632E+02  0.12434186933E+03  0.92048875809E+02 0.  0.
          5    1    4    4  502    0  0.30295281612E+02 -0.46781067650E+02 -0.49260074086E+02  0.74531317427E+02  0.47000000000E+01 0. -1.
         -5    1    4    4    0  502 -0.46415684337E+02 -0.98046193053E+00 -0.17424810545E+02  0.49810551900E+02  0.47000000000E+01 0.  1.
          5    1    3    3  503    0  0.40591576913E+02  0.37803440830E+01 -0.23169416777E+03  0.23530032829E+03  0.47000000000E+01 0. -1.
         -5    1    3    3    0  503 -0.24471174188E+02  0.43981185497E+02 -0.93873310564E+02  0.10661834495E+03  0.47000000000E+01 0.  1.
<mgrwt>
<rscale>  0 0.10482835E+03</rscale>
<asrwt>0</asrwt>
<pdfrwt beam="1">  1        1 0.66039453E-01 0.10494773E+03</pdfrwt>
<pdfrwt beam="2">  1       -1 0.56929370E-02 0.10494773E+03</pdfrwt>
<totfact> 0.75017179E+03</totfact>
</mgrwt>
</event>
<event>
 8    1  0.3466492E-004  0.1207175E+03  0.7546771E-02  0.1242020E+00
          2   -1    0    0  501    0  0.00000000000E+00  0.00000000000E+00  0.15145536101E+03  0.15145536101E+03  0.00000000000E+00 0. -1.
         -2   -1    0    0    0  501 -0.00000000000E+00 -0.00000000000E+00 -0.20058041847E+03  0.20058041847E+03  0.00000000000E+00 0.  1.
         23    2    1    2    0    0  0.23137517572E+02 -0.73869748403E+02 -0.15163627578E+03  0.19366508623E+03  0.92306668467E+02 0.  0.
         23    2    1    2    0    0 -0.23137517572E+02  0.73869748403E+02  0.10251121832E+03  0.15837069325E+03  0.92631755634E+02 0.  0.
          5    1    4    4  502    0 -0.44379535904E+02  0.79905290193E+02  0.10014923149E+03  0.13567003050E+03  0.47000000000E+01 0. -1.
         -5    1    4    4    0  502  0.21242018332E+02 -0.60355417897E+01  0.23619868226E+01  0.22700662749E+02  0.47000000000E+01 0.  1.
          5    1    3    3  503    0  0.42262270668E+02 -0.45444613678E+01 -0.29848463776E+02  0.52151437573E+02  0.47000000000E+01 0. -1.
         -5    1    3    3    0  503 -0.19124753096E+02 -0.69325287036E+02 -0.12178781200E+03  0.14151364866E+03  0.47000000000E+01 0.  1.
<mgrwt>
<rscale>  0 0.12065518E+03</rscale>
<asrwt>0</asrwt>
<pdfrwt beam="1">  1        2 0.23300825E-01 0.12071755E+03</pdfrwt>
<pdfrwt beam="2">  1       -2 0.30858526E-01 0.12071755E+03</pdfrwt>
<totfact> 0.21833976E+03</totfact>
</mgrwt>
</event>
<event>
 8    1  0.3466492E-004  0.1387605E+03  0.7546771E-02  0.1215623E+00
         -2   -1    0    0    0  501 -0.00000000000E+00  0.00000000000E+00  0.51189027801E+02  0.51189027801E+02  0.00000000000E+00 0.  1.
          2   -1    0    0  501    0  0.00000000000E+00 -0.00000000000E+00 -0.41020654562E+03  0.41020654562E+03  0.00000000000E+00 0. -1.
         23    2    1    2    0    0 -0.68207852950E+02  0.70100311059E+02 -0.24951180499E+03  0.28463027278E+03  0.95874326822E+02 0.  0.
         23    2    1    2    0    0  0.68207852950E+02 -0.70100311059E+02 -0.10950571283E+03  0.17676530064E+03  0.98428174581E+02 0.  0.
          5    1    4    4  502    0  0.65247485987E+02  0.15271851984E+01 -0.39375524008E+02  0.76368112542E+02  0.47000000000E+01 0. -1.
         -5    1    3    3    0  503 -0.24669302473E+02  0.45872430103E+02 -0.31725047747E+02  0.61167172426E+02  0.47000000000E+01 0.  1.
          5    1    3    3  503    0 -0.43538550476E+02  0.24227880956E+02 -0.21778675724E+03  0.22346310036E+03  0.47000000000E+01 0. -1.
         -5    1    4    4    0  502  0.29603669629E+01 -0.71627496258E+02 -0.70130188826E+02  0.10039718810E+03  0.47000000000E+01 0.  1.
<mgrwt>
<rscale>  0 0.13830835E+03</rscale>
<asrwt>0</asrwt>
<pdfrwt beam="1">  1        2 0.63108698E-01 0.13876048E+03</pdfrwt>
<pdfrwt beam="2">  1       -2 0.78752352E-02 0.13876048E+03</pdfrwt>
<totfact> 0.71990018E+03</totfact>
</mgrwt>
</event>
<event>
 8    1  0.3466492E-004  0.9407633E+02  0.7546771E-02  0.1296470E+00
         -2   -1    0    0    0  501 -0.00000000000E+00  0.00000000000E+00  0.23818386339E+02  0.23818386339E+02  0.00000000000E+00 0.  1.
          2   -1    0    0  501    0  0.00000000000E+00 -0.00000000000E+00 -0.58362876261E+03  0.58362876261E+03  0.00000000000E+00 0. -1.
         23    2    1    2    0    0  0.49073131065E+01  0.51165444989E+01 -0.46684492333E+03  0.47518630001E+03  0.88360491918E+02 0.  0.
         23    2    1    2    0    0 -0.49073131065E+01 -0.51165444989E+01 -0.92965452945E+02  0.13226084894E+03  0.93808826723E+02 0.  0.
          5    1    4    4  502    0 -0.23025394105E+02 -0.34905439393E+02 -0.11651573106E+02  0.43662428114E+02  0.47000000000E+01 0. -1.
         -5    1    3    3    0  503 -0.13313116557E+01  0.42595763484E+02 -0.33991609149E+03  0.34260941422E+03  0.47000000000E+01 0.  1.
          5    1    3    3  503    0  0.62386247622E+01 -0.37479218986E+02 -0.12692883184E+03  0.13257688579E+03  0.47000000000E+01 0. -1.
         -5    1    4    4    0  502  0.18118080999E+02  0.29788894895E+02 -0.81313879839E+02  0.88598420824E+02  0.47000000000E+01 0.  1.
<mgrwt>
<rscale>  0 0.92687927E+02</rscale>
<asrwt>0</asrwt>
<pdfrwt beam="1">  1        2 0.89789039E-01 0.94076335E+02</pdfrwt>
<pdfrwt beam="2">  1       -2 0.36643672E-02 0.94076335E+02</pdfrwt>
<totfact> 0.15027343E+04</totfact>
</mgrwt>
</event>
<event>
 8    1  0.3466492E-004  0.2410135E+03  0.7546771E-02  0.1119194E+00
         -1   -1    0    0    0  501 -0.00000000000E+00  0.00000000000E+00  0.16320130212E+03  0.16320130212E+03  0.00000000000E+00 0.  1.
          1   -1    0    0  501    0  0.00000000000E+00 -0.00000000000E+00 -0.35534780157E+03  0.35534780157E+03  0.00000000000E+00 0. -1.
         23    2    1    2    0    0 -0.25479550057E+02  0.22090318985E+03 -0.10006598663E+03  0.26054460730E+03  0.91776162248E+02 0.  0.
         23    2    1    2    0    0  0.25479550057E+02 -0.22090318985E+03 -0.92080512823E+02  0.25800449639E+03  0.92951990616E+02 0.  0.
          5    1    3    3  502    0 -0.44470529233E+02  0.17062994949E+03 -0.42073848305E+02  0.18134085680E+03  0.47000000000E+01 0. -1.
         -5    1    3    3    0  502  0.18990979175E+02  0.50273240358E+02 -0.57992138324E+02  0.79203750502E+02  0.47000000000E+01 0.  1.
          5    1    4    4  503    0  0.33832157730E+02 -0.12849438028E+03 -0.97603154435E+02  0.16493600703E+03  0.47000000000E+01 0. -1.
         -5    1    4    4    0  503 -0.83526076728E+01 -0.92408809571E+02  0.55226416121E+01  0.93068489360E+02  0.47000000000E+01 0.  1.
<mgrwt>
<rscale>  0 0.24090065E+03</rscale>
<asrwt>0</asrwt>
<pdfrwt beam="1">  1        1 0.54668893E-01 0.24101348E+03</pdfrwt>
<pdfrwt beam="2">  1       -1 0.25107893E-01 0.24101348E+03</pdfrwt>
<totfact> 0.97657957E+02</totfact>
</mgrwt>
</event>
<event>
 8    1  0.3466492E-004  0.9157559E+02  0.7546771E-02  0.1304864E+00
          2   -1    0    0  501    0  0.00000000000E+00  0.00000000000E+00  0.36572604305E+03  0.36572604305E+03  0.00000000000E+00 0. -1.
         -2   -1    0    0    0  501 -0.00000000000E+00 -0.00000000000E+00 -0.24316342195E+02  0.24316342195E+02  0.00000000000E+00 0.  1.
         23    2    1    2    0    0 -0.12064028985E+02  0.17225913285E+01  0.25377850465E+03  0.26979551166E+03  0.90761118181E+02 0.  0.
         23    2    1    2    0    0  0.12064028985E+02 -0.17225913285E+01  0.87631196204E+02  0.12024687358E+03  0.81434488655E+02 0.  0.
          5    1    4    4  502    0  0.14560628334E+02  0.32409981436E+02  0.75602670031E+02  0.83667631196E+02  0.47000000000E+01 0. -1.
         -5    1    4    4    0  502 -0.24965993486E+01 -0.34132572764E+02  0.12028526173E+02  0.36579242389E+02  0.47000000000E+01 0.  1.
          5    1    3    3  503    0  0.11716905155E+02  0.24181387483E+02  0.22291714970E+03  0.22457998797E+03  0.47000000000E+01 0. -1.
         -5    1    3    3    0  503 -0.23780934140E+02 -0.22458796154E+02  0.30861354956E+02  0.45215523695E+02  0.47000000000E+01 0.  1.
<mgrwt>
<rscale>  0 0.89174191E+02</rscale>
<asrwt>0</asrwt>
<pdfrwt beam="1">  1        2 0.56265541E-01 0.91575590E+02</pdfrwt>
<pdfrwt beam="2">  1       -2 0.37409760E-02 0.91575590E+02</pdfrwt>
<totfact> 0.24010881E+04</totfact>
</mgrwt>
</event>
<event>
 8    1  0.3466492E-004  0.9871880E+02  0.7546771E-02  0.1288727E+00
          1   -1    0    0  501    0  0.00000000000E+00  0.00000000000E+00  0.51291444279E+02  0.51291444279E+02  0.00000000000E+00 0. -1.
         -1   -1    0    0    0  501 -0.00000000000E+00 -0.00000000000E+00 -0.17427905226E+03  0.17427905226E+03  0.00000000000E+00 0.  1.
         23    2    1    2    0    0  0.70391088427E+00 -0.35182475015E+01 -0.49511437738E+02  0.11043904833E+03  0.98653572533E+02 0.  0.
         23    2    1    2    0    0 -0.70391088427E+00  0.35182475015E+01 -0.73476170241E+02  0.11513144821E+03  0.88564266026E+02 0.  0.
          5    1    4    4  502    0  0.27763526880E+02 -0.22176209679E+02 -0.45695715408E+01  0.36132653993E+02  0.47000000000E+01 0.  1.
         -5    1    4    4    0  502 -0.28467437764E+02  0.25694457181E+02 -0.68906598701E+02  0.78998794213E+02  0.47000000000E+01 0. -1.
          5    1    3    3  503    0  0.40099512469E+01  0.46461198231E+02 -0.33616342689E+02  0.57679035583E+02  0.47000000000E+01 0. -1.
         -5    1    3    3    0  503 -0.33060403626E+01 -0.49979445732E+02 -0.15895095049E+02  0.52760012748E+02  0.47000000000E+01 0.  1.
<mgrwt>
<rscale>  0 0.96095610E+02</rscale>
<asrwt>0</asrwt>
<pdfrwt beam="1">  1        1 0.78909914E-02 0.98718797E+02</pdfrwt>
<pdfrwt beam="2">  1       -1 0.26812162E-01 0.98718797E+02</pdfrwt>
<totfact> 0.10004699E+04</totfact>
</mgrwt>
</event>
<event>
 8    1  0.3466492E-004  0.1052352E+03  0.7546771E-02  0.1270305E+00
         -1   -1    0    0    0  501 -0.00000000000E+00  0.00000000000E+00  0.22509646511E+02  0.22509646511E+02  0.00000000000E+00 0.  1.
          1   -1    0    0  501    0  0.00000000000E+00 -0.00000000000E+00 -0.92015906489E+03  0.92015906489E+03  0.00000000000E+00 0. -1.
         23    2    1    2    0    0  0.48502674074E+02 -0.14573781772E+02 -0.12650873277E+03  0.16455671101E+03  0.92247206814E+02 0.  0.
         23    2    1    2    0    0 -0.48502674074E+02  0.14573781772E+02 -0.77114068561E+03  0.77811200039E+03  0.90749234917E+02 0.  0.
          5    1    3    3  502    0  0.60517196866E+02  0.15908992538E+02 -0.11207579580E+03  0.12844649145E+03  0.47000000000E+01 0. -1.
         -5    1    4    4    0  503 -0.30812112199E+02 -0.35818823084E+02 -0.27342803821E+03  0.27752001085E+03  0.47000000000E+01 0.  1.
          5    1    4    4  503    0 -0.17690561875E+02  0.50392604857E+02 -0.49771264740E+03  0.50059198954E+03  0.47000000000E+01 0. -1.
         -5    1    3    3    0  502 -0.12014522792E+02 -0.30482774310E+02 -0.14432936965E+02  0.36110219565E+02  0.47000000000E+01 0.  1.
<mgrwt>
<rscale>  0 0.10490603E+03</rscale>
<asrwt>0</asrwt>
<pdfrwt beam="1">  1        1 0.14156292E+00 0.10523522E+03</pdfrwt>
<pdfrwt beam="2">  1       -1 0.34630229E-02 0.10523522E+03</pdfrwt>
<totfact> 0.53974682E+03</totfact>
</mgrwt>
</event>
<event>
 8    1  0.3466492E-004  0.9549225E+02  0.7546771E-02  0.1290342E+00
          1   -1    0    0  501    0  0.00000000000E+00  0.00000000000E+00  0.16924410880E+03  0.16924410880E+03  0.00000000000E+00 0. -1.
         -1   -1    0    0    0  501 -0.00000000000E+00 -0.00000000000E+00 -0.10295835648E+03  0.10295835648E+03  0.00000000000E+00 0.  1.
         23    2    1    2    0    0  0.14922692247E+02  0.38087526089E+00  0.12732721960E+03  0.15886742873E+03  0.93828605707E+02 0.  0.
         23    2    1    2    0    0 -0.14922692247E+02 -0.38087526089E+00 -0.61041467274E+02  0.11333503656E+03  0.94318280170E+02 0.  0.
          5    1    3    3  502    0 -0.30995650996E+02  0.14315965253E+02  0.94364298121E+02  0.10046087797E+03  0.47000000000E+01 0. -1.
         -5    1    3    3    0  502  0.45918343243E+02 -0.13935089992E+02  0.32962921480E+02  0.58406550760E+02  0.47000000000E+01 0.  1.
          5    1    4    4  503    0 -0.30796503888E+02  0.27982225291E+02  0.23507875519E+01  0.41940979794E+02  0.47000000000E+01 0. -1.
         -5    1    4    4    0  503  0.15873811641E+02 -0.28363100552E+02 -0.63392254826E+02  0.71394056762E+02  0.47000000000E+01 0.  1.
<mgrwt>
<rscale>  0 0.95371114E+02</rscale>
<asrwt>0</asrwt>
<pdfrwt beam="1">  1        1 0.26037555E-01 0.95492250E+02</pdfrwt>
<pdfrwt beam="2">  1       -1 0.15839747E-01 0.95492250E+02</pdfrwt>
<totfact> 0.49911832E+03</totfact>
</mgrwt>
</event>
<event>
 8    1  0.3466492E-004  0.1018156E+03  0.7546771E-02  0.1278625E+00
          1   -1    0    0  501    0  0.00000000000E+00  0.00000000000E+00  0.34238841224E+03  0.34238841224E+03  0.00000000000E+00 0. -1.
         -1   -1    0    0    0  501 -0.00000000000E+00 -0.00000000000E+00 -0.42649866768E+02  0.42649866768E+02  0.00000000000E+00 0.  1.
         23    2    1    2    0    0 -0.34305775089E+02  0.12298248746E+02  0.43412017792E+02  0.11068431030E+03  0.95069869736E+02 0.  0.
         23    2    1    2    0    0  0.34305775089E+02 -0.12298248746E+02  0.25632652768E+03  0.27435396870E+03  0.90767164908E+02 0.  0.
          5    1    3    3  502    0 -0.51343917838E+02 -0.25221748662E+02  0.38051771375E+02  0.68864808207E+02  0.47000000000E+01 0. -1.
         -5    1    3    3    0  502  0.17038142749E+02  0.37519997409E+02  0.53602464171E+01  0.41819502096E+02  0.47000000000E+01 0.  1.
          5    1    4    4  503    0  0.39854825432E+02 -0.43150120091E+02  0.21078863832E+03  0.21887046402E+03  0.47000000000E+01 0. -1.
         -5    1    4    4    0  503 -0.55490503428E+01  0.30851871344E+02  0.45537889355E+02  0.55483504684E+02  0.47000000000E+01 0.  1.
<mgrwt>
<rscale>  0 0.10079909E+03</rscale>
<asrwt>0</asrwt>
<pdfrwt beam="1">  1        1 0.52675138E-01 0.10181558E+03</pdfrwt>
<pdfrwt beam="2">  1       -1 0.65615182E-02 0.10181558E+03</pdfrwt>
<totfact> 0.80379566E+03</totfact>
</mgrwt>
</event>
<event>
 8    1  0.3466492E-004  0.9447758E+02  0.7546771E-02  0.1296795E+00
          1   -1    0    0  501    0  0.00000000000E+00  0.00000000000E+00  0.60919338119E+02  0.60919338119E+02  0.00000000000E+00 0. -1.
         -1   -1    0    0    0  501 -0.00000000000E+00 -0.00000000000E+00 -0.13727120382E+03  0.13727120382E+03  0.00000000000E+00 0.  1.
         23    2    1    2    0    0 -0.18472870733E+02  0.13823540693E+02 -0.52049106196E+02  0.10786622755E+03  0.91617009122E+02 0.  0.
         23    2    1    2    0    0  0.18472870733E+02 -0.13823540693E+02 -0.24302759502E+02  0.90324314382E+02  0.83878009149E+02 0.  0.
          5    1    4    4  502    0 -0.10946902956E+02 -0.18451224831E+02  0.24535178555E+02  0.32929430132E+02  0.47000000000E+01 0. -1.
         -5    1    4    4    0  502  0.29419773689E+02  0.46276841387E+01 -0.48837938057E+02  0.57394884250E+02  0.47000000000E+01 0.  1.
          5    1    3    3  503    0 -0.55434353689E+02  0.12528168803E+02 -0.34611938183E+02  0.66708311681E+02  0.47000000000E+01 0. -1.
         -5    1    3    3    0  503  0.36961482957E+02  0.12953718900E+01 -0.17437168013E+02  0.41157915873E+02  0.47000000000E+01 0.  1.
<mgrwt>
<rscale>  0 0.92548247E+02</rscale>
<asrwt>0</asrwt>
<pdfrwt beam="1">  1        1 0.93722059E-02 0.94477582E+02</pdfrwt>
<pdfrwt beam="2">  1       -1 0.21118647E-01 0.94477582E+02</pdfrwt>
<totfact> 0.11680158E+04</totfact>
</mgrwt>
</event>
<event>
 8    1  0.3466492E-004  0.1167251E+03  0.7546771E-02  0.1251570E+00
          2   -1    0    0  501    0  0.00000000000E+00  0.00000000000E+00  0.68056863493E+03  0.68056863493E+03  0.00000000000E+00 0. -1.
         -2   -1    0    0    0  501 -0.00000000000E+00 -0.00000000000E+00 -0.22723082923E+02  0.22723082923E+02  0.00000000000E+00 0.  1.
         23    2    1    2    0    0 -0.30478053227E+02  0.55610087064E+02  0.48153404017E+03  0.49547935608E+03  0.97996770046E+02 0.  0.
         23    2    1    2    0    0  0.30478053227E+02 -0.55610087064E+02  0.17631151183E+03  0.20781236178E+03  0.89882339703E+02 0.  0.
          5    1    4    4  502    0  0.56797417385E+02 -0.39947734421E+02  0.15583966008E+03  0.17067471330E+03  0.47000000000E+01 0. -1.
         -5    1    4    4    0  502 -0.26319364158E+02 -0.15662352642E+02  0.20471851752E+02  0.37137648473E+02  0.47000000000E+01 0.  1.
          5    1    3    3  503    0  0.15970586378E+02  0.66693605565E+02  0.28490258637E+03  0.29307792543E+03  0.47000000000E+01 0. -1.
         -5    1    3    3    0  503 -0.46448639605E+02 -0.11083518501E+02  0.19663145380E+03  0.20240143065E+03  0.47000000000E+01 0.  1.
<mgrwt>
<rscale>  0 0.11500654E+03</rscale>
<asrwt>0</asrwt>
<pdfrwt beam="1">  1        2 0.10470285E+00 0.11672515E+03</pdfrwt>
<pdfrwt beam="2">  1       -2 0.34958594E-02 0.11672515E+03</pdfrwt>
<totfact> 0.13755673E+04</totfact>
</mgrwt>
</event>
<event>
 8    1  0.3466492E-004  0.9994224E+02  0.7546771E-02  0.1282445E+00
          2   -1    0    0  501    0  0.00000000000E+00  0.00000000000E+00  0.26755275025E+03  0.26755275025E+03  0.00000000000E+00 0. -1.
         -2   -1    0    0    0  501 -0.00000000000E+00 -0.00000000000E+00 -0.39241489268E+02  0.39241489268E+02  0.00000000000E+00 0.  1.
         23    2    1    2    0    0  0.29668423987E+02  0.58211724329E+01  0.71653556348E+02  0.12297431888E+03  0.95259380312E+02 0.  0.
         23    2    1    2    0    0 -0.29668423987E+02 -0.58211724329E+01  0.15665770464E+03  0.18381992064E+03  0.91290883279E+02 0.  0.
          5    1    3    3  502    0  0.56228669467E+02  0.26148133743E+02  0.62074459331E+02  0.87867608761E+02  0.47000000000E+01 0. -1.
         -5    1    3    3    0  502 -0.26560245479E+02 -0.20326961310E+02  0.95790970169E+01  0.35106710123E+02  0.47000000000E+01 0.  1.
          5    1    4    4  503    0 -0.51770124141E+02 -0.30624607092E+02  0.11873721675E+03  0.13318644434E+03  0.47000000000E+01 0.  1.
         -5    1    4    4    0  503  0.22101700154E+02  0.24803434659E+02  0.37920487883E+02  0.50633476297E+02  0.47000000000E+01 0. -1.
<mgrwt>
<rscale>  0 0.98984803E+02</rscale>
<asrwt>0</asrwt>
<pdfrwt beam="1">  1        2 0.41161960E-01 0.99942238E+02</pdfrwt>
<pdfrwt beam="2">  1       -2 0.60371524E-02 0.99942238E+02</pdfrwt>
<totfact> 0.16518057E+04</totfact>
</mgrwt>
</event>
<event>
 8    1  0.3466492E-004  0.9236439E+02  0.7546771E-02  0.1297759E+00
          1   -1    0    0  501    0  0.00000000000E+00  0.00000000000E+00  0.13363974693E+02  0.13363974693E+02  0.00000000000E+00 0. -1.
         -1   -1    0    0    0  501 -0.00000000000E+00 -0.00000000000E+00 -0.69186653041E+03  0.69186653041E+03  0.00000000000E+00 0.  1.
         23    2    1    2    0    0  0.58305883199E+01  0.12390796082E+02 -0.23715397243E+03  0.25450577131E+03  0.91343600766E+02 0.  0.
         23    2    1    2    0    0 -0.58305883199E+01 -0.12390796082E+02 -0.44134858328E+03  0.45072473379E+03  0.90425030269E+02 0.  0.
          5    1    4    4  502    0 -0.32560181483E+02 -0.40425904344E+02 -0.23364031253E+03  0.23938317569E+03  0.47000000000E+01 0. -1.
         -5    1    4    4    0  502  0.26729593163E+02  0.28035108261E+02 -0.20770827075E+03  0.21134155811E+03  0.47000000000E+01 0.  1.
          5    1    3    3  503    0 -0.39352410573E+02 -0.59496800583E+01 -0.73995305784E+02  0.84151091429E+02  0.47000000000E+01 0. -1.
         -5    1    3    3    0  503  0.45182998893E+02  0.18340476141E+02 -0.16315866665E+03  0.17035467988E+03  0.47000000000E+01 0.  1.
<mgrwt>
<rscale>  0 0.92136471E+02</rscale>
<asrwt>0</asrwt>
<pdfrwt beam="1">  1        1 0.20559957E-02 0.92364392E+02</pdfrwt>
<pdfrwt beam="2">  1       -1 0.10644102E+00 0.92364392E+02</pdfrwt>
<totfact> 0.47173540E+03</totfact>
</mgrwt>
</event>
<event>
 8    1  0.3466492E-004  0.9418009E+02  0.7546771E-02  0.1294750E+00
         -2   -1    0    0    0  501 -0.00000000000E+00  0.00000000000E+00  0.13185427001E+02  0.13185427001E+02  0.00000000000E+00 0.  1.
          2   -1    0    0  501    0  0.00000000000E+00 -0.00000000000E+00 -0.66953172053E+03  0.66953172053E+03  0.00000000000E+00 0. -1.
         23    2    1    2    0    0 -0.15398743347E+02  0.19091884841E+02 -0.27759460143E+03  0.29313589473E+03  0.90930020743E+02 0.  0.
         23    2    1    2    0    0  0.15398743347E+02 -0.19091884841E+02 -0.37875169210E+03  0.38958125280E+03  0.87858334285E+02 0.  0.
          5    1    3    3  502    0 -0.46302612538E+02  0.34889257050E+02 -0.15199920022E+03  0.16274839186E+03  0.47000000000E+01 0. -1.
         -5    1    3    3    0  502  0.30903869191E+02 -0.15797372208E+02 -0.12559540120E+03  0.13038750286E+03  0.47000000000E+01 0.  1.
          5    1    4    4  503    0 -0.12680835174E+02 -0.33859154459E+02 -0.32462472813E+03  0.32666580787E+03  0.47000000000E+01 0. -1.
         -5    1    4    4    0  503  0.28079578520E+02  0.14767269618E+02 -0.54126963973E+02  0.62915444930E+02  0.47000000000E+01 0.  1.
<mgrwt>
<rscale>  0 0.93430651E+02</rscale>
<asrwt>0</asrwt>
<pdfrwt beam="1">  1        2 0.10300487E+00 0.94180094E+02</pdfrwt>
<pdfrwt beam="2">  1       -2 0.20285275E-02 0.94180094E+02</pdfrwt>
<totfact> 0.30347061E+04</totfact>
</mgrwt>
</event>
<event>
 8    1  0.3466492E-004  0.9934660E+02  0.7546771E-02  0.1281761E+00
          2   -1    0    0  501    0  0.00000000000E+00  0.00000000000E+00  0.21399447865E+03  0.21399447865E+03  0.00000000000E+00 0. -1.
         -2   -1    0    0    0  501 -0.00000000000E+00 -0.00000000000E+00 -0.59551590591E+02  0.59551590591E+02  0.00000000000E+00 0.  1.
         23    2    1    2    0    0  0.27681963542E+02  0.73607127380E+01  0.12138738217E+02  0.10008544543E+03  0.95127683798E+02 0.  0.
         23    2    1    2    0    0 -0.27681963542E+02 -0.73607127380E+01  0.14230414984E+03  0.17346062381E+03  0.94961285540E+02 0.  0.
          5    1    4    4  502    0 -0.56078370245E+02  0.18152299021E+02  0.10088924200E+03  0.11694023568E+03  0.47000000000E+01 0. -1.
         -5    1    3    3    0  503 -0.14938932425E+02  0.33446964462E+02 -0.18474809782E+02  0.41295032754E+02  0.47000000000E+01 0.  1.
          5    1    3    3  503    0  0.42620895967E+02 -0.26086251724E+02  0.30613547999E+02  0.58790412680E+02  0.47000000000E+01 0. -1.
         -5    1    4    4    0  502  0.28396406703E+02 -0.25513011759E+02  0.41414907845E+02  0.56520388131E+02  0.47000000000E+01 0.  1.
<mgrwt>
<rscale>  0 0.99306748E+02</rscale>
<asrwt>0</asrwt>
<pdfrwt beam="1">  1        2 0.32922227E-01 0.99346602E+02</pdfrwt>
<pdfrwt beam="2">  1       -2 0.91617833E-02 0.99346602E+02</pdfrwt>
<totfact> 0.11067173E+04</totfact>
</mgrwt>
</event>
<event>
 8    1  0.3466492E-004  0.9310853E+02  0.7546771E-02  0.1297202E+00
         -1   -1    0    0    0  501 -0.00000000000E+00  0.00000000000E+00  0.49133778623E+02  0.49133778623E+02  0.00000000000E+00 0.  1.
          1   -1    0    0  501    0  0.00000000000E+00 -0.00000000000E+00 -0.17813995923E+03  0.17813995923E+03  0.00000000000E+00 0. -1.
         23    2    1    2    0    0 -0.65397881144E+01 -0.11379951337E+01 -0.40746042509E+02  0.98980907315E+02  0.89960636788E+02 0.  0.
         23    2    1    2    0    0  0.65397881144E+01  0.11379951337E+01 -0.88260138101E+02  0.12829283054E+03  0.92871602382E+02 0.  0.
          5    1    3    3  502    0 -0.46466687618E+02  0.95444607495E+01 -0.14625647726E+02  0.49862304004E+02  0.47000000000E+01 0. -1.
         -5    1    4    4    0  503 -0.34844541511E+02 -0.17827595815E+02 -0.67211181623E+02  0.77919177234E+02  0.47000000000E+01 0.  1.
          5    1    4    4  503    0  0.41384329626E+02  0.18965590949E+02 -0.21048956478E+02  0.50373653306E+02  0.47000000000E+01 0. -1.
         -5    1    3    3    0  502  0.39926899503E+02 -0.10682455883E+02 -0.26120394783E+02  0.49118603311E+02  0.47000000000E+01 0.  1.
<mgrwt>
<rscale>  0 0.92374055E+02</rscale>
<asrwt>0</asrwt>
<pdfrwt beam="1">  1        1 0.27406147E-01 0.93108530E+02</pdfrwt>
<pdfrwt beam="2">  1       -1 0.75590429E-02 0.93108530E+02</pdfrwt>
<totfact> 0.14401115E+04</totfact>
</mgrwt>
</event>
<event>
 8    1  0.3466492E-004  0.1444916E+03  0.7546771E-02  0.1207519E+00
         -1   -1    0    0    0  501 -0.00000000000E+00  0.00000000000E+00  0.69441963390E+03  0.69441963390E+03  0.00000000000E+00 0.  1.
          1   -1    0    0  501    0  0.00000000000E+00 -0.00000000000E+00 -0.35055541773E+02  0.35055541773E+02  0.00000000000E+00 0. -1.
         23    2    1    2    0    0  0.11148415675E+03  0.11925002590E+02  0.19143252426E+03  0.23984209019E+03  0.91142163608E+02 0.  0.
         23    2    1    2    0    0 -0.11148415675E+03 -0.11925002590E+02  0.46793156787E+03  0.48963308549E+03  0.90607302710E+02 0.  0.
          5    1    4    4  502    0 -0.53892449255E+02 -0.13803469768E+02  0.80823559096E+02  0.98231713663E+02  0.47000000000E+01 0. -1.
         -5    1    3    3    0  503  0.87018301092E+02 -0.32697330727E+02  0.11596850561E+03  0.14870132634E+03  0.47000000000E+01 0.  1.
          5    1    3    3  503    0  0.24465855660E+02  0.44622333318E+02  0.75464018650E+02  0.91140763848E+02  0.47000000000E+01 0. -1.
         -5    1    4    4    0  502 -0.57591707497E+02  0.18784671782E+01  0.38710800877E+03  0.39140137182E+03  0.47000000000E+01 0.  1.
<mgrwt>
<rscale>  0 0.14440731E+03</rscale>
<asrwt>0</asrwt>
<pdfrwt beam="1">  1        1 0.53931608E-02 0.14449158E+03</pdfrwt>
<pdfrwt beam="2">  1       -1 0.10683378E+00 0.14449158E+03</pdfrwt>
<totfact> 0.12755887E+03</totfact>
</mgrwt>
</event>
<event>
 8    1  0.3466492E-004  0.9152371E+02  0.7546771E-02  0.1299207E+00
          2   -1    0    0  501    0  0.00000000000E+00  0.00000000000E+00  0.23499265886E+03  0.23499265886E+03  0.00000000000E+00 0. -1.
         -2   -1    0    0    0  501 -0.00000000000E+00 -0.00000000000E+00 -0.39580191258E+02  0.39580191258E+02  0.00000000000E+00 0.  1.
         23    2    1    2    0    0  0.35648976677E+01  0.84378646532E+01  0.54414869431E+02  0.10647801311E+03  0.91064170806E+02 0.  0.
         23    2    1    2    0    0 -0.35648976677E+01 -0.84378646532E+01  0.14099759817E+03  0.16809483701E+03  0.91058472886E+02 0.  0.
          5    1    3    3  502    0 -0.36068659674E+02 -0.98454430421E+01  0.14846069481E+01  0.37711735801E+02  0.47000000000E+01 0. -1.
         -5    1    3    3    0  502  0.39633557342E+02  0.18283307695E+02  0.52930262482E+02  0.68766277304E+02  0.47000000000E+01 0.  1.
          5    1    4    4  503    0 -0.34761029235E+01 -0.32781250283E+02  0.13932113411E+03  0.14324511186E+03  0.47000000000E+01 0. -1.
         -5    1    4    4    0  503 -0.88794744188E-01  0.24343385629E+02  0.16764640609E+01  0.24849725153E+02  0.47000000000E+01 0.  1.
<mgrwt>
<rscale>  0 0.91522291E+02</rscale>
<asrwt>0</asrwt>
<pdfrwt beam="1">  1        2 0.36152716E-01 0.91523709E+02</pdfrwt>
<pdfrwt beam="2">  1       -2 0.60892603E-02 0.91523709E+02</pdfrwt>
<totfact> 0.18529340E+04</totfact>
</mgrwt>
</event>
<event>
 8    1  0.3466492E-004  0.2674357E+03  0.7546771E-02  0.1102990E+00
         -1   -1    0    0    0  501 -0.00000000000E+00  0.00000000000E+00  0.15258530468E+03  0.15258530468E+03  0.00000000000E+00 0.  1.
          1   -1    0    0  501    0  0.00000000000E+00 -0.00000000000E+00 -0.75671389500E+03  0.75671389500E+03  0.00000000000E+00 0. -1.
         23    2    1    2    0    0  0.67130859406E+02  0.24062965164E+03 -0.58446760131E+03  0.64274741706E+03  0.95460377230E+02 0.  0.
         23    2    1    2    0    0 -0.67130859406E+02 -0.24062965164E+03 -0.19660989011E+02  0.26655178262E+03  0.90852170015E+02 0.  0.
          5    1    4    4  502    0 -0.12974625121E+02 -0.34813972421E+02 -0.37417932415E+02  0.52939071006E+02  0.47000000000E+01 0. -1.
         -5    1    4    4    0  502 -0.54156234284E+02 -0.20581567922E+03  0.17756943404E+02  0.21361271161E+03  0.47000000000E+01 0.  1.
          5    1    3    3  503    0  0.51975478930E+02  0.17309445377E+03 -0.30283056432E+03  0.35269190666E+03  0.47000000000E+01 0. -1.
         -5    1    3    3    0  503  0.15155380476E+02  0.67535197871E+02 -0.28163703699E+03  0.29005551040E+03  0.47000000000E+01 0.  1.
<mgrwt>
<rscale>  0 0.26703230E+03</rscale>
<asrwt>0</asrwt>
<pdfrwt beam="1">  1        1 0.11641752E+00 0.26743572E+03</pdfrwt>
<pdfrwt beam="2">  1       -1 0.23474662E-01 0.26743572E+03</pdfrwt>
<totfact> 0.39095367E+02</totfact>
</mgrwt>
</event>
<event>
 8    1  0.3466492E-004  0.1078149E+03  0.7546771E-02  0.1266697E+00
         -1   -1    0    0    0  501 -0.00000000000E+00  0.00000000000E+00  0.78339168824E+03  0.78339168824E+03  0.00000000000E+00 0.  1.
          1   -1    0    0  501    0  0.00000000000E+00 -0.00000000000E+00 -0.15749629492E+02  0.15749629492E+02  0.00000000000E+00 0. -1.
         23    2    1    2    0    0  0.61492098630E+01  0.48410142291E+02  0.51314756807E+03  0.52435148755E+03  0.96138968277E+02 0.  0.
         23    2    1    2    0    0 -0.61492098630E+01 -0.48410142291E+02  0.25449449068E+03  0.27478983018E+03  0.91436591842E+02 0.  0.
          5    1    4    4  502    0  0.14227324222E+02 -0.40355990427E+02  0.38857308556E+02  0.57991405795E+02  0.47000000000E+01 0. -1.
         -5    1    3    3    0  503 -0.41767955037E+02  0.40292002624E+02  0.30981039805E+03  0.31523416738E+03  0.47000000000E+01 0.  1.
          5    1    3    3  503    0  0.47917164900E+02  0.81181396669E+01  0.20333717002E+03  0.20911732017E+03  0.47000000000E+01 0. -1.
         -5    1    4    4    0  502 -0.20376534085E+02 -0.80541518640E+01  0.21563718212E+03  0.21679842439E+03  0.47000000000E+01 0.  1.
<mgrwt>
<rscale>  0 0.10675662E+03</rscale>
<asrwt>0</asrwt>
<pdfrwt beam="1">  1        1 0.24230205E-02 0.10781491E+03</pdfrwt>
<pdfrwt beam="2">  1       -1 0.12052177E+00 0.10781491E+03</pdfrwt>
<totfact> 0.28655712E+03</totfact>
</mgrwt>
</event>
<event>
 8    1  0.3466492E-004  0.9989207E+02  0.7546771E-02  0.1280661E+00
         -2   -1    0    0    0  501 -0.00000000000E+00  0.00000000000E+00  0.50465660755E+02  0.50465660755E+02  0.00000000000E+00 0.  1.
          2   -1    0    0  501    0  0.00000000000E+00 -0.00000000000E+00 -0.26984944953E+03  0.26984944953E+03  0.00000000000E+00 0. -1.
         23    2    1    2    0    0  0.18384192631E+02  0.37935085554E+02 -0.26493289837E+02  0.10309363463E+03  0.90273771603E+02 0.  0.
         23    2    1    2    0    0 -0.18384192631E+02 -0.37935085554E+02 -0.19289049894E+03  0.21722147566E+03  0.90561446827E+02 0.  0.
          5    1    3    3  502    0 -0.19426365281E+02  0.54424551989E+02 -0.18089822848E+02  0.60735057569E+02  0.47000000000E+01 0. -1.
         -5    1    4    4    0  503  0.21515553038E+02 -0.37843773997E+02 -0.15817960508E+03  0.16412783956E+03  0.47000000000E+01 0.  1.
          5    1    4    4  503    0 -0.39899745670E+02 -0.91311556961E-01 -0.34710893856E+02  0.53093636102E+02  0.47000000000E+01 0. -1.
         -5    1    3    3    0  502  0.37810557912E+02 -0.16489466435E+02 -0.84034669888E+01  0.42358577058E+02  0.47000000000E+01 0.  1.
<mgrwt>
<rscale>  0 0.99826820E+02</rscale>
<asrwt>0</asrwt>
<pdfrwt beam="1">  1        2 0.41515300E-01 0.99892066E+02</pdfrwt>
<pdfrwt beam="2">  1       -2 0.77639477E-02 0.99892066E+02</pdfrwt>
<totfact> 0.11177927E+04</totfact>
</mgrwt>
</event>
<event>
 8    1  0.3466492E-004  0.9605289E+02  0.7546771E-02  0.1289827E+00
         -1   -1    0    0    0  501 -0.00000000000E+00  0.00000000000E+00  0.29457182306E+03  0.29457182306E+03  0.00000000000E+00 0.  1.
          1   -1    0    0  501    0  0.00000000000E+00 -0.00000000000E+00 -0.32905888143E+02  0.32905888143E+02  0.00000000000E+00 0. -1.
         23    2    1    2    0    0  0.14445202693E+02 -0.20451238543E+02  0.87659965223E+02  0.12872098542E+03  0.90873018799E+02 0.  0.
         23    2    1    2    0    0 -0.14445202693E+02  0.20451238543E+02  0.17400596970E+03  0.19875672579E+03  0.92732095396E+02 0.  0.
          5    1    3    3  502    0 -0.25999739339E+02  0.19552715467E+02  0.14493860948E+02  0.35922933246E+02  0.47000000000E+01 0. -1.
         -5    1    4    4    0  503 -0.29711273954E+02 -0.22511466607E+02  0.12960690939E+03  0.13494282823E+03  0.47000000000E+01 0.  1.
          5    1    4    4  503    0  0.15266071261E+02  0.42962705150E+02  0.44399060309E+02  0.63813897561E+02  0.47000000000E+01 0. -1.
         -5    1    3    3    0  502  0.40444942032E+02 -0.40003954010E+02  0.73166104275E+02  0.92798052174E+02  0.47000000000E+01 0.  1.
<mgrwt>
<rscale>  0 0.95601331E+02</rscale>
<asrwt>0</asrwt>
<pdfrwt beam="1">  1        1 0.50624445E-02 0.96052895E+02</pdfrwt>
<pdfrwt beam="2">  1       -1 0.45318740E-01 0.96052895E+02</pdfrwt>
<totfact> 0.74040150E+03</totfact>
</mgrwt>
</event>
<event>
 8    1  0.3466492E-004  0.1134317E+03  0.7546771E-02  0.1255175E+00
          1   -1    0    0  501    0  0.00000000000E+00  0.00000000000E+00  0.10507802984E+03  0.10507802984E+03  0.00000000000E+00 0. -1.
         -1   -1    0    0    0  501 -0.00000000000E+00 -0.00000000000E+00 -0.14769012936E+03  0.14769012936E+03  0.00000000000E+00 0.  1.
         23    2    1    2    0    0 -0.62740984810E+01  0.60998865615E+02 -0.75432789495E+02  0.13468364622E+03  0.93216698664E+02 0.  0.
         23    2    1    2    0    0  0.62740984810E+01 -0.60998865615E+02  0.32820689975E+02  0.11808451297E+03  0.95428133147E+02 0.  0.
          5    1    4    4  502    0 -0.37608053086E+02 -0.55530443145E+02  0.95909664695E+01  0.67912240506E+02  0.47000000000E+01 0. -1.
         -5    1    3    3    0  503  0.38566893962E+02  0.73909371212E+01 -0.15436541946E+02  0.42454776983E+02  0.47000000000E+01 0.  1.
          5    1    3    3  503    0 -0.44840992443E+02  0.53607928493E+02 -0.59996247550E+02  0.92228869236E+02  0.47000000000E+01 0. -1.
         -5    1    4    4    0  502  0.43882151567E+02 -0.54684224700E+01  0.23229723506E+02  0.50172272468E+02  0.47000000000E+01 0.  1.
<mgrwt>
<rscale>  0 0.11296534E+03</rscale>
<asrwt>0</asrwt>
<pdfrwt beam="1">  1        1 0.16165851E-01 0.11343172E+03</pdfrwt>
<pdfrwt beam="2">  1       -1 0.22721558E-01 0.11343172E+03</pdfrwt>
<totfact> 0.51930125E+03</totfact>
</mgrwt>
</event>
<event>
 8    1  0.3466492E-004  0.9497262E+02  0.7546771E-02  0.1292003E+00
          3   -1    0    0  501    0  0.00000000000E+00  0.00000000000E+00  0.25373196661E+03  0.25373196661E+03  0.00000000000E+00 0. -1.
         -3   -1    0    0    0  501 -0.00000000000E+00 -0.00000000000E+00 -0.36695335189E+02  0.36695335189E+02  0.00000000000E+00 0.  1.
         23    2    1    2    0    0 -0.21155070389E+02 -0.13558882590E+02  0.76992720486E+02  0.12121708908E+03  0.90190483856E+02 0.  0.
         23    2    1    2    0    0  0.21155070389E+02  0.13558882590E+02  0.14004391093E+03  0.16921021271E+03  0.91588311461E+02 0.  0.
          5    1    4    4  502    0  0.14944816409E+01  0.49163637402E+02  0.10192209393E+03  0.11326738255E+03  0.47000000000E+01 0. -1.
         -5    1    4    4    0  502  0.19660588748E+02 -0.35604754812E+02  0.38121817000E+02  0.55942830162E+02  0.47000000000E+01 0.  1.
          5    1    3    3  503    0  0.96660046026E+01  0.20453234198E+02  0.71030503608E+02  0.74693968143E+02  0.47000000000E+01 0. -1.
         -5    1    3    3    0  503 -0.30821074991E+02 -0.34012116788E+02  0.59622168780E+01  0.46523120942E+02  0.47000000000E+01 0.  1.
<mgrwt>
<rscale>  0 0.94633995E+02</rscale>
<asrwt>0</asrwt>
<pdfrwt beam="1">  1        3 0.39035686E-01 0.94972623E+02</pdfrwt>
<pdfrwt beam="2">  1       -3 0.56454364E-02 0.94972623E+02</pdfrwt>
<totfact> 0.26104008E+03</totfact>
</mgrwt>
</event>
<event>
 8    1  0.3466492E-004  0.9780298E+02  0.7546771E-02  0.1285171E+00
         -3   -1    0    0    0  501 -0.00000000000E+00  0.00000000000E+00  0.19119285408E+03  0.19119285408E+03  0.00000000000E+00 0.  1.
          3   -1    0    0  501    0  0.00000000000E+00 -0.00000000000E+00 -0.60849914011E+02  0.60849914011E+02  0.00000000000E+00 0. -1.
         23    2    1    2    0    0  0.11291529205E+02  0.30038067063E+02  0.11883503263E+03  0.15390642684E+03  0.92388522758E+02 0.  0.
         23    2    1    2    0    0 -0.11291529205E+02 -0.30038067063E+02  0.11507907443E+02  0.98136341255E+02  0.92024591477E+02 0.  0.
          5    1    3    3  502    0 -0.28522886414E+02 -0.17899951494E+02  0.54346151961E+02  0.64105830826E+02  0.47000000000E+01 0. -1.
         -5    1    4    4    0  503  0.65348273956E+01  0.22762640355E+02  0.30656485530E+02  0.39022453409E+02  0.47000000000E+01 0.  1.
          5    1    4    4  503    0 -0.17826356601E+02 -0.52800707418E+02 -0.19148578087E+02  0.59113887846E+02  0.47000000000E+01 0. -1.
         -5    1    3    3    0  502  0.39814415619E+02  0.47938018557E+02  0.64488880665E+02  0.89800596010E+02  0.47000000000E+01 0.  1.
<mgrwt>
<rscale>  0 0.97716941E+02</rscale>
<asrwt>0</asrwt>
<pdfrwt beam="1">  1        3 0.93615253E-02 0.97802982E+02</pdfrwt>
<pdfrwt beam="2">  1       -3 0.29414285E-01 0.97802982E+02</pdfrwt>
<totfact> 0.19775128E+03</totfact>
</mgrwt>
</event>
<event>
 8    1  0.3466492E-004  0.1922697E+03  0.7546771E-02  0.1157396E+00
         -3   -1    0    0    0  501 -0.00000000000E+00  0.00000000000E+00  0.65567974583E+02  0.65567974583E+02  0.00000000000E+00 0.  1.
          3   -1    0    0  501    0  0.00000000000E+00 -0.00000000000E+00 -0.55188665264E+03  0.55188665264E+03  0.00000000000E+00 0. -1.
         23    2    1    2    0    0  0.76735844131E+02 -0.14608937606E+03 -0.23012623184E+03  0.29713882031E+03  0.90016111823E+02 0.  0.
         23    2    1    2    0    0 -0.76735844131E+02  0.14608937606E+03 -0.25619244622E+03  0.32031580691E+03  0.98677003821E+02 0.  0.
          5    1    3    3  502    0 -0.10040416698E+02 -0.30448263733E+02 -0.90353936111E+02  0.95988699869E+02  0.47000000000E+01 0. -1.
         -5    1    3    3    0  502  0.86776260830E+02 -0.11564111232E+03 -0.13977229572E+03  0.20115012045E+03  0.47000000000E+01 0.  1.
          5    1    4    4  503    0 -0.73507453601E+02  0.61020136615E+02 -0.18876515476E+03  0.21161563378E+03  0.47000000000E+01 0. -1.
         -5    1    4    4    0  503 -0.32283905309E+01  0.85069239443E+02 -0.67427291458E+02  0.10870017313E+03  0.47000000000E+01 0.  1.
<mgrwt>
<rscale>  0 0.19118612E+03</rscale>
<asrwt>0</asrwt>
<pdfrwt beam="1">  1        3 0.84905637E-01 0.19226972E+03</pdfrwt>
<pdfrwt beam="2">  1       -3 0.10087381E-01 0.19226972E+03</pdfrwt>
<totfact> 0.23164668E+02</totfact>
</mgrwt>
</event>
<event>
 8    1  0.3466492E-004  0.1217302E+03  0.7546771E-02  0.1240870E+00
         -1   -1    0    0    0  501 -0.00000000000E+00  0.00000000000E+00  0.43857145902E+02  0.43857145902E+02  0.00000000000E+00 0.  1.
          1   -1    0    0  501    0  0.00000000000E+00 -0.00000000000E+00 -0.77348791722E+03  0.77348791722E+03  0.00000000000E+00 0. -1.
         23    2    1    2    0    0 -0.49996848639E+02  0.60115972657E+02 -0.55739220211E+02  0.13254724398E+03  0.91369011025E+02 0.  0.
         23    2    1    2    0    0  0.49996848639E+02 -0.60115972657E+02 -0.67389155111E+03  0.68479781914E+03  0.93298528399E+02 0.  0.
          5    1    3    3  502    0 -0.92266905676E+01 -0.20103403162E+02 -0.32320211787E+02  0.39445718747E+02  0.47000000000E+01 0. -1.
         -5    1    4    4    0  503  0.76893445748E+02 -0.49782021534E+02 -0.54277601607E+03  0.55047138462E+03  0.47000000000E+01 0. -1.
          5    1    4    4  503    0 -0.26896597109E+02 -0.10333951123E+02 -0.13111553504E+03  0.13432643452E+03  0.47000000000E+01 0.  1.
         -5    1    3    3    0  502 -0.40770158071E+02  0.80219375819E+02 -0.23419008424E+02  0.93101525237E+02  0.47000000000E+01 0.  1.
<mgrwt>
<rscale>  0 0.12136036E+03</rscale>
<asrwt>0</asrwt>
<pdfrwt beam="1">  1        1 0.11899813E+00 0.12173015E+03</pdfrwt>
<pdfrwt beam="2">  1       -1 0.67472536E-02 0.12173015E+03</pdfrwt>
<totfact> 0.26560283E+03</totfact>
</mgrwt>
</event>
<event>
 8    1  0.3466492E-004  0.1434056E+03  0.7546771E-02  0.1209033E+00
          1   -1    0    0  501    0  0.00000000000E+00  0.00000000000E+00  0.63515961272E+03  0.63515961272E+03  0.00000000000E+00 0. -1.
         -1   -1    0    0    0  501 -0.00000000000E+00 -0.00000000000E+00 -0.11762292143E+03  0.11762292143E+03  0.00000000000E+00 0.  1.
         23    2    1    2    0    0  0.70960190996E+02 -0.83319523168E+02  0.57963490382E+03  0.59711119464E+03  0.92669657341E+02 0.  0.
         23    2    1    2    0    0 -0.70960190996E+02  0.83319523168E+02 -0.62098212533E+02  0.15567133950E+03  0.91650893592E+02 0.  0.
          5    1    3    3  502    0  0.65744128091E+02 -0.74466880009E+01  0.30289683099E+03  0.31007470675E+03  0.47000000000E+01 0. -1.
         -5    1    4    4    0  503 -0.50157787645E+02 -0.22035036754E+01 -0.41122720173E+02  0.65067866142E+02  0.47000000000E+01 0.  1.
          5    1    4    4  503    0 -0.20802403352E+02  0.85523026843E+02 -0.20975492360E+02  0.90603473363E+02  0.47000000000E+01 0. -1.
         -5    1    3    3    0  502  0.52160629051E+01 -0.75872835167E+02  0.27673807283E+03  0.28703648789E+03  0.47000000000E+01 0.  1.
<mgrwt>
<rscale>  0 0.14324123E+03</rscale>
<asrwt>0</asrwt>
<pdfrwt beam="1">  1        1 0.97716861E-01 0.14340557E+03</pdfrwt>
<pdfrwt beam="2">  1       -1 0.18095834E-01 0.14340557E+03</pdfrwt>
<totfact> 0.77477208E+02</totfact>
</mgrwt>
</event>
<event>
 8    1  0.3466492E-004  0.9153762E+02  0.7546771E-02  0.1308476E+00
          1   -1    0    0  501    0  0.00000000000E+00  0.00000000000E+00  0.34310437978E+03  0.34310437978E+03  0.00000000000E+00 0. -1.
         -1   -1    0    0    0  501 -0.00000000000E+00 -0.00000000000E+00 -0.20742983060E+02  0.20742983060E+02  0.00000000000E+00 0.  1.
         23    2    1    2    0    0  0.75151943345E+01 -0.41648536287E+01  0.14674227437E+03  0.16580390241E+03  0.76706028556E+02 0.  0.
         23    2    1    2    0    0 -0.75151943345E+01  0.41648536287E+01  0.17561912235E+03  0.19804346043E+03  0.91133484136E+02 0.  0.
          5    1    4    4  502    0  0.16602779911E+02  0.41807108602E+02  0.71081239011E+02  0.84250336318E+02  0.47000000000E+01 0. -1.
         -5    1    4    4    0  502 -0.24117974245E+02 -0.37642254973E+02  0.10453788334E+03  0.11379312411E+03  0.47000000000E+01 0.  1.
          5    1    3    3  503    0  0.38605521189E+02  0.59588426895E+01  0.10770289167E+03  0.11466427930E+03  0.47000000000E+01 0. -1.
         -5    1    3    3    0  503 -0.31090326854E+02 -0.10123696318E+02  0.39039382700E+02  0.51139623118E+02  0.47000000000E+01 0.  1.
<mgrwt>
<rscale>  0 0.87717044E+02</rscale>
<asrwt>0</asrwt>
<pdfrwt beam="1">  1        1 0.52785285E-01 0.91537621E+02</pdfrwt>
<pdfrwt beam="2">  1       -1 0.31912284E-02 0.91537621E+02</pdfrwt>
<totfact> 0.22773767E+04</totfact>
</mgrwt>
</event>
<event>
 8    1  0.3466492E-004  0.1129261E+03  0.7546771E-02  0.1255290E+00
          1   -1    0    0  501    0  0.00000000000E+00  0.00000000000E+00  0.15416831929E+03  0.15416831929E+03  0.00000000000E+00 0. -1.
         -1   -1    0    0    0  501 -0.00000000000E+00 -0.00000000000E+00 -0.90265490003E+02  0.90265490003E+02  0.00000000000E+00 0.  1.
         23    2    1    2    0    0  0.57069093267E+01  0.65290130211E+02 -0.35509807889E+01  0.11298193428E+03  0.91961612061E+02 0.  0.
         23    2    1    2    0    0 -0.57069093267E+01 -0.65290130211E+02  0.67453810076E+02  0.13145187501E+03  0.91837949850E+02 0.  0.
          5    1    3    3  502    0 -0.13332942911E+02  0.31420153784E+02  0.41083533154E+02  0.53618468151E+02  0.47000000000E+01 0. -1.
         -5    1    4    4    0  503  0.14571135676E+02 -0.24735821056E+02 -0.18276798266E+02  0.34355642813E+02  0.47000000000E+01 0.  1.
          5    1    4    4  503    0 -0.20278045003E+02 -0.40554309155E+02  0.85730608341E+02  0.97096232196E+02  0.47000000000E+01 0. -1.
         -5    1    3    3    0  502  0.19039852238E+02  0.33869976427E+02 -0.44634513943E+02  0.59363466133E+02  0.47000000000E+01 0.  1.
<mgrwt>
<rscale>  0 0.11290094E+03</rscale>
<asrwt>0</asrwt>
<pdfrwt beam="1">  1        1 0.23718203E-01 0.11292612E+03</pdfrwt>
<pdfrwt beam="2">  1       -1 0.13886999E-01 0.11292612E+03</pdfrwt>
<totfact> 0.69631206E+03</totfact>
</mgrwt>
</event>
<event>
 8    1  0.3466492E-004  0.9581333E+02  0.7546771E-02  0.1290759E+00
         -1   -1    0    0    0  501 -0.00000000000E+00  0.00000000000E+00  0.84176564953E+02  0.84176564953E+02  0.00000000000E+00 0.  1.
          1   -1    0    0  501    0  0.00000000000E+00 -0.00000000000E+00 -0.11517717588E+03  0.11517717588E+03  0.00000000000E+00 0. -1.
         23    2    1    2    0    0 -0.56473957871E+01 -0.14946812867E+02 -0.43066504821E+02  0.10278366492E+03  0.91948124738E+02 0.  0.
         23    2    1    2    0    0  0.56473957871E+01  0.14946812867E+02  0.12065893896E+02  0.96570075910E+02  0.94471654330E+02 0.  0.
          5    1    4    4  502    0  0.96423401081E+01  0.37632233809E+02 -0.29371827890E+02  0.48928049397E+02  0.47000000000E+01 0. -1.
         -5    1    4    4    0  502 -0.39949443210E+01 -0.22685420942E+02  0.41437721786E+02  0.47642026513E+02  0.47000000000E+01 0.  1.
          5    1    3    3  503    0 -0.37699746608E+02  0.72319021639E+01  0.68521345723E+01  0.39276112988E+02  0.47000000000E+01 0. -1.
         -5    1    3    3    0  503  0.32052350821E+02 -0.22178715031E+02 -0.49918639393E+02  0.63507551932E+02  0.47000000000E+01 0.  1.
<mgrwt>
<rscale>  0 0.95185370E+02</rscale>
<asrwt>0</asrwt>
<pdfrwt beam="1">  1        1 0.17719565E-01 0.95813328E+02</pdfrwt>
<pdfrwt beam="2">  1       -1 0.12950241E-01 0.95813328E+02</pdfrwt>
<totfact> 0.11041244E+04</totfact>
</mgrwt>
</event>
<event>
 8    1  0.3466492E-004  0.1221088E+03  0.7546771E-02  0.1239950E+00
         -2   -1    0    0    0  501 -0.00000000000E+00  0.00000000000E+00  0.12915962353E+03  0.12915962353E+03  0.00000000000E+00 0.  1.
          2   -1    0    0  501    0  0.00000000000E+00 -0.00000000000E+00 -0.19992611912E+03  0.19992611912E+03  0.00000000000E+00 0. -1.
         23    2    1    2    0    0 -0.46256024063E+02 -0.65884566997E+02  0.72069532310E+02  0.14116902171E+03  0.90853064188E+02 0.  0.
         23    2    1    2    0    0  0.46256024063E+02  0.65884566997E+02 -0.14283602790E+03  0.18791672094E+03  0.91815942035E+02 0.  0.
          5    1    3    3  502    0 -0.39046576621E+02 -0.65495367915E+01 -0.84733560950E+01  0.40760512037E+02  0.47000000000E+01 0. -1.
         -5    1    4    4    0  503 -0.22484215374E+02  0.11646796275E+02 -0.67730111455E+02  0.72461340052E+02  0.47000000000E+01 0.  1.
          5    1    4    4  503    0  0.68740239437E+02  0.54237770722E+02 -0.75105916444E+02  0.11545538089E+03  0.47000000000E+01 0. -1.
         -5    1    3    3    0  502 -0.72094474424E+01 -0.59335030206E+02  0.80542888405E+02  0.10040850967E+03  0.47000000000E+01 0.  1.
<mgrwt>
<rscale>  0 0.12192783E+03</rscale>
<asrwt>0</asrwt>
<pdfrwt beam="1">  1        2 0.30757864E-01 0.12210882E+03</pdfrwt>
<pdfrwt beam="2">  1       -2 0.19870711E-01 0.12210882E+03</pdfrwt>
<totfact> 0.34720995E+03</totfact>
</mgrwt>
</event>
<event>
 8    1  0.3466492E-004  0.1048892E+03  0.7546771E-02  0.1272129E+00
          2   -1    0    0  501    0  0.00000000000E+00  0.00000000000E+00  0.52109860844E+03  0.52109860844E+03  0.00000000000E+00 0. -1.
         -2   -1    0    0    0  501 -0.00000000000E+00 -0.00000000000E+00 -0.46212953593E+02  0.46212953593E+02  0.00000000000E+00 0.  1.
         23    2    1    2    0    0  0.11989341993E+01 -0.41925907229E+02  0.44760834884E+03  0.45893350232E+03  0.92236145104E+02 0.  0.
         23    2    1    2    0    0 -0.11989341993E+01  0.41925907229E+02  0.27277306008E+02  0.10837805971E+03  0.96138094756E+02 0.  0.
          5    1    3    3  502    0  0.29693938344E+02 -0.27329989249E+02  0.39559525475E+03  0.39767619223E+03  0.47000000000E+01 0. -1.
         -5    1    4    4    0  503 -0.44694757042E+02  0.23011687912E+02 -0.51173299956E+01  0.50748755195E+02  0.47000000000E+01 0.  1.
          5    1    4    4  503    0  0.43495822843E+02  0.18914219318E+02  0.32394636003E+02  0.57629304515E+02  0.47000000000E+01 0. -1.
         -5    1    3    3    0  502 -0.28495004145E+02 -0.14595917981E+02  0.52013094086E+02  0.61257310089E+02  0.47000000000E+01 0.  1.
<mgrwt>
<rscale>  0 0.10398656E+03</rscale>
<asrwt>0</asrwt>
<pdfrwt beam="1">  1        2 0.80169013E-01 0.10488924E+03</pdfrwt>
<pdfrwt beam="2">  1       -2 0.71096855E-02 0.10488924E+03</pdfrwt>
<totfact> 0.63869840E+03</totfact>
</mgrwt>
</event>
<event>
 8    1  0.3466492E-004  0.1155659E+03  0.7546771E-02  0.1251096E+00
          1   -1    0    0  501    0  0.00000000000E+00  0.00000000000E+00  0.60800440287E+03  0.60800440287E+03  0.00000000000E+00 0. -1.
         -1   -1    0    0    0  501 -0.00000000000E+00 -0.00000000000E+00 -0.34631297613E+02  0.34631297613E+02  0.00000000000E+00 0.  1.
         23    2    1    2    0    0 -0.30320003579E+02  0.64145410110E+02  0.48355811803E+03  0.49717594594E+03  0.91222428471E+02 0.  0.
         23    2    1    2    0    0  0.30320003579E+02 -0.64145410110E+02  0.89814987229E+02  0.14545975454E+03  0.89765650475E+02 0.  0.
          5    1    3    3  502    0 -0.51480160919E+02  0.72403581803E+02  0.42458112674E+03  0.43380146244E+03  0.47000000000E+01 0. -1.
         -5    1    3    3    0  502  0.21160157340E+02 -0.82581716925E+01  0.58976991283E+02  0.63374483502E+02  0.47000000000E+01 0.  1.
          5    1    4    4  503    0 -0.19550996807E+02 -0.38373321500E+02  0.49565826030E+01  0.43605171599E+02  0.47000000000E+01 0. -1.
         -5    1    4    4    0  503  0.49871000385E+02 -0.25772088610E+02  0.84858404627E+02  0.10185458294E+03  0.47000000000E+01 0.  1.
<mgrwt>
<rscale>  0 0.11527818E+03</rscale>
<asrwt>0</asrwt>
<pdfrwt beam="1">  1        1 0.93539131E-01 0.11556586E+03</pdfrwt>
<pdfrwt beam="2">  1       -1 0.53278924E-02 0.11556586E+03</pdfrwt>
<totfact> 0.52884548E+03</totfact>
</mgrwt>
</event>
<event>
 8    1  0.3466492E-004  0.9475884E+02  0.7546771E-02  0.1293125E+00
         -3   -1    0    0    0  501 -0.00000000000E+00  0.00000000000E+00  0.23929258831E+03  0.23929258831E+03  0.00000000000E+00 0.  1.
          3   -1    0    0  501    0  0.00000000000E+00 -0.00000000000E+00 -0.51942202588E+02  0.51942202588E+02  0.00000000000E+00 0. -1.
         23    2    1    2    0    0 -0.89173045918E+01 -0.22058957675E+02  0.13571262432E+02  0.93299393429E+02  0.89187901171E+02 0.  0.
         23    2    1    2    0    0  0.89173045918E+01  0.22058957675E+02  0.17377912329E+03  0.19793539747E+03  0.91723072045E+02 0.  0.
          5    1    3    3  502    0 -0.33705628167E+02  0.79797422821E+01  0.34264260411E+02  0.48947678173E+02  0.47000000000E+01 0. -1.
         -5    1    3    3    0  502  0.24788323575E+02 -0.30038699957E+02 -0.20692997979E+02  0.44351715256E+02  0.47000000000E+01 0.  1.
          5    1    4    4  503    0  0.36487224204E+02  0.96456117898E+01  0.23796590167E+02  0.44863382179E+02  0.47000000000E+01 0. -1.
         -5    1    4    4    0  503 -0.27569919612E+02  0.12413345885E+02  0.14998253312E+03  0.15307201529E+03  0.47000000000E+01 0.  1.
<mgrwt>
<rscale>  0 0.94139863E+02</rscale>
<asrwt>0</asrwt>
<pdfrwt beam="1">  1        3 0.79911082E-02 0.94758841E+02</pdfrwt>
<pdfrwt beam="2">  1       -3 0.36814244E-01 0.94758841E+02</pdfrwt>
<totfact> 0.16744192E+03</totfact>
</mgrwt>
</event>
<event>
 8    1  0.1047848E-003  0.9451159E+02  0.7546771E-02  0.1293444E+00
         -3   -1    0    0    0  501 -0.00000000000E+00  0.00000000000E+00  0.48971631584E+03  0.48971631584E+03  0.00000000000E+00 0.  1.
          3   -1    0    0  501    0  0.00000000000E+00 -0.00000000000E+00 -0.11450672717E+03  0.11450672717E+03  0.00000000000E+00 0. -1.
         23    2    1    2    0    0  0.13776469942E+02  0.20913809754E+02 -0.90275959426E+02  0.12923963701E+03  0.89027840369E+02 0.  0.
         23    2    1    2    0    0 -0.13776469942E+02 -0.20913809754E+02  0.46548554810E+03  0.47498340600E+03  0.91133209781E+02 0.  0.
          5    1    3    3  502    0 -0.27130399615E+02  0.22972415041E+02 -0.78595638311E+02  0.86389552595E+02  0.47000000000E+01 0. -1.
         -5    1    4    4    0  503  0.15700726410E+02 -0.38215685534E+02  0.38727614149E+03  0.38950205545E+03  0.47000000000E+01 0.  1.
          5    1    4    4  503    0 -0.29477196353E+02  0.17301875780E+02  0.78209406609E+02  0.85481350554E+02  0.47000000000E+01 0. -1.
         -5    1    3    3    0  502  0.40906869558E+02 -0.20586052864E+01 -0.11680321115E+02  0.42850084412E+02  0.47000000000E+01 0.  1.
<mgrwt>
<rscale>  0 0.94000349E+02</rscale>
<asrwt>0</asrwt>
<pdfrwt beam="1">  1        3 0.17616420E-01 0.94511589E+02</pdfrwt>
<pdfrwt beam="2">  1       -3 0.75340971E-01 0.94511589E+02</pdfrwt>
<totfact> 0.10726224E+02</totfact>
</mgrwt>
</event>
<event>
 8    1  0.3466492E-004  0.1338971E+03  0.7546771E-02  0.1235045E+00
         -1   -1    0    0    0  501 -0.00000000000E+00  0.00000000000E+00  0.18090611073E+02  0.18090611073E+02  0.00000000000E+00 0.  1.
          1   -1    0    0  501    0  0.00000000000E+00 -0.00000000000E+00 -0.79543187294E+03  0.79543187294E+03  0.00000000000E+00 0. -1.
         23    2    1    2    0    0  0.22627347449E+02  0.37350351341E+02 -0.41320691928E+03  0.42555051382E+03  0.91903406217E+02 0.  0.
         23    2    1    2    0    0 -0.22627347449E+02 -0.37350351341E+02 -0.36413434259E+03  0.38797197019E+03  0.12657560826E+03 0.  0.
          5    1    3    3  502    0  0.35255959157E+02 -0.13693960713E+01 -0.58467879875E+02  0.68450280340E+02  0.47000000000E+01 0. -1.
         -5    1    3    3    0  502 -0.12628611708E+02  0.38719747412E+02 -0.35473903941E+03  0.35710023348E+03  0.47000000000E+01 0.  1.
          5    1    4    4  503    0 -0.36818748150E+02  0.36694569341E+02 -0.20907500829E+03  0.21549144003E+03  0.47000000000E+01 0. -1.
         -5    1    4    4    0  503  0.14191400701E+02 -0.74044920682E+02 -0.15505933430E+03  0.17248053016E+03  0.47000000000E+01 0.  1.
<mgrwt>
<rscale>  0 0.12501528E+03</rscale>
<asrwt>0</asrwt>
<pdfrwt beam="1">  1        1 0.12237414E+00 0.13389709E+03</pdfrwt>
<pdfrwt beam="2">  1       -1 0.27831708E-02 0.13389709E+03</pdfrwt>
<totfact> 0.94112393E+03</totfact>
</mgrwt>
</event>
<event>
 8    1  0.3466492E-004  0.1872800E+03  0.7546771E-02  0.1162579E+00
          1   -1    0    0  501    0  0.00000000000E+00  0.00000000000E+00  0.12697635110E+04  0.12697635110E+04  0.00000000000E+00 0. -1.
         -1   -1    0    0    0  501 -0.00000000000E+00 -0.00000000000E+00 -0.28653343332E+02  0.28653343332E+02  0.00000000000E+00 0.  1.
         23    2    1    2    0    0  0.13321492002E+03  0.80205873734E+02  0.80529177699E+03  0.82678209526E+03  0.10437715194E+03 0.  0.
         23    2    1    2    0    0 -0.13321492002E+03 -0.80205873734E+02  0.43581839064E+03  0.47163475904E+03  0.91227623096E+02 0.  0.
          5    1    3    3  502    0  0.13868226924E+03  0.37742692017E+02  0.59581811634E+03  0.61292626013E+03  0.47000000000E+01 0. -1.
         -5    1    4    4    0  503 -0.10779518489E+03 -0.14293561291E+02  0.28315546333E+03  0.30335328282E+03  0.47000000000E+01 0.  1.
          5    1    4    4  503    0 -0.25419735130E+02 -0.65912312443E+02  0.15266292731E+03  0.16828147622E+03  0.47000000000E+01 0. -1.
         -5    1    3    3    0  502 -0.54673492175E+01  0.42463181716E+02  0.20947366066E+03  0.21385583513E+03  0.47000000000E+01 0.  1.
<mgrwt>
<rscale>  0 0.18550547E+03</rscale>
<asrwt>0</asrwt>
<pdfrwt beam="1">  1        1 0.19534819E+00 0.18727997E+03</pdfrwt>
<pdfrwt beam="2">  1       -1 0.44082077E-02 0.18727997E+03</pdfrwt>
<totfact> 0.21726779E+03</totfact>
</mgrwt>
</event>
<event>
 8    1  0.3792806E-004  0.1243471E+03  0.7546771E-02  0.1238448E+00
          1   -1    0    0  501    0  0.00000000000E+00  0.00000000000E+00  0.89676983531E+03  0.89676983531E+03  0.00000000000E+00 0. -1.
         -1   -1    0    0    0  501 -0.00000000000E+00 -0.00000000000E+00 -0.11541536684E+03  0.11541536684E+03  0.00000000000E+00 0.  1.
         23    2    1    2    0    0 -0.20896346197E+02 -0.81283055283E+02  0.85797879380E+03  0.86612535752E+03  0.83677547560E+02 0.  0.
         23    2    1    2    0    0  0.20896346197E+02  0.81283055283E+02 -0.76624325332E+02  0.14605984463E+03  0.91752921585E+02 0.  0.
          5    1    3    3  502    0  0.83537998901E+01 -0.78439278631E+02  0.74895613471E+03  0.75311346298E+03  0.47000000000E+01 0. -1.
         -5    1    3    3    0  502 -0.29250146087E+02 -0.28437766526E+01  0.10902265910E+03  0.11301189454E+03  0.47000000000E+01 0.  1.
          5    1    4    4  503    0  0.51846151441E+02  0.76548660278E+02 -0.54347040170E+02  0.10734715453E+03  0.47000000000E+01 0. -1.
         -5    1    4    4    0  503 -0.30949805244E+02  0.47343950053E+01 -0.22277285162E+02  0.38712690102E+02  0.47000000000E+01 0.  1.
<mgrwt>
<rscale>  0 0.12286237E+03</rscale>
<asrwt>0</asrwt>
<pdfrwt beam="1">  1        1 0.13796459E+00 0.12434706E+03</pdfrwt>
<pdfrwt beam="2">  1       -1 0.17756211E-01 0.12434706E+03</pdfrwt>
<totfact> 0.48068709E+02</totfact>
</mgrwt>
</event>
<event>
 8    1  0.3466492E-004  0.9496321E+02  0.7546771E-02  0.1292035E+00
          1   -1    0    0  501    0  0.00000000000E+00  0.00000000000E+00  0.53628742926E+03  0.53628742926E+03  0.00000000000E+00 0. -1.
         -1   -1    0    0    0  501 -0.00000000000E+00 -0.00000000000E+00 -0.25890266585E+02  0.25890266585E+02  0.00000000000E+00 0.  1.
         23    2    1    2    0    0  0.27646373388E+02 -0.30835380627E+01  0.87775021308E+02  0.12931537156E+03  0.90797471269E+02 0.  0.
         23    2    1    2    0    0 -0.27646373388E+02  0.30835380627E+01  0.42262214137E+03  0.43286232428E+03  0.89367148542E+02 0.  0.
          5    1    4    4  502    0 -0.23791752275E+02 -0.38163053106E+02  0.29898537301E+03  0.30238520032E+03  0.47000000000E+01 0. -1.
         -5    1    3    3    0  503  0.48470903812E+02  0.14163309706E+02  0.17136836012E+02  0.53533064611E+02  0.47000000000E+01 0.  1.
          5    1    3    3  503    0 -0.20824530423E+02 -0.17246847769E+02  0.70638185296E+02  0.75782306954E+02  0.47000000000E+01 0. -1.
         -5    1    4    4    0  502 -0.38546211135E+01  0.41246591169E+02  0.12363676836E+03  0.13047712397E+03  0.47000000000E+01 0.  1.
<mgrwt>
<rscale>  0 0.94619689E+02</rscale>
<asrwt>0</asrwt>
<pdfrwt beam="1">  1        1 0.82505750E-01 0.94963208E+02</pdfrwt>
<pdfrwt beam="2">  1       -1 0.39831183E-02 0.94963208E+02</pdfrwt>
<totfact> 0.94478989E+03</totfact>
</mgrwt>
</event>
<event>
 8    1  0.3466492E-004  0.9233130E+02  0.7546771E-02  0.1298506E+00
          1   -1    0    0  501    0  0.00000000000E+00  0.00000000000E+00  0.63708648473E+02  0.63708648473E+02  0.00000000000E+00 0. -1.
         -1   -1    0    0    0  501 -0.00000000000E+00 -0.00000000000E+00 -0.13090404731E+03  0.13090404731E+03  0.00000000000E+00 0.  1.
         23    2    1    2    0    0 -0.47834545394E+01 -0.24104883668E+01 -0.35205911649E+02  0.98815607836E+02  0.92175789909E+02 0.  0.
         23    2    1    2    0    0  0.47834545394E+01  0.24104883668E+01 -0.31989487187E+02  0.95797087947E+02  0.90139130666E+02 0.  0.
          5    1    3    3  502    0  0.39485492293E+02 -0.10936787283E+02  0.29346149355E+00  0.41241890565E+02  0.47000000000E+01 0. -1.
         -5    1    4    4    0  503  0.18356691018E+02  0.28535847796E+02 -0.50265594586E+02  0.60827483210E+02  0.47000000000E+01 0.  1.
          5    1    4    4  503    0 -0.13573236479E+02 -0.26125359429E+02  0.18276107399E+02  0.34969604737E+02  0.47000000000E+01 0. -1.
         -5    1    3    3    0  502 -0.44268946833E+02  0.85262989157E+01 -0.35499373143E+02  0.57573717271E+02  0.47000000000E+01 0.  1.
<mgrwt>
<rscale>  0 0.91818756E+02</rscale>
<asrwt>0</asrwt>
<pdfrwt beam="1">  1        1 0.98013306E-02 0.92331296E+02</pdfrwt>
<pdfrwt beam="2">  1       -1 0.20139084E-01 0.92331296E+02</pdfrwt>
<totfact> 0.11852507E+04</totfact>
</mgrwt>
</event>
<event>
 8    1  0.3466492E-004  0.1133505E+03  0.7546771E-02  0.1255177E+00
          1   -1    0    0  501    0  0.00000000000E+00  0.00000000000E+00  0.39435912917E+03  0.39435912917E+03  0.00000000000E+00 0. -1.
         -1   -1    0    0    0  501 -0.00000000000E+00 -0.00000000000E+00 -0.50945697542E+02  0.50945697542E+02  0.00000000000E+00 0.  1.
         23    2    1    2    0    0 -0.18238244426E+02  0.57174863465E+02  0.35694760435E+02  0.11737324439E+03  0.94343860451E+02 0.  0.
         23    2    1    2    0    0  0.18238244426E+02 -0.57174863465E+02  0.30771867120E+03  0.32793158232E+03  0.96159989131E+02 0.  0.
          5    1    4    4  502    0  0.49894659426E+02 -0.63151288139E+02  0.22721177188E+03  0.24109094034E+03  0.47000000000E+01 0. -1.
         -5    1    3    3    0  503  0.35549917011E+02  0.30630047552E+02 -0.49393836966E+00  0.47162807250E+02  0.47000000000E+01 0.  1.
          5    1    3    3  503    0 -0.53788161437E+02  0.26544815913E+02  0.36188698805E+02  0.70210437143E+02  0.47000000000E+01 0. -1.
         -5    1    4    4    0  502 -0.31656415000E+02  0.59764246732E+01  0.80506899318E+02  0.86840641985E+02  0.47000000000E+01 0.  1.
<mgrwt>
<rscale>  0 0.11296442E+03</rscale>
<asrwt>0</asrwt>
<pdfrwt beam="1">  1        1 0.60670633E-01 0.11335053E+03</pdfrwt>
<pdfrwt beam="2">  1       -1 0.78377999E-02 0.11335053E+03</pdfrwt>
<totfact> 0.52119096E+03</totfact>
</mgrwt>
</event>
<event>
 8    1  0.3466492E-004  0.1438844E+03  0.7546771E-02  0.1208251E+00
         -2   -1    0    0    0  501 -0.00000000000E+00  0.00000000000E+00  0.12642384986E+03  0.12642384986E+03  0.00000000000E+00 0.  1.
          2   -1    0    0  501    0  0.00000000000E+00 -0.00000000000E+00 -0.16370632687E+03  0.16370632687E+03  0.00000000000E+00 0. -1.
         23    2    1    2    0    0  0.10403904563E+03 -0.39560067845E+02 -0.14311673351E+02  0.14442373521E+03  0.90908026671E+02 0.  0.
         23    2    1    2    0    0 -0.10403904563E+03  0.39560067845E+02 -0.22970803664E+02  0.14570644153E+03  0.91178875281E+02 0.  0.
          5    1    4    4  502    0 -0.51028006220E+02  0.38187971507E+02 -0.54363929316E+02  0.83902952256E+02  0.47000000000E+01 0. -1.
         -5    1    4    4    0  502 -0.53011039410E+02  0.13720963377E+01  0.31393125651E+02  0.61803489269E+02  0.47000000000E+01 0.  1.
          5    1    3    3  503    0  0.98865766675E+02 -0.14387319755E+02 -0.40060720721E+02  0.10774222076E+03  0.47000000000E+01 0. -1.
         -5    1    3    3    0  503  0.51732789556E+01 -0.25172748090E+02  0.25749047369E+02  0.36681514445E+02  0.47000000000E+01 0.  1.
<mgrwt>
<rscale>  0 0.14384147E+03</rscale>
<asrwt>0</asrwt>
<pdfrwt beam="1">  1        2 0.25185589E-01 0.14388436E+03</pdfrwt>
<pdfrwt beam="2">  1       -2 0.19449823E-01 0.14388436E+03</pdfrwt>
<totfact> 0.45182402E+03</totfact>
</mgrwt>
</event>
<event>
 8    1  0.3466492E-004  0.9063876E+02  0.7546771E-02  0.1302628E+00
         -2   -1    0    0    0  501 -0.00000000000E+00  0.00000000000E+00  0.11352290467E+02  0.11352290467E+02  0.00000000000E+00 0.  1.
          2   -1    0    0  501    0  0.00000000000E+00 -0.00000000000E+00 -0.76781696988E+03  0.76781696988E+03  0.00000000000E+00 0. -1.
         23    2    1    2    0    0  0.21458901467E-02  0.11909652298E+02 -0.27234751287E+03  0.28703406312E+03  0.89852912019E+02 0.  0.
         23    2    1    2    0    0 -0.21458901467E-02 -0.11909652298E+02 -0.48411716654E+03  0.49213519723E+03  0.87668589539E+02 0.  0.
          5    1    3    3  502    0  0.26836533395E+02  0.38662412956E+02 -0.19657451328E+03  0.20218459628E+03  0.47000000000E+01 0. -1.
         -5    1    3    3    0  502 -0.26834387505E+02 -0.26752760658E+02 -0.75772999589E+02  0.84849466836E+02  0.47000000000E+01 0.  1.
          5    1    4    4  503    0  0.36001340829E+02 -0.11753350065E+02 -0.37914700212E+03  0.38106269431E+03  0.47000000000E+01 0. -1.
         -5    1    4    4    0  503 -0.36003486719E+02 -0.15630223307E+00 -0.10497016442E+03  0.11107250292E+03  0.47000000000E+01 0.  1.
<mgrwt>
<rscale>  0 0.90092618E+02</rscale>
<asrwt>0</asrwt>
<pdfrwt beam="1">  1        2 0.11812565E+00 0.90638764E+02</pdfrwt>
<pdfrwt beam="2">  1       -2 0.17465068E-02 0.90638764E+02</pdfrwt>
<totfact> 0.31889560E+04</totfact>
</mgrwt>
</event>
<event>
 8    1  0.3466492E-004  0.1006723E+03  0.7546771E-02  0.1280320E+00
         -2   -1    0    0    0  501 -0.00000000000E+00  0.00000000000E+00  0.59104248619E+02  0.59104248619E+02  0.00000000000E+00 0.  1.
          2   -1    0    0  501    0  0.00000000000E+00 -0.00000000000E+00 -0.79396624396E+03  0.79396624396E+03  0.00000000000E+00 0. -1.
         23    2    1    2    0    0  0.43747345365E+02  0.38915243014E+00  0.12678668338E+02  0.98781447714E+02  0.87652975509E+02 0.  0.
         23    2    1    2    0    0 -0.43747345365E+02 -0.38915243014E+00 -0.74754066368E+03  0.75428904487E+03  0.90669386690E+02 0.  0.
          5    1    4    4  502    0 -0.71085407662E+02 -0.53921607769E+01 -0.48386016051E+03  0.48910628242E+03  0.47000000000E+01 0. -1.
         -5    1    4    4    0  502  0.27338062297E+02  0.50030083468E+01 -0.26368050318E+03  0.26518276244E+03  0.47000000000E+01 0.  1.
          5    1    3    3  503    0 -0.11059335822E+01  0.38173462207E+02 -0.53296519400E+00  0.38481298807E+02  0.47000000000E+01 0. -1.
         -5    1    3    3    0  503  0.44853278947E+02 -0.37784309777E+02  0.13211633532E+02  0.60300148907E+02  0.47000000000E+01 0.  1.
<mgrwt>
<rscale>  0 0.99988417E+02</rscale>
<asrwt>0</asrwt>
<pdfrwt beam="1">  1        2 0.12214866E+00 0.10067234E+03</pdfrwt>
<pdfrwt beam="2">  1       -2 0.90929607E-02 0.10067234E+03</pdfrwt>
<totfact> 0.26932976E+03</totfact>
</mgrwt>
</event>
<event>
 8    1  0.3466492E-004  0.9679008E+02  0.7546771E-02  0.1287932E+00
         -2   -1    0    0    0  501 -0.00000000000E+00  0.00000000000E+00  0.28874321185E+02  0.28874321185E+02  0.00000000000E+00 0.  1.
          2   -1    0    0  501    0  0.00000000000E+00 -0.00000000000E+00 -0.36557360439E+03  0.36557360439E+03  0.00000000000E+00 0. -1.
         23    2    1    2    0    0  0.29036277283E+02 -0.10577799919E+02 -0.97693372263E+02  0.13658721536E+03  0.90316538714E+02 0.  0.
         23    2    1    2    0    0 -0.29036277283E+02  0.10577799919E+02 -0.23900591094E+03  0.25786071021E+03  0.91724179796E+02 0.  0.
          5    1    3    3  502    0  0.12454111946E+02 -0.42461374212E+02 -0.16127575789E+02  0.47331405062E+02  0.47000000000E+01 0. -1.
         -5    1    3    3    0  502  0.16582165337E+02  0.31883574293E+02 -0.81565796474E+02  0.89255810295E+02  0.47000000000E+01 0.  1.
          5    1    4    4  503    0 -0.54059312774E+02 -0.26882998723E+01 -0.21051856356E+03  0.21741617202E+03  0.47000000000E+01 0. -1.
         -5    1    4    4    0  503  0.25023035491E+02  0.13266099791E+02 -0.28487347377E+02  0.40444538190E+02  0.47000000000E+01 0.  1.
<mgrwt>
<rscale>  0 0.96455122E+02</rscale>
<asrwt>0</asrwt>
<pdfrwt beam="1">  1        2 0.56242090E-01 0.96790084E+02</pdfrwt>
<pdfrwt beam="2">  1       -2 0.44422035E-02 0.96790084E+02</pdfrwt>
<totfact> 0.18756746E+04</totfact>
</mgrwt>
</event>
<event>
 8    1  0.3466492E-004  0.9843602E+02  0.7546771E-02  0.1285940E+00
         -1   -1    0    0    0  501 -0.00000000000E+00  0.00000000000E+00  0.34277107925E+02  0.34277107925E+02  0.00000000000E+00 0.  1.
          1   -1    0    0  501    0  0.00000000000E+00 -0.00000000000E+00 -0.64795804016E+03  0.64795804016E+03  0.00000000000E+00 0. -1.
         23    2    1    2    0    0 -0.30963201104E+02  0.59812659489E-01 -0.56991005615E+03  0.57834861655E+03  0.93439428334E+02 0.  0.
         23    2    1    2    0    0  0.30963201104E+02 -0.59812659489E-01 -0.43770876090E+02  0.10388653154E+03  0.88982011895E+02 0.  0.
          5    1    3    3  502    0  0.25315856969E+02  0.22303251709E+02 -0.28607855624E+03  0.28809956263E+03  0.47000000000E+01 0. -1.
         -5    1    4    4    0  503 -0.28288841829E+02  0.85276015543E+01 -0.59837126234E+00  0.29923679728E+02  0.47000000000E+01 0.  1.
          5    1    4    4  503    0  0.59252042933E+02 -0.85874142138E+01 -0.43172504828E+02  0.73962851809E+02  0.47000000000E+01 0. -1.
         -5    1    3    3    0  502 -0.56279058073E+02 -0.22243439049E+02 -0.28383149991E+03  0.29024905392E+03  0.47000000000E+01 0.  1.
<mgrwt>
<rscale>  0 0.97363436E+02</rscale>
<asrwt>0</asrwt>
<pdfrwt beam="1">  1        1 0.99685840E-01 0.98436021E+02</pdfrwt>
<pdfrwt beam="2">  1       -1 0.52734018E-02 0.98436021E+02</pdfrwt>
<totfact> 0.48790128E+03</totfact>
</mgrwt>
</event>
<event>
 8    1  0.3466492E-004  0.1404183E+03  0.7546771E-02  0.1214349E+00
          2   -1    0    0  501    0  0.00000000000E+00  0.00000000000E+00  0.51447187805E+03  0.51447187805E+03  0.00000000000E+00 0. -1.
         -2   -1    0    0    0  501 -0.00000000000E+00 -0.00000000000E+00 -0.61627512374E+02  0.61627512374E+02  0.00000000000E+00 0.  1.
         23    2    1    2    0    0 -0.25452411707E+02  0.10341964764E+03  0.40595263187E+03  0.42805838180E+03  0.84219891495E+02 0.  0.
         23    2    1    2    0    0  0.25452411707E+02 -0.10341964764E+03  0.46891733798E+02  0.14804100862E+03  0.91508779662E+02 0.  0.
          5    1    3    3  502    0 -0.47610798015E+02  0.76674495624E+02  0.20450775782E+03  0.22358729699E+03  0.47000000000E+01 0. -1.
         -5    1    3    3    0  502  0.22158386308E+02  0.26745152015E+02  0.20144487406E+03  0.20447108481E+03  0.47000000000E+01 0.  1.
          5    1    4    4  503    0  0.42177009209E+02 -0.88074740442E+01  0.22351039305E+02  0.48766081070E+02  0.47000000000E+01 0. -1.
         -5    1    4    4    0  503 -0.16724597503E+02 -0.94612173595E+02  0.24540694493E+02  0.99274927551E+02  0.47000000000E+01 0.  1.
<mgrwt>
<rscale>  0 0.13924431E+03</rscale>
<asrwt>0</asrwt>
<pdfrwt beam="1">  1        2 0.79149517E-01 0.14041832E+03</pdfrwt>
<pdfrwt beam="2">  1       -2 0.94811561E-02 0.14041832E+03</pdfrwt>
<totfact> 0.42209192E+03</totfact>
</mgrwt>
</event>
<event>
 8    1  0.3466492E-004  0.9962828E+02  0.7546771E-02  0.1282340E+00
          1   -1    0    0  501    0  0.00000000000E+00  0.00000000000E+00  0.61704167736E+02  0.61704167736E+02  0.00000000000E+00 0. -1.
         -1   -1    0    0    0  501 -0.00000000000E+00 -0.00000000000E+00 -0.18527289564E+03  0.18527289564E+03  0.00000000000E+00 0.  1.
         23    2    1    2    0    0 -0.32342068626E+02  0.75155297584E+01 -0.11057979176E+03  0.14884114178E+03  0.93932436096E+02 0.  0.
         23    2    1    2    0    0  0.32342068626E+02 -0.75155297584E+01 -0.12988936151E+02  0.98135921598E+02  0.91430050066E+02 0.  0.
          5    1    3    3  502    0  0.20068375311E+02 -0.74783662141E+01  0.36081643044E+01  0.22221037296E+02  0.47000000000E+01 0. -1.
         -5    1    4    4    0  503  0.20640504630E+02 -0.48958561831E+02 -0.16824643987E+01  0.53365643390E+02  0.47000000000E+01 0.  1.
          5    1    4    4  503    0  0.11701563997E+02  0.41443032073E+02 -0.11306471752E+02  0.44770278208E+02  0.47000000000E+01 0. -1.
         -5    1    3    3    0  502 -0.52410443938E+02  0.14993895972E+02 -0.11418795606E+03  0.12662010448E+03  0.47000000000E+01 0.  1.
<mgrwt>
<rscale>  0 0.99034053E+02</rscale>
<asrwt>0</asrwt>
<pdfrwt beam="1">  1        1 0.94929489E-02 0.99628285E+02</pdfrwt>
<pdfrwt beam="2">  1       -1 0.28503522E-01 0.99628285E+02</pdfrwt>
<totfact> 0.70881823E+03</totfact>
</mgrwt>
</event>
<event>
 8    1  0.3466492E-004  0.1573756E+03  0.7546771E-02  0.1194471E+00
         -2   -1    0    0    0  501 -0.00000000000E+00  0.00000000000E+00  0.71044926033E+02  0.71044926033E+02  0.00000000000E+00 0. -1.
          2   -1    0    0  501    0  0.00000000000E+00 -0.00000000000E+00 -0.33869427039E+03  0.33869427039E+03  0.00000000000E+00 0.  1.
         23    2    1    2    0    0  0.11390574274E+03  0.57930708158E+02 -0.16579808845E+03  0.22228054045E+03  0.74760600261E+02 0.  0.
         23    2    1    2    0    0 -0.11390574274E+03 -0.57930708158E+02 -0.10185125591E+03  0.18745865597E+03  0.91850880193E+02 0.  0.
          5    1    4    4  502    0 -0.36160539522E+02 -0.67665100632E+02 -0.65364420343E+02  0.10089969231E+03  0.47000000000E+01 0. -1.
         -5    1    4    4    0  502 -0.77745203219E+02  0.97343924738E+01 -0.36486835564E+02  0.86558963660E+02  0.47000000000E+01 0.  1.
          5    1    3    3  503    0  0.43831078390E+02 -0.56157404597E+01 -0.20742230998E+02  0.49041106436E+02  0.47000000000E+01 0. -1.
         -5    1    3    3    0  503  0.70074664352E+02  0.63546448618E+02 -0.14505585745E+03  0.17323943401E+03  0.47000000000E+01 0.  1.
<mgrwt>
<rscale>  0 0.15499124E+03</rscale>
<asrwt>0</asrwt>
<pdfrwt beam="1">  1        2 0.52106810E-01 0.15737557E+03</pdfrwt>
<pdfrwt beam="2">  1       -2 0.10929989E-01 0.15737557E+03</pdfrwt>
<totfact> 0.53275979E+03</totfact>
</mgrwt>
</event>
<event>
 8    1  0.3466492E-004  0.1072122E+03  0.7546771E-02  0.1265879E+00
          2   -1    0    0  501    0  0.00000000000E+00  0.00000000000E+00  0.16230236324E+03  0.16230236324E+03  0.00000000000E+00 0. -1.
         -2   -1    0    0    0  501 -0.00000000000E+00 -0.00000000000E+00 -0.72650912211E+02  0.72650912211E+02  0.00000000000E+00 0.  1.
         23    2    1    2    0    0 -0.57595714451E+02  0.14437893588E+01  0.63847723346E+02  0.12467953818E+03  0.90272391202E+02 0.  0.
         23    2    1    2    0    0  0.57595714451E+02 -0.14437893588E+01  0.25803727685E+02  0.11027373727E+03  0.90416336572E+02 0.  0.
          5    1    4    4  502    0  0.29975071074E+01  0.20297262360E+02  0.43831578124E+02  0.48623668609E+02  0.47000000000E+01 0. -1.
         -5    1    4    4    0  502  0.54598207343E+02 -0.21741051719E+02 -0.18027850439E+02  0.61650068665E+02  0.47000000000E+01 0.  1.
          5    1    3    3  503    0 -0.12704478412E+02 -0.39181145949E+02  0.44794037416E+02  0.61034103234E+02  0.47000000000E+01 0.  1.
         -5    1    3    3    0  503 -0.44891236039E+02  0.40624935308E+02  0.19053685931E+02  0.63645434945E+02  0.47000000000E+01 0. -1.
<mgrwt>
<rscale>  0 0.10718189E+03</rscale>
<asrwt>0</asrwt>
<pdfrwt beam="1">  1        2 0.24969594E-01 0.10721224E+03</pdfrwt>
<pdfrwt beam="2">  1       -2 0.11177063E-01 0.10721224E+03</pdfrwt>
<totfact> 0.11006467E+04</totfact>
</mgrwt>
</event>
<event>
 8    1  0.3466492E-004  0.1058123E+03  0.7546771E-02  0.1268736E+00
          1   -1    0    0  501    0  0.00000000000E+00  0.00000000000E+00  0.14416025433E+04  0.14416025433E+04  0.00000000000E+00 0. -1.
         -1   -1    0    0    0  501 -0.00000000000E+00 -0.00000000000E+00 -0.82850296349E+01  0.82850296349E+01  0.00000000000E+00 0.  1.
         23    2    1    2    0    0 -0.24565428072E+02  0.46854015019E+02  0.90206126118E+03  0.90819628580E+03  0.91143928094E+02 0.  0.
         23    2    1    2    0    0  0.24565428072E+02 -0.46854015019E+02  0.53125625250E+03  0.54169128716E+03  0.91637796681E+02 0.  0.
          5    1    3    3  502    0 -0.57203998500E+02  0.43797868098E+02  0.60284844704E+03  0.60715639731E+03  0.47000000000E+01 0. -1.
         -5    1    4    4    0  503  0.92151802761E+01 -0.70602355694E+02  0.44779253973E+03  0.45344223537E+03  0.47000000000E+01 0.  1.
          5    1    4    4  503    0  0.15350247796E+02  0.23748340676E+02  0.83463712771E+02  0.88249051790E+02  0.47000000000E+01 0. -1.
         -5    1    3    3    0  502  0.32638570428E+02  0.30561469204E+01  0.29921281415E+03  0.30103988849E+03  0.47000000000E+01 0.  1.
<mgrwt>
<rscale>  0 0.10570529E+03</rscale>
<asrwt>0</asrwt>
<pdfrwt beam="1">  1        1 0.22178481E+00 0.10581231E+03</pdfrwt>
<pdfrwt beam="2">  1       -1 0.12746211E-02 0.10581231E+03</pdfrwt>
<totfact> 0.99346065E+03</totfact>
</mgrwt>
</event>
<event>
 8    1  0.3466492E-004  0.1350598E+03  0.7546771E-02  0.1221013E+00
         -2   -1    0    0    0  501 -0.00000000000E+00  0.00000000000E+00  0.15255165744E+03  0.15255165744E+03  0.00000000000E+00 0.  1.
          2   -1    0    0  501    0  0.00000000000E+00 -0.00000000000E+00 -0.12973843579E+03  0.12973843579E+03  0.00000000000E+00 0. -1.
         23    2    1    2    0    0 -0.79366802735E+01 -0.96634455605E+02  0.54833175452E+02  0.14348651814E+03  0.90446088105E+02 0.  0.
         23    2    1    2    0    0  0.79366802735E+01  0.96634455605E+02 -0.32019953807E+02  0.13880357509E+03  0.94020987619E+02 0.  0.
          5    1    4    4  502    0 -0.23086614467E+02  0.16506684428E+02 -0.43331261688E+02  0.52011062649E+02  0.47000000000E+01 0. -1.
         -5    1    3    3    0  503  0.16776573148E+02 -0.12684958763E+02  0.51452615497E+02  0.55783718296E+02  0.47000000000E+01 0.  1.
          5    1    3    3  503    0 -0.24713253422E+02 -0.83949496841E+02  0.33805599553E+01  0.87702799843E+02  0.47000000000E+01 0. -1.
         -5    1    4    4    0  502  0.31023294741E+02  0.80127771177E+02  0.11311307881E+02  0.86792512444E+02  0.47000000000E+01 0.  1.
<mgrwt>
<rscale>  0 0.13443961E+03</rscale>
<asrwt>0</asrwt>
<pdfrwt beam="1">  1        2 0.19959759E-01 0.13505982E+03</pdfrwt>
<pdfrwt beam="2">  1       -2 0.23469486E-01 0.13505982E+03</pdfrwt>
<totfact> 0.42341496E+03</totfact>
</mgrwt>
</event>
<event>
 8    1  0.3466492E-004  0.9560154E+02  0.7546771E-02  0.1290803E+00
         -3   -1    0    0    0  501 -0.00000000000E+00  0.00000000000E+00  0.13168775114E+03  0.13168775114E+03  0.00000000000E+00 0.  1.
          3   -1    0    0  501    0  0.00000000000E+00 -0.00000000000E+00 -0.89618416569E+02  0.89618416569E+02  0.00000000000E+00 0. -1.
         23    2    1    2    0    0  0.22573910812E+02  0.96585551025E+01 -0.32972006184E+02  0.10112767946E+03  0.92394725099E+02 0.  0.
         23    2    1    2    0    0 -0.22573910812E+02 -0.96585551025E+01  0.75041340754E+02  0.12017848824E+03  0.90602412100E+02 0.  0.
          5    1    3    3  502    0  0.52701761632E+02  0.18665751760E+02 -0.11133202747E+01  0.56117871039E+02  0.47000000000E+01 0. -1.
         -5    1    3    3    0  502 -0.30127850820E+02 -0.90071966580E+01 -0.31858685909E+02  0.45009808426E+02  0.47000000000E+01 0.  1.
          5    1    4    4  503    0 -0.86148029040E+01 -0.46734128269E+02  0.19015113384E+02  0.51399981626E+02  0.47000000000E+01 0. -1.
         -5    1    4    4    0  503 -0.13959107908E+02  0.37075573166E+02  0.56026227370E+02  0.68778506618E+02  0.47000000000E+01 0.  1.
<mgrwt>
<rscale>  0 0.95165804E+02</rscale>
<asrwt>0</asrwt>
<pdfrwt beam="1">  1        3 0.13787449E-01 0.95601540E+02</pdfrwt>
<pdfrwt beam="2">  1       -3 0.20259654E-01 0.95601540E+02</pdfrwt>
<totfact> 0.20193954E+03</totfact>
</mgrwt>
</event>
<event>
 8    1  0.3466492E-004  0.9559691E+02  0.7546771E-02  0.1293919E+00
         -1   -1    0    0    0  501 -0.00000000000E+00  0.00000000000E+00  0.19577099283E+03  0.19577099283E+03  0.00000000000E+00 0.  1.
          1   -1    0    0  501    0  0.00000000000E+00 -0.00000000000E+00 -0.48593021868E+02  0.48593021868E+02  0.00000000000E+00 0. -1.
         23    2    1    2    0    0  0.18865052977E+02  0.13887852418E+02  0.30860973489E+02  0.93803682852E+02  0.85428148542E+02 0.  0.
         23    2    1    2    0    0 -0.18865052977E+02 -0.13887852418E+02  0.11631699748E+03  0.15056033185E+03  0.92682290412E+02 0.  0.
          5    1    3    3  502    0 -0.15644514322E+02  0.21227387500E+02 -0.18785862858E+02  0.32716226123E+02  0.47000000000E+01 0. -1.
         -5    1    3    3    0  502  0.34509567299E+02 -0.73395350812E+01  0.49646836347E+02  0.61087456729E+02  0.47000000000E+01 0.  1.
          5    1    4    4  503    0 -0.40134246124E+02 -0.41889904626E+02  0.86278358939E+02  0.10407481464E+03  0.47000000000E+01 0. -1.
         -5    1    4    4    0  503  0.21269193146E+02  0.28002052207E+02  0.30038638537E+02  0.46485517208E+02  0.47000000000E+01 0.  1.
<mgrwt>
<rscale>  0 0.93792691E+02</rscale>
<asrwt>0</asrwt>
<pdfrwt beam="1">  1        1 0.74758496E-02 0.95596912E+02</pdfrwt>
<pdfrwt beam="2">  1       -1 0.30118614E-01 0.95596912E+02</pdfrwt>
<totfact> 0.88433321E+03</totfact>
</mgrwt>
</event>
<event>
 8    1  0.3466492E-004  0.1199285E+03  0.7546771E-02  0.1243722E+00
         -1   -1    0    0    0  501 -0.00000000000E+00  0.00000000000E+00  0.51099813493E+02  0.51099813493E+02  0.00000000000E+00 0.  1.
          1   -1    0    0  501    0  0.00000000000E+00 -0.00000000000E+00 -0.42707858067E+03  0.42707858067E+03  0.00000000000E+00 0. -1.
         23    2    1    2    0    0 -0.44908025346E+02 -0.60748003382E+02 -0.46391346996E+02  0.12744954693E+03  0.91565164120E+02 0.  0.
         23    2    1    2    0    0  0.44908025346E+02  0.60748003382E+02 -0.32958742018E+03  0.35072884724E+03  0.93144007250E+02 0.  0.
          5    1    3    3  502    0 -0.99988931334E+01 -0.31226969984E+02 -0.68770126520E+02  0.76331656734E+02  0.47000000000E+01 0. -1.
         -5    1    4    4    0  503  0.19874616744E+02  0.32706382535E+02 -0.30263199845E+02  0.49016926812E+02  0.47000000000E+01 0.  1.
          5    1    4    4  503    0  0.25033408602E+02  0.28041620847E+02 -0.29932422034E+03  0.30171192042E+03  0.47000000000E+01 0. -1.
         -5    1    3    3    0  502 -0.34909132213E+02 -0.29521033398E+02  0.22378779524E+02  0.51117890192E+02  0.47000000000E+01 0.  1.
<mgrwt>
<rscale>  0 0.11962186E+03</rscale>
<asrwt>0</asrwt>
<pdfrwt beam="1">  1        1 0.65704398E-01 0.11992855E+03</pdfrwt>
<pdfrwt beam="2">  1       -1 0.78615097E-02 0.11992855E+03</pdfrwt>
<totfact> 0.47085612E+03</totfact>
</mgrwt>
</event>
<event>
 8    1  0.3466492E-004  0.1052160E+03  0.7546771E-02  0.1272071E+00
          1   -1    0    0  501    0  0.00000000000E+00  0.00000000000E+00  0.19863269514E+03  0.19863269514E+03  0.00000000000E+00 0. -1.
         -1   -1    0    0    0  501 -0.00000000000E+00 -0.00000000000E+00 -0.62841936681E+02  0.62841936681E+02  0.00000000000E+00 0.  1.
         23    2    1    2    0    0 -0.30344787883E+02 -0.42486880379E+02  0.15539732885E+02  0.10169130809E+03  0.85870237497E+02 0.  0.
         23    2    1    2    0    0  0.30344787883E+02  0.42486880379E+02  0.12025102558E+03  0.15978332373E+03  0.91348017131E+02 0.  0.
          5    1    4    4  502    0  0.41103740067E+02  0.66466324199E+02  0.94106979833E+02  0.12241529052E+03  0.47000000000E+01 0. -1.
         -5    1    3    3    0  503 -0.10189173241E+02 -0.32258792507E+02 -0.33280536012E+02  0.47687870812E+02  0.47000000000E+01 0.  1.
          5    1    3    3  503    0 -0.20155614642E+02 -0.10228087873E+02  0.48820268897E+02  0.54003437282E+02  0.47000000000E+01 0. -1.
         -5    1    4    4    0  502 -0.10758952185E+02 -0.23979443820E+02  0.26144045742E+02  0.37368033207E+02  0.47000000000E+01 0.  1.
<mgrwt>
<rscale>  0 0.10401584E+03</rscale>
<asrwt>0</asrwt>
<pdfrwt beam="1">  1        1 0.30558876E-01 0.10521597E+03</pdfrwt>
<pdfrwt beam="2">  1       -1 0.96679904E-02 0.10521597E+03</pdfrwt>
<totfact> 0.88002073E+03</totfact>
</mgrwt>
</event>
<event>
 8    1  0.3466492E-004  0.9245484E+02  0.7546771E-02  0.1300476E+00
          1   -1    0    0  501    0  0.00000000000E+00  0.00000000000E+00  0.13054027737E+02  0.13054027737E+02  0.00000000000E+00 0. -1.
         -1   -1    0    0    0  501 -0.00000000000E+00 -0.00000000000E+00 -0.61670048200E+03  0.61670048200E+03  0.00000000000E+00 0.  1.
         23    2    1    2    0    0 -0.64175634458E+01 -0.96156209520E+01 -0.32860678442E+03  0.34136537126E+03  0.91729235484E+02 0.  0.
         23    2    1    2    0    0  0.64175634458E+01  0.96156209520E+01 -0.27503966984E+03  0.28838913847E+03  0.85952486391E+02 0.  0.
          5    1    3    3  502    0 -0.23457326704E+01  0.40356291643E+02 -0.11795864282E+03  0.12478166593E+03  0.47000000000E+01 0. -1.
         -5    1    3    3    0  502 -0.40718307754E+01 -0.49971912595E+02 -0.21064814160E+03  0.21658370533E+03  0.47000000000E+01 0.  1.
          5    1    4    4  503    0  0.36524909835E+02  0.11427232750E+02 -0.60868979524E+02  0.72053961411E+02  0.47000000000E+01 0. -1.
         -5    1    4    4    0  503 -0.30107346389E+02 -0.18116117981E+01 -0.21417069031E+03  0.21633517706E+03  0.47000000000E+01 0.  1.
<mgrwt>
<rscale>  0 0.90988211E+02</rscale>
<asrwt>0</asrwt>
<pdfrwt beam="1">  1        1 0.20083121E-02 0.92454843E+02</pdfrwt>
<pdfrwt beam="2">  1       -1 0.94876991E-01 0.92454843E+02</pdfrwt>
<totfact> 0.62631835E+03</totfact>
</mgrwt>
</event>
<event>
 8    1  0.3466492E-004  0.9929594E+02  0.7546771E-02  0.1282530E+00
         -2   -1    0    0    0  501 -0.00000000000E+00  0.00000000000E+00  0.30710069897E+03  0.30710069897E+03  0.00000000000E+00 0.  1.
          2   -1    0    0  501    0  0.00000000000E+00 -0.00000000000E+00 -0.44361961464E+02  0.44361961464E+02  0.00000000000E+00 0. -1.
         23    2    1    2    0    0  0.17625771598E+02  0.27913877521E+02  0.22475215998E+03  0.24514867446E+03  0.92165540162E+02 0.  0.
         23    2    1    2    0    0 -0.17625771598E+02 -0.27913877521E+02  0.37986577528E+02  0.10631398597E+03  0.93647376675E+02 0.  0.
          5    1    3    3  502    0 -0.58081735009E+01  0.57661968543E+02  0.11336559747E+03  0.12740677448E+03  0.47000000000E+01 0. -1.
         -5    1    4    4    0  503  0.26681797198E+02 -0.43171154759E+02  0.11384409008E+02  0.52224148374E+02  0.47000000000E+01 0.  1.
          5    1    4    4  503    0 -0.44307568796E+02  0.15257277238E+02  0.26602168520E+02  0.54089837597E+02  0.47000000000E+01 0. -1.
         -5    1    3    3    0  502  0.23433945098E+02 -0.29748091022E+02  0.11138656251E+03  0.11774189998E+03  0.47000000000E+01 0.  1.
<mgrwt>
<rscale>  0 0.98945008E+02</rscale>
<asrwt>0</asrwt>
<pdfrwt beam="1">  1        2 0.68249173E-02 0.99295939E+02</pdfrwt>
<pdfrwt beam="2">  1       -2 0.47246260E-01 0.99295939E+02</pdfrwt>
<totfact> 0.41751842E+03</totfact>
</mgrwt>
</event>
<event>
 8    1  0.3466492E-004  0.1022273E+03  0.7546771E-02  0.1277415E+00
         -2   -1    0    0    0  501 -0.00000000000E+00  0.00000000000E+00  0.57461128481E+03  0.57461128481E+03  0.00000000000E+00 0.  1.
          2   -1    0    0  501    0  0.00000000000E+00 -0.00000000000E+00 -0.17866460961E+02  0.17866460961E+02  0.00000000000E+00 0. -1.
         23    2    1    2    0    0 -0.18325349886E+02  0.39310777939E+02  0.31921582194E+03  0.33518526095E+03  0.92570310972E+02 0.  0.
         23    2    1    2    0    0  0.18325349886E+02 -0.39310777939E+02  0.23752900191E+03  0.25729248482E+03  0.88872044452E+02 0.  0.
          5    1    4    4  502    0 -0.10719451213E+02 -0.55533967384E+02  0.93334548769E+02  0.10923532470E+03  0.47000000000E+01 0. -1.
         -5    1    4    4    0  502  0.29044801099E+02  0.16223189445E+02  0.14419445314E+03  0.14805716012E+03  0.47000000000E+01 0.  1.
          5    1    3    3  503    0  0.10496493251E+02 -0.24222982171E+02  0.46789999515E+02  0.53928872512E+02  0.47000000000E+01 0. -1.
         -5    1    3    3    0  503 -0.28821843137E+02  0.63533760110E+02  0.27242582243E+03  0.28125638844E+03  0.47000000000E+01 0.  1.
<mgrwt>
<rscale>  0 0.10138276E+03</rscale>
<asrwt>0</asrwt>
<pdfrwt beam="1">  1        2 0.27486867E-02 0.10222729E+03</pdfrwt>
<pdfrwt beam="2">  1       -2 0.88401722E-01 0.10222729E+03</pdfrwt>
<totfact> 0.37265507E+03</totfact>
</mgrwt>
</event>
<event>
 8    1  0.3466492E-004  0.1060175E+03  0.7546771E-02  0.1268995E+00
         -2   -1    0    0    0  501 -0.00000000000E+00  0.00000000000E+00  0.19951531283E+02  0.19951531283E+02  0.00000000000E+00 0. -1.
          2   -1    0    0  501    0  0.00000000000E+00 -0.00000000000E+00 -0.66255397446E+03  0.66255397446E+03  0.00000000000E+00 0.  1.
         23    2    1    2    0    0  0.30956968019E+02 -0.44407630366E+02 -0.18543239134E+03  0.21359980784E+03  0.91155551926E+02 0.  0.
         23    2    1    2    0    0 -0.30956968019E+02  0.44407630366E+02 -0.45717005183E+03  0.46890569790E+03  0.89093915210E+02 0.  0.
          5    1    3    3  502    0  0.53851072004E+02 -0.57436319055E+02 -0.14606298183E+03  0.16599805229E+03  0.47000000000E+01 0. -1.
         -5    1    4    4    0  503 -0.60272650101E+02  0.15363907815E+02 -0.29265737056E+03  0.29923112899E+03  0.47000000000E+01 0.  1.
          5    1    4    4  503    0  0.29315682082E+02  0.29043722551E+02 -0.16451268127E+03  0.16967456891E+03  0.47000000000E+01 0. -1.
         -5    1    3    3    0  502 -0.22894103986E+02  0.13028688689E+02 -0.39369409510E+02  0.47601755550E+02  0.47000000000E+01 0.  1.
<mgrwt>
<rscale>  0 0.10557286E+03</rscale>
<asrwt>0</asrwt>
<pdfrwt beam="1">  1        2 0.10193137E+00 0.10601748E+03</pdfrwt>
<pdfrwt beam="2">  1       -2 0.30694668E-02 0.10601748E+03</pdfrwt>
<totfact> 0.17042293E+04</totfact>
</mgrwt>
</event>
<event>
 8    1  0.3466492E-004  0.1105893E+03  0.7546771E-02  0.1260446E+00
         -2   -1    0    0    0  501 -0.00000000000E+00  0.00000000000E+00  0.39389066461E+02  0.39389066461E+02  0.00000000000E+00 0. -1.
          2   -1    0    0  501    0  0.00000000000E+00 -0.00000000000E+00 -0.31689217328E+03  0.31689217328E+03  0.00000000000E+00 0.  1.
         23    2    1    2    0    0  0.60347911767E+01  0.63273215866E+02 -0.10506378665E+03  0.15253983975E+03  0.90499087811E+02 0.  0.
         23    2    1    2    0    0 -0.60347911767E+01 -0.63273215866E+02 -0.17243932017E+03  0.20374139999E+03  0.87950670155E+02 0.  0.
          5    1    3    3  502    0  0.21786511675E+02  0.40674360141E+02 -0.27317657100E+01  0.46460824441E+02  0.47000000000E+01 0. -1.
         -5    1    4    4    0  503 -0.27460991789E+02 -0.75787302779E+02 -0.14802261058E+03  0.16861377338E+03  0.47000000000E+01 0.  1.
          5    1    4    4  503    0  0.21426200612E+02  0.12514086914E+02 -0.24416709589E+02  0.35127626608E+02  0.47000000000E+01 0. -1.
         -5    1    3    3    0  502 -0.15751720498E+02  0.22598855724E+02 -0.10233202094E+03  0.10607901531E+03  0.47000000000E+01 0.  1.
<mgrwt>
<rscale>  0 0.11006676E+03</rscale>
<asrwt>0</asrwt>
<pdfrwt beam="1">  1        2 0.48752641E-01 0.11058935E+03</pdfrwt>
<pdfrwt beam="2">  1       -2 0.60598566E-02 0.11058935E+03</pdfrwt>
<totfact> 0.13880316E+04</totfact>
</mgrwt>
</event>
<event>
 8    1  0.3466492E-004  0.2107948E+03  0.7546771E-02  0.1141176E+00
         -2   -1    0    0    0  501 -0.00000000000E+00  0.00000000000E+00  0.41374956410E+03  0.41374956410E+03  0.00000000000E+00 0.  1.
          2   -1    0    0  501    0  0.00000000000E+00 -0.00000000000E+00 -0.13257411766E+03  0.13257411766E+03  0.00000000000E+00 0. -1.
         23    2    1    2    0    0  0.14506332507E+03  0.12130042626E+03  0.26074666314E+03  0.33454128028E+03  0.90398474431E+02 0.  0.
         23    2    1    2    0    0 -0.14506332507E+03 -0.12130042626E+03  0.20428783306E+02  0.21178240148E+03  0.93151965626E+02 0.  0.
          5    1    4    4  502    0 -0.13007711026E+03 -0.94951563037E+02 -0.18552318242E+02  0.16217932189E+03  0.47000000000E+01 0. -1.
         -5    1    4    4    0  502 -0.14986214814E+02 -0.26348863219E+02  0.38981101548E+02  0.49603079595E+02  0.47000000000E+01 0.  1.
          5    1    3    3  503    0  0.19929405868E+02 -0.12438848113E+02  0.48941046177E+02  0.54490569474E+02  0.47000000000E+01 0. -1.
         -5    1    3    3    0  503  0.12513391920E+03  0.13373927437E+03  0.21180561696E+03  0.28005071080E+03  0.47000000000E+01 0.  1.
<mgrwt>
<rscale>  0 0.21049360E+03</rscale>
<asrwt>0</asrwt>
<pdfrwt beam="1">  1        2 0.20396018E-01 0.21079481E+03</pdfrwt>
<pdfrwt beam="2">  1       -2 0.63653779E-01 0.21079481E+03</pdfrwt>
<totfact> 0.63296383E+02</totfact>
</mgrwt>
</event>
<event>
 8    1  0.3466492E-004  0.3107332E+03  0.7546771E-02  0.1080133E+00
          1   -1    0    0  501    0  0.00000000000E+00  0.00000000000E+00  0.21589014367E+03  0.21589014367E+03  0.00000000000E+00 0. -1.
         -1   -1    0    0    0  501 -0.00000000000E+00 -0.00000000000E+00 -0.44568825583E+03  0.44568825583E+03  0.00000000000E+00 0.  1.
         23    2    1    2    0    0  0.18854678479E+03  0.22830962765E+03 -0.11976156254E+03  0.33193744377E+03  0.90357393620E+02 0.  0.
         23    2    1    2    0    0 -0.18854678479E+03 -0.22830962765E+03 -0.11003654962E+03  0.32964095573E+03  0.94233440509E+02 0.  0.
          5    1    3    3  502    0  0.16330705245E+03  0.23163032091E+03 -0.10601843184E+03  0.30262814944E+03  0.47000000000E+01 0. -1.
         -5    1    4    4    0  503 -0.15321960138E+03 -0.22344113172E+03 -0.11291994500E+03  0.29355610975E+03  0.47000000000E+01 0.  1.
          5    1    4    4  503    0 -0.35327183419E+02 -0.48684959254E+01  0.28833953767E+01  0.36084845985E+02  0.47000000000E+01 0. -1.
         -5    1    3    3    0  502  0.25239732343E+02 -0.33206932637E+01 -0.13743130700E+02  0.29309294327E+02  0.47000000000E+01 0.  1.
<mgrwt>
<rscale>  0 0.31044444E+03</rscale>
<asrwt>0</asrwt>
<pdfrwt beam="1">  1        1 0.33213868E-01 0.31073319E+03</pdfrwt>
<pdfrwt beam="2">  1       -1 0.68567425E-01 0.31073319E+03</pdfrwt>
<totfact> 0.29836240E+02</totfact>
</mgrwt>
</event>
<event>
 8    1  0.3466492E-004  0.1055115E+03  0.7546771E-02  0.1269388E+00
          3   -1    0    0  501    0  0.00000000000E+00  0.00000000000E+00  0.14351543778E+03  0.14351543778E+03  0.00000000000E+00 0. -1.
         -3   -1    0    0    0  501 -0.00000000000E+00 -0.00000000000E+00 -0.81459880080E+02  0.81459880080E+02  0.00000000000E+00 0.  1.
         23    2    1    2    0    0  0.36908776378E+02  0.37372553897E+02  0.51154377407E+01  0.10508015116E+03  0.90866412423E+02 0.  0.
         23    2    1    2    0    0 -0.36908776378E+02 -0.37372553897E+02  0.56940119963E+02  0.11989516670E+03  0.91507967840E+02 0.  0.
          5    1    4    4  502    0 -0.12117265910E+02 -0.41361640618E+02  0.76357042635E+02  0.87807183121E+02  0.47000000000E+01 0. -1.
         -5    1    3    3    0  503  0.22135039043E+02  0.66813477722E+02 -0.37657247487E+01  0.70641853328E+02  0.47000000000E+01 0.  1.
          5    1    3    3  503    0  0.14773737335E+02 -0.29440923826E+02  0.88811624894E+01  0.34438297834E+02  0.47000000000E+01 0. -1.
         -5    1    4    4    0  502 -0.24791510468E+02  0.39890867209E+01 -0.19416922672E+02  0.32087983580E+02  0.47000000000E+01 0.  1.
<mgrwt>
<rscale>  0 0.10537223E+03</rscale>
<asrwt>0</asrwt>
<pdfrwt beam="1">  1        3 0.22079298E-01 0.10551149E+03</pdfrwt>
<pdfrwt beam="2">  1       -3 0.12532289E-01 0.10551149E+03</pdfrwt>
<totfact> 0.20770002E+03</totfact>
</mgrwt>
</event>
<event>
 8    1  0.3466492E-004  0.9721882E+02  0.7546771E-02  0.1289887E+00
         -1   -1    0    0    0  501 -0.00000000000E+00  0.00000000000E+00  0.47281998427E+03  0.47281998427E+03  0.00000000000E+00 0.  1.
          1   -1    0    0  501    0  0.00000000000E+00 -0.00000000000E+00 -0.20008994692E+02  0.20008994692E+02  0.00000000000E+00 0. -1.
         23    2    1    2    0    0 -0.50406025854E+01  0.13200875274E+01  0.15603011097E+03  0.18053042219E+03  0.90656977113E+02 0.  0.
         23    2    1    2    0    0  0.50406025854E+01 -0.13200875274E+01  0.29678087861E+03  0.31229855677E+03  0.97079082980E+02 0.  0.
          5    1    3    3  502    0 -0.14188443383E+02  0.37242862617E+02  0.33015257159E+02  0.51965757445E+02  0.47000000000E+01 0. -1.
         -5    1    3    3    0  502  0.91478407977E+01 -0.35922775090E+02  0.12301485381E+03  0.12856466474E+03  0.47000000000E+01 0.  1.
          5    1    4    4  503    0 -0.30500612466E+02 -0.68742454745E+01  0.31789223937E+02  0.44835113139E+02  0.47000000000E+01 0. -1.
         -5    1    4    4    0  503  0.35541215051E+02  0.55541579471E+01  0.26499165467E+03  0.26746344364E+03  0.47000000000E+01 0.  1.
<mgrwt>
<rscale>  0 0.95574515E+02</rscale>
<asrwt>0</asrwt>
<pdfrwt beam="1">  1        1 0.30783072E-02 0.97218818E+02</pdfrwt>
<pdfrwt beam="2">  1       -1 0.72741528E-01 0.97218818E+02</pdfrwt>
<totfact> 0.60320685E+03</totfact>
</mgrwt>
</event>
<event>
 8    1  0.3466492E-004  0.1144452E+03  0.7546771E-02  0.1252981E+00
          1   -1    0    0  501    0  0.00000000000E+00  0.00000000000E+00  0.76132686398E+02  0.76132686398E+02  0.00000000000E+00 0. -1.
         -1   -1    0    0    0  501 -0.00000000000E+00 -0.00000000000E+00 -0.36698651087E+03  0.36698651087E+03  0.00000000000E+00 0.  1.
         23    2    1    2    0    0 -0.46316317662E+01  0.67840161215E+02  0.16369243046E+02  0.11560992498E+03  0.92054131631E+02 0.  0.
         23    2    1    2    0    0  0.46316317662E+01 -0.67840161215E+02 -0.30722306752E+03  0.32750927228E+03  0.90843660926E+02 0.  0.
          5    1    3    3  502    0  0.41671348081E+02  0.48076479671E+02  0.11351917484E+02  0.64798188084E+02  0.47000000000E+01 0. -1.
         -5    1    4    4    0  503  0.31876841744E+02 -0.27917684285E+02 -0.24447722947E+03  0.24816675012E+03  0.47000000000E+01 0.  1.
          5    1    4    4  503    0 -0.27245209977E+02 -0.39922476930E+02 -0.62745838041E+02  0.79342522158E+02  0.47000000000E+01 0. -1.
         -5    1    3    3    0  502 -0.46302979847E+02  0.19763681544E+02  0.50173255616E+01  0.50811736899E+02  0.47000000000E+01 0.  1.
<mgrwt>
<rscale>  0 0.11420158E+03</rscale>
<asrwt>0</asrwt>
<pdfrwt beam="1">  1        1 0.11712721E-01 0.11444519E+03</pdfrwt>
<pdfrwt beam="2">  1       -1 0.56459464E-01 0.11444519E+03</pdfrwt>
<totfact> 0.16427507E+03</totfact>
</mgrwt>
</event>
<event>
 8    1  0.3466492E-004  0.9488599E+02  0.7546771E-02  0.1291629E+00
         -1   -1    0    0    0  501 -0.00000000000E+00  0.00000000000E+00  0.33237163444E+03  0.33237163444E+03  0.00000000000E+00 0.  1.
          1   -1    0    0  501    0  0.00000000000E+00 -0.00000000000E+00 -0.32524399425E+02  0.32524399425E+02  0.00000000000E+00 0. -1.
         23    2    1    2    0    0  0.37665789701E+01  0.17175754122E+02  0.74885440513E+02  0.12087671478E+03  0.93242465266E+02 0.  0.
         23    2    1    2    0    0 -0.37665789701E+01 -0.17175754122E+02  0.22496179451E+03  0.24401931909E+03  0.92889318295E+02 0.  0.
          5    1    4    4  502    0  0.26879276205E+01 -0.51071406553E+02  0.17979858924E+03  0.18698966874E+03  0.47000000000E+01 0. -1.
         -5    1    3    3    0  503  0.30712727497E+02  0.88969308220E+01  0.84702759078E+02  0.90659110981E+02  0.47000000000E+01 0.  1.
          5    1    3    3  503    0 -0.26946148527E+02  0.82788233003E+01 -0.98173185651E+01  0.30217603802E+02  0.47000000000E+01 0. -1.
         -5    1    4    4    0  502 -0.64545065906E+01  0.33895652430E+02  0.45163205268E+02  0.57029650351E+02  0.47000000000E+01 0.  1.
<mgrwt>
<rscale>  0 0.94799118E+02</rscale>
<asrwt>0</asrwt>
<pdfrwt beam="1">  1        1 0.50037540E-02 0.94885989E+02</pdfrwt>
<pdfrwt beam="2">  1       -1 0.51134095E-01 0.94885989E+02</pdfrwt>
<totfact> 0.60493959E+03</totfact>
</mgrwt>
</event>
<event>
 8    1  0.3466492E-004  0.9774083E+02  0.7546771E-02  0.1287412E+00
          1   -1    0    0  501    0  0.00000000000E+00  0.00000000000E+00  0.63260680363E+02  0.63260680363E+02  0.00000000000E+00 0. -1.
         -1   -1    0    0    0  501 -0.00000000000E+00 -0.00000000000E+00 -0.18646906900E+03  0.18646906900E+03  0.00000000000E+00 0.  1.
         23    2    1    2    0    0 -0.54368546847E+01  0.22491305576E+02 -0.12172331123E+03  0.15610840372E+03  0.94962366236E+02 0.  0.
         23    2    1    2    0    0  0.54368546847E+01 -0.22491305576E+02 -0.14850774096E+01  0.93621345641E+02  0.90704645357E+02 0.  0.
          5    1    3    3  502    0  0.22492164064E+02  0.45535565410E+02 -0.10331234167E+03  0.11521681780E+03  0.47000000000E+01 0. -1.
         -5    1    3    3    0  502 -0.27929018749E+02 -0.23044259834E+02 -0.18410969557E+02  0.40891585927E+02  0.47000000000E+01 0.  1.
          5    1    4    4  503    0  0.43004934717E+02 -0.17730706337E+02  0.18816420828E+02  0.50397917120E+02  0.47000000000E+01 0. -1.
         -5    1    4    4    0  503 -0.37568080032E+02 -0.47605992389E+01 -0.20301498238E+02  0.43223428521E+02  0.47000000000E+01 0.  1.
<mgrwt>
<rscale>  0 0.96691225E+02</rscale>
<asrwt>0</asrwt>
<pdfrwt beam="1">  1        1 0.97324125E-02 0.97740827E+02</pdfrwt>
<pdfrwt beam="2">  1       -1 0.28687549E-01 0.97740827E+02</pdfrwt>
<totfact> 0.67760866E+03</totfact>
</mgrwt>
</event>
<event>
 8    1  0.3466492E-004  0.9689350E+02  0.7546771E-02  0.1288720E+00
          1   -1    0    0  501    0  0.00000000000E+00  0.00000000000E+00  0.62607331906E+03  0.62607331906E+03  0.00000000000E+00 0. -1.
         -1   -1    0    0    0  501 -0.00000000000E+00 -0.00000000000E+00 -0.20701350839E+02  0.20701350839E+02  0.00000000000E+00 0.  1.
         23    2    1    2    0    0  0.20157146103E+02 -0.27316180602E+02  0.12240377007E+03  0.15418292061E+03  0.87391108345E+02 0.  0.
         23    2    1    2    0    0 -0.20157146103E+02  0.27316180602E+02  0.48296819815E+03  0.49259174930E+03  0.90751676477E+02 0.  0.
          5    1    3    3  502    0  0.34328530375E+02  0.53335937181E+01  0.11116736083E+03  0.11656400531E+03  0.47000000000E+01 0. -1.
         -5    1    3    3    0  502 -0.14171384272E+02 -0.32649774321E+02  0.11236409235E+02  0.37618915294E+02  0.47000000000E+01 0.  1.
          5    1    4    4  503    0 -0.11724757814E+02  0.49704716764E+02  0.44164056324E+03  0.44460826118E+03  0.47000000000E+01 0. -1.
         -5    1    4    4    0  503 -0.84323882885E+01 -0.22388536161E+02  0.41327634917E+02  0.47983488113E+02  0.47000000000E+01 0.  1.
<mgrwt>
<rscale>  0 0.96098739E+02</rscale>
<asrwt>0</asrwt>
<pdfrwt beam="1">  1        1 0.96318958E-01 0.96893504E+02</pdfrwt>
<pdfrwt beam="2">  1       -1 0.31848237E-02 0.96893504E+02</pdfrwt>
<totfact> 0.10649043E+04</totfact>
</mgrwt>
</event>
<event>
 8    1  0.3466492E-004  0.1068201E+03  0.7546771E-02  0.1267405E+00
         -2   -1    0    0    0  501 -0.00000000000E+00  0.00000000000E+00  0.41958555786E+02  0.41958555786E+02  0.00000000000E+00 0.  1.
          2   -1    0    0  501    0  0.00000000000E+00 -0.00000000000E+00 -0.35083995559E+03  0.35083995559E+03  0.00000000000E+00 0. -1.
         23    2    1    2    0    0 -0.71210227629E-01 -0.57173970829E+02 -0.59736179624E+02  0.12238846959E+03  0.90231138320E+02 0.  0.
         23    2    1    2    0    0  0.71210227629E-01  0.57173970829E+02 -0.24914522018E+03  0.27041004178E+03  0.88200804680E+02 0.  0.
          5    1    4    4  502    0 -0.40412327672E+02  0.31644336005E+02 -0.17150143402E+03  0.17907917830E+03  0.47000000000E+01 0. -1.
         -5    1    4    4    0  502  0.40483537900E+02  0.25529634823E+02 -0.77643786154E+02  0.91330863477E+02  0.47000000000E+01 0.  1.
          5    1    3    3  503    0  0.37589969943E+02 -0.74420087481E+01 -0.42669114480E+02  0.57542442293E+02  0.47000000000E+01 0. -1.
         -5    1    3    3    0  503 -0.37661180171E+02 -0.49731962081E+02 -0.17067065144E+02  0.64846027302E+02  0.47000000000E+01 0.  1.
<mgrwt>
<rscale>  0 0.10639012E+03</rscale>
<asrwt>0</asrwt>
<pdfrwt beam="1">  1        2 0.53975379E-01 0.10682007E+03</pdfrwt>
<pdfrwt beam="2">  1       -2 0.64551623E-02 0.10682007E+03</pdfrwt>
<totfact> 0.11300316E+04</totfact>
</mgrwt>
</event>
<event>
 8    1  0.3466492E-004  0.9533864E+02  0.7546771E-02  0.1291177E+00
         -1   -1    0    0    0  501 -0.00000000000E+00  0.00000000000E+00  0.12986140640E+02  0.12986140640E+02  0.00000000000E+00 0.  1.
          1   -1    0    0  501    0  0.00000000000E+00 -0.00000000000E+00 -0.71819741214E+03  0.71819741214E+03  0.00000000000E+00 0. -1.
         23    2    1    2    0    0 -0.10652769472E+02  0.15920600077E+02 -0.42737163211E+03  0.43787665903E+03  0.93394376641E+02 0.  0.
         23    2    1    2    0    0  0.10652769472E+02 -0.15920600077E+02 -0.27783963939E+03  0.29330689374E+03  0.92016964193E+02 0.  0.
          5    1    4    4  502    0 -0.28686814875E+02 -0.25293113069E+02 -0.57366999954E+02  0.69106711687E+02  0.47000000000E+01 0. -1.
         -5    1    4    4    0  502  0.39339584347E+02  0.93725129920E+01 -0.22047263943E+03  0.22420018206E+03  0.47000000000E+01 0.  1.
          5    1    3    3  503    0 -0.39889926340E+02 -0.22867555608E+02 -0.19001746304E+03  0.19555781136E+03  0.47000000000E+01 0. -1.
         -5    1    3    3    0  503  0.29237156867E+02  0.38788155685E+02 -0.23735416907E+03  0.24231884767E+03  0.47000000000E+01 0.  1.
<mgrwt>
<rscale>  0 0.94999609E+02</rscale>
<asrwt>0</asrwt>
<pdfrwt beam="1">  1        1 0.11049190E+00 0.95338642E+02</pdfrwt>
<pdfrwt beam="2">  1       -1 0.19978680E-02 0.95338642E+02</pdfrwt>
<totfact> 0.17171253E+04</totfact>
</mgrwt>
</event>
<event>
 8    1  0.3466492E-004  0.1184432E+03  0.7546771E-02  0.1248212E+00
          1   -1    0    0  501    0  0.00000000000E+00  0.00000000000E+00  0.10458669860E+03  0.10458669860E+03  0.00000000000E+00 0. -1.
         -1   -1    0    0    0  501 -0.00000000000E+00 -0.00000000000E+00 -0.19712446589E+03  0.19712446589E+03  0.00000000000E+00 0.  1.
         23    2    1    2    0    0 -0.57646780394E+02 -0.35474169964E+02  0.44068964434E+02  0.12090690604E+03  0.89971319194E+02 0.  0.
         23    2    1    2    0    0  0.57646780394E+02  0.35474169964E+02 -0.13660673172E+03  0.18080425845E+03  0.97196773080E+02 0.  0.
          5    1    3    3  502    0 -0.81879452036E+02 -0.26884707557E+02  0.36389850753E+02  0.93666127303E+02  0.47000000000E+01 0. -1.
         -5    1    4    4    0  503  0.53588075349E+02  0.61453989885E+02 -0.65010471980E+02  0.10438738506E+03  0.47000000000E+01 0.  1.
          5    1    4    4  503    0  0.40587050458E+01 -0.25979819921E+02 -0.71596259741E+02  0.76416873390E+02  0.47000000000E+01 0. -1.
         -5    1    3    3    0  502  0.24232671641E+02 -0.85894624064E+01  0.76791136811E+01  0.27240778738E+02  0.47000000000E+01 0.  1.
<mgrwt>
<rscale>  0 0.11695182E+03</rscale>
<asrwt>0</asrwt>
<pdfrwt beam="1">  1        1 0.16090261E-01 0.11844315E+03</pdfrwt>
<pdfrwt beam="2">  1       -1 0.30326841E-01 0.11844315E+03</pdfrwt>
<totfact> 0.32568945E+03</totfact>
</mgrwt>
</event>
<event>
 8    1  0.3466492E-004  0.1041512E+03  0.7546771E-02  0.1272106E+00
          3   -1    0    0  501    0  0.00000000000E+00  0.00000000000E+00  0.47530057927E+02  0.47530057927E+02  0.00000000000E+00 0. -1.
         -3   -1    0    0    0  501 -0.00000000000E+00 -0.00000000000E+00 -0.31468985619E+03  0.31468985619E+03  0.00000000000E+00 0.  1.
         23    2    1    2    0    0  0.16063008394E+02  0.47177201406E+02 -0.22896119541E+03  0.25128472722E+03  0.90758341524E+02 0.  0.
         23    2    1    2    0    0 -0.16063008394E+02 -0.47177201406E+02 -0.38198602856E+02  0.11093518691E+03  0.91453670579E+02 0.  0.
          5    1    3    3  502    0 -0.24780139698E+02  0.40908910636E+02 -0.57930297394E+02  0.75270204258E+02  0.47000000000E+01 0. -1.
         -5    1    3    3    0  502  0.40843148092E+02  0.62682907698E+01 -0.17103089802E+03  0.17601452296E+03  0.47000000000E+01 0.  1.
          5    1    4    4  503    0 -0.36488888060E+02 -0.31387871927E+02  0.15818214513E+02  0.50881660413E+02  0.47000000000E+01 0. -1.
         -5    1    4    4    0  503  0.20425879666E+02 -0.15789329479E+02 -0.54016817369E+02  0.60053526493E+02  0.47000000000E+01 0.  1.
<mgrwt>
<rscale>  0 0.10399841E+03</rscale>
<asrwt>0</asrwt>
<pdfrwt beam="1">  1        3 0.73123168E-02 0.10415125E+03</pdfrwt>
<pdfrwt beam="2">  1       -3 0.48413823E-01 0.10415125E+03</pdfrwt>
<totfact> 0.11590364E+03</totfact>
</mgrwt>
</event>
<event>
 8    1  0.3466492E-004  0.1076937E+03  0.7546771E-02  0.1272288E+00
          1   -1    0    0  501    0  0.00000000000E+00  0.00000000000E+00  0.62954370206E+03  0.62954370206E+03  0.00000000000E+00 0. -1.
         -1   -1    0    0    0  501 -0.00000000000E+00 -0.00000000000E+00 -0.16416317984E+02  0.16416317984E+02  0.00000000000E+00 0.  1.
         23    2    1    2    0    0 -0.12623367363E+02  0.93870109140E+00  0.33346823152E+03  0.34628155714E+03  0.92464181275E+02 0.  0.
         23    2    1    2    0    0  0.12623367363E+02 -0.93870109140E+00  0.27965915256E+03  0.29967846291E+03  0.10694722510E+03 0.  0.
          5    1    4    4  502    0 -0.15198222139E+02 -0.18225784205E+02  0.72332547717E+01  0.25250250309E+02  0.47000000000E+01 0. -1.
         -5    1    4    4    0  502  0.27821589502E+02  0.17287083113E+02  0.27242589779E+03  0.27442821260E+03  0.47000000000E+01 0.  1.
          5    1    3    3  503    0 -0.32992961675E+02  0.36281180002E+02  0.22429693760E+03  0.22964334468E+03  0.47000000000E+01 0. -1.
         -5    1    3    3    0  503  0.20369594312E+02 -0.35342478911E+02  0.10917129392E+03  0.11663821245E+03  0.47000000000E+01 0.  1.
<mgrwt>
<rscale>  0 0.10390685E+03</rscale>
<asrwt>0</asrwt>
<pdfrwt beam="1">  1        1 0.96852858E-01 0.10769373E+03</pdfrwt>
<pdfrwt beam="2">  1       -1 0.25255879E-02 0.10769373E+03</pdfrwt>
<totfact> 0.14897054E+04</totfact>
</mgrwt>
</event>
<event>
 8    1  0.3466492E-004  0.9600418E+02  0.7546771E-02  0.1289640E+00
          4   -1    0    0  501    0  0.00000000000E+00  0.00000000000E+00  0.13684364173E+02  0.13684364173E+02  0.00000000000E+00 0. -1.
         -4   -1    0    0    0  501 -0.00000000000E+00 -0.00000000000E+00 -0.79048579173E+03  0.79048579173E+03  0.00000000000E+00 0.  1.
         23    2    1    2    0    0 -0.18902251087E+02  0.22251036296E+02 -0.54664811189E+03  0.55479623757E+03  0.90123821860E+02 0.  0.
         23    2    1    2    0    0  0.18902251087E+02 -0.22251036296E+02 -0.23015331567E+03  0.24937391834E+03  0.91457086793E+02 0.  0.
          5    1    4    4  502    0  0.41971995192E+02  0.98882622646E+01 -0.56617574660E+02  0.71323669784E+02  0.47000000000E+01 0.  1.
         -5    1    4    4    0  502 -0.23069744106E+02 -0.32139298561E+02 -0.17353574101E+03  0.17805024856E+03  0.47000000000E+01 0. -1.
          5    1    3    3  503    0  0.28849578492E+01 -0.32450037279E+02 -0.26385978398E+03  0.26590487679E+03  0.47000000000E+01 0. -1.
         -5    1    3    3    0  503 -0.21787208936E+02  0.54701073575E+02 -0.28278832792E+03  0.28889136077E+03  0.47000000000E+01 0.  1.
<mgrwt>
<rscale>  0 0.95685282E+02</rscale>
<asrwt>0</asrwt>
<pdfrwt beam="1">  1        4 0.21052869E-02 0.96004179E+02</pdfrwt>
<pdfrwt beam="2">  1       -4 0.12161319E+00 0.96004179E+02</pdfrwt>
<totfact> 0.77616618E+02</totfact>
</mgrwt>
</event>
<event>
 8    1  0.3466492E-004  0.9210396E+02  0.7546771E-02  0.1298539E+00
         -1   -1    0    0    0  501 -0.00000000000E+00  0.00000000000E+00  0.49388099874E+02  0.49388099874E+02  0.00000000000E+00 0.  1.
          1   -1    0    0  501    0  0.00000000000E+00 -0.00000000000E+00 -0.24093729067E+03  0.24093729067E+03  0.00000000000E+00 0. -1.
         23    2    1    2    0    0  0.14264739777E+02  0.21057651371E+01 -0.16323438899E+02  0.92367808822E+02  0.89763246384E+02 0.  0.
         23    2    1    2    0    0 -0.14264739777E+02 -0.21057651371E+01 -0.17522575190E+03  0.19795758172E+03  0.90968252623E+02 0.  0.
          5    1    4    4  502    0 -0.25604036505E+02  0.37909706843E+02 -0.12108867567E+03  0.12952710115E+03  0.47000000000E+01 0. -1.
         -5    1    4    4    0  502  0.11339296728E+02 -0.40015471980E+02 -0.54137076232E+02  0.68430480570E+02  0.47000000000E+01 0.  1.
          5    1    3    3  503    0  0.26542746270E+02  0.18026051813E+02 -0.45960004964E+02  0.56248270905E+02  0.47000000000E+01 0. -1.
         -5    1    3    3    0  503 -0.12278006493E+02 -0.15920286676E+02  0.29636566065E+02  0.36119537918E+02  0.47000000000E+01 0.  1.
<mgrwt>
<rscale>  0 0.91805023E+02</rscale>
<asrwt>0</asrwt>
<pdfrwt beam="1">  1        1 0.37067276E-01 0.92103963E+02</pdfrwt>
<pdfrwt beam="2">  1       -1 0.75981690E-02 0.92103963E+02</pdfrwt>
<totfact> 0.98570567E+03</totfact>
</mgrwt>
</event>
<event>
 8    1  0.1063464E-003  0.1009936E+03  0.7546771E-02  0.1279687E+00
          2   -1    0    0  501    0  0.00000000000E+00  0.00000000000E+00  0.24718197969E+03  0.24718197969E+03  0.00000000000E+00 0. -1.
         -2   -1    0    0    0  501 -0.00000000000E+00 -0.00000000000E+00 -0.18982670332E+03  0.18982670332E+03  0.00000000000E+00 0.  1.
         23    2    1    2    0    0 -0.15372210434E+02 -0.35634185525E+02  0.22262437539E+03  0.24332443358E+03  0.90216780194E+02 0.  0.
         23    2    1    2    0    0  0.15372210434E+02  0.35634185525E+02 -0.16526909902E+03  0.19368424943E+03  0.93239548242E+02 0.  0.
          5    1    3    3  502    0  0.92268505519E+01 -0.59665747305E+02  0.11121259125E+03  0.12663122294E+03  0.47000000000E+01 0. -1.
         -5    1    4    4    0  503  0.12400896836E+02  0.66579084462E+02 -0.95626140426E+02  0.11727320863E+03  0.47000000000E+01 0.  1.
          5    1    4    4  503    0  0.29713135980E+01 -0.30944898937E+02 -0.69642958593E+02  0.76411040801E+02  0.47000000000E+01 0. -1.
         -5    1    3    3    0  502 -0.24599060986E+02  0.24031561780E+02  0.11141178414E+03  0.11669321063E+03  0.47000000000E+01 0.  1.
<mgrwt>
<rscale>  0 0.10029036E+03</rscale>
<asrwt>0</asrwt>
<pdfrwt beam="1">  1        2 0.38027997E-01 0.10099363E+03</pdfrwt>
<pdfrwt beam="2">  1       -2 0.29204108E-01 0.10099363E+03</pdfrwt>
<totfact> 0.14102136E+03</totfact>
</mgrwt>
</event>
<event>
 8    1  0.3466492E-004  0.1066754E+03  0.7546771E-02  0.1267143E+00
         -3   -1    0    0    0  501 -0.00000000000E+00  0.00000000000E+00  0.58948961841E+03  0.58948961841E+03  0.00000000000E+00 0.  1.
          3   -1    0    0  501    0  0.00000000000E+00 -0.00000000000E+00 -0.19375074521E+02  0.19375074521E+02  0.00000000000E+00 0. -1.
         23    2    1    2    0    0 -0.51075533683E+02  0.17716387945E+02  0.31353410873E+03  0.33099213897E+03  0.91266522802E+02 0.  0.
         23    2    1    2    0    0  0.51075533683E+02 -0.17716387945E+02  0.25658043517E+03  0.27787255396E+03  0.91962253081E+02 0.  0.
          5    1    3    3  502    0 -0.69219483255E+01  0.50263224808E+02  0.14481379296E+03  0.15351687128E+03  0.47000000000E+01 0. -1.
         -5    1    4    4    0  503 -0.23632921552E+02 -0.66573795073E+00  0.10767849938E+03  0.11034358802E+03  0.47000000000E+01 0.  1.
          5    1    4    4  503    0  0.74708455235E+02 -0.17050649994E+02  0.14890193579E+03  0.16752896594E+03  0.47000000000E+01 0. -1.
         -5    1    3    3    0  502 -0.44153585358E+02 -0.32546836863E+02  0.16872031577E+03  0.17747526769E+03  0.47000000000E+01 0.  1.
<mgrwt>
<rscale>  0 0.10652527E+03</rscale>
<asrwt>0</asrwt>
<pdfrwt beam="1">  1        3 0.29807811E-02 0.10667538E+03</pdfrwt>
<pdfrwt beam="2">  1       -3 0.90690697E-01 0.10667538E+03</pdfrwt>
<totfact> 0.12840307E+03</totfact>
</mgrwt>
</event>
<event>
 8    1  0.3466492E-004  0.1070006E+03  0.7546771E-02  0.1271466E+00
          2   -1    0    0  501    0  0.00000000000E+00  0.00000000000E+00  0.12320327350E+02  0.12320327350E+02  0.00000000000E+00 0. -1.
         -2   -1    0    0    0  501 -0.00000000000E+00 -0.00000000000E+00 -0.10341691807E+04  0.10341691807E+04  0.00000000000E+00 0.  1.
         23    2    1    2    0    0  0.21304417293E+02 -0.19368704353E+02 -0.30655259454E+03  0.32469002951E+03  0.10305385552E+03 0.  0.
         23    2    1    2    0    0 -0.21304417293E+02  0.19368704353E+02 -0.71529625878E+03  0.72179947851E+03  0.92286101071E+02 0.  0.
          5    1    4    4  502    0 -0.51089751655E+02  0.34599297447E+02 -0.51029267926E+03  0.51403111056E+03  0.47000000000E+01 0. -1.
         -5    1    3    3    0  503 -0.10499916390E+02 -0.28014912212E+02 -0.28124518515E+03  0.28287104433E+03  0.47000000000E+01 0.  1.
          5    1    3    3  503    0  0.31804333683E+02  0.86462078589E+01 -0.25307409394E+02  0.41818985181E+02  0.47000000000E+01 0. -1.
         -5    1    4    4    0  502  0.29785334362E+02 -0.15230593094E+02 -0.20500357952E+03  0.20776836796E+03  0.47000000000E+01 0.  1.
<mgrwt>
<rscale>  0 0.10431970E+03</rscale>
<asrwt>0</asrwt>
<pdfrwt beam="1">  1        2 0.18954353E-02 0.10700057E+03</pdfrwt>
<pdfrwt beam="2">  1       -2 0.15910292E+00 0.10700057E+03</pdfrwt>
<totfact> 0.15146858E+03</totfact>
</mgrwt>
</event>
<event>
 8    1  0.3466492E-004  0.2446711E+03  0.7546771E-02  0.1116964E+00
          2   -1    0    0  501    0  0.00000000000E+00  0.00000000000E+00  0.69800890831E+03  0.69800890831E+03  0.00000000000E+00 0.  1.
         -2   -1    0    0    0  501 -0.00000000000E+00 -0.00000000000E+00 -0.86721497973E+02  0.86721497973E+02  0.00000000000E+00 0. -1.
         23    2    1    2    0    0 -0.15715706055E+03 -0.16361738714E+03  0.35788019711E+03  0.43352299617E+03  0.91624023406E+02 0.  0.
         23    2    1    2    0    0  0.15715706055E+03  0.16361738714E+03  0.25340721323E+03  0.35120741012E+03  0.87535353708E+02 0.  0.
          5    1    3    3  502    0 -0.32144498421E+02 -0.39133923860E+02  0.16232536807E+03  0.17010687198E+03  0.47000000000E+01 0. -1.
         -5    1    4    4    0  503  0.13442142940E+02  0.62263151571E+02  0.43249590561E+02  0.77136297124E+02  0.47000000000E+01 0.  1.
          5    1    4    4  503    0  0.14371491761E+03  0.10135423557E+03  0.21015762267E+03  0.27407111299E+03  0.47000000000E+01 0. -1.
         -5    1    3    3    0  502 -0.12501256213E+03 -0.12448346328E+03  0.19555482904E+03  0.26341612419E+03  0.47000000000E+01 0.  1.
<mgrwt>
<rscale>  0 0.24429485E+03</rscale>
<asrwt>0</asrwt>
<pdfrwt beam="1">  1        2 0.10738598E+00 0.24467111E+03</pdfrwt>
<pdfrwt beam="2">  1       -2 0.13341769E-01 0.24467111E+03</pdfrwt>
<totfact> 0.17462148E+03</totfact>
</mgrwt>
</event>
<event>
 8    1  0.8335097E-004  0.1033949E+03  0.7546771E-02  0.1273620E+00
          3   -1    0    0  501    0  0.00000000000E+00  0.00000000000E+00  0.25968891603E+03  0.25968891603E+03  0.00000000000E+00 0. -1.
         -3   -1    0    0    0  501 -0.00000000000E+00 -0.00000000000E+00 -0.34251253631E+03  0.34251253631E+03  0.00000000000E+00 0.  1.
         23    2    1    2    0    0 -0.20937083114E+02 -0.43493694679E+02  0.24114214802E+03  0.26213628667E+03  0.90751497565E+02 0.  0.
         23    2    1    2    0    0  0.20937083114E+02  0.43493694679E+02 -0.32396576830E+03  0.34006516568E+03  0.91435414133E+02 0.  0.
          5    1    4    4  502    0 -0.27341991086E+02  0.46034509657E+02 -0.19440712275E+03  0.20170022293E+03  0.47000000000E+01 0. -1.
         -5    1    3    3    0  503  0.25454559762E+02 -0.16337124422E+02  0.25482119088E+02  0.39827937937E+02  0.47000000000E+01 0.  1.
          5    1    3    3  503    0 -0.46391642876E+02 -0.27156570257E+02  0.21566002893E+03  0.22230834873E+03  0.47000000000E+01 0. -1.
         -5    1    4    4    0  502  0.48279074199E+02 -0.25408149777E+01 -0.12955864555E+03  0.13836494275E+03  0.47000000000E+01 0.  1.
<mgrwt>
<rscale>  0 0.10324345E+03</rscale>
<asrwt>0</asrwt>
<pdfrwt beam="1">  1        3 0.39952141E-01 0.10339486E+03</pdfrwt>
<pdfrwt beam="2">  1       -3 0.52694236E-01 0.10339486E+03</pdfrwt>
<totfact> 0.51474672E+01</totfact>
</mgrwt>
</event>
<event>
 8    1  0.3466492E-004  0.1153519E+03  0.7546771E-02  0.1251135E+00
         -1   -1    0    0    0  501 -0.00000000000E+00  0.00000000000E+00  0.10782434136E+03  0.10782434136E+03  0.00000000000E+00 0.  1.
          1   -1    0    0  501    0  0.00000000000E+00 -0.00000000000E+00 -0.16677377580E+03  0.16677377580E+03  0.00000000000E+00 0. -1.
         23    2    1    2    0    0  0.33303395687E+02  0.61278333466E+02  0.40834102641E+02  0.12236620406E+03  0.91879887025E+02 0.  0.
         23    2    1    2    0    0 -0.33303395687E+02 -0.61278333466E+02 -0.99783537084E+02  0.15223191310E+03  0.91398308389E+02 0.  0.
          5    1    4    4  502    0 -0.39868313177E+02 -0.80909722915E+02 -0.64254886698E+02  0.11084514478E+03  0.47000000000E+01 0. -1.
         -5    1    3    3    0  503  0.63374538229E+02  0.47323651719E+02  0.40267354653E+02  0.88878624868E+02  0.47000000000E+01 0.  1.
          5    1    3    3  503    0 -0.30071142543E+02  0.13954681748E+02  0.56674798795E+00  0.33487579187E+02  0.47000000000E+01 0. -1.
         -5    1    4    4    0  502  0.65649174908E+01  0.19631389448E+02 -0.35528650386E+02  0.41386768315E+02  0.47000000000E+01 0.  1.
<mgrwt>
<rscale>  0 0.11525599E+03</rscale>
<asrwt>0</asrwt>
<pdfrwt beam="1">  1        1 0.25657504E-01 0.11535191E+03</pdfrwt>
<pdfrwt beam="2">  1       -1 0.16588360E-01 0.11535191E+03</pdfrwt>
<totfact> 0.47890730E+03</totfact>
</mgrwt>
</event>
<event>
 8    1  0.3466492E-004  0.1403026E+03  0.7546771E-02  0.1215489E+00
         -2   -1    0    0    0  501 -0.00000000000E+00  0.00000000000E+00  0.56714877074E+02  0.56714877074E+02  0.00000000000E+00 0.  1.
          2   -1    0    0  501    0  0.00000000000E+00 -0.00000000000E+00 -0.73527481383E+03  0.73527481383E+03  0.00000000000E+00 0. -1.
         23    2    1    2    0    0  0.51669365292E+02 -0.89680392587E+02 -0.40822787752E+02  0.13900157054E+03  0.83322508886E+02 0.  0.
         23    2    1    2    0    0 -0.51669365292E+02  0.89680392587E+02 -0.63773714900E+03  0.65298812037E+03  0.94723376206E+02 0.  0.
          5    1    4    4  502    0 -0.67515968570E+02  0.75819632507E+02 -0.60692431340E+03  0.61537487345E+03  0.47000000000E+01 0. -1.
         -5    1    3    3    0  503  0.11624346249E+02 -0.80888932348E+02 -0.13062016010E+01  0.81865383190E+02  0.47000000000E+01 0.  1.
          5    1    3    3  503    0  0.40045019044E+02 -0.87914602386E+01 -0.39516586151E+02  0.57136187345E+02  0.47000000000E+01 0. -1.
         -5    1    4    4    0  502  0.15846603277E+02  0.13860760079E+02 -0.30812835605E+02  0.37613246915E+02  0.47000000000E+01 0.  1.
<mgrwt>
<rscale>  0 0.13840683E+03</rscale>
<asrwt>0</asrwt>
<pdfrwt beam="1">  1        2 0.11311920E+00 0.14030258E+03</pdfrwt>
<pdfrwt beam="2">  1       -2 0.87253659E-02 0.14030258E+03</pdfrwt>
<totfact> 0.31871497E+03</totfact>
</mgrwt>
</event>
<event>
 8    1  0.3466492E-004  0.1100709E+03  0.7546771E-02  0.1262396E+00
         -2   -1    0    0    0  501 -0.00000000000E+00  0.00000000000E+00  0.28235431907E+03  0.28235431907E+03  0.00000000000E+00 0.  1.
          2   -1    0    0  501    0  0.00000000000E+00 -0.00000000000E+00 -0.78572715841E+02  0.78572715841E+02  0.00000000000E+00 0. -1.
         23    2    1    2    0    0 -0.59688705840E+02 -0.15645883770E+02 -0.21348901266E+02  0.11212218223E+03  0.91148630700E+02 0.  0.
         23    2    1    2    0    0  0.59688705840E+02  0.15645883770E+02  0.22513050450E+03  0.24880485269E+03  0.86096314559E+02 0.  0.
          5    1    4    4  502    0 -0.20211235250E+02  0.81139682677E+00  0.23487674115E+02  0.31351447023E+02  0.47000000000E+01 0. -1.
         -5    1    3    3    0  503 -0.50659845352E+01  0.27662358897E+02 -0.30391854947E+02  0.41672834631E+02  0.47000000000E+01 0.  1.
          5    1    3    3  503    0 -0.54622721304E+02 -0.43308242666E+02  0.90429536812E+01  0.70449347597E+02  0.47000000000E+01 0. -1.
         -5    1    4    4    0  502  0.79899941090E+02  0.14834486943E+02  0.20164283038E+03  0.21745340566E+03  0.47000000000E+01 0.  1.
<mgrwt>
<rscale>  0 0.10901948E+03</rscale>
<asrwt>0</asrwt>
<pdfrwt beam="1">  1        2 0.12088110E-01 0.11007092E+03</pdfrwt>
<pdfrwt beam="2">  1       -2 0.43439125E-01 0.11007092E+03</pdfrwt>
<totfact> 0.24493647E+03</totfact>
</mgrwt>
</event>
<event>
 8    1  0.3466492E-004  0.1010597E+03  0.7546771E-02  0.1278696E+00
          2   -1    0    0  501    0  0.00000000000E+00  0.00000000000E+00  0.18559299330E+03  0.18559299330E+03  0.00000000000E+00 0. -1.
         -2   -1    0    0    0  501 -0.00000000000E+00 -0.00000000000E+00 -0.66245568816E+02  0.66245568816E+02  0.00000000000E+00 0.  1.
         23    2    1    2    0    0  0.37957781550E+02 -0.15356994614E+02  0.11265156981E+03  0.15055723919E+03  0.91106946094E+02 0.  0.
         23    2    1    2    0    0 -0.37957781550E+02  0.15356994614E+02  0.66958546701E+01  0.10128132293E+03  0.92392864663E+02 0.  0.
          5    1    4    4  502    0 -0.42287374045E+02 -0.31528742039E+02 -0.27533925322E+01  0.53027867660E+02  0.47000000000E+01 0. -1.
         -5    1    3    3    0  503  0.27850269123E+02  0.22793484197E+02  0.60600209313E+01  0.36796661068E+02  0.47000000000E+01 0.  1.
          5    1    3    3  503    0  0.10107512427E+02 -0.38150478811E+02  0.10659154888E+03  0.11376057812E+03  0.47000000000E+01 0. -1.
         -5    1    4    4    0  502  0.43295924950E+01  0.46885736653E+02  0.94492472024E+01  0.48253455268E+02  0.47000000000E+01 0.  1.
<mgrwt>
<rscale>  0 0.10076489E+03</rscale>
<asrwt>0</asrwt>
<pdfrwt beam="1">  1        2 0.28552768E-01 0.10105974E+03</pdfrwt>
<pdfrwt beam="2">  1       -2 0.10191626E-01 0.10105974E+03</pdfrwt>
<totfact> 0.10939191E+04</totfact>
</mgrwt>
</event>
<event>
 8    1  0.3466492E-004  0.9357850E+02  0.7546771E-02  0.1294836E+00
          1   -1    0    0  501    0  0.00000000000E+00  0.00000000000E+00  0.46167844769E+03  0.46167844769E+03  0.00000000000E+00 0. -1.
         -1   -1    0    0    0  501 -0.00000000000E+00 -0.00000000000E+00 -0.23982406334E+02  0.23982406334E+02  0.00000000000E+00 0.  1.
         23    2    1    2    0    0  0.60728284842E+01 -0.14443721086E+02  0.33221171143E+03  0.34513990847E+03  0.92257438102E+02 0.  0.
         23    2    1    2    0    0 -0.60728284842E+01  0.14443721086E+02  0.10548432993E+03  0.14052094555E+03  0.91507879192E+02 0.  0.
          5    1    4    4  502    0 -0.35945264622E+02  0.29456087088E+02  0.93814502578E+02  0.10479968516E+03  0.47000000000E+01 0. -1.
         -5    1    4    4    0  502  0.29872436138E+02 -0.15012366002E+02  0.11669827349E+02  0.35721260394E+02  0.47000000000E+01 0.  1.
          5    1    3    3  503    0  0.23225474807E+02  0.33345021360E+02  0.11616139087E+03  0.12315385442E+03  0.47000000000E+01 0. -1.
         -5    1    3    3    0  503 -0.17152646322E+02 -0.47788742446E+02  0.21605032056E+03  0.22198605406E+03  0.47000000000E+01 0.  1.
<mgrwt>
<rscale>  0 0.93393225E+02</rscale>
<asrwt>0</asrwt>
<pdfrwt beam="1">  1        1 0.71027447E-01 0.93578498E+02</pdfrwt>
<pdfrwt beam="2">  1       -1 0.36896013E-02 0.93578498E+02</pdfrwt>
<totfact> 0.12785718E+04</totfact>
</mgrwt>
</event>
<event>
 7    1  0.3466492E-004  0.1569311E+03  0.7546771E-02  0.1204575E+00
          1   -1    0    0  501    0  0.00000000000E+00  0.00000000000E+00  0.93266323365E+03  0.93266323365E+03  0.00000000000E+00 0. -1.
         -1   -1    0    0    0  501 -0.00000000000E+00 -0.00000000000E+00 -0.56463852611E+02  0.56463852611E+02  0.00000000000E+00 0.  1.
         23    2    1    2    0    0 -0.49191404709E+02 -0.52780433649E+02  0.80997155478E+03  0.81879357233E+03  0.95725785840E+02 0.  0.
          5    1    1    2  502    0 -0.45584794448E+02 -0.41385784871E+01  0.23994876301E+02  0.51893596960E+02  0.47000000000E+01 0. -1.
         -5    1    3    3    0  503  0.19053155740E+01 -0.62343746447E+02  0.32048341046E+03  0.32653036510E+03  0.47000000000E+01 0.  1.
          5    1    3    3  503    0 -0.51096720283E+02  0.95633127984E+01  0.48948814431E+03  0.49226320724E+03  0.47000000000E+01 0. -1.
         -5    1    1    2    0  502  0.94776199157E+02  0.56919012136E+02  0.42232949964E+02  0.11843991697E+03  0.47000000000E+01 0.  1.
<mgrwt>
<rscale>  0 0.14671014E+03</rscale>
<asrwt>0</asrwt>
<pdfrwt beam="1">  1        1 0.14348664E+00 0.15693113E+03</pdfrwt>
<pdfrwt beam="2">  1       -1 0.86867472E-02 0.15693113E+03</pdfrwt>
<totfact> 0.13642359E+03</totfact>
</mgrwt>
</event>
<event>
 8    1  0.3466492E-004  0.1452089E+03  0.7546771E-02  0.1206523E+00
          1   -1    0    0  501    0  0.00000000000E+00  0.00000000000E+00  0.21863595512E+03  0.21863595512E+03  0.00000000000E+00 0. -1.
         -1   -1    0    0    0  501 -0.00000000000E+00 -0.00000000000E+00 -0.12414735177E+03  0.12414735177E+03  0.00000000000E+00 0.  1.
         23    2    1    2    0    0  0.11073767820E+03  0.20454879233E+02 -0.33845150273E+02  0.14899173205E+03  0.91497576832E+02 0.  0.
         23    2    1    2    0    0 -0.11073767820E+03 -0.20454879233E+02  0.12833375363E+03  0.19379157483E+03  0.91675442180E+02 0.  0.
          5    1    4    4  502    0 -0.86266475749E+02 -0.55078979234E+02  0.87431878726E+02  0.13469232424E+03  0.47000000000E+01 0. -1.
         -5    1    3    3    0  503  0.11379842619E+03 -0.81284077216E+01 -0.17287873593E+02  0.11548642080E+03  0.47000000000E+01 0.  1.
          5    1    3    3  503    0 -0.30607479898E+01  0.28583286955E+02 -0.16557276680E+02  0.33505311257E+02  0.47000000000E+01 0. -1.
         -5    1    4    4    0  502 -0.24471202450E+02  0.34624100001E+02  0.40901874899E+02  0.59099250592E+02  0.47000000000E+01 0.  1.
<mgrwt>
<rscale>  0 0.14518083E+03</rscale>
<asrwt>0</asrwt>
<pdfrwt beam="1">  1        1 0.33636301E-01 0.14520889E+03</pdfrwt>
<pdfrwt beam="2">  1       -1 0.19099593E-01 0.14520889E+03</pdfrwt>
<totfact> 0.27683110E+03</totfact>
</mgrwt>
</event>
<event>
 8    1  0.3466492E-004  0.1545988E+03  0.7546771E-02  0.1195057E+00
          2   -1    0    0  501    0  0.00000000000E+00  0.00000000000E+00  0.10449941136E+03  0.10449941136E+03  0.00000000000E+00 0. -1.
         -2   -1    0    0    0  501 -0.00000000000E+00 -0.00000000000E+00 -0.28029274235E+03  0.28029274235E+03  0.00000000000E+00 0.  1.
         23    2    1    2    0    0  0.10508699227E+03  0.67864586527E+02 -0.17082390211E+03  0.23011350912E+03  0.90125154623E+02 0.  0.
         23    2    1    2    0    0 -0.10508699227E+03 -0.67864586527E+02 -0.49694288767E+01  0.15467864460E+03  0.90840023239E+02 0.  0.
          5    1    4    4  502    0 -0.70740991269E+02 -0.83912398492E+02 -0.23317425379E+02  0.11230035972E+03  0.47000000000E+01 0. -1.
         -5    1    3    3    0  503  0.71220456653E+02  0.25181278455E+02 -0.15609338258E+03  0.17347531327E+03  0.47000000000E+01 0.  1.
          5    1    3    3  503    0  0.33866535615E+02  0.42683308073E+02 -0.14730519536E+02  0.56638195844E+02  0.47000000000E+01 0. -1.
         -5    1    4    4    0  502 -0.34346000999E+02  0.16047811965E+02  0.18347996503E+02  0.42378284877E+02  0.47000000000E+01 0.  1.
<mgrwt>
<rscale>  0 0.15449395E+03</rscale>
<asrwt>0</asrwt>
<pdfrwt beam="1">  1        2 0.16076833E-01 0.15459880E+03</pdfrwt>
<pdfrwt beam="2">  1       -2 0.43121959E-01 0.15459880E+03</pdfrwt>
<totfact> 0.18049134E+03</totfact>
</mgrwt>
</event>
<event>
 8    1  0.3466492E-004  0.1288441E+03  0.7546771E-02  0.1232027E+00
         -2   -1    0    0    0  501 -0.00000000000E+00  0.00000000000E+00  0.17259610347E+02  0.17259610347E+02  0.00000000000E+00 0. -1.
          2   -1    0    0  501    0  0.00000000000E+00 -0.00000000000E+00 -0.91145633525E+03  0.91145633525E+03  0.00000000000E+00 0.  1.
         23    2    1    2    0    0  0.65634006764E+02 -0.62254003502E+02 -0.43061419579E+03  0.44947680719E+03  0.91746557355E+02 0.  0.
         23    2    1    2    0    0 -0.65634006764E+02  0.62254003502E+02 -0.46358252911E+03  0.47923913840E+03  0.81104911623E+02 0.  0.
          5    1    3    3  502    0  0.80514747634E+02 -0.36677987349E+02 -0.22713753746E+03  0.24380617356E+03  0.47000000000E+01 0. -1.
         -5    1    4    4    0  503 -0.40559424006E+02  0.72838665709E+02 -0.41532956141E+03  0.42364049934E+03  0.47000000000E+01 0.  1.
          5    1    4    4  503    0 -0.25074582758E+02 -0.10584662206E+02 -0.48252967696E+02  0.55598639066E+02  0.47000000000E+01 0. -1.
         -5    1    3    3    0  502 -0.14880740870E+02 -0.25576016153E+02 -0.20347665833E+03  0.20567063363E+03  0.47000000000E+01 0.  1.
<mgrwt>
<rscale>  0 0.12696658E+03</rscale>
<asrwt>0</asrwt>
<pdfrwt beam="1">  1        2 0.14022408E+00 0.12884415E+03</pdfrwt>
<pdfrwt beam="2">  1       -2 0.26553242E-02 0.12884415E+03</pdfrwt>
<totfact> 0.14461952E+04</totfact>
</mgrwt>
</event>
<event>
 8    1  0.3466492E-004  0.3541263E+03  0.7546771E-02  0.1061071E+00
         -2   -1    0    0    0  501 -0.00000000000E+00  0.00000000000E+00  0.22597016077E+03  0.22597016077E+03  0.00000000000E+00 0.  1.
          2   -1    0    0  501    0  0.00000000000E+00 -0.00000000000E+00 -0.96045852196E+03  0.96045852196E+03  0.00000000000E+00 0. -1.
         23    2    1    2    0    0 -0.32783647074E+03 -0.95974325656E+02  0.19611676388E+02  0.35331866251E+03  0.88100151501E+02 0.  0.
         23    2    1    2    0    0  0.32783647074E+03  0.95974325656E+02 -0.75410003758E+03  0.83311002021E+03  0.93368176437E+02 0.  0.
          5    1    4    4  502    0  0.29188202323E+03  0.51508123531E+02 -0.64442181461E+03  0.70933050648E+03  0.47000000000E+01 0. -1.
         -5    1    3    3    0  503 -0.28964245256E+03 -0.90971580293E+02  0.44999740329E+02  0.30694567170E+03  0.47000000000E+01 0.  1.
          5    1    3    3  503    0 -0.38194018182E+02 -0.50027453637E+01 -0.25388063942E+02  0.46372990811E+02  0.47000000000E+01 0. -1.
         -5    1    4    4    0  502  0.35954447516E+02  0.44466202126E+02 -0.10967822297E+03  0.12377951374E+03  0.47000000000E+01 0.  1.
<mgrwt>
<rscale>  0 0.35378773E+03</rscale>
<asrwt>0</asrwt>
<pdfrwt beam="1">  1        2 0.14776285E+00 0.35412630E+03</pdfrwt>
<pdfrwt beam="2">  1       -2 0.34764640E-01 0.35412630E+03</pdfrwt>
<totfact> 0.21597925E+02</totfact>
</mgrwt>
</event>
<event>
 8    1  0.3466492E-004  0.9452445E+02  0.7546771E-02  0.1294208E+00
          1   -1    0    0  501    0  0.00000000000E+00  0.00000000000E+00  0.12589323886E+03  0.12589323886E+03  0.00000000000E+00 0. -1.
         -1   -1    0    0    0  501 -0.00000000000E+00 -0.00000000000E+00 -0.11874692672E+03  0.11874692672E+03  0.00000000000E+00 0.  1.
         23    2    1    2    0    0  0.16546690872E+02  0.16871262288E+02 -0.75987929366E+02  0.12128081542E+03  0.91522884074E+02 0.  0.
         23    2    1    2    0    0 -0.16546690872E+02 -0.16871262288E+02  0.83134241508E+02  0.12335935017E+03  0.88021558112E+02 0.  0.
          5    1    4    4  502    0 -0.45918647938E+02  0.79798489792E+01  0.66113199290E+02  0.81026201556E+02  0.47000000000E+01 0. -1.
         -5    1    4    4    0  502  0.29371957066E+02 -0.24851111267E+02  0.17021042217E+02  0.42333148611E+02  0.47000000000E+01 0.  1.
          5    1    3    3  503    0 -0.33432577066E+02  0.12759115911E+02 -0.85171026048E+01  0.37083194103E+02  0.47000000000E+01 0. -1.
         -5    1    3    3    0  503  0.49979267937E+02  0.41121463765E+01 -0.67470826761E+02  0.84197621316E+02  0.47000000000E+01 0.  1.
<mgrwt>
<rscale>  0 0.93666346E+02</rscale>
<asrwt>0</asrwt>
<pdfrwt beam="1">  1        1 0.19368191E-01 0.94524445E+02</pdfrwt>
<pdfrwt beam="2">  1       -1 0.18268758E-01 0.94524445E+02</pdfrwt>
<totfact> 0.57707883E+03</totfact>
</mgrwt>
</event>
<event>
 8    1  0.3466492E-004  0.9589336E+02  0.7546771E-02  0.1289541E+00
          2   -1    0    0  501    0  0.00000000000E+00  0.00000000000E+00  0.56064953307E+03  0.56064953307E+03  0.00000000000E+00 0. -1.
         -2   -1    0    0    0  501 -0.00000000000E+00 -0.00000000000E+00 -0.21646103521E+02  0.21646103521E+02  0.00000000000E+00 0.  1.
         23    2    1    2    0    0  0.13427917486E+02  0.22401581192E+02  0.12536984667E+03  0.15783895220E+03  0.92268069065E+02 0.  0.
         23    2    1    2    0    0 -0.13427917486E+02 -0.22401581192E+02  0.41363358288E+03  0.42445668440E+03  0.91589280120E+02 0.  0.
          5    1    4    4  502    0  0.25218258593E+02 -0.32790721219E+02  0.10110292193E+03  0.10933930120E+03  0.47000000000E+01 0. -1.
         -5    1    3    3    0  503  0.31434743863E+02  0.75958813672E+01  0.25949354979E+01  0.32782071712E+02  0.47000000000E+01 0.  1.
          5    1    3    3  503    0 -0.18006826378E+02  0.14805699825E+02  0.12277491117E+03  0.12505688049E+03  0.47000000000E+01 0. -1.
         -5    1    4    4    0  502 -0.38646176078E+02  0.10389140027E+02  0.31253066096E+03  0.31511738320E+03  0.47000000000E+01 0.  1.
<mgrwt>
<rscale>  0 0.95729704E+02</rscale>
<asrwt>0</asrwt>
<pdfrwt beam="1">  1        2 0.86253763E-01 0.95893359E+02</pdfrwt>
<pdfrwt beam="2">  1       -2 0.33301702E-02 0.95893359E+02</pdfrwt>
<totfact> 0.18104049E+04</totfact>
</mgrwt>
</event>
<event>
 8    1  0.8522725E-004  0.9508203E+02  0.7546771E-02  0.1292550E+00
          1   -1    0    0  501    0  0.00000000000E+00  0.00000000000E+00  0.32674962803E+03  0.32674962803E+03  0.00000000000E+00 0. -1.
         -1   -1    0    0    0  501 -0.00000000000E+00 -0.00000000000E+00 -0.17034707171E+03  0.17034707171E+03  0.00000000000E+00 0.  1.
         23    2    1    2    0    0  0.19443541696E+02  0.15128791551E+02  0.30647409344E+03  0.32088465621E+03  0.91834966102E+02 0.  0.
         23    2    1    2    0    0 -0.19443541696E+02 -0.15128791551E+02 -0.15007153712E+03  0.17621204352E+03  0.89007226572E+02 0.  0.
          5    1    3    3  502    0 -0.12535014409E+02  0.46148695332E+02  0.12381755089E+03  0.13281454956E+03  0.47000000000E+01 0. -1.
         -5    1    4    4    0  503 -0.45325686613E+02 -0.16708223348E+02 -0.13970121715E+03  0.14789219948E+03  0.47000000000E+01 0.  1.
          5    1    4    4  503    0  0.25882144917E+02  0.15794317973E+01 -0.10370319969E+02  0.28319844042E+02  0.47000000000E+01 0. -1.
         -5    1    3    3    0  502  0.31978556105E+02 -0.31019903781E+02  0.18265654255E+03  0.18807010666E+03  0.47000000000E+01 0.  1.
<mgrwt>
<rscale>  0 0.94392500E+02</rscale>
<asrwt>0</asrwt>
<pdfrwt beam="1">  1        1 0.50269173E-01 0.95082031E+02</pdfrwt>
<pdfrwt beam="2">  1       -1 0.26207242E-01 0.95082031E+02</pdfrwt>
<totfact> 0.99787723E+02</totfact>
</mgrwt>
</event>
<event>
 8    1  0.3466492E-004  0.1009103E+03  0.7546771E-02  0.1279191E+00
          1   -1    0    0  501    0  0.00000000000E+00  0.00000000000E+00  0.17039577206E+03  0.17039577206E+03  0.00000000000E+00 0. -1.
         -1   -1    0    0    0  501 -0.00000000000E+00 -0.00000000000E+00 -0.95503304446E+02  0.95503304446E+02  0.00000000000E+00 0.  1.
         23    2    1    2    0    0 -0.80990977581E+01 -0.36947153118E+02 -0.44726832960E+02  0.11037835676E+03  0.93553217728E+02 0.  0.
         23    2    1    2    0    0  0.80990977581E+01  0.36947153118E+02  0.11961930057E+03  0.15552071974E+03  0.91908811825E+02 0.  0.
          5    1    4    4  502    0 -0.18138878411E+02  0.26216187317E+02  0.12247623257E+03  0.12664448244E+03  0.47000000000E+01 0. -1.
         -5    1    4    4    0  502  0.26237976169E+02  0.10730965801E+02 -0.28569319947E+01  0.28876237305E+02  0.47000000000E+01 0.  1.
          5    1    3    3  503    0 -0.20522196919E+02  0.17777899802E+02  0.12350641630E+02  0.30196732215E+02  0.47000000000E+01 0. -1.
         -5    1    3    3    0  503  0.12423099161E+02 -0.54725052920E+02 -0.57077474589E+02  0.80181624549E+02  0.47000000000E+01 0.  1.
<mgrwt>
<rscale>  0 0.10052749E+03</rscale>
<asrwt>0</asrwt>
<pdfrwt beam="1">  1        1 0.26214734E-01 0.10091032E+03</pdfrwt>
<pdfrwt beam="2">  1       -1 0.14692816E-01 0.10091032E+03</pdfrwt>
<totfact> 0.55849938E+03</totfact>
</mgrwt>
</event>
<event>
 8    1  0.3466492E-004  0.9525616E+02  0.7546771E-02  0.1291412E+00
          2   -1    0    0  501    0  0.00000000000E+00  0.00000000000E+00  0.10821602659E+04  0.10821602659E+04  0.00000000000E+00 0.  1.
         -2   -1    0    0    0  501 -0.00000000000E+00 -0.00000000000E+00 -0.11529959134E+02  0.11529959134E+02  0.00000000000E+00 0. -1.
         23    2    1    2    0    0  0.73122711624E+01  0.20787960193E+02  0.82948834172E+03  0.83493990490E+03  0.92672148752E+02 0.  0.
         23    2    1    2    0    0 -0.73122711624E+01 -0.20787960193E+02  0.24114196509E+03  0.25875032017E+03  0.91195790823E+02 0.  0.
          5    1    4    4  502    0 -0.45717135144E+02 -0.27077654062E+02  0.11744838095E+03  0.12899406182E+03  0.47000000000E+01 0. -1.
         -5    1    4    4    0  502  0.38404863981E+02  0.62896938687E+01  0.12369358413E+03  0.12975625835E+03  0.47000000000E+01 0.  1.
          5    1    3    3  503    0  0.60940688487E+01 -0.36456563350E+02  0.28371760756E+03  0.28615378649E+03  0.47000000000E+01 0. -1.
         -5    1    3    3    0  503  0.12182023137E+01  0.57244523543E+02  0.54577073416E+03  0.54878611841E+03  0.47000000000E+01 0.  1.
<mgrwt>
<rscale>  0 0.94895190E+02</rscale>
<asrwt>0</asrwt>
<pdfrwt beam="1">  1        2 0.16648611E+00 0.95256159E+02</pdfrwt>
<pdfrwt beam="2">  1       -2 0.17738407E-02 0.95256159E+02</pdfrwt>
<totfact> 0.20076584E+04</totfact>
</mgrwt>
</event>
<event>
 8    1  0.3466492E-004  0.1414517E+03  0.7546771E-02  0.1212287E+00
         -3   -1    0    0    0  501 -0.00000000000E+00  0.00000000000E+00  0.65864986950E+03  0.65864986950E+03  0.00000000000E+00 0.  1.
          3   -1    0    0  501    0  0.00000000000E+00 -0.00000000000E+00 -0.38619569574E+02  0.38619569574E+02  0.00000000000E+00 0. -1.
         23    2    1    2    0    0  0.11223086210E+02  0.10768427285E+03  0.14117793980E+03  0.19796174791E+03  0.86808885868E+02 0.  0.
         23    2    1    2    0    0 -0.11223086210E+02 -0.10768427285E+03  0.47885236013E+03  0.49930769117E+03  0.91031463643E+02 0.  0.
          5    1    3    3  502    0 -0.35590667816E+02  0.35245639105E+02  0.36010107641E+02  0.61868962848E+02  0.47000000000E+01 0. -1.
         -5    1    3    3    0  502  0.46813754026E+02  0.72438633748E+02  0.10516783216E+03  0.13609278506E+03  0.47000000000E+01 0.  1.
          5    1    4    4  503    0  0.17875357804E+02 -0.29794841181E+02  0.42581158932E+02  0.55158916538E+02  0.47000000000E+01 0. -1.
         -5    1    4    4    0  503 -0.29098444015E+02 -0.77889431672E+02  0.43627120120E+03  0.44414877463E+03  0.47000000000E+01 0.  1.
<mgrwt>
<rscale>  0 0.14077695E+03</rscale>
<asrwt>0</asrwt>
<pdfrwt beam="1">  1        3 0.59414727E-02 0.14145171E+03</pdfrwt>
<pdfrwt beam="2">  1       -3 0.10133074E+00 0.14145171E+03</pdfrwt>
<totfact> 0.35524846E+02</totfact>
</mgrwt>
</event>
<event>
 8    1  0.3466492E-004  0.1035480E+03  0.7546771E-02  0.1273310E+00
          1   -1    0    0  501    0  0.00000000000E+00  0.00000000000E+00  0.60175039597E+03  0.60175039597E+03  0.00000000000E+00 0. -1.
         -1   -1    0    0    0  501 -0.00000000000E+00 -0.00000000000E+00 -0.74915460087E+02  0.74915460087E+02  0.00000000000E+00 0.  1.
         23    2    1    2    0    0  0.43568563971E+02 -0.22787823498E+02 -0.32399896485E+02  0.10792532855E+03  0.90446772101E+02 0.  0.
         23    2    1    2    0    0 -0.43568563971E+02  0.22787823498E+02  0.55923483237E+03  0.56874052751E+03  0.91130045705E+02 0.  0.
          5    1    3    3  502    0  0.59541958736E+02  0.14966627847E+02 -0.21841301092E+02  0.65332818955E+02  0.47000000000E+01 0. -1.
         -5    1    3    3    0  502 -0.15973394765E+02 -0.37754451345E+02 -0.10558595393E+02  0.42592509592E+02  0.47000000000E+01 0.  1.
          5    1    4    4  503    0 -0.66053760676E+02  0.91513994040E+01  0.48985542733E+03  0.49439587083E+03  0.47000000000E+01 0. -1.
         -5    1    4    4    0  503  0.22485196705E+02  0.13636424094E+02  0.69379405041E+02  0.74344656679E+02  0.47000000000E+01 0.  1.
<mgrwt>
<rscale>  0 0.10339747E+03</rscale>
<asrwt>0</asrwt>
<pdfrwt beam="1">  1        1 0.92576981E-01 0.10354801E+03</pdfrwt>
<pdfrwt beam="2">  1       -1 0.11525456E-01 0.10354801E+03</pdfrwt>
<totfact> 0.16785110E+03</totfact>
</mgrwt>
</event>
<event>
 8    1  0.3466492E-004  0.9634311E+02  0.7546771E-02  0.1289765E+00
         -1   -1    0    0    0  501 -0.00000000000E+00  0.00000000000E+00  0.87350754075E+02  0.87350754075E+02  0.00000000000E+00 0.  1.
          1   -1    0    0  501    0  0.00000000000E+00 -0.00000000000E+00 -0.10371111612E+03  0.10371111612E+03  0.00000000000E+00 0. -1.
         23    2    1    2    0    0  0.20337155285E+02  0.66380414866E+01 -0.14955835996E+02  0.94708518079E+02  0.91040446432E+02 0.  0.
         23    2    1    2    0    0 -0.20337155285E+02 -0.66380414866E+01 -0.14045260497E+01  0.96353352117E+02  0.93937917216E+02 0.  0.
          5    1    3    3  502    0 -0.33621397688E+02 -0.72116758605E+01  0.55779840447E+01  0.35151252569E+02  0.47000000000E+01 0. -1.
         -5    1    4    4    0  503  0.29876901887E+02 -0.25396178531E+02  0.11274654032E+02  0.41070707005E+02  0.47000000000E+01 0.  1.
          5    1    4    4  503    0 -0.50214057172E+02  0.18758137044E+02 -0.12679180082E+02  0.55282645112E+02  0.47000000000E+01 0. -1.
         -5    1    3    3    0  502  0.53958552973E+02  0.13849717347E+02 -0.20533820040E+02  0.59557265509E+02  0.47000000000E+01 0.  1.
<mgrwt>
<rscale>  0 0.95629495E+02</rscale>
<asrwt>0</asrwt>
<pdfrwt beam="1">  1        1 0.15955556E-01 0.96343115E+02</pdfrwt>
<pdfrwt beam="2">  1       -1 0.13438577E-01 0.96343115E+02</pdfrwt>
<totfact> 0.11924234E+04</totfact>
</mgrwt>
</event>
<event>
 8    1  0.3466492E-004  0.1060980E+03  0.7546771E-02  0.1273972E+00
         -1   -1    0    0    0  501 -0.00000000000E+00  0.00000000000E+00  0.18078557615E+03  0.18078557615E+03  0.00000000000E+00 0.  1.
          1   -1    0    0  501    0  0.00000000000E+00 -0.00000000000E+00 -0.68000618556E+02  0.68000618556E+02  0.00000000000E+00 0. -1.
         23    2    1    2    0    0  0.20846049246E+02  0.93932574576E+01  0.75956854081E+00  0.94492723502E+02  0.91681551010E+02 0.  0.
         23    2    1    2    0    0 -0.20846049246E+02 -0.93932574576E+01  0.11202538905E+03  0.15429347120E+03  0.10360500185E+03 0.  0.
          5    1    4    4  502    0  0.31386698918E+02  0.27372101237E+02  0.48227531406E+02  0.63893204495E+02  0.47000000000E+01 0. -1.
         -5    1    3    3    0  503 -0.33087360289E+02 -0.94736521625E+01 -0.10029318680E+02  0.36155231010E+02  0.47000000000E+01 0.  1.
          5    1    3    3  503    0  0.53933409536E+02  0.18866909620E+02  0.10788887220E+02  0.58337492492E+02  0.47000000000E+01 0. -1.
         -5    1    4    4    0  502 -0.52232748164E+02 -0.36765358695E+02  0.63797857645E+02  0.90400266708E+02  0.47000000000E+01 0.  1.
<mgrwt>
<rscale>  0 0.10306863E+03</rscale>
<asrwt>0</asrwt>
<pdfrwt beam="1">  1        1 0.10461634E-01 0.10609801E+03</pdfrwt>
<pdfrwt beam="2">  1       -1 0.27813165E-01 0.10609801E+03</pdfrwt>
<totfact> 0.65298783E+03</totfact>
</mgrwt>
</event>
<event>
 8    1  0.3466492E-004  0.1351571E+03  0.7546771E-02  0.1220337E+00
         -2   -1    0    0    0  501 -0.00000000000E+00  0.00000000000E+00  0.37977873124E+02  0.37977873124E+02  0.00000000000E+00 0.  1.
          2   -1    0    0  501    0  0.00000000000E+00 -0.00000000000E+00 -0.79715614063E+03  0.79715614063E+03  0.00000000000E+00 0. -1.
         23    2    1    2    0    0  0.51941503895E+02 -0.84665812895E+02 -0.11601920398E+03  0.17812330065E+03  0.91658250281E+02 0.  0.
         23    2    1    2    0    0 -0.51941503895E+02  0.84665812895E+02 -0.64315906353E+03  0.65701071310E+03  0.90240104321E+02 0.  0.
          5    1    4    4  502    0 -0.18080808516E+02  0.52738931417E+02 -0.54929719606E+03  0.55213930318E+03  0.47000000000E+01 0. -1.
         -5    1    3    3    0  503  0.12004731242E+02 -0.93167720696E+02 -0.80931906279E+02  0.12408223566E+03  0.47000000000E+01 0.  1.
          5    1    3    3  503    0  0.39936772653E+02  0.85019078012E+01 -0.35087297699E+02  0.54041064997E+02  0.47000000000E+01 0. -1.
         -5    1    4    4    0  502 -0.33860695379E+02  0.31926881478E+02 -0.93861867471E+02  0.10487140992E+03  0.47000000000E+01 0.  1.
<mgrwt>
<rscale>  0 0.13491709E+03</rscale>
<asrwt>0</asrwt>
<pdfrwt beam="1">  1        2 0.12263939E+00 0.13515715E+03</pdfrwt>
<pdfrwt beam="2">  1       -2 0.58427506E-02 0.13515715E+03</pdfrwt>
<totfact> 0.53321710E+03</totfact>
</mgrwt>
</event>
<event>
 8    1  0.3466492E-004  0.9504633E+02  0.7546771E-02  0.1292831E+00
         -1   -1    0    0    0  501 -0.00000000000E+00  0.00000000000E+00  0.59661285761E+02  0.59661285761E+02  0.00000000000E+00 0.  1.
          1   -1    0    0  501    0  0.00000000000E+00 -0.00000000000E+00 -0.15370493558E+03  0.15370493558E+03  0.00000000000E+00 0. -1.
         23    2    1    2    0    0 -0.17715914732E+02  0.13071449599E+02 -0.24766481487E+02  0.98220076635E+02  0.92461280650E+02 0.  0.
         23    2    1    2    0    0  0.17715914732E+02 -0.13071449599E+02 -0.69277168334E+02  0.11514614471E+03  0.89300571998E+02 0.  0.
          5    1    3    3  502    0  0.37847192835E+01 -0.37331295504E+02 -0.20603781080E+02  0.43064550605E+02  0.47000000000E+01 0. -1.
         -5    1    4    4    0  503 -0.83827656888E+01 -0.24916809894E+02 -0.79881131352E+02  0.84227093753E+02  0.47000000000E+01 0.  1.
          5    1    4    4  503    0  0.26098680420E+02  0.11845360295E+02  0.10603963018E+02  0.30919050954E+02  0.47000000000E+01 0. -1.
         -5    1    3    3    0  502 -0.21500634015E+02  0.50402745103E+02 -0.41627004066E+01  0.55155526030E+02  0.47000000000E+01 0.  1.
<mgrwt>
<rscale>  0 0.94268886E+02</rscale>
<asrwt>0</asrwt>
<pdfrwt beam="1">  1        1 0.23646913E-01 0.95046330E+02</pdfrwt>
<pdfrwt beam="2">  1       -1 0.91786594E-02 0.95046330E+02</pdfrwt>
<totfact> 0.12957098E+04</totfact>
</mgrwt>
</event>
<event>
 8    1  0.3466492E-004  0.9486946E+02  0.7546771E-02  0.1292240E+00
          2   -1    0    0  501    0  0.00000000000E+00  0.00000000000E+00  0.85224500501E+02  0.85224500501E+02  0.00000000000E+00 0. -1.
         -2   -1    0    0    0  501 -0.00000000000E+00 -0.00000000000E+00 -0.10811406446E+03  0.10811406446E+03  0.00000000000E+00 0.  1.
         23    2    1    2    0    0 -0.27239985153E+02  0.29187384613E+01 -0.29982414652E+02  0.98204331861E+02  0.89412581791E+02 0.  0.
         23    2    1    2    0    0  0.27239985153E+02 -0.29187384613E+01  0.70928506945E+01  0.95134233098E+02  0.90827737783E+02 0.  0.
          5    1    3    3  502    0  0.72005332630E+01 -0.35188069803E+02  0.39903313390E+01  0.36442566868E+02  0.47000000000E+01 0. -1.
         -5    1    4    4    0  503 -0.25175248016E+02  0.22810128237E+02 -0.67239324252E+01  0.34948481084E+02  0.47000000000E+01 0.  1.
          5    1    4    4  503    0  0.52415233168E+02 -0.25728866698E+02  0.13816783120E+02  0.60185752014E+02  0.47000000000E+01 0. -1.
         -5    1    3    3    0  502 -0.34440518416E+02  0.38106808264E+02 -0.33972745991E+02  0.61761764992E+02  0.47000000000E+01 0.  1.
<mgrwt>
<rscale>  0 0.94529136E+02</rscale>
<asrwt>0</asrwt>
<pdfrwt beam="1">  1        2 0.13111462E-01 0.94869456E+02</pdfrwt>
<pdfrwt beam="2">  1       -2 0.16632933E-01 0.94869456E+02</pdfrwt>
<totfact> 0.11934952E+04</totfact>
</mgrwt>
</event>
<event>
 8    1  0.3466492E-004  0.1179392E+03  0.7546771E-02  0.1246688E+00
         -1   -1    0    0    0  501 -0.00000000000E+00  0.00000000000E+00  0.35605029159E+03  0.35605029159E+03  0.00000000000E+00 0.  1.
          1   -1    0    0  501    0  0.00000000000E+00 -0.00000000000E+00 -0.50348636614E+02  0.50348636614E+02  0.00000000000E+00 0. -1.
         23    2    1    2    0    0  0.45981053791E+02 -0.58072222933E+02  0.56337712795E+02  0.13070423059E+03  0.91776999450E+02 0.  0.
         23    2    1    2    0    0 -0.45981053791E+02  0.58072222933E+02  0.24936394218E+03  0.27569469761E+03  0.91315662658E+02 0.  0.
          5    1    3    3  502    0  0.36816084643E+02  0.15642258243E+02  0.34778710876E+02  0.53214218603E+02  0.47000000000E+01 0. -1.
         -5    1    3    3    0  502  0.91649691483E+01 -0.73714481176E+02  0.21559001919E+02  0.77490011990E+02  0.47000000000E+01 0.  1.
          5    1    4    4  503    0 -0.44788699820E+01  0.33325026718E+02  0.16361606738E+02  0.37688325210E+02  0.47000000000E+01 0. -1.
         -5    1    4    4    0  503 -0.41502183809E+02  0.24747196215E+02  0.23300233545E+03  0.23800637240E+03  0.47000000000E+01 0.  1.
<mgrwt>
<rscale>  0 0.11784945E+03</rscale>
<asrwt>0</asrwt>
<pdfrwt beam="1">  1        1 0.77459443E-02 0.11793921E+03</pdfrwt>
<pdfrwt beam="2">  1       -1 0.54776966E-01 0.11793921E+03</pdfrwt>
<totfact> 0.30074397E+03</totfact>
</mgrwt>
</event>
<event>
 8    1  0.3466492E-004  0.1082214E+03  0.7546771E-02  0.1268026E+00
         -4   -1    0    0    0  501 -0.00000000000E+00  0.00000000000E+00  0.22742457023E+03  0.22742457023E+03  0.00000000000E+00 0.  1.
          4   -1    0    0  501    0  0.00000000000E+00 -0.00000000000E+00 -0.52801894089E+02  0.52801894089E+02  0.00000000000E+00 0. -1.
         23    2    1    2    0    0 -0.41386976149E+02  0.88016297268E+01  0.13441876716E+03  0.17256965531E+03  0.99606879725E+02 0.  0.
         23    2    1    2    0    0  0.41386976149E+02 -0.88016297268E+01  0.40203908978E+02  0.10765680901E+03  0.90461504231E+02 0.  0.
          5    1    4    4  502    0  0.44226455237E+02 -0.42783701104E+02  0.39412743139E+02  0.73224850596E+02  0.47000000000E+01 0.  1.
         -5    1    4    4    0  502 -0.28394790887E+01  0.33982071377E+02  0.79116583950E+00  0.34431958410E+02  0.47000000000E+01 0. -1.
          5    1    3    3  503    0 -0.20433759409E+02  0.18263068935E+02 -0.74392821310E+01  0.28783869253E+02  0.47000000000E+01 0. -1.
         -5    1    3    3    0  503 -0.20953216739E+02 -0.94614392085E+01  0.14185804929E+03  0.14378578606E+03  0.47000000000E+01 0.  1.
<mgrwt>
<rscale>  0 0.10606978E+03</rscale>
<asrwt>0</asrwt>
<pdfrwt beam="1">  1        4 0.81233684E-02 0.10822144E+03</pdfrwt>
<pdfrwt beam="2">  1       -4 0.34988395E-01 0.10822144E+03</pdfrwt>
<totfact> 0.13328859E+03</totfact>
</mgrwt>
</event>
<event>
 8    1  0.3466492E-004  0.4333098E+03  0.7546771E-02  0.1032839E+00
          1   -1    0    0  501    0  0.00000000000E+00  0.00000000000E+00  0.25583277778E+03  0.25583277778E+03  0.00000000000E+00 0. -1.
         -1   -1    0    0    0  501 -0.00000000000E+00 -0.00000000000E+00 -0.75906024160E+03  0.75906024160E+03  0.00000000000E+00 0.  1.
         23    2    1    2    0    0 -0.34733091336E+03 -0.24229133132E+03 -0.34482534029E+03  0.55377063064E+03  0.91725369697E+02 0.  0.
         23    2    1    2    0    0  0.34733091336E+03  0.24229133132E+03 -0.15840212353E+03  0.46112238873E+03  0.90547070854E+02 0.  0.
          5    1    4    4  502    0  0.21547396342E+03  0.16986567991E+03 -0.14404725434E+03  0.30992753929E+03  0.47000000000E+01 0. -1.
         -5    1    3    3    0  503 -0.23215950169E+03 -0.21013532095E+03 -0.26084581135E+03  0.40757516440E+03  0.47000000000E+01 0.  1.
          5    1    3    3  503    0 -0.11517141167E+03 -0.32156010372E+02 -0.83979528937E+02  0.14619546624E+03  0.47000000000E+01 0. -1.
         -5    1    4    4    0  502  0.13185694994E+03  0.72425651407E+02 -0.14354869190E+02  0.15119484945E+03  0.47000000000E+01 0.  1.
<mgrwt>
<rscale>  0 0.43324783E+03</rscale>
<asrwt>0</asrwt>
<pdfrwt beam="1">  1        1 0.39358889E-01 0.43330982E+03</pdfrwt>
<pdfrwt beam="2">  1       -1 0.11677850E+00 0.43330982E+03</pdfrwt>
<totfact> 0.74669148E+01</totfact>
</mgrwt>
</event>
<event>
 7    1  0.3466492E-004  0.2059942E+03  0.7546771E-02  0.1178747E+00
         -1   -1    0    0    0  501 -0.00000000000E+00  0.00000000000E+00  0.21831644656E+02  0.21831644656E+02  0.00000000000E+00 0.  1.
          1   -1    0    0  501    0  0.00000000000E+00 -0.00000000000E+00 -0.10455606932E+04  0.10455606932E+04  0.00000000000E+00 0. -1.
         23    2    1    2    0    0 -0.64602992211E+01  0.28217208452E+02 -0.38722832458E+03  0.39838800786E+03  0.89046522283E+02 0.  0.
          5    1    1    2  502    0 -0.58107731862E+02  0.48219261208E+01 -0.56159039533E+03  0.56462874670E+03  0.47000000000E+01 0. -1.
         -5    1    3    3    0  503  0.31811745628E+02  0.29193921498E+02 -0.29843231590E+03  0.30157620825E+03  0.47000000000E+01 0.  1.
          5    1    3    3  503    0 -0.38272044849E+02 -0.97671304551E+00 -0.88796008689E+02  0.96811799613E+02  0.47000000000E+01 0. -1.
         -5    1    1    2    0  502  0.64568031083E+02 -0.33039134573E+02 -0.74910328620E+02  0.10437558328E+03  0.47000000000E+01 0.  1.
<mgrwt>
<rscale>  0 0.16914107E+03</rscale>
<asrwt>0</asrwt>
<pdfrwt beam="1">  1        1 0.16085547E+00 0.20599423E+03</pdfrwt>
<pdfrwt beam="2">  1       -1 0.33587151E-02 0.20599423E+03</pdfrwt>
<totfact> 0.46786487E+03</totfact>
</mgrwt>
</event>
<event>
 8    1  0.3466492E-004  0.1000222E+03  0.7546771E-02  0.1285558E+00
         -3   -1    0    0    0  501 -0.00000000000E+00  0.00000000000E+00  0.14554464872E+03  0.14554464872E+03  0.00000000000E+00 0.  1.
          3   -1    0    0  501    0  0.00000000000E+00 -0.00000000000E+00 -0.14442512564E+03  0.14442512564E+03  0.00000000000E+00 0. -1.
         23    2    1    2    0    0 -0.16246755779E+01  0.10683983045E+02  0.10980512500E+03  0.14226400103E+03  0.89805865340E+02 0.  0.
         23    2    1    2    0    0  0.16246755779E+01 -0.10683983045E+02 -0.10868560192E+03  0.14770577333E+03  0.99436654938E+02 0.  0.
          5    1    4    4  502    0 -0.26910141894E+02 -0.46516887157E+02 -0.60440988179E+02  0.81013453078E+02  0.47000000000E+01 0. -1.
         -5    1    4    4    0  502  0.28534817472E+02  0.35832904112E+02 -0.48244613738E+02  0.66692320248E+02  0.47000000000E+01 0.  1.
          5    1    3    3  503    0 -0.44382247017E+02 -0.40345089534E+01  0.50050396982E+02  0.67180304784E+02  0.47000000000E+01 0. -1.
         -5    1    3    3    0  503  0.42757571439E+02  0.14718491998E+02  0.59754728016E+02  0.75083696249E+02  0.47000000000E+01 0.  1.
<mgrwt>
<rscale>  0 0.97539126E+02</rscale>
<asrwt>0</asrwt>
<pdfrwt beam="1">  1        3 0.22219250E-01 0.10002217E+03</pdfrwt>
<pdfrwt beam="2">  1       -3 0.22391484E-01 0.10002217E+03</pdfrwt>
<totfact> 0.75002890E+02</totfact>
</mgrwt>
</event>
<event>
 8    1  0.3466492E-004  0.1223051E+03  0.7546771E-02  0.1240198E+00
          2   -1    0    0  501    0  0.00000000000E+00  0.00000000000E+00  0.38232062047E+03  0.38232062047E+03  0.00000000000E+00 0. -1.
         -2   -1    0    0    0  501 -0.00000000000E+00 -0.00000000000E+00 -0.90978357149E+02  0.90978357149E+02  0.00000000000E+00 0.  1.
         23    2    1    2    0    0  0.52849561594E+02 -0.61102160551E+02  0.32601457869E+03  0.34820114865E+03  0.91825836318E+02 0.  0.
         23    2    1    2    0    0 -0.52849561594E+02  0.61102160551E+02 -0.34672315372E+02  0.12509782897E+03  0.88998579622E+02 0.  0.
          5    1    3    3  502    0  0.25463236732E+02 -0.81906314813E+02  0.25649509226E+03  0.27049739959E+03  0.47000000000E+01 0. -1.
         -5    1    4    4    0  503 -0.45034206572E+02 -0.10540153875E+02 -0.23252064085E+02  0.51980025871E+02  0.47000000000E+01 0.  1.
          5    1    4    4  503    0 -0.78153550212E+01  0.71642314426E+02 -0.11420251287E+02  0.73117803098E+02  0.47000000000E+01 0. -1.
         -5    1    3    3    0  502  0.27386324862E+02  0.20804154262E+02  0.69519486428E+02  0.77703749055E+02  0.47000000000E+01 0.  1.
<mgrwt>
<rscale>  0 0.12177460E+03</rscale>
<asrwt>0</asrwt>
<pdfrwt beam="1">  1        2 0.58818556E-01 0.12230509E+03</pdfrwt>
<pdfrwt beam="2">  1       -2 0.13996670E-01 0.12230509E+03</pdfrwt>
<totfact> 0.31109465E+03</totfact>
</mgrwt>
</event>
<event>
 8    1  0.3466492E-004  0.1169810E+03  0.7546771E-02  0.1259540E+00
         -3   -1    0    0    0  501 -0.00000000000E+00  0.00000000000E+00  0.28558633960E+02  0.28558633960E+02  0.00000000000E+00 0.  1.
          3   -1    0    0  501    0  0.00000000000E+00 -0.00000000000E+00 -0.42116813765E+03  0.42116813765E+03  0.00000000000E+00 0. -1.
         23    2    1    2    0    0 -0.40526308249E+01  0.27344131493E+02 -0.15310390492E+03  0.19267942910E+03  0.11366807535E+03 0.  0.
         23    2    1    2    0    0  0.40526308249E+01 -0.27344131493E+02 -0.23950559878E+03  0.25704734251E+03  0.89141904303E+02 0.  0.
          5    1    3    3  502    0  0.37757849959E+02  0.53087730604E+02 -0.10580403002E+03  0.12434044049E+03  0.47000000000E+01 0. -1.
         -5    1    4    4    0  503 -0.39440778745E+02 -0.27183037584E+02 -0.10273465994E+03  0.11345039847E+03  0.47000000000E+01 0.  1.
          5    1    4    4  503    0  0.43493409570E+02 -0.16109390907E+00 -0.13677093884E+03  0.14359694404E+03  0.47000000000E+01 0. -1.
         -5    1    3    3    0  502 -0.41810480784E+02 -0.25743599112E+02 -0.47299874898E+02  0.68338988608E+02  0.47000000000E+01 0.  1.
<mgrwt>
<rscale>  0 0.11055829E+03</rscale>
<asrwt>0</asrwt>
<pdfrwt beam="1">  1        3 0.64795099E-01 0.11698101E+03</pdfrwt>
<pdfrwt beam="2">  1       -3 0.43936359E-02 0.11698101E+03</pdfrwt>
<totfact> 0.14719091E+03</totfact>
</mgrwt>
</event>
<event>
 8    1  0.3466492E-004  0.9357446E+02  0.7546771E-02  0.1297308E+00
         -2   -1    0    0    0  501 -0.00000000000E+00  0.00000000000E+00  0.54395850408E+02  0.54395850408E+02  0.00000000000E+00 0.  1.
          2   -1    0    0  501    0  0.00000000000E+00 -0.00000000000E+00 -0.18299601971E+03  0.18299601971E+03  0.00000000000E+00 0. -1.
         23    2    1    2    0    0 -0.13478208732E+02 -0.45755961784E+00 -0.17439789819E+02  0.95185740399E+02  0.92597556312E+02 0.  0.
         23    2    1    2    0    0  0.13478208732E+02  0.45755961784E+00 -0.11116037949E+03  0.14220612972E+03  0.87658895109E+02 0.  0.
          5    1    3    3  502    0  0.20267863831E+02  0.53136032141E+01 -0.45733157273E+02  0.50523582192E+02  0.47000000000E+01 0. -1.
         -5    1    3    3    0  502 -0.33746072563E+02 -0.57711628320E+01  0.28293367454E+02  0.44662158207E+02  0.47000000000E+01 0.  1.
          5    1    4    4  503    0  0.11054826040E+02 -0.25592529181E+02 -0.11209809104E+03  0.11560821227E+03  0.47000000000E+01 0. -1.
         -5    1    4    4    0  503  0.24233826923E+01  0.26050088799E+02  0.93771155264E+00  0.26597917457E+02  0.47000000000E+01 0.  1.
<mgrwt>
<rscale>  0 0.92328739E+02</rscale>
<asrwt>0</asrwt>
<pdfrwt beam="1">  1        2 0.28153234E-01 0.93574456E+02</pdfrwt>
<pdfrwt beam="2">  1       -2 0.83685923E-02 0.93574456E+02</pdfrwt>
<totfact> 0.14960220E+04</totfact>
</mgrwt>
</event>
<event>
 8    1  0.3466492E-004  0.1073682E+03  0.7546771E-02  0.1268837E+00
          2   -1    0    0  501    0  0.00000000000E+00  0.00000000000E+00  0.34135052535E+03  0.34135052535E+03  0.00000000000E+00 0. -1.
         -2   -1    0    0    0  501 -0.00000000000E+00 -0.00000000000E+00 -0.40644492808E+02  0.40644492808E+02  0.00000000000E+00 0.  1.
         23    2    1    2    0    0  0.33068995099E+02 -0.16818351062E+02  0.57006720421E+02  0.11569200612E+03  0.93586637599E+02 0.  0.
         23    2    1    2    0    0 -0.33068995099E+02  0.16818351062E+02  0.24369931213E+03  0.26630301204E+03  0.10075477222E+03 0.  0.
          5    1    3    3  502    0  0.44790712606E+02 -0.48566487211E+02  0.33545225349E+02  0.74244755771E+02  0.47000000000E+01 0. -1.
         -5    1    4    4    0  503 -0.27617211136E+02  0.55567242428E+02  0.18828919501E+03  0.19830617676E+03  0.47000000000E+01 0.  1.
          5    1    4    4  503    0 -0.54517839635E+01 -0.38748891366E+02  0.55410117113E+02  0.67996835287E+02  0.47000000000E+01 0. -1.
         -5    1    3    3    0  502 -0.11721717507E+02  0.31748136150E+02  0.23461495072E+02  0.41447250347E+02  0.47000000000E+01 0.  1.
<mgrwt>
<rscale>  0 0.10565357E+03</rscale>
<asrwt>0</asrwt>
<pdfrwt beam="1">  1        2 0.52515464E-01 0.10736824E+03</pdfrwt>
<pdfrwt beam="2">  1       -2 0.62529991E-02 0.10736824E+03</pdfrwt>
<totfact> 0.12210098E+04</totfact>
</mgrwt>
</event>
<event>
 8    1  0.3466492E-004  0.9442985E+02  0.7546771E-02  0.1292933E+00
         -3   -1    0    0    0  501 -0.00000000000E+00  0.00000000000E+00  0.64384637168E+02  0.64384637168E+02  0.00000000000E+00 0.  1.
          3   -1    0    0  501    0  0.00000000000E+00 -0.00000000000E+00 -0.25827595891E+03  0.25827595891E+03  0.00000000000E+00 0. -1.
         23    2    1    2    0    0 -0.80863746648E+01  0.11330923488E+02  0.13244498431E+02  0.95354142785E+02  0.93398161252E+02 0.  0.
         23    2    1    2    0    0  0.80863746648E+01 -0.11330923488E+02 -0.20713582017E+03  0.22730645329E+03  0.92569954236E+02 0.  0.
          5    1    4    4  502    0  0.34653026336E+02 -0.36652172190E+02 -0.78266987695E+02  0.93231031976E+02  0.47000000000E+01 0. -1.
         -5    1    3    3    0  503 -0.35245672946E+02 -0.28699423174E+02  0.89493282018E+01  0.46562805190E+02  0.47000000000E+01 0.  1.
          5    1    3    3  503    0  0.27159298281E+02  0.40030346662E+02  0.42951702296E+01  0.48791337595E+02  0.47000000000E+01 0. -1.
         -5    1    4    4    0  502 -0.26566651671E+02  0.25321248702E+02 -0.12886883248E+03  0.13407542132E+03  0.47000000000E+01 0.  1.
<mgrwt>
<rscale>  0 0.94224407E+02</rscale>
<asrwt>0</asrwt>
<pdfrwt beam="1">  1        3 0.39734763E-01 0.94429846E+02</pdfrwt>
<pdfrwt beam="2">  1       -3 0.99053289E-02 0.94429846E+02</pdfrwt>
<totfact> 0.10215588E+03</totfact>
</mgrwt>
</event>
<event>
 8    1  0.3466492E-004  0.9679230E+02  0.7546771E-02  0.1287977E+00
         -2   -1    0    0    0  501 -0.00000000000E+00  0.00000000000E+00  0.54801715846E+02  0.54801715846E+02  0.00000000000E+00 0.  1.
          2   -1    0    0  501    0  0.00000000000E+00 -0.00000000000E+00 -0.17411259419E+03  0.17411259419E+03  0.00000000000E+00 0. -1.
         23    2    1    2    0    0  0.30194305058E+02  0.19668134917E+02 -0.79862955989E+02  0.12439211806E+03  0.88299352811E+02 0.  0.
         23    2    1    2    0    0 -0.30194305058E+02 -0.19668134917E+02 -0.39447922353E+02  0.10452219197E+03  0.89834394572E+02 0.  0.
          5    1    4    4  502    0 -0.44509178970E+02  0.13221834387E+01 -0.57591754641E+02  0.72950088309E+02  0.47000000000E+01 0. -1.
         -5    1    4    4    0  502  0.14314873912E+02 -0.20990318355E+02  0.18143832288E+02  0.31572103666E+02  0.47000000000E+01 0.  1.
          5    1    3    3  503    0 -0.40488661960E+01 -0.29148609560E+02 -0.79281164425E+01  0.30837960164E+02  0.47000000000E+01 0. -1.
         -5    1    3    3    0  503  0.34243171254E+02  0.48816744476E+02 -0.71934839546E+02  0.93554157894E+02  0.47000000000E+01 0.  1.
<mgrwt>
<rscale>  0 0.96434580E+02</rscale>
<asrwt>0</asrwt>
<pdfrwt beam="1">  1        2 0.26786553E-01 0.96792304E+02</pdfrwt>
<pdfrwt beam="2">  1       -2 0.84310331E-02 0.96792304E+02</pdfrwt>
<totfact> 0.15659193E+04</totfact>
</mgrwt>
</event>
<event>
 8    1  0.3466492E-004  0.9275559E+02  0.7546771E-02  0.1297047E+00
         -1   -1    0    0    0  501 -0.00000000000E+00  0.00000000000E+00  0.34620076271E+02  0.34620076271E+02  0.00000000000E+00 0.  1.
          1   -1    0    0  501    0  0.00000000000E+00 -0.00000000000E+00 -0.30113049519E+03  0.30113049519E+03  0.00000000000E+00 0. -1.
         23    2    1    2    0    0 -0.10479290059E+01 -0.10101884972E+02 -0.20636139774E+03  0.22624903454E+03  0.92197900818E+02 0.  0.
         23    2    1    2    0    0  0.10479290059E+01  0.10101884972E+02 -0.60149021174E+02  0.10950153692E+03  0.90936987002E+02 0.  0.
          5    1    3    3  502    0 -0.17838071402E+02 -0.36900954651E+02 -0.42245313691E+02  0.59047724549E+02  0.47000000000E+01 0. -1.
         -5    1    3    3    0  502  0.16790142396E+02  0.26799069679E+02 -0.16411608405E+03  0.16720130999E+03  0.47000000000E+01 0.  1.
          5    1    4    4  503    0  0.35390941256E+02 -0.36984429648E+01 -0.62548487886E+02  0.72115189386E+02  0.47000000000E+01 0. -1.
         -5    1    4    4    0  503 -0.34343012251E+02  0.13800327937E+02  0.23994667124E+01  0.37386347536E+02  0.47000000000E+01 0.  1.
<mgrwt>
<rscale>  0 0.92440681E+02</rscale>
<asrwt>0</asrwt>
<pdfrwt beam="1">  1        1 0.46327766E-01 0.92755588E+02</pdfrwt>
<pdfrwt beam="2">  1       -1 0.53261659E-02 0.92755588E+02</pdfrwt>
<totfact> 0.12701149E+04</totfact>
</mgrwt>
</event>
<event>
 8    1  0.3466492E-004  0.9592140E+02  0.7546771E-02  0.1292463E+00
         -1   -1    0    0    0  501 -0.00000000000E+00  0.00000000000E+00  0.92469996692E+01  0.92469996692E+01  0.00000000000E+00 0.  1.
          1   -1    0    0  501    0  0.00000000000E+00 -0.00000000000E+00 -0.95222241633E+03  0.95222241633E+03  0.00000000000E+00 0. -1.
         23    2    1    2    0    0  0.15144613680E+01  0.15698631952E+02 -0.52063837390E+03  0.52837647878E+03  0.88705390521E+02 0.  0.
         23    2    1    2    0    0 -0.15144613680E+01 -0.15698631952E+02 -0.42233704276E+03  0.43309293722E+03  0.94615928610E+02 0.  0.
          5    1    4    4  502    0  0.63913544087E+01  0.35048237945E+02 -0.92262973178E+02  0.99014012210E+02  0.47000000000E+01 0. -1.
         -5    1    4    4    0  502 -0.79058157768E+01 -0.50746869898E+02 -0.33007406958E+03  0.33407892501E+03  0.47000000000E+01 0.  1.
          5    1    3    3  503    0 -0.16358261635E+02  0.46708888515E+02 -0.37735589926E+03  0.38061644433E+03  0.47000000000E+01 0. -1.
         -5    1    3    3    0  503  0.17872723003E+02 -0.31010256562E+02 -0.14328247464E+03  0.14776003445E+03  0.47000000000E+01 0.  1.
<mgrwt>
<rscale>  0 0.94430797E+02</rscale>
<asrwt>0</asrwt>
<pdfrwt beam="1">  1        1 0.14649573E+00 0.95921398E+02</pdfrwt>
<pdfrwt beam="2">  1       -1 0.14226156E-02 0.95921398E+02</pdfrwt>
<totfact> 0.18194185E+04</totfact>
</mgrwt>
</event>
<event>
 8    1  0.3466492E-004  0.1009378E+03  0.7546771E-02  0.1279610E+00
          4   -1    0    0  501    0  0.00000000000E+00  0.00000000000E+00  0.57277191848E+02  0.57277191848E+02  0.00000000000E+00 0. -1.
         -4   -1    0    0    0  501 -0.00000000000E+00 -0.00000000000E+00 -0.34085771273E+03  0.34085771273E+03  0.00000000000E+00 0.  1.
         23    2    1    2    0    0 -0.51030721966E+01  0.34808330129E+02 -0.14880619988E+01  0.98527511573E+02  0.92020622776E+02 0.  0.
         23    2    1    2    0    0  0.51030721966E+01 -0.34808330129E+02 -0.28209245888E+03  0.29960739300E+03  0.94608527057E+02 0.  0.
          5    1    3    3  502    0 -0.48205469389E+02  0.22730540301E+02 -0.31613732466E+00  0.53503595059E+02  0.47000000000E+01 0. -1.
         -5    1    3    3    0  502  0.43102397192E+02  0.12077789828E+02 -0.11719246741E+01  0.45023916514E+02  0.47000000000E+01 0.  1.
          5    1    4    4  503    0 -0.22212498015E+02  0.19228815499E+02 -0.16542853782E+03  0.16808281750E+03  0.47000000000E+01 0. -1.
         -5    1    4    4    0  503  0.27315570212E+02 -0.54037145627E+02 -0.11666392106E+03  0.13152457550E+03  0.47000000000E+01 0.  1.
<mgrwt>
<rscale>  0 0.10032688E+03</rscale>
<asrwt>0</asrwt>
<pdfrwt beam="1">  1        4 0.88118755E-02 0.10093778E+03</pdfrwt>
<pdfrwt beam="2">  1       -4 0.52439649E-01 0.10093778E+03</pdfrwt>
<totfact> 0.51493953E+02</totfact>
</mgrwt>
</event>
<event>
 8    1  0.3466492E-004  0.9647504E+02  0.7546771E-02  0.1288949E+00
          1   -1    0    0  501    0  0.00000000000E+00  0.00000000000E+00  0.42462862124E+03  0.42462862124E+03  0.00000000000E+00 0. -1.
         -1   -1    0    0    0  501 -0.00000000000E+00 -0.00000000000E+00 -0.30605724243E+02  0.30605724243E+02  0.00000000000E+00 0.  1.
         23    2    1    2    0    0  0.24675906710E+02 -0.15126696462E+02  0.31985949954E+03  0.33354768783E+03  0.90034678278E+02 0.  0.
         23    2    1    2    0    0 -0.24675906710E+02  0.15126696462E+02  0.74163397455E+02  0.12168665765E+03  0.92031058945E+02 0.  0.
          5    1    4    4  502    0  0.19250677753E+02 -0.20425281599E+02  0.54830014475E+02  0.61775409426E+02  0.47000000000E+01 0. -1.
         -5    1    4    4    0  502 -0.43926584462E+02  0.35551978061E+02  0.19333382980E+02  0.59911248226E+02  0.47000000000E+01 0.  1.
          5    1    3    3  503    0  0.56398395471E+02  0.39756442482E+01  0.17560590603E+03  0.18454297330E+03  0.47000000000E+01 0. -1.
         -5    1    3    3    0  503 -0.31722488761E+02 -0.19102340711E+02  0.14425359351E+03  0.14900471454E+03  0.47000000000E+01 0.  1.
<mgrwt>
<rscale>  0 0.95995850E+02</rscale>
<asrwt>0</asrwt>
<pdfrwt beam="1">  1        1 0.65327476E-01 0.96475039E+02</pdfrwt>
<pdfrwt beam="2">  1       -1 0.47085733E-02 0.96475039E+02</pdfrwt>
<totfact> 0.99868616E+03</totfact>
</mgrwt>
</event>
<event>
 8    1  0.3466492E-004  0.9492854E+02  0.7546771E-02  0.1293154E+00
          2   -1    0    0  501    0  0.00000000000E+00  0.00000000000E+00  0.61659332218E+03  0.61659332218E+03  0.00000000000E+00 0. -1.
         -2   -1    0    0    0  501 -0.00000000000E+00 -0.00000000000E+00 -0.64949844617E+02  0.64949844617E+02  0.00000000000E+00 0.  1.
         23    2    1    2    0    0 -0.11849829379E+02 -0.22345769942E+02 -0.24579618158E+02  0.98059091195E+02  0.91496862495E+02 0.  0.
         23    2    1    2    0    0  0.11849829379E+02  0.22345769942E+02  0.57622309572E+03  0.58348407560E+03  0.88209174972E+02 0.  0.
          5    1    4    4  502    0 -0.33413065804E+02 -0.91413875877E+01  0.27582411456E+03  0.27803062800E+03  0.47000000000E+01 0. -1.
         -5    1    3    3    0  503 -0.31478622777E+02 -0.59888782542E+01 -0.51379013329E+02  0.60734367251E+02  0.47000000000E+01 0.  1.
          5    1    3    3  503    0  0.19628793398E+02 -0.16356891688E+02  0.26799395171E+02  0.37324723944E+02  0.47000000000E+01 0. -1.
         -5    1    4    4    0  502  0.45262895184E+02  0.31487157530E+02  0.30039898116E+03  0.30545344761E+03  0.47000000000E+01 0.  1.
<mgrwt>
<rscale>  0 0.94127289E+02</rscale>
<asrwt>0</asrwt>
<pdfrwt beam="1">  1        2 0.94860507E-01 0.94928540E+02</pdfrwt>
<pdfrwt beam="2">  1       -2 0.99922842E-02 0.94928540E+02</pdfrwt>
<totfact> 0.31221188E+03</totfact>
</mgrwt>
</event>
<event>
 8    1  0.3466492E-004  0.1047040E+03  0.7546771E-02  0.1271892E+00
          2   -1    0    0  501    0  0.00000000000E+00  0.00000000000E+00  0.38356009796E+03  0.38356009796E+03  0.00000000000E+00 0. -1.
         -2   -1    0    0    0  501 -0.00000000000E+00 -0.00000000000E+00 -0.28810740564E+02  0.28810740564E+02  0.00000000000E+00 0.  1.
         23    2    1    2    0    0 -0.31275462282E+02  0.34694930454E+02  0.14345683295E+03  0.17760291752E+03  0.93707207045E+02 0.  0.
         23    2    1    2    0    0  0.31275462282E+02 -0.34694930454E+02  0.21129252444E+03  0.23476792100E+03  0.91046982950E+02 0.  0.
          5    1    3    3  502    0 -0.49167285634E+01  0.61166136953E+02  0.59557429612E+02  0.85642559230E+02  0.47000000000E+01 0. -1.
         -5    1    4    4    0  503 -0.66130746804E+01 -0.45716302431E+02  0.48285982743E+02  0.66987604780E+02  0.47000000000E+01 0.  1.
          5    1    4    4  503    0  0.37888536963E+02  0.11021371977E+02  0.16300654170E+03  0.16778031622E+03  0.47000000000E+01 0. -1.
         -5    1    3    3    0  502 -0.26358733719E+02 -0.26471206498E+02  0.83899403341E+02  0.91960358295E+02  0.47000000000E+01 0.  1.
<mgrwt>
<rscale>  0 0.10410543E+03</rscale>
<asrwt>0</asrwt>
<pdfrwt beam="1">  1        2 0.59009242E-01 0.10470403E+03</pdfrwt>
<pdfrwt beam="2">  1       -2 0.44324219E-02 0.10470403E+03</pdfrwt>
<totfact> 0.18027154E+04</totfact>
</mgrwt>
</event>
<event>
 8    1  0.3466492E-004  0.1133366E+03  0.7546771E-02  0.1263369E+00
          1   -1    0    0  501    0  0.00000000000E+00  0.00000000000E+00  0.31178761554E+02  0.31178761554E+02  0.00000000000E+00 0. -1.
         -1   -1    0    0    0  501 -0.00000000000E+00 -0.00000000000E+00 -0.44643675827E+03  0.44643675827E+03  0.00000000000E+00 0.  1.
         23    2    1    2    0    0 -0.16087752647E+01  0.45449319388E+01 -0.30493152516E+03  0.31944752828E+03  0.95080196299E+02 0.  0.
         23    2    1    2    0    0  0.16087752647E+01 -0.45449319388E+01 -0.11032647156E+03  0.15816799154E+03  0.11323399956E+03 0.  0.
          5    1    3    3  502    0 -0.17488950449E+02 -0.37883205889E+02 -0.84472440700E+02  0.94332835820E+02  0.47000000000E+01 0. -1.
         -5    1    3    3    0  502  0.15880175184E+02  0.42428137827E+02 -0.22045908446E+03  0.22511469246E+03  0.47000000000E+01 0.  1.
          5    1    4    4  503    0 -0.34107874327E+02  0.17365817506E+02  0.15671781520E+01  0.38593584390E+02  0.47000000000E+01 0. -1.
         -5    1    4    4    0  503  0.35716649591E+02 -0.21910749445E+02 -0.11189364971E+03  0.11957440715E+03  0.47000000000E+01 0.  1.
<mgrwt>
<rscale>  0 0.10850245E+03</rscale>
<asrwt>0</asrwt>
<pdfrwt beam="1">  1        1 0.47967323E-02 0.11333659E+03</pdfrwt>
<pdfrwt beam="2">  1       -1 0.68682582E-01 0.11333659E+03</pdfrwt>
<totfact> 0.37261179E+03</totfact>
</mgrwt>
</event>
<event>
 8    1  0.3466492E-004  0.1384309E+03  0.7546771E-02  0.1215793E+00
         -1   -1    0    0    0  501 -0.00000000000E+00  0.00000000000E+00  0.63471737862E+02  0.63471737862E+02  0.00000000000E+00 0.  1.
          1   -1    0    0  501    0  0.00000000000E+00 -0.00000000000E+00 -0.31629792168E+03  0.31629792168E+03  0.00000000000E+00 0. -1.
         23    2    1    2    0    0 -0.10252431383E+03  0.33794847664E+01 -0.16938191582E+03  0.21813410000E+03  0.91485497947E+02 0.  0.
         23    2    1    2    0    0  0.10252431383E+03 -0.33794847664E+01 -0.83444268004E+02  0.16163555954E+03  0.92954033808E+02 0.  0.
          5    1    4    4  502    0  0.50652030574E+02  0.13114173398E+01 -0.95280128001E+02  0.10801731717E+03  0.47000000000E+01 0. -1.
         -5    1    3    3    0  503 -0.40029573930E+02 -0.34071757091E+02 -0.29792368776E+02  0.60604675213E+02  0.47000000000E+01 0.  1.
          5    1    3    3  503    0 -0.62494739902E+02  0.37451241857E+02 -0.13958954704E+03  0.15752942479E+03  0.47000000000E+01 0. -1.
         -5    1    4    4    0  502  0.51872283258E+02 -0.46909021062E+01  0.11835859998E+02  0.53618242370E+02  0.47000000000E+01 0.  1.
<mgrwt>
<rscale>  0 0.13818478E+03</rscale>
<asrwt>0</asrwt>
<pdfrwt beam="1">  1        1 0.48661219E-01 0.13843088E+03</pdfrwt>
<pdfrwt beam="2">  1       -1 0.97648827E-02 0.13843088E+03</pdfrwt>
<totfact> 0.49768245E+03</totfact>
</mgrwt>
</event>
<event>
 8    1  0.3466492E-004  0.9996088E+02  0.7546771E-02  0.1281184E+00
         -2   -1    0    0    0  501 -0.00000000000E+00  0.00000000000E+00  0.36465514348E+02  0.36465514348E+02  0.00000000000E+00 0.  1.
          2   -1    0    0  501    0  0.00000000000E+00 -0.00000000000E+00 -0.71138669032E+03  0.71138669032E+03  0.00000000000E+00 0. -1.
         23    2    1    2    0    0 -0.21119427840E+02  0.28752282543E+02 -0.63302097864E+03  0.64086483527E+03  0.93378015092E+02 0.  0.
         23    2    1    2    0    0  0.21119427840E+02 -0.28752282543E+02 -0.41900197327E+02  0.10698736939E+03  0.91749368881E+02 0.  0.
          5    1    3    3  502    0 -0.34702636147E+02  0.51229906656E+02 -0.55392671233E+03  0.55739184505E+03  0.47000000000E+01 0. -1.
         -5    1    3    3    0  502  0.13583208307E+02 -0.22477624112E+02 -0.79094266313E+02  0.83472990225E+02  0.47000000000E+01 0.  1.
          5    1    4    4  503    0 -0.11982316079E+02 -0.54554491448E+02 -0.26872779972E+02  0.62161119192E+02  0.47000000000E+01 0. -1.
         -5    1    4    4    0  503  0.33101743919E+02  0.25802208905E+02 -0.15027417355E+02  0.44826250202E+02  0.47000000000E+01 0.  1.
<mgrwt>
<rscale>  0 0.99578776E+02</rscale>
<asrwt>0</asrwt>
<pdfrwt beam="1">  1        2 0.10944410E+00 0.99960881E+02</pdfrwt>
<pdfrwt beam="2">  1       -2 0.56100795E-02 0.99960881E+02</pdfrwt>
<totfact> 0.64039172E+03</totfact>
</mgrwt>
</event>
<event>
 8    1  0.3466492E-004  0.9224298E+02  0.7546771E-02  0.1298394E+00
          1   -1    0    0  501    0  0.00000000000E+00  0.00000000000E+00  0.36006686723E+03  0.36006686723E+03  0.00000000000E+00 0. -1.
         -1   -1    0    0    0  501 -0.00000000000E+00 -0.00000000000E+00 -0.21679146803E+03  0.21679146803E+03  0.00000000000E+00 0.  1.
         23    2    1    2    0    0 -0.11373025744E+02 -0.85493525243E+01 -0.20094926290E+03  0.22048860394E+03  0.89622436159E+02 0.  0.
         23    2    1    2    0    0  0.11373025744E+02  0.85493525243E+01  0.34422466210E+03  0.35636973132E+03  0.91139070969E+02 0.  0.
          5    1    4    4  502    0 -0.32849046150E+02  0.22130990273E+02  0.22288217863E+03  0.22642304678E+03  0.47000000000E+01 0. -1.
         -5    1    4    4    0  502  0.44222071894E+02 -0.13581637748E+02  0.12134248347E+03  0.12994668453E+03  0.47000000000E+01 0.  1.
          5    1    3    3  503    0 -0.26536121310E+02  0.23550920208E+02 -0.32727495462E+02  0.48497325040E+02  0.47000000000E+01 0. -1.
         -5    1    3    3    0  503  0.15163095566E+02 -0.32100272732E+02 -0.16822176744E+03  0.17199127890E+03  0.47000000000E+01 0.  1.
<mgrwt>
<rscale>  0 0.91866131E+02</rscale>
<asrwt>0</asrwt>
<pdfrwt beam="1">  1        1 0.55394903E-01 0.92242980E+02</pdfrwt>
<pdfrwt beam="2">  1       -1 0.33352533E-01 0.92242980E+02</pdfrwt>
<totfact> 0.59314690E+02</totfact>
</mgrwt>
</event>
<event>
 8    1  0.3466492E-004  0.1741370E+03  0.7546771E-02  0.1179936E+00
          1   -1    0    0  501    0  0.00000000000E+00  0.00000000000E+00  0.51033924042E+02  0.51033924042E+02  0.00000000000E+00 0. -1.
         -1   -1    0    0    0  501 -0.00000000000E+00 -0.00000000000E+00 -0.52767889360E+03  0.52767889360E+03  0.00000000000E+00 0.  1.
         23    2    1    2    0    0 -0.12135369719E+03 -0.11015037901E+02 -0.18163932995E+03  0.23614600022E+03  0.89017056549E+02 0.  0.
         23    2    1    2    0    0  0.12135369719E+03  0.11015037901E+02 -0.29500563961E+03  0.34256681742E+03  0.12440114996E+03 0.  0.
          5    1    4    4  502    0 -0.22130716200E+02  0.20128650338E+02 -0.50395587890E+02  0.58794017066E+02  0.47000000000E+01 0. -1.
         -5    1    3    3    0  503 -0.60475772314E+02 -0.44687398246E+01 -0.15977575380E+03  0.17096101946E+03  0.47000000000E+01 0.  1.
          5    1    3    3  503    0 -0.60877924874E+02 -0.65462980768E+01 -0.21863576151E+02  0.65184980767E+02  0.47000000000E+01 0. -1.
         -5    1    4    4    0  502  0.14348441339E+03 -0.91136124369E+01 -0.24461005172E+03  0.28377280035E+03  0.47000000000E+01 0. -1.
<mgrwt>
<rscale>  0 0.16801330E+03</rscale>
<asrwt>0</asrwt>
<pdfrwt beam="1">  1        1 0.78513727E-02 0.17413701E+03</pdfrwt>
<pdfrwt beam="2">  1       -1 0.81181371E-01 0.17413701E+03</pdfrwt>
<totfact> 0.13925158E+03</totfact>
</mgrwt>
</event>
<event>
 8    1  0.3466492E-004  0.1848320E+03  0.7546771E-02  0.1164237E+00
         -1   -1    0    0    0  501 -0.00000000000E+00  0.00000000000E+00  0.65695160351E+02  0.65695160351E+02  0.00000000000E+00 0.  1.
          1   -1    0    0  501    0  0.00000000000E+00 -0.00000000000E+00 -0.55426279398E+03  0.55426279398E+03  0.00000000000E+00 0. -1.
         23    2    1    2    0    0  0.14190634440E+03  0.65320688553E+02 -0.15725528538E+03  0.24267692340E+03  0.98785937449E+02 0.  0.
         23    2    1    2    0    0 -0.14190634440E+03 -0.65320688553E+02 -0.33131234824E+03  0.37728103093E+03  0.90381974213E+02 0.  0.
          5    1    3    3  502    0  0.14110408485E+02 -0.24247714289E+02 -0.19760523038E+02  0.34635582088E+02  0.47000000000E+01 0. -1.
         -5    1    3    3    0  502  0.12779593592E+03  0.89568402842E+02 -0.13749476234E+03  0.20804134131E+03  0.47000000000E+01 0.  1.
          5    1    4    4  503    0 -0.84424607174E+02 -0.77409391663E+02 -0.16563869265E+03  0.20143980420E+03  0.47000000000E+01 0. -1.
         -5    1    4    4    0  503 -0.57481737226E+02  0.12088703110E+02 -0.16567365560E+03  0.17584122672E+03  0.47000000000E+01 0.  1.
<mgrwt>
<rscale>  0 0.18373430E+03</rscale>
<asrwt>0</asrwt>
<pdfrwt beam="1">  1        1 0.85271200E-01 0.18483199E+03</pdfrwt>
<pdfrwt beam="2">  1       -1 0.10106948E-01 0.18483199E+03</pdfrwt>
<totfact> 0.23280946E+03</totfact>
</mgrwt>
</event>
<event>
 8    1  0.3466492E-004  0.9662298E+02  0.7546771E-02  0.1288475E+00
          1   -1    0    0  501    0  0.00000000000E+00  0.00000000000E+00  0.22774568366E+03  0.22774568366E+03  0.00000000000E+00 0. -1.
         -1   -1    0    0    0  501 -0.00000000000E+00 -0.00000000000E+00 -0.40344210761E+02  0.40344210761E+02  0.00000000000E+00 0.  1.
         23    2    1    2    0    0 -0.26997764058E+02 -0.54381693793E+01  0.97383830994E+02  0.13603242397E+03  0.90899707819E+02 0.  0.
         23    2    1    2    0    0  0.26997764058E+02  0.54381693793E+01  0.90017641905E+02  0.13205747045E+03  0.92615045741E+02 0.  0.
          5    1    4    4  502    0  0.51515196470E+02 -0.97484870822E+01  0.20218981176E+02  0.56389233614E+02  0.47000000000E+01 0. -1.
         -5    1    4    4    0  502 -0.24517432412E+02  0.15186656461E+02  0.69798660729E+02  0.75668236837E+02  0.47000000000E+01 0.  1.
          5    1    3    3  503    0  0.31028657832E+02  0.90486024396E+01  0.49354995611E+02  0.59183278083E+02  0.47000000000E+01 0. -1.
         -5    1    3    3    0  503 -0.58026421890E+02 -0.14486771819E+02  0.48028835383E+02  0.76849145886E+02  0.47000000000E+01 0.  1.
<mgrwt>
<rscale>  0 0.96209600E+02</rscale>
<asrwt>0</asrwt>
<pdfrwt beam="1">  1        1 0.35037797E-01 0.96622977E+02</pdfrwt>
<pdfrwt beam="2">  1       -1 0.62068018E-02 0.96622977E+02</pdfrwt>
<totfact> 0.14317793E+04</totfact>
</mgrwt>
</event>
<event>
 8    1  0.3466492E-004  0.9964535E+02  0.7546771E-02  0.1282296E+00
          1   -1    0    0  501    0  0.00000000000E+00  0.00000000000E+00  0.41078257006E+03  0.41078257006E+03  0.00000000000E+00 0. -1.
         -1   -1    0    0    0  501 -0.00000000000E+00 -0.00000000000E+00 -0.24252976928E+02  0.24252976928E+02  0.00000000000E+00 0.  1.
         23    2    1    2    0    0  0.20286515737E+02 -0.27960173999E+02  0.15552861175E+03  0.18345921960E+03  0.90966049334E+02 0.  0.
         23    2    1    2    0    0 -0.20286515737E+02  0.27960173999E+02  0.23100098137E+03  0.25157632738E+03  0.93465935258E+02 0.  0.
          5    1    3    3  502    0 -0.13781224647E+02  0.27949079577E+02  0.45760713546E+02  0.55562632283E+02  0.47000000000E+01 0. -1.
         -5    1    4    4    0  503  0.27272054367E+02  0.41279900816E+02  0.10528369953E+03  0.11642397754E+03  0.47000000000E+01 0.  1.
          5    1    4    4  503    0 -0.47558570104E+02 -0.13319726817E+02  0.12571728184E+03  0.13515234984E+03  0.47000000000E+01 0. -1.
         -5    1    3    3    0  502  0.34067740384E+02 -0.55909253577E+02  0.10976789821E+03  0.12789658732E+03  0.47000000000E+01 0.  1.
<mgrwt>
<rscale>  0 0.99054869E+02</rscale>
<asrwt>0</asrwt>
<pdfrwt beam="1">  1        1 0.63197314E-01 0.99645347E+02</pdfrwt>
<pdfrwt beam="2">  1       -1 0.37312275E-02 0.99645347E+02</pdfrwt>
<totfact> 0.14653835E+04</totfact>
</mgrwt>
</event>
<event>
 8    1  0.3466492E-004  0.9499150E+02  0.7546771E-02  0.1292450E+00
          1   -1    0    0  501    0  0.00000000000E+00  0.00000000000E+00  0.20539087689E+03  0.20539087689E+03  0.00000000000E+00 0. -1.
         -1   -1    0    0    0  501 -0.00000000000E+00 -0.00000000000E+00 -0.55541553475E+02  0.55541553475E+02  0.00000000000E+00 0.  1.
         23    2    1    2    0    0 -0.18872718888E+02  0.14824836268E+02  0.13779142855E+03  0.16736147293E+03  0.91909899092E+02 0.  0.
         23    2    1    2    0    0  0.18872718888E+02 -0.14824836268E+02  0.12057894860E+02  0.93570957431E+02  0.89633564905E+02 0.  0.
          5    1    3    3  502    0  0.18063548063E+02 -0.30315258783E+02  0.41426195055E+02  0.54621665303E+02  0.47000000000E+01 0. -1.
         -5    1    4    4    0  503  0.31102344273E+02  0.48227773110E+01 -0.31022768007E+02  0.44442289940E+02  0.47000000000E+01 0.  1.
          5    1    4    4  503    0 -0.12229625385E+02 -0.19647613579E+02  0.43080662867E+02  0.49128667491E+02  0.47000000000E+01 0. -1.
         -5    1    3    3    0  502 -0.36936266951E+02  0.45140095051E+02  0.96365233499E+02  0.11273980763E+03  0.47000000000E+01 0.  1.
<mgrwt>
<rscale>  0 0.94436477E+02</rscale>
<asrwt>0</asrwt>
<pdfrwt beam="1">  1        1 0.31598596E-01 0.94991499E+02</pdfrwt>
<pdfrwt beam="2">  1       -1 0.85448545E-02 0.94991499E+02</pdfrwt>
<totfact> 0.10083177E+04</totfact>
</mgrwt>
</event>
<event>
 8    1  0.3466492E-004  0.1448526E+03  0.7546771E-02  0.1206990E+00
         -1   -1    0    0    0  501 -0.00000000000E+00  0.00000000000E+00  0.45951605988E+02  0.45951605988E+02  0.00000000000E+00 0.  1.
          1   -1    0    0  501    0  0.00000000000E+00 -0.00000000000E+00 -0.47405220028E+03  0.47405220028E+03  0.00000000000E+00 0. -1.
         23    2    1    2    0    0 -0.34682168056E+02  0.10626321928E+03 -0.26443998027E+03  0.30144699649E+03  0.91907910277E+02 0.  0.
         23    2    1    2    0    0  0.34682168056E+02 -0.10626321928E+03 -0.16366061402E+03  0.21855680978E+03  0.92127943468E+02 0.  0.
          5    1    4    4  502    0  0.15136568818E+02 -0.89778822595E+02 -0.16899533155E+03  0.19201787622E+03  0.47000000000E+01 0. -1.
         -5    1    3    3    0  503  0.23201914732E+02  0.14258359598E+02 -0.20707086864E+02  0.34532638359E+02  0.47000000000E+01 0.  1.
          5    1    3    3  503    0 -0.57884082788E+02  0.92004859683E+02 -0.24373289341E+03  0.26691435813E+03  0.47000000000E+01 0. -1.
         -5    1    4    4    0  502  0.19545599238E+02 -0.16484396685E+02  0.53347175277E+01  0.26538933564E+02  0.47000000000E+01 0.  1.
<mgrwt>
<rscale>  0 0.14481765E+03</rscale>
<asrwt>0</asrwt>
<pdfrwt beam="1">  1        1 0.72931105E-01 0.14485262E+03</pdfrwt>
<pdfrwt beam="2">  1       -1 0.70694781E-02 0.14485262E+03</pdfrwt>
<totfact> 0.48814093E+03</totfact>
</mgrwt>
</event>
<event>
 8    1  0.5242154E-004  0.9517596E+02  0.7546771E-02  0.1292326E+00
         -2   -1    0    0    0  501 -0.00000000000E+00  0.00000000000E+00  0.17815048924E+03  0.17815048924E+03  0.00000000000E+00 0.  1.
          2   -1    0    0  501    0  0.00000000000E+00 -0.00000000000E+00 -0.23408973744E+03  0.23408973744E+03  0.00000000000E+00 0. -1.
         23    2    1    2    0    0 -0.12744813183E+02 -0.38402355592E+01 -0.21112996270E+03  0.23159085644E+03  0.94240574943E+02 0.  0.
         23    2    1    2    0    0  0.12744813183E+02  0.38402355592E+01  0.15519071450E+03  0.18064937023E+03  0.91503330124E+02 0.  0.
          5    1    3    3  502    0  0.18731826436E+02 -0.40635254707E+02 -0.12227539254E+03  0.13028993387E+03  0.47000000000E+01 0. -1.
         -5    1    4    4    0  503  0.30863587023E+02  0.19030996817E+02  0.15199603916E+03  0.15633178105E+03  0.47000000000E+01 0.  1.
          5    1    4    4  503    0 -0.18118773839E+02 -0.15190761258E+02  0.31946753379E+01  0.24317589181E+02  0.47000000000E+01 0. -1.
         -5    1    3    3    0  502 -0.31476639619E+02  0.36795019148E+02 -0.88854570157E+02  0.10130092257E+03  0.47000000000E+01 0.  1.
<mgrwt>
<rscale>  0 0.94491220E+02</rscale>
<asrwt>0</asrwt>
<pdfrwt beam="1">  1        2 0.36013806E-01 0.95175961E+02</pdfrwt>
<pdfrwt beam="2">  1       -2 0.27407768E-01 0.95175961E+02</pdfrwt>
<totfact> 0.16672963E+03</totfact>
</mgrwt>
</event>
<event>
 7    1  0.3466492E-004  0.1777141E+03  0.7546771E-02  0.1182867E+00
          2   -1    0    0  501    0  0.00000000000E+00  0.00000000000E+00  0.59064567664E+03  0.59064567664E+03  0.00000000000E+00 0. -1.
         -2   -1    0    0    0  501 -0.00000000000E+00 -0.00000000000E+00 -0.46818601601E+02  0.46818601601E+02  0.00000000000E+00 0.  1.
         23    2    1    2    0    0 -0.31561952962E+02  0.87629812674E+02  0.12494035981E+03  0.18243860030E+03  0.94860995294E+02 0.  0.
          5    1    1    2  502    0  0.91571585972E+01 -0.12944834325E+03  0.31534362086E+03  0.34103433308E+03  0.47000000000E+01 0. -1.
         -5    1    3    3    0  503  0.25547961224E+02  0.64973609440E+02  0.53418021630E+02  0.88033194201E+02  0.47000000000E+01 0.  1.
          5    1    3    3  503    0 -0.57109914186E+02  0.22656203234E+02  0.71522338175E+02  0.94405406102E+02  0.47000000000E+01 0. -1.
         -5    1    1    2    0  502  0.22404794365E+02  0.41818530573E+02  0.10354309438E+03  0.11399134486E+03  0.47000000000E+01 0.  1.
<mgrwt>
<rscale>  0 0.16527510E+03</rscale>
<asrwt>0</asrwt>
<pdfrwt beam="1">  1        2 0.90868560E-01 0.17771406E+03</pdfrwt>
<pdfrwt beam="2">  1       -2 0.72028622E-02 0.17771406E+03</pdfrwt>
<totfact> 0.56000381E+03</totfact>
</mgrwt>
</event>
<event>
 8    1  0.3466492E-004  0.1492754E+03  0.7546771E-02  0.1208044E+00
         -2   -1    0    0    0  501 -0.00000000000E+00  0.00000000000E+00  0.26601493071E+03  0.26601493071E+03  0.00000000000E+00 0.  1.
          2   -1    0    0  501    0  0.00000000000E+00 -0.00000000000E+00 -0.99409224982E+02  0.99409224982E+02  0.00000000000E+00 0. -1.
         23    2    1    2    0    0 -0.97324463759E+01 -0.86895359906E+02 -0.64522269342E+01  0.14941477252E+03  0.12098602782E+03 0.  0.
         23    2    1    2    0    0  0.97324463759E+01  0.86895359906E+02  0.17305793266E+03  0.21600938318E+03  0.95212822022E+02 0.  0.
          5    1    3    3  502    0  0.24918234543E+01 -0.51326705767E+02  0.56132670865E+02  0.76247010744E+02  0.47000000000E+01 0. -1.
         -5    1    4    4    0  503  0.24396047326E+02  0.10345543621E+03  0.14772356038E+03  0.18205091238E+03  0.47000000000E+01 0.  1.
          5    1    4    4  503    0 -0.14663600950E+02 -0.16560076304E+02  0.25334372280E+02  0.33958470796E+02  0.47000000000E+01 0. -1.
         -5    1    3    3    0  502 -0.12224269830E+02 -0.35568654140E+02 -0.62584897799E+02  0.73167761772E+02  0.47000000000E+01 0.  1.
<mgrwt>
<rscale>  0 0.14400133E+03</rscale>
<asrwt>0</asrwt>
<pdfrwt beam="1">  1        2 0.15293727E-01 0.14927539E+03</pdfrwt>
<pdfrwt beam="2">  1       -2 0.40925374E-01 0.14927539E+03</pdfrwt>
<totfact> 0.21114502E+03</totfact>
</mgrwt>
</event>
<event>
 8    1  0.3466492E-004  0.1073511E+03  0.7546771E-02  0.1266794E+00
         -2   -1    0    0    0  501 -0.00000000000E+00  0.00000000000E+00  0.34553793995E+02  0.34553793995E+02  0.00000000000E+00 0.  1.
          2   -1    0    0  501    0  0.00000000000E+00 -0.00000000000E+00 -0.37968810610E+03  0.37968810610E+03  0.00000000000E+00 0. -1.
         23    2    1    2    0    0  0.12633369659E+02  0.57060719583E+02 -0.24893626102E+03  0.27009503541E+03  0.86985851463E+02 0.  0.
         23    2    1    2    0    0 -0.12633369659E+02 -0.57060719583E+02 -0.96198051077E+02  0.14414686468E+03  0.90048463713E+02 0.  0.
          5    1    4    4  502    0  0.32368091321E+02  0.44801379520E+00 -0.41212313003E+02  0.52615955709E+02  0.47000000000E+01 0. -1.
         -5    1    4    4    0  502 -0.45001460980E+02 -0.57508733378E+02 -0.54985738074E+02  0.91530908969E+02  0.47000000000E+01 0.  1.
          5    1    3    3  503    0  0.20913939457E+02  0.78103758328E+02 -0.20581773296E+03  0.22118006043E+03  0.47000000000E+01 0. -1.
         -5    1    3    3    0  503 -0.82805697987E+01 -0.21043038746E+02 -0.43118528060E+02  0.48914974987E+02  0.47000000000E+01 0.  1.
<mgrwt>
<rscale>  0 0.10670636E+03</rscale>
<asrwt>0</asrwt>
<pdfrwt beam="1">  1        2 0.58413550E-01 0.10735108E+03</pdfrwt>
<pdfrwt beam="2">  1       -2 0.53159688E-02 0.10735108E+03</pdfrwt>
<totfact> 0.13930822E+04</totfact>
</mgrwt>
</event>
<event>
 8    1  0.3466492E-004  0.9916343E+02  0.7546771E-02  0.1282591E+00
          3   -1    0    0  501    0  0.00000000000E+00  0.00000000000E+00  0.11221735481E+03  0.11221735481E+03  0.00000000000E+00 0. -1.
         -3   -1    0    0    0  501 -0.00000000000E+00 -0.00000000000E+00 -0.11244953708E+03  0.11244953708E+03  0.00000000000E+00 0.  1.
         23    2    1    2    0    0 -0.35843015329E+02 -0.12871528005E+02 -0.53807844286E+02  0.11282140357E+03  0.91558653422E+02 0.  0.
         23    2    1    2    0    0  0.35843015329E+02  0.12871528005E+02  0.53575662024E+02  0.11184548832E+03  0.90491235566E+02 0.  0.
          5    1    4    4  502    0  0.53919543921E+02  0.38302703078E+02  0.32023059211E+02  0.73634099444E+02  0.47000000000E+01 0. -1.
         -5    1    3    3    0  503 -0.63155409173E+02  0.44478280882E+01 -0.21926698273E+02  0.67165906379E+02  0.47000000000E+01 0.  1.
          5    1    3    3  503    0  0.27312393844E+02 -0.17319356093E+02 -0.31881146013E+02  0.45655497194E+02  0.47000000000E+01 0. -1.
         -5    1    4    4    0  502 -0.18076528592E+02 -0.25431175072E+02  0.21552602813E+02  0.38211388872E+02  0.47000000000E+01 0.  1.
<mgrwt>
<rscale>  0 0.98916328E+02</rscale>
<asrwt>0</asrwt>
<pdfrwt beam="1">  1        3 0.17264208E-01 0.99163426E+02</pdfrwt>
<pdfrwt beam="2">  1       -3 0.17299929E-01 0.99163426E+02</pdfrwt>
<totfact> 0.18243837E+03</totfact>
</mgrwt>
</event>
<event>
 8    1  0.3466492E-004  0.1052717E+03  0.7546771E-02  0.1269683E+00
         -1   -1    0    0    0  501 -0.00000000000E+00  0.00000000000E+00  0.12702999918E+03  0.12702999918E+03  0.00000000000E+00 0.  1.
          1   -1    0    0  501    0  0.00000000000E+00 -0.00000000000E+00 -0.32377877149E+03  0.32377877149E+03  0.00000000000E+00 0. -1.
         23    2    1    2    0    0 -0.22081964471E+02 -0.48424483465E+02  0.94376725592E+02  0.14123456107E+03  0.90596308711E+02 0.  0.
         23    2    1    2    0    0  0.22081964471E+02  0.48424483465E+02 -0.29112549790E+03  0.30957420960E+03  0.90827264474E+02 0.  0.
          5    1    4    4  502    0  0.47025723337E+02  0.66183366473E+01 -0.82640802410E+02  0.95429624636E+02  0.47000000000E+01 0. -1.
         -5    1    4    4    0  502 -0.24943758866E+02  0.41806146818E+02 -0.20848469549E+03  0.21414458497E+03  0.47000000000E+01 0.  1.
          5    1    3    3  503    0 -0.25337203744E+02  0.19027579460E+02  0.11070212768E+02  0.33891920635E+02  0.47000000000E+01 0. -1.
         -5    1    3    3    0  503  0.32552392731E+01 -0.67452062925E+02  0.83306512824E+02  0.10734264043E+03  0.47000000000E+01 0.  1.
<mgrwt>
<rscale>  0 0.10522189E+03</rscale>
<asrwt>0</asrwt>
<pdfrwt beam="1">  1        1 0.49812117E-01 0.10527172E+03</pdfrwt>
<pdfrwt beam="2">  1       -1 0.19543077E-01 0.10527172E+03</pdfrwt>
<totfact> 0.16242145E+03</totfact>
</mgrwt>
</event>
<event>
 7    1  0.3466492E-004  0.1843987E+03  0.7546771E-02  0.1184975E+00
          2   -1    0    0  501    0  0.00000000000E+00  0.00000000000E+00  0.59182341693E+02  0.59182341693E+02  0.00000000000E+00 0. -1.
         -2   -1    0    0    0  501 -0.00000000000E+00 -0.00000000000E+00 -0.39310487137E+03  0.39310487137E+03  0.00000000000E+00 0.  1.
         23    2    1    2    0    0  0.40335072057E+02 -0.42345661666E+02 -0.17634884601E+03  0.20973338281E+03  0.97309317524E+02 0.  0.
          5    1    1    2  502    0  0.44849287848E+02  0.36085491626E+02  0.58947278443E+01  0.58055655562E+02  0.47000000000E+01 0. -1.
         -5    1    1    2    0  502 -0.85184359905E+02  0.62601700400E+01 -0.16346841152E+03  0.18449817470E+03  0.47000000000E+01 0.  1.
          5    1    3    3  503    0  0.15666085746E+02 -0.70538787447E+02 -0.13842251838E+03  0.15621789389E+03  0.47000000000E+01 0.  1.
         -5    1    3    3    0  503  0.24668986311E+02  0.28193125781E+02 -0.37926327626E+02  0.53515488918E+02  0.47000000000E+01 0. -1.
<mgrwt>
<rscale>  0 0.16334152E+03</rscale>
<asrwt>0</asrwt>
<pdfrwt beam="1">  1        2 0.91049758E-02 0.18439874E+03</pdfrwt>
<pdfrwt beam="2">  1       -2 0.60477671E-01 0.18439874E+03</pdfrwt>
<totfact> 0.18407661E+03</totfact>
</mgrwt>
</event>
<event>
 8    1  0.3466492E-004  0.9395626E+02  0.7546771E-02  0.1294555E+00
         -1   -1    0    0    0  501 -0.00000000000E+00  0.00000000000E+00  0.15599524015E+02  0.15599524015E+02  0.00000000000E+00 0.  1.
          1   -1    0    0  501    0  0.00000000000E+00 -0.00000000000E+00 -0.61070620851E+03  0.61070620851E+03  0.00000000000E+00 0. -1.
         23    2    1    2    0    0 -0.18233361137E+02 -0.16039031483E+02 -0.20586968625E+03  0.22629649981E+03  0.90763826036E+02 0.  0.
         23    2    1    2    0    0  0.18233361137E+02  0.16039031483E+02 -0.38923699824E+03  0.40000923272E+03  0.88950769929E+02 0.  0.
          5    1    4    4  502    0 -0.13826760826E+02  0.41292747858E+02 -0.27798959074E+03  0.28141885669E+03  0.47000000000E+01 0. -1.
         -5    1    4    4    0  502  0.32060121963E+02 -0.25253716375E+02 -0.11124740750E+03  0.11859037603E+03  0.47000000000E+01 0.  1.
          5    1    3    3  503    0  0.25469242715E+02  0.14497098122E+02 -0.13065219129E+03  0.13398109295E+03  0.47000000000E+01 0. -1.
         -5    1    3    3    0  503 -0.43702603852E+02 -0.30536129605E+02 -0.75217494959E+02  0.92315406854E+02  0.47000000000E+01 0.  1.
<mgrwt>
<rscale>  0 0.93515601E+02</rscale>
<asrwt>0</asrwt>
<pdfrwt beam="1">  1        1 0.93954791E-01 0.93956256E+02</pdfrwt>
<pdfrwt beam="2">  1       -1 0.23999270E-02 0.93956256E+02</pdfrwt>
<totfact> 0.16507480E+04</totfact>
</mgrwt>
</event>
<event>
 8    1  0.3466492E-004  0.2946677E+03  0.7546771E-02  0.1088167E+00
         -2   -1    0    0    0  501 -0.00000000000E+00  0.00000000000E+00  0.10340550098E+03  0.10340550098E+03  0.00000000000E+00 0.  1.
          2   -1    0    0  501    0  0.00000000000E+00 -0.00000000000E+00 -0.92175874991E+03  0.92175874991E+03  0.00000000000E+00 0. -1.
         23    2    1    2    0    0 -0.27040727678E+03 -0.65435781621E+02 -0.25267619885E+03  0.38816788757E+03  0.97093308844E+02 0.  0.
         23    2    1    2    0    0  0.27040727678E+03  0.65435781621E+02 -0.56567705007E+03  0.63699636332E+03  0.91498115066E+02 0.  0.
          5    1    3    3  502    0 -0.13176385197E+03 -0.13398368747E+01 -0.16765815023E+03  0.21329522542E+03  0.47000000000E+01 0. -1.
         -5    1    3    3    0  502 -0.13864342480E+03 -0.64095944746E+02 -0.85018048625E+02  0.17487266215E+03  0.47000000000E+01 0.  1.
          5    1    4    4  503    0  0.21484024602E+03  0.13104659977E+02 -0.44074801743E+03  0.49051908046E+03  0.47000000000E+01 0. -1.
         -5    1    4    4    0  503  0.55567030751E+02  0.52331121644E+02 -0.12492903264E+03  0.14647728287E+03  0.47000000000E+01 0.  1.
<mgrwt>
<rscale>  0 0.29421767E+03</rscale>
<asrwt>0</asrwt>
<pdfrwt beam="1">  1        2 0.14180904E+00 0.29466769E+03</pdfrwt>
<pdfrwt beam="2">  1       -2 0.15908539E-01 0.29466769E+03</pdfrwt>
<totfact> 0.91384298E+02</totfact>
</mgrwt>
</event>
<event>
 8    1  0.3466492E-004  0.1137432E+03  0.7546771E-02  0.1262982E+00
         -2   -1    0    0    0  501 -0.00000000000E+00  0.00000000000E+00  0.30962601447E+02  0.30962601447E+02  0.00000000000E+00 0. -1.
          2   -1    0    0  501    0  0.00000000000E+00 -0.00000000000E+00 -0.53823553629E+03  0.53823553629E+03  0.00000000000E+00 0.  1.
         23    2    1    2    0    0  0.75868024870E+01  0.23854295943E+02 -0.10140292403E+03  0.15238135988E+03  0.11095467016E+03 0.  0.
         23    2    1    2    0    0 -0.75868024870E+01 -0.23854295943E+02 -0.40587001082E+03  0.41681677786E+03  0.91537826142E+02 0.  0.
          5    1    3    3  502    0 -0.17231625561E+02  0.41286995865E+02  0.14891506751E+01  0.45009471411E+02  0.47000000000E+01 0. -1.
         -5    1    4    4    0  503 -0.22097416883E+02 -0.40717657722E+02 -0.37795669445E+03  0.38081435945E+03  0.47000000000E+01 0.  1.
          5    1    4    4  503    0  0.14510614396E+02  0.16863361779E+02 -0.27913316373E+02  0.36002418413E+02  0.47000000000E+01 0. -1.
         -5    1    3    3    0  502  0.24818428048E+02 -0.17432699921E+02 -0.10289207470E+03  0.10737188847E+03  0.47000000000E+01 0.  1.
<mgrwt>
<rscale>  0 0.10870744E+03</rscale>
<asrwt>0</asrwt>
<pdfrwt beam="1">  1        2 0.82805464E-01 0.11374325E+03</pdfrwt>
<pdfrwt beam="2">  1       -2 0.47634773E-02 0.11374325E+03</pdfrwt>
<totfact> 0.11328106E+04</totfact>
</mgrwt>
</event>
<event>
 8    1  0.3466492E-004  0.1108500E+03  0.7546771E-02  0.1259242E+00
          2   -1    0    0  501    0  0.00000000000E+00  0.00000000000E+00  0.95200557597E+03  0.95200557597E+03  0.00000000000E+00 0. -1.
         -2   -1    0    0    0  501 -0.00000000000E+00 -0.00000000000E+00 -0.15858911503E+02  0.15858911503E+02  0.00000000000E+00 0.  1.
         23    2    1    2    0    0 -0.31178649592E+02 -0.53190279110E+02  0.67986018826E+03  0.68883785972E+03  0.92121698954E+02 0.  0.
         23    2    1    2    0    0  0.31178649592E+02  0.53190279110E+02  0.25628647621E+03  0.27902662775E+03  0.91497470605E+02 0.  0.
          5    1    3    3  502    0  0.11695652447E+02  0.21295746477E+02  0.15871841480E+03  0.16063599316E+03  0.47000000000E+01 0. -1.
         -5    1    4    4    0  503 -0.14575845667E+02 -0.15312076183E+02  0.23060677901E+02  0.31635420326E+02  0.47000000000E+01 0.  1.
          5    1    4    4  503    0  0.45754495259E+02  0.68502355293E+02  0.23322579831E+03  0.24739120743E+03  0.47000000000E+01 0. -1.
         -5    1    3    3    0  502 -0.42874302039E+02 -0.74486025587E+02  0.52114177346E+03  0.52820186655E+03  0.47000000000E+01 0.  1.
<mgrwt>
<rscale>  0 0.11072021E+03</rscale>
<asrwt>0</asrwt>
<pdfrwt beam="1">  1        2 0.14646235E+00 0.11085000E+03</pdfrwt>
<pdfrwt beam="2">  1       -2 0.24398333E-02 0.11085000E+03</pdfrwt>
<totfact> 0.15283573E+04</totfact>
</mgrwt>
</event>
<event>
 8    1  0.3466492E-004  0.1214508E+03  0.7546771E-02  0.1245198E+00
         -2   -1    0    0    0  501 -0.00000000000E+00  0.00000000000E+00  0.24894304960E+02  0.24894304960E+02  0.00000000000E+00 0.  1.
          2   -1    0    0  501    0  0.00000000000E+00 -0.00000000000E+00 -0.67671040481E+03  0.67671040481E+03  0.00000000000E+00 0. -1.
         23    2    1    2    0    0  0.76155138482E+02 -0.10018438751E+02 -0.49387618375E+03  0.50859019495E+03  0.94076178104E+02 0.  0.
         23    2    1    2    0    0 -0.76155138482E+02  0.10018438751E+02 -0.15793991610E+03  0.19301451482E+03  0.80060049982E+02 0.  0.
          5    1    4    4  502    0 -0.26856446313E+02 -0.22141420340E+01 -0.13382302298E+03  0.13659012634E+03  0.47000000000E+01 0. -1.
         -5    1    3    3    0  503  0.43162206076E+02  0.25969772500E+02 -0.10412559454E+03  0.11576542902E+03  0.47000000000E+01 0.  1.
          5    1    3    3  503    0  0.32992932406E+02 -0.35988211250E+02 -0.38975058921E+03  0.39282476593E+03  0.47000000000E+01 0. -1.
         -5    1    4    4    0  502 -0.49298692168E+02  0.12232580785E+02 -0.24116893117E+02  0.56424388484E+02  0.47000000000E+01 0.  1.
<mgrwt>
<rscale>  0 0.11873555E+03</rscale>
<asrwt>0</asrwt>
<pdfrwt beam="1">  1        2 0.10410927E+00 0.12145082E+03</pdfrwt>
<pdfrwt beam="2">  1       -2 0.38298937E-02 0.12145082E+03</pdfrwt>
<totfact> 0.12138320E+04</totfact>
</mgrwt>
</event>
<event>
 8    1  0.3466492E-004  0.1395577E+03  0.7546771E-02  0.1213996E+00
         -2   -1    0    0    0  501 -0.00000000000E+00  0.00000000000E+00  0.75715559639E+02  0.75715559639E+02  0.00000000000E+00 0.  1.
          2   -1    0    0  501    0  0.00000000000E+00 -0.00000000000E+00 -0.32101253967E+03  0.32101253967E+03  0.00000000000E+00 0. -1.
         23    2    1    2    0    0  0.55854197678E+02  0.89520574979E+02 -0.33890665973E+02  0.14341215102E+03  0.91021113355E+02 0.  0.
         23    2    1    2    0    0 -0.55854197678E+02 -0.89520574979E+02 -0.21140631406E+03  0.25331594829E+03  0.91338465570E+02 0.  0.
          5    1    4    4  502    0 -0.71747207000E+02 -0.51821802541E+02 -0.18286461921E+03  0.20321102305E+03  0.47000000000E+01 0. -1.
         -5    1    4    4    0  502  0.15893009322E+02 -0.37698772438E+02 -0.28541694851E+02  0.50104925243E+02  0.47000000000E+01 0.  1.
          5    1    3    3  503    0  0.19159117110E+02  0.53785845762E+02 -0.62313079072E+02  0.84646315905E+02  0.47000000000E+01 0. -1.
         -5    1    3    3    0  503  0.36695080568E+02  0.35734729217E+02  0.28422413099E+02  0.58765835112E+02  0.47000000000E+01 0.  1.
<mgrwt>
<rscale>  0 0.13950576E+03</rscale>
<asrwt>0</asrwt>
<pdfrwt beam="1">  1        2 0.49386546E-01 0.13955766E+03</pdfrwt>
<pdfrwt beam="2">  1       -2 0.11648547E-01 0.13955766E+03</pdfrwt>
<totfact> 0.50627929E+03</totfact>
</mgrwt>
</event>
<event>
 8    1  0.3466492E-004  0.1032381E+03  0.7546771E-02  0.1274482E+00
         -1   -1    0    0    0  501 -0.00000000000E+00  0.00000000000E+00  0.26701273463E+02  0.26701273463E+02  0.00000000000E+00 0.  1.
          1   -1    0    0  501    0  0.00000000000E+00 -0.00000000000E+00 -0.45011852944E+03  0.45011852944E+03  0.00000000000E+00 0. -1.
         23    2    1    2    0    0  0.28982439213E+02  0.35511315493E+02 -0.12807671166E+03  0.16450453505E+03  0.92504392728E+02 0.  0.
         23    2    1    2    0    0 -0.28982439213E+02 -0.35511315493E+02 -0.29534054432E+03  0.31231526785E+03  0.90629763882E+02 0.  0.
          5    1    4    4  502    0  0.20550065025E+02 -0.39387232178E+02 -0.19741076580E+03  0.20240246956E+03  0.47000000000E+01 0. -1.
         -5    1    4    4    0  502 -0.49532504238E+02  0.38759166846E+01 -0.97929778526E+02  0.10991279829E+03  0.47000000000E+01 0.  1.
          5    1    3    3  503    0 -0.20953819350E+02  0.35432281834E+02 -0.97057057836E+02  0.10553042982E+03  0.47000000000E+01 0. -1.
         -5    1    3    3    0  503  0.49936258563E+02  0.79033659652E-01 -0.31019653820E+02  0.58974105239E+02  0.47000000000E+01 0.  1.
<mgrwt>
<rscale>  0 0.10281641E+03</rscale>
<asrwt>0</asrwt>
<pdfrwt beam="1">  1        1 0.69249006E-01 0.10323806E+03</pdfrwt>
<pdfrwt beam="2">  1       -1 0.41078881E-02 0.10323806E+03</pdfrwt>
<totfact> 0.11389332E+04</totfact>
</mgrwt>
</event>
<event>
 8    1  0.3466492E-004  0.1444646E+03  0.7546771E-02  0.1208790E+00
          1   -1    0    0  501    0  0.00000000000E+00  0.00000000000E+00  0.36580906014E+03  0.36580906014E+03  0.00000000000E+00 0. -1.
         -1   -1    0    0    0  501 -0.00000000000E+00 -0.00000000000E+00 -0.69685760486E+02  0.69685760486E+02  0.00000000000E+00 0.  1.
         23    2    1    2    0    0 -0.35758204542E+02 -0.10008965901E+03  0.24819612726E+03  0.28717821478E+03  0.97843857349E+02 0.  0.
         23    2    1    2    0    0  0.35758204542E+02  0.10008965901E+03  0.47927172386E+02  0.14831660584E+03  0.91674493090E+02 0.  0.
          5    1    4    4  502    0  0.14817988725E+02  0.19671611193E+02  0.59231900442E+02  0.64319927757E+02  0.47000000000E+01 0. -1.
         -5    1    4    4    0  502  0.20940215817E+02  0.80418047818E+02 -0.11304728055E+02  0.83996678087E+02  0.47000000000E+01 0.  1.
          5    1    3    3  503    0  0.32862016740E+01 -0.10152350404E+03  0.20441957470E+03  0.22831398012E+03  0.47000000000E+01 0. -1.
         -5    1    3    3    0  503 -0.39044406216E+02  0.14338450288E+01  0.43776552561E+02  0.58864234663E+02  0.47000000000E+01 0.  1.
<mgrwt>
<rscale>  0 0.14342719E+03</rscale>
<asrwt>0</asrwt>
<pdfrwt beam="1">  1        1 0.56278316E-01 0.14446456E+03</pdfrwt>
<pdfrwt beam="2">  1       -1 0.10720886E-01 0.14446456E+03</pdfrwt>
<totfact> 0.36064188E+03</totfact>
</mgrwt>
</event>
<event>
 8    1  0.7220883E-004  0.9736833E+02  0.7546771E-02  0.1287049E+00
          1   -1    0    0  501    0  0.00000000000E+00  0.00000000000E+00  0.52912099951E+03  0.52912099951E+03  0.00000000000E+00 0. -1.
         -1   -1    0    0    0  501 -0.00000000000E+00 -0.00000000000E+00 -0.82024216465E+02  0.82024216465E+02  0.00000000000E+00 0.  1.
         23    2    1    2    0    0 -0.29183371674E+02 -0.41701314357E+01  0.49396716287E+03  0.50308308223E+03  0.90664052736E+02 0.  0.
         23    2    1    2    0    0  0.29183371674E+02  0.41701314357E+01 -0.46870379823E+02  0.10806213374E+03  0.92798346245E+02 0.  0.
          5    1    4    4  502    0  0.15791774288E+02 -0.44059871053E+02 -0.20863553187E+02  0.51459014992E+02  0.47000000000E+01 0. -1.
         -5    1    4    4    0  502  0.13391597386E+02  0.48230002489E+02 -0.26006826636E+02  0.56603118750E+02  0.47000000000E+01 0.  1.
          5    1    3    3  503    0 -0.56130599156E+02 -0.22847670668E+02  0.27604172256E+03  0.28265488287E+03  0.47000000000E+01 0. -1.
         -5    1    3    3    0  503  0.26947227482E+02  0.18677539232E+02  0.21792544031E+03  0.22042819937E+03  0.47000000000E+01 0.  1.
<mgrwt>
<rscale>  0 0.96856326E+02</rscale>
<asrwt>0</asrwt>
<pdfrwt beam="1">  1        1 0.81403229E-01 0.97368333E+02</pdfrwt>
<pdfrwt beam="2">  1       -1 0.12619111E-01 0.97368333E+02</pdfrwt>
<totfact> 0.17293959E+03</totfact>
</mgrwt>
</event>
<event>
 7    1  0.3466492E-004  0.1359459E+03  0.7546771E-02  0.1233329E+00
          3   -1    0    0  501    0  0.00000000000E+00  0.00000000000E+00  0.40144942905E+02  0.40144942905E+02  0.00000000000E+00 0. -1.
         -3   -1    0    0    0  501 -0.00000000000E+00 -0.00000000000E+00 -0.39065749466E+03  0.39065749466E+03  0.00000000000E+00 0.  1.
         23    2    1    2    0    0 -0.14095110915E+02 -0.39450807073E+02 -0.22180055263E+03  0.24359118282E+03  0.91575874932E+02 0.  0.
          5    1    1    2  502    0  0.37863226755E+02 -0.35930685834E+02 -0.29040907781E+02  0.59917463644E+02  0.47000000000E+01 0. -1.
         -5    1    1    2    0  502 -0.23768115840E+02  0.75381492907E+02 -0.99671091348E+02  0.12729379110E+03  0.47000000000E+01 0.  1.
          5    1    3    3  503    0  0.36886242285E+02 -0.29309138860E+02 -0.87179502247E+02  0.99206734160E+02  0.47000000000E+01 0. -1.
         -5    1    3    3    0  503 -0.50981353200E+02 -0.10141668213E+02 -0.13462105038E+03  0.14438444866E+03  0.47000000000E+01 0.  1.
<mgrwt>
<rscale>  0 0.12612046E+03</rscale>
<asrwt>0</asrwt>
<pdfrwt beam="1">  1        3 0.61761453E-02 0.13594585E+03</pdfrwt>
<pdfrwt beam="2">  1       -3 0.60101151E-01 0.13594585E+03</pdfrwt>
<totfact> 0.10280018E+03</totfact>
</mgrwt>
</event>
<event>
 8    1  0.3466492E-004  0.1736335E+03  0.7546771E-02  0.1174605E+00
          2   -1    0    0  501    0  0.00000000000E+00  0.00000000000E+00  0.93391765529E+03  0.93391765529E+03  0.00000000000E+00 0. -1.
         -2   -1    0    0    0  501 -0.00000000000E+00 -0.00000000000E+00 -0.35638041506E+02  0.35638041506E+02  0.00000000000E+00 0.  1.
         23    2    1    2    0    0  0.14399961145E+03 -0.24204408067E+02  0.29487830601E+03  0.34220143155E+03  0.93951385997E+02 0.  0.
         23    2    1    2    0    0 -0.14399961145E+03  0.24204408067E+02  0.60340130778E+03  0.62735426525E+03  0.90324384481E+02 0.  0.
          5    1    4    4  502    0 -0.89639708529E+02 -0.26397587251E+02  0.39914491408E+03  0.40996446480E+03  0.47000000000E+01 0. -1.
         -5    1    4    4    0  502 -0.54359902924E+02  0.50601995318E+02  0.20425639369E+03  0.21738980045E+03  0.47000000000E+01 0.  1.
          5    1    3    3  503    0  0.32860836544E+02 -0.28505983106E+02  0.16709448418E+03  0.17272834827E+03  0.47000000000E+01 0. -1.
         -5    1    3    3    0  503  0.11113877491E+03  0.43015750391E+01  0.12778382183E+03  0.16947308328E+03  0.47000000000E+01 0.  1.
<mgrwt>
<rscale>  0 0.17314764E+03</rscale>
<asrwt>0</asrwt>
<pdfrwt beam="1">  1        2 0.14367962E+00 0.17363353E+03</pdfrwt>
<pdfrwt beam="2">  1       -2 0.54827763E-02 0.17363353E+03</pdfrwt>
<totfact> 0.48337411E+03</totfact>
</mgrwt>
</event>
<event>
 8    1  0.3466492E-004  0.1121949E+03  0.7546771E-02  0.1261549E+00
         -1   -1    0    0    0  501 -0.00000000000E+00  0.00000000000E+00  0.26422433543E+02  0.26422433543E+02  0.00000000000E+00 0.  1.
          1   -1    0    0  501    0  0.00000000000E+00 -0.00000000000E+00 -0.68644617761E+03  0.68644617761E+03  0.00000000000E+00 0. -1.
         23    2    1    2    0    0  0.32575907064E+02  0.35223902121E+02 -0.55669522813E+03  0.56788842610E+03  0.10141880731E+03 0.  0.
         23    2    1    2    0    0 -0.32575907064E+02 -0.35223902121E+02 -0.10332851593E+03  0.14498018505E+03  0.89669163317E+02 0.  0.
          5    1    3    3  502    0  0.64926043369E+02  0.42764376657E+02 -0.35728570973E+03  0.36567656665E+03  0.47000000000E+01 0. -1.
         -5    1    3    3    0  502 -0.32350136305E+02 -0.75404745361E+01 -0.19940951840E+03  0.20221185945E+03  0.47000000000E+01 0.  1.
          5    1    4    4  503    0 -0.18950181051E+02 -0.51247551405E+02 -0.10958214808E+03  0.12253880228E+03  0.47000000000E+01 0. -1.
         -5    1    4    4    0  503 -0.13625726013E+02  0.16023649284E+02  0.62536321404E+01  0.22441382772E+02  0.47000000000E+01 0.  1.
<mgrwt>
<rscale>  0 0.10947319E+03</rscale>
<asrwt>0</asrwt>
<pdfrwt beam="1">  1        1 0.10560711E+00 0.11219486E+03</pdfrwt>
<pdfrwt beam="2">  1       -1 0.40649896E-02 0.11219486E+03</pdfrwt>
<totfact> 0.66425524E+03</totfact>
</mgrwt>
</event>
<event>
 8    1  0.3466492E-004  0.1122669E+03  0.7546771E-02  0.1256782E+00
          2   -1    0    0  501    0  0.00000000000E+00  0.00000000000E+00  0.63499207772E+03  0.63499207772E+03  0.00000000000E+00 0. -1.
         -2   -1    0    0    0  501 -0.00000000000E+00 -0.00000000000E+00 -0.90182319985E+02  0.90182319985E+02  0.00000000000E+00 0.  1.
         23    2    1    2    0    0  0.60536377648E+02  0.18136254817E+02 -0.47908921732E+02  0.12206192164E+03  0.92791546890E+02 0.  0.
         23    2    1    2    0    0 -0.60536377648E+02 -0.18136254817E+02  0.59271867947E+03  0.60311247607E+03  0.91845789480E+02 0.  0.
          5    1    4    4  502    0 -0.84854115632E+02 -0.14633453833E+02  0.44231634891E+03  0.45064420714E+03  0.47000000000E+01 0. -1.
         -5    1    4    4    0  502  0.24317737984E+02 -0.35028009845E+01  0.15040233055E+03  0.15246826893E+03  0.47000000000E+01 0.  1.
          5    1    3    3  503    0 -0.22083699783E+01 -0.31168305669E+02 -0.19986942239E+02  0.37388608376E+02  0.47000000000E+01 0. -1.
         -5    1    3    3    0  503  0.62744747626E+02  0.49304560487E+02 -0.27921979493E+02  0.84673313259E+02  0.47000000000E+01 0.  1.
<mgrwt>
<rscale>  0 0.11207124E+03</rscale>
<asrwt>0</asrwt>
<pdfrwt beam="1">  1        2 0.97691086E-01 0.11226686E+03</pdfrwt>
<pdfrwt beam="2">  1       -2 0.13874204E-01 0.11226686E+03</pdfrwt>
<totfact> 0.18060531E+03</totfact>
</mgrwt>
</event>
<event>
 8    1  0.3466492E-004  0.1418121E+03  0.7546771E-02  0.1211323E+00
         -1   -1    0    0    0  501 -0.00000000000E+00  0.00000000000E+00  0.19700879987E+03  0.19700879987E+03  0.00000000000E+00 0.  1.
          1   -1    0    0  501    0  0.00000000000E+00 -0.00000000000E+00 -0.11026742275E+03  0.11026742275E+03  0.00000000000E+00 0. -1.
         23    2    1    2    0    0 -0.48829166646E+02 -0.96200869333E+02  0.87623668146E+02  0.16669905013E+03  0.92042225732E+02 0.  0.
         23    2    1    2    0    0  0.48829166646E+02  0.96200869333E+02 -0.88229102206E+00  0.14057717249E+03  0.90123627385E+02 0.  0.
          5    1    3    3  502    0 -0.55605861282E+02 -0.19415552497E+02  0.61222843607E+02  0.85084088212E+02  0.47000000000E+01 0. -1.
         -5    1    3    3    0  502  0.67766946351E+01 -0.76785316836E+02  0.26400824539E+02  0.81614961913E+02  0.47000000000E+01 0.  1.
          5    1    4    4  503    0 -0.12193365976E+02  0.72813247081E+02 -0.91405356829E+01  0.74539160961E+02  0.47000000000E+01 0. -1.
         -5    1    4    4    0  503  0.61022532622E+02  0.23387622252E+02  0.82582446609E+01  0.66038011532E+02  0.47000000000E+01 0.  1.
<mgrwt>
<rscale>  0 0.14150164E+03</rscale>
<asrwt>0</asrwt>
<pdfrwt beam="1">  1        1 0.16964219E-01 0.14181208E+03</pdfrwt>
<pdfrwt beam="2">  1       -1 0.30309046E-01 0.14181208E+03</pdfrwt>
<totfact> 0.30750448E+03</totfact>
</mgrwt>
</event>
<event>
 8    1  0.3466492E-004  0.1537703E+03  0.7546771E-02  0.1197704E+00
          1   -1    0    0  501    0  0.00000000000E+00  0.00000000000E+00  0.47232166509E+03  0.47232166509E+03  0.00000000000E+00 0. -1.
         -1   -1    0    0    0  501 -0.00000000000E+00 -0.00000000000E+00 -0.61238627961E+02  0.61238627961E+02  0.00000000000E+00 0.  1.
         23    2    1    2    0    0 -0.11764951454E+03 -0.96615197383E+01  0.33195771299E+03  0.36584315493E+03  0.98542059850E+02 0.  0.
         23    2    1    2    0    0  0.11764951454E+03  0.96615197383E+01  0.79125324136E+02  0.16771713812E+03  0.89070018891E+02 0.  0.
          5    1    4    4  502    0  0.90280620723E+02 -0.29743022580E+02  0.71217044671E+02  0.11886629178E+03  0.47000000000E+01 0. -1.
         -5    1    3    3    0  503 -0.43072893609E+02 -0.52136818515E+02  0.14301646376E+03  0.15826977259E+03  0.47000000000E+01 0.  1.
          5    1    3    3  503    0 -0.74576620929E+02  0.42475298777E+02  0.18894124923E+03  0.20757338234E+03  0.47000000000E+01 0. -1.
         -5    1    4    4    0  502  0.27368893814E+02  0.39404542318E+02  0.79082794657E+01  0.48850846339E+02  0.47000000000E+01 0.  1.
<mgrwt>
<rscale>  0 0.15227581E+03</rscale>
<asrwt>0</asrwt>
<pdfrwt beam="1">  1        1 0.72664869E-01 0.15377025E+03</pdfrwt>
<pdfrwt beam="2">  1       -1 0.94213277E-02 0.15377025E+03</pdfrwt>
<totfact> 0.31838863E+03</totfact>
</mgrwt>
</event>
<event>
 7    1  0.3466492E-004  0.1528191E+03  0.7546771E-02  0.1220400E+00
         -1   -1    0    0    0  501 -0.00000000000E+00  0.00000000000E+00  0.42259769037E+03  0.42259769037E+03  0.00000000000E+00 0.  1.
          1   -1    0    0  501    0  0.00000000000E+00 -0.00000000000E+00 -0.36614330622E+02  0.36614330622E+02  0.00000000000E+00 0. -1.
         23    2    1    2    0    0 -0.22097133699E+02 -0.37036719381E+01  0.11110026599E+03  0.14470545402E+03  0.89968876935E+02 0.  0.
          5    1    1    2  502    0  0.47489465503E+02  0.53109993845E+02  0.62377161546E+02  0.94809920696E+02  0.47000000000E+01 0. -1.
         -5    1    3    3    0  503 -0.15409561062E+02 -0.34148861987E+02  0.10368034348E+02  0.39155912496E+02  0.47000000000E+01 0.  1.
          5    1    3    3  503    0 -0.66875726375E+01  0.30445190049E+02  0.10073223164E+03  0.10554954152E+03  0.47000000000E+01 0. -1.
         -5    1    1    2    0  502 -0.25392331804E+02 -0.49406321907E+02  0.21250593222E+03  0.21969664628E+03  0.47000000000E+01 0.  1.
<mgrwt>
<rscale>  0 0.13487229E+03</rscale>
<asrwt>0</asrwt>
<pdfrwt beam="1">  1        1 0.56329742E-02 0.15281906E+03</pdfrwt>
<pdfrwt beam="2">  1       -1 0.65015026E-01 0.15281906E+03</pdfrwt>
<totfact> 0.33919993E+03</totfact>
</mgrwt>
</event>
<event>
 8    1  0.3466492E-004  0.9494759E+02  0.7546771E-02  0.1291513E+00
          1   -1    0    0  501    0  0.00000000000E+00  0.00000000000E+00  0.61684856791E+03  0.61684856791E+03  0.00000000000E+00 0. -1.
         -1   -1    0    0    0  501 -0.00000000000E+00 -0.00000000000E+00 -0.16630775389E+02  0.16630775389E+02  0.00000000000E+00 0.  1.
         23    2    1    2    0    0  0.50930306285E+01  0.24807424467E+02  0.41147019167E+03  0.42219588073E+03  0.91105959193E+02 0.  0.
         23    2    1    2    0    0 -0.50930306285E+01 -0.24807424467E+02  0.18874760085E+03  0.21128346257E+03  0.91507909273E+02 0.  0.
          5    1    3    3  502    0  0.41371598130E+02  0.27129253855E+02  0.31685273293E+03  0.32072628504E+03  0.47000000000E+01 0. -1.
         -5    1    4    4    0  503 -0.29272462407E+02  0.54113163261E+01  0.15861887492E+02  0.34056554062E+02  0.47000000000E+01 0.  1.
          5    1    4    4  503    0  0.24179431779E+02 -0.30218740794E+02  0.17288571336E+03  0.17722690851E+03  0.47000000000E+01 0. -1.
         -5    1    3    3    0  502 -0.36278567502E+02 -0.23218293872E+01  0.94617458736E+02  0.10146959569E+03  0.47000000000E+01 0.  1.
<mgrwt>
<rscale>  0 0.94850609E+02</rscale>
<asrwt>0</asrwt>
<pdfrwt beam="1">  1        1 0.94899762E-01 0.94947589E+02</pdfrwt>
<pdfrwt beam="2">  1       -1 0.25585813E-02 0.94947589E+02</pdfrwt>
<totfact> 0.14870302E+04</totfact>
</mgrwt>
</event>
<event>
 8    1  0.3466492E-004  0.1372022E+03  0.7546771E-02  0.1217446E+00
         -1   -1    0    0    0  501 -0.00000000000E+00  0.00000000000E+00  0.22976557924E+03  0.22976557924E+03  0.00000000000E+00 0.  1.
          1   -1    0    0  501    0  0.00000000000E+00 -0.00000000000E+00 -0.85514430244E+02  0.85514430244E+02  0.00000000000E+00 0. -1.
         23    2    1    2    0    0  0.94968334625E+02  0.40482924525E+02  0.10644477048E+03  0.17296424270E+03  0.89040936267E+02 0.  0.
         23    2    1    2    0    0 -0.94968334625E+02 -0.40482924525E+02  0.37806378524E+02  0.14231576679E+03  0.90369261699E+02 0.  0.
          5    1    4    4  502    0 -0.95996008803E+02 -0.16758125074E+02  0.16384748112E+00  0.97561187509E+02  0.47000000000E+01 0. -1.
         -5    1    3    3    0  503  0.44592310406E+02 -0.10479977115E+02  0.87209820013E+02  0.98620214837E+02  0.47000000000E+01 0.  1.
          5    1    3    3  503    0  0.50376024218E+02  0.50962901639E+02  0.19234950463E+02  0.74344027863E+02  0.47000000000E+01 0. -1.
         -5    1    4    4    0  502  0.10276741786E+01 -0.23724799451E+02  0.37642531043E+02  0.44754579280E+02  0.47000000000E+01 0.  1.
<mgrwt>
<rscale>  0 0.13698391E+03</rscale>
<asrwt>0</asrwt>
<pdfrwt beam="1">  1        1 0.13156066E-01 0.13720224E+03</pdfrwt>
<pdfrwt beam="2">  1       -1 0.35348550E-01 0.13720224E+03</pdfrwt>
<totfact> 0.32850984E+03</totfact>
</mgrwt>
</event>
<event>
 8    1  0.3466492E-004  0.1057253E+03  0.7546771E-02  0.1275594E+00
         -1   -1    0    0    0  501 -0.00000000000E+00  0.00000000000E+00  0.97535306401E+01  0.97535306401E+01  0.00000000000E+00 0.  1.
          1   -1    0    0  501    0  0.00000000000E+00 -0.00000000000E+00 -0.10846748290E+04  0.10846748290E+04  0.00000000000E+00 0. -1.
         23    2    1    2    0    0 -0.54388273008E+02  0.11022579644E+02 -0.71596200045E+03  0.72372606424E+03  0.89990268749E+02 0.  0.
         23    2    1    2    0    0  0.54388273008E+02 -0.11022579644E+02 -0.35895929793E+03  0.37070229542E+03  0.74086657074E+02 0.  0.
          5    1    3    3  502    0 -0.33297102602E+02  0.49824341661E+02 -0.35671903447E+03  0.36174814666E+03  0.47000000000E+01 0. -1.
         -5    1    4    4    0  503  0.21470156451E+01 -0.34292147690E+02 -0.15443132662E+03  0.15827724319E+03  0.47000000000E+01 0.  1.
          5    1    4    4  503    0  0.52241257363E+02  0.23269568046E+02 -0.20452797131E+03  0.21242505223E+03  0.47000000000E+01 0. -1.
         -5    1    3    3    0  502 -0.21091170406E+02 -0.38801762017E+02 -0.35924296598E+03  0.36197791757E+03  0.47000000000E+01 0.  1.
<mgrwt>
<rscale>  0 0.10226961E+03</rscale>
<asrwt>0</asrwt>
<pdfrwt beam="1">  1        1 0.16687304E+00 0.10572526E+03</pdfrwt>
<pdfrwt beam="2">  1       -1 0.15005433E-02 0.10572526E+03</pdfrwt>
<totfact> 0.13650437E+04</totfact>
</mgrwt>
</event>
<event>
 8    1  0.3466492E-004  0.3334955E+03  0.7546771E-02  0.1070176E+00
          2   -1    0    0  501    0  0.00000000000E+00  0.00000000000E+00  0.11299088601E+04  0.11299088601E+04  0.00000000000E+00 0. -1.
         -2   -1    0    0    0  501 -0.00000000000E+00 -0.00000000000E+00 -0.12500166852E+03  0.12500166852E+03  0.00000000000E+00 0.  1.
         23    2    1    2    0    0  0.24475265673E+03  0.19936312205E+03  0.20186259765E+03  0.38537050943E+03  0.90068883626E+02 0.  0.
         23    2    1    2    0    0 -0.24475265673E+03 -0.19936312205E+03  0.80304459392E+03  0.86954001918E+03  0.10756257588E+03 0.  0.
          5    1    3    3  502    0  0.19099042356E+03  0.10425688778E+03  0.15012027194E+03  0.26439558731E+03  0.47000000000E+01 0. -1.
         -5    1    3    3    0  502  0.53762233170E+02  0.95106234266E+02  0.51742325714E+02  0.12097492212E+03  0.47000000000E+01 0.  1.
          5    1    4    4  503    0 -0.19330419754E+03 -0.18836944004E+03  0.73755989708E+03  0.78540833361E+03  0.47000000000E+01 0. -1.
         -5    1    4    4    0  503 -0.51448459188E+02 -0.10993682012E+02  0.65484696837E+02  0.84131685570E+02  0.47000000000E+01 0.  1.
<mgrwt>
<rscale>  0 0.33218163E+03</rscale>
<asrwt>0</asrwt>
<pdfrwt beam="1">  1        2 0.17383213E+00 0.33349546E+03</pdfrwt>
<pdfrwt beam="2">  1       -2 0.19231027E-01 0.33349546E+03</pdfrwt>
<totfact> 0.49297830E+02</totfact>
</mgrwt>
</event>
<event>
 8    1  0.3466492E-004  0.2069403E+03  0.7546771E-02  0.1144135E+00
         -2   -1    0    0    0  501 -0.00000000000E+00  0.00000000000E+00  0.24677924258E+03  0.24677924258E+03  0.00000000000E+00 0.  1.
          2   -1    0    0  501    0  0.00000000000E+00 -0.00000000000E+00 -0.31705956669E+03  0.31705956669E+03  0.00000000000E+00 0. -1.
         23    2    1    2    0    0  0.17082523558E+03  0.72417967464E+02 -0.22518468346E+03  0.30583070281E+03  0.91644170534E+02 0.  0.
         23    2    1    2    0    0 -0.17082523558E+03 -0.72417967464E+02  0.15490435935E+03  0.25800810646E+03  0.90261837634E+02 0.  0.
          5    1    3    3  502    0  0.50328060977E+02  0.39976532561E+02 -0.14156396753E+03  0.15554254653E+03  0.47000000000E+01 0. -1.
         -5    1    3    3    0  502  0.12049717460E+03  0.32441434903E+02 -0.83620715929E+02  0.15028815628E+03  0.47000000000E+01 0.  1.
          5    1    4    4  503    0 -0.14298881616E+03 -0.16926346655E+02  0.10921599963E+03  0.18078309471E+03  0.47000000000E+01 0. -1.
         -5    1    4    4    0  503 -0.27836419415E+02 -0.55491620810E+02  0.45688359715E+02  0.77225011747E+02  0.47000000000E+01 0.  1.
<mgrwt>
<rscale>  0 0.20678799E+03</rscale>
<asrwt>0</asrwt>
<pdfrwt beam="1">  1        2 0.48778395E-01 0.20694027E+03</pdfrwt>
<pdfrwt beam="2">  1       -2 0.37966037E-01 0.20694027E+03</pdfrwt>
<totfact> 0.67904061E+02</totfact>
</mgrwt>
</event>
<event>
 8    1  0.3466492E-004  0.2316804E+03  0.7546771E-02  0.1126502E+00
         -1   -1    0    0    0  501 -0.00000000000E+00  0.00000000000E+00  0.21173953427E+02  0.21173953427E+02  0.00000000000E+00 0.  1.
          1   -1    0    0  501    0  0.00000000000E+00 -0.00000000000E+00 -0.25799098810E+04  0.25799098810E+04  0.00000000000E+00 0. -1.
         23    2    1    2    0    0 -0.19945733177E+03 -0.74795328314E+02 -0.15622142744E+04  0.15793002383E+04  0.91094650165E+02 0.  0.
         23    2    1    2    0    0  0.19945733177E+03  0.74795328314E+02 -0.99652165319E+03  0.10217835961E+04  0.74891546195E+02 0.  0.
          5    1    4    4  502    0  0.45145766705E+02  0.14063517204E+02 -0.39346130915E+03  0.39632034337E+03  0.47000000000E+01 0.  1.
         -5    1    3    3    0  503 -0.84776271916E+02 -0.62420734404E+02 -0.51012308795E+03  0.52089444154E+03  0.47000000000E+01 0.  1.
          5    1    3    3  503    0 -0.11468105985E+03 -0.12374593910E+02 -0.10520911864E+04  0.10584057967E+04  0.47000000000E+01 0. -1.
         -5    1    4    4    0  502  0.15431156507E+03  0.60731811109E+02 -0.60306034403E+03  0.62546325275E+03  0.47000000000E+01 0. -1.
<mgrwt>
<rscale>  0 0.23019647E+03</rscale>
<asrwt>0</asrwt>
<pdfrwt beam="1">  1        1 0.39690922E+00 0.23168039E+03</pdfrwt>
<pdfrwt beam="2">  1       -1 0.32575312E-02 0.23168039E+03</pdfrwt>
<totfact> 0.47138086E+02</totfact>
</mgrwt>
</event>
<event>
 8    1  0.3466492E-004  0.9987289E+02  0.7546771E-02  0.1280770E+00
         -1   -1    0    0    0  501 -0.00000000000E+00  0.00000000000E+00  0.27234298010E+02  0.27234298010E+02  0.00000000000E+00 0.  1.
          1   -1    0    0  501    0  0.00000000000E+00 -0.00000000000E+00 -0.63176866372E+03  0.63176866372E+03  0.00000000000E+00 0. -1.
         23    2    1    2    0    0 -0.39567794878E+02  0.73171202625E+01 -0.88422660028E+02  0.13339101077E+03  0.91408119477E+02 0.  0.
         23    2    1    2    0    0  0.39567794878E+02 -0.73171202625E+01 -0.51611170568E+03  0.52561195096E+03  0.90980655167E+02 0.  0.
          5    1    3    3  502    0  0.25003374727E+02  0.11053675669E+02 -0.52195484311E+02  0.59108468733E+02  0.47000000000E+01 0. -1.
         -5    1    4    4    0  503 -0.19251878949E+02 -0.16983221502E+02 -0.57837198983E+02  0.63453102696E+02  0.47000000000E+01 0.  1.
          5    1    4    4  503    0  0.58819673827E+02  0.96661012390E+01 -0.45827450670E+03  0.46215884827E+03  0.47000000000E+01 0. -1.
         -5    1    3    3    0  502 -0.64571169605E+02 -0.37365554060E+01 -0.36227175717E+02  0.74282542033E+02  0.47000000000E+01 0.  1.
<mgrwt>
<rscale>  0 0.99774979E+02</rscale>
<asrwt>0</asrwt>
<pdfrwt beam="1">  1        1 0.97195176E-01 0.99872894E+02</pdfrwt>
<pdfrwt beam="2">  1       -1 0.41898921E-02 0.99872894E+02</pdfrwt>
<totfact> 0.70791342E+03</totfact>
</mgrwt>
</event>
<event>
 8    1  0.3466492E-004  0.1111052E+03  0.7546771E-02  0.1259513E+00
         -1   -1    0    0    0  501 -0.00000000000E+00  0.00000000000E+00  0.12920930866E+02  0.12920930866E+02  0.00000000000E+00 0.  1.
          1   -1    0    0  501    0  0.00000000000E+00 -0.00000000000E+00 -0.10080898774E+04  0.10080898774E+04  0.00000000000E+00 0. -1.
         23    2    1    2    0    0  0.61734601735E+02 -0.11152582506E+02 -0.36674089136E+03  0.38320131360E+03  0.91699641207E+02 0.  0.
         23    2    1    2    0    0 -0.61734601735E+02  0.11152582506E+02 -0.62842805516E+03  0.63780949466E+03  0.89126818716E+02 0.  0.
          5    1    3    3  502    0  0.27563858402E+02  0.32439679713E+02 -0.76383074632E+02  0.87570332877E+02  0.47000000000E+01 0. -1.
         -5    1    4    4    0  503 -0.70664205614E+02 -0.17289908222E+02 -0.33538470742E+03  0.34321620424E+03  0.47000000000E+01 0.  1.
          5    1    4    4  503    0  0.89296038794E+01  0.28442490728E+02 -0.29304334773E+03  0.29459329041E+03  0.47000000000E+01 0. -1.
         -5    1    3    3    0  502  0.34170743333E+02 -0.43592262219E+02 -0.29035781673E+03  0.29563098072E+03  0.47000000000E+01 0.  1.
<mgrwt>
<rscale>  0 0.11057294E+03</rscale>
<asrwt>0</asrwt>
<pdfrwt beam="1">  1        1 0.15509079E+00 0.11110520E+03</pdfrwt>
<pdfrwt beam="2">  1       -1 0.19878350E-02 0.11110520E+03</pdfrwt>
<totfact> 0.10387334E+04</totfact>
</mgrwt>
</event>
<event>
 8    1  0.3466492E-004  0.9923099E+02  0.7546771E-02  0.1281927E+00
          1   -1    0    0  501    0  0.00000000000E+00  0.00000000000E+00  0.17887493546E+03  0.17887493546E+03  0.00000000000E+00 0. -1.
         -1   -1    0    0    0  501 -0.00000000000E+00 -0.00000000000E+00 -0.55165618475E+02  0.55165618475E+02  0.00000000000E+00 0.  1.
         23    2    1    2    0    0  0.26694147576E+02  0.28638096733E+02  0.56325498730E+02  0.11410236926E+03  0.91181526439E+02 0.  0.
         23    2    1    2    0    0 -0.26694147576E+02 -0.28638096733E+02  0.67383818251E+02  0.11993818467E+03  0.91169463534E+02 0.  0.
          5    1    3    3  502    0 -0.93348934169E+01  0.52108303837E+02  0.44349086261E+02  0.69219556601E+02  0.47000000000E+01 0. -1.
         -5    1    3    3    0  502  0.36029040993E+02 -0.23470207104E+02  0.11976412469E+02  0.44882812657E+02  0.47000000000E+01 0.  1.
          5    1    4    4  503    0  0.75152929777E+01 -0.30015330055E+02  0.77787913180E+02  0.83847773398E+02  0.47000000000E+01 0. -1.
         -5    1    4    4    0  503 -0.34209440554E+02  0.13772333216E+01 -0.10404094930E+02  0.36090411274E+02  0.47000000000E+01 0.  1.
<mgrwt>
<rscale>  0 0.99228216E+02</rscale>
<asrwt>0</asrwt>
<pdfrwt beam="1">  1        1 0.27519221E-01 0.99230987E+02</pdfrwt>
<pdfrwt beam="2">  1       -1 0.84870183E-02 0.99230987E+02</pdfrwt>
<totfact> 0.12124621E+04</totfact>
</mgrwt>
</event>
<event>
 8    1  0.3466492E-004  0.1179781E+03  0.7546771E-02  0.1246745E+00
         -1   -1    0    0    0  501 -0.00000000000E+00  0.00000000000E+00  0.12172152051E+03  0.12172152051E+03  0.00000000000E+00 0.  1.
          1   -1    0    0  501    0  0.00000000000E+00 -0.00000000000E+00 -0.11438151512E+03  0.11438151512E+03  0.00000000000E+00 0. -1.
         23    2    1    2    0    0 -0.12125660358E+02 -0.75369782041E+02  0.12652155765E+02  0.11865456703E+03  0.89951061956E+02 0.  0.
         23    2    1    2    0    0  0.12125660358E+02  0.75369782041E+02 -0.53121503685E+01  0.11744846860E+03  0.89097071511E+02 0.  0.
          5    1    4    4  502    0 -0.68042427386E+01  0.90065365106E+02 -0.14013634672E+02  0.91523437805E+02  0.47000000000E+01 0. -1.
         -5    1    4    4    0  502  0.18929903097E+02 -0.14695583065E+02  0.87014843031E+01  0.25925030799E+02  0.47000000000E+01 0.  1.
          5    1    3    3  503    0 -0.34575619458E+02 -0.54046752838E+00  0.19696464406E+02  0.40072512726E+02  0.47000000000E+01 0. -1.
         -5    1    3    3    0  503  0.22449959100E+02 -0.74829314513E+02 -0.70443086417E+01  0.78582054302E+02  0.47000000000E+01 0.  1.
<mgrwt>
<rscale>  0 0.11781530E+03</rscale>
<asrwt>0</asrwt>
<pdfrwt beam="1">  1        1 0.17597156E-01 0.11797809E+03</pdfrwt>
<pdfrwt beam="2">  1       -1 0.18726388E-01 0.11797809E+03</pdfrwt>
<totfact> 0.63708264E+03</totfact>
</mgrwt>
</event>
<event>
 8    1  0.3466492E-004  0.9793981E+02  0.7546771E-02  0.1285215E+00
          1   -1    0    0  501    0  0.00000000000E+00  0.00000000000E+00  0.33802204097E+03  0.33802204097E+03  0.00000000000E+00 0. -1.
         -1   -1    0    0    0  501 -0.00000000000E+00 -0.00000000000E+00 -0.99784823555E+02  0.99784823555E+02  0.00000000000E+00 0.  1.
         23    2    1    2    0    0 -0.30928581661E+02 -0.10575113985E+02 -0.66255482691E+02  0.11824548464E+03  0.92324403337E+02 0.  0.
         23    2    1    2    0    0  0.30928581661E+02  0.10575113985E+02  0.30449270010E+03  0.31956137988E+03  0.91297650010E+02 0.  0.
          5    1    4    4  502    0  0.63007255060E+02  0.10924554151E+01  0.19921480770E+03  0.20899697906E+03  0.47000000000E+01 0. -1.
         -5    1    3    3    0  503 -0.51009857172E+01  0.37027126203E+02 -0.78958627639E+01  0.38489774992E+02  0.47000000000E+01 0.  1.
          5    1    3    3  503    0 -0.25827595944E+02 -0.47602240189E+02 -0.58359619927E+02  0.79755709646E+02  0.47000000000E+01 0. -1.
         -5    1    4    4    0  502 -0.32078673400E+02  0.94826585702E+01  0.10527789241E+03  0.11056440083E+03  0.47000000000E+01 0.  1.
<mgrwt>
<rscale>  0 0.97697086E+02</rscale>
<asrwt>0</asrwt>
<pdfrwt beam="1">  1        1 0.52003390E-01 0.97939806E+02</pdfrwt>
<pdfrwt beam="2">  1       -1 0.15351511E-01 0.97939806E+02</pdfrwt>
<totfact> 0.22458655E+03</totfact>
</mgrwt>
</event>
<event>
 8    1  0.3466492E-004  0.1058367E+03  0.7546771E-02  0.1268656E+00
         -1   -1    0    0    0  501 -0.00000000000E+00  0.00000000000E+00  0.36922165841E+02  0.36922165841E+02  0.00000000000E+00 0.  1.
          1   -1    0    0  501    0  0.00000000000E+00 -0.00000000000E+00 -0.37914924877E+03  0.37914924877E+03  0.00000000000E+00 0. -1.
         23    2    1    2    0    0  0.50156495073E+02  0.50142406289E+00 -0.26497974093E+03  0.28533430083E+03  0.93195894234E+02 0.  0.
         23    2    1    2    0    0 -0.50156495073E+02 -0.50142406289E+00 -0.77247341998E+02  0.13073711378E+03  0.92785320228E+02 0.  0.
          5    1    3    3  502    0  0.11108317924E+02  0.44867724270E+02 -0.11071352415E+03  0.12006698896E+03  0.47000000000E+01 0. -1.
         -5    1    3    3    0  502  0.39048177149E+02 -0.44366300207E+02 -0.15426621678E+03  0.16526731187E+03  0.47000000000E+01 0.  1.
          5    1    4    4  503    0 -0.43716431683E+01  0.36241029557E+02 -0.58162199673E+02  0.68829172290E+02  0.47000000000E+01 0. -1.
         -5    1    4    4    0  503 -0.45784851905E+02 -0.36742453620E+02 -0.19085142325E+02  0.61907941490E+02  0.47000000000E+01 0.  1.
<mgrwt>
<rscale>  0 0.10574621E+03</rscale>
<asrwt>0</asrwt>
<pdfrwt beam="1">  1        1 0.58330652E-01 0.10583667E+03</pdfrwt>
<pdfrwt beam="2">  1       -1 0.56803334E-02 0.10583667E+03</pdfrwt>
<totfact> 0.87960629E+03</totfact>
</mgrwt>
</event>
<event>
 8    1  0.3466492E-004  0.1073875E+03  0.7546771E-02  0.1270170E+00
         -1   -1    0    0    0  501 -0.00000000000E+00  0.00000000000E+00  0.16099607134E+02  0.16099607134E+02  0.00000000000E+00 0.  1.
          1   -1    0    0  501    0  0.00000000000E+00 -0.00000000000E+00 -0.66922588039E+03  0.66922588039E+03  0.00000000000E+00 0. -1.
         23    2    1    2    0    0  0.36155827650E+02 -0.99854172872E+01 -0.39027720001E+03  0.40478187326E+03  0.10062365347E+03 0.  0.
         23    2    1    2    0    0 -0.36155827650E+02  0.99854172872E+01 -0.26284907325E+03  0.28054361427E+03  0.90598740438E+02 0.  0.
          5    1    3    3  502    0 -0.23041534670E+02 -0.31759252976E+02 -0.21114391468E+03  0.21481016079E+03  0.47000000000E+01 0. -1.
         -5    1    4    4    0  503 -0.59220717251E+00  0.42976227372E+02 -0.17307194837E+03  0.17839085218E+03  0.47000000000E+01 0.  1.
          5    1    4    4  503    0 -0.35563620478E+02 -0.32990810085E+02 -0.89777124877E+02  0.10215276209E+03  0.47000000000E+01 0. -1.
         -5    1    3    3    0  502  0.59197362321E+02  0.21773835689E+02 -0.17913328533E+03  0.18997171247E+03  0.47000000000E+01 0.  1.
<mgrwt>
<rscale>  0 0.10497464E+03</rscale>
<asrwt>0</asrwt>
<pdfrwt beam="1">  1        1 0.10295780E+00 0.10738749E+03</pdfrwt>
<pdfrwt beam="2">  1       -1 0.24768634E-02 0.10738749E+03</pdfrwt>
<totfact> 0.14077358E+04</totfact>
</mgrwt>
</event>
<event>
 8    1  0.3466492E-004  0.1620294E+03  0.7546771E-02  0.1186472E+00
         -1   -1    0    0    0  501 -0.00000000000E+00  0.00000000000E+00  0.11951997567E+03  0.11951997567E+03  0.00000000000E+00 0.  1.
          1   -1    0    0  501    0  0.00000000000E+00 -0.00000000000E+00 -0.22129602513E+03  0.22129602513E+03  0.00000000000E+00 0. -1.
         23    2    1    2    0    0  0.11520433907E+03 -0.67926778662E+02 -0.66577457937E+02  0.17517442343E+03  0.91473677742E+02 0.  0.
         23    2    1    2    0    0 -0.11520433907E+03  0.67926778662E+02 -0.35198591528E+02  0.16564157737E+03  0.91170742598E+02 0.  0.
          5    1    4    4  502    0 -0.20627891985E+02  0.18220619518E+02 -0.50403051621E+02  0.57619948942E+02  0.47000000000E+01 0. -1.
         -5    1    3    3    0  503  0.24076024960E+01 -0.40587846162E+02  0.70795800284E+00  0.40936060025E+02  0.47000000000E+01 0.  1.
          5    1    3    3  503    0  0.11279673658E+03 -0.27338932499E+02 -0.67285415940E+02  0.13423836341E+03  0.47000000000E+01 0. -1.
         -5    1    4    4    0  502 -0.94576447087E+02  0.49706159143E+02  0.15204460093E+02  0.10802162842E+03  0.47000000000E+01 0.  1.
<mgrwt>
<rscale>  0 0.16198666E+03</rscale>
<asrwt>0</asrwt>
<pdfrwt beam="1">  1        1 0.34045542E-01 0.16202938E+03</pdfrwt>
<pdfrwt beam="2">  1       -1 0.18387689E-01 0.16202938E+03</pdfrwt>
<totfact> 0.29117110E+03</totfact>
</mgrwt>
</event>
<event>
 8    1  0.3466492E-004  0.1237567E+03  0.7546771E-02  0.1238856E+00
          1   -1    0    0  501    0  0.00000000000E+00  0.00000000000E+00  0.11886915601E+03  0.11886915601E+03  0.00000000000E+00 0. -1.
         -1   -1    0    0    0  501 -0.00000000000E+00 -0.00000000000E+00 -0.13318212136E+03  0.13318212136E+03  0.00000000000E+00 0.  1.
         23    2    1    2    0    0  0.57264604496E+02  0.59103858771E+02  0.25746100393E+02  0.12197262760E+03  0.86266790537E+02 0.  0.
         23    2    1    2    0    0 -0.57264604496E+02 -0.59103858771E+02 -0.40059065736E+02  0.13007864976E+03  0.92429569551E+02 0.  0.
          5    1    3    3  502    0  0.72550075655E+02  0.39682553441E+02 -0.41116366673E+01  0.82928970096E+02  0.47000000000E+01 0. -1.
         -5    1    3    3    0  502 -0.15285471159E+02  0.19421305330E+02  0.29857737060E+02  0.39043657508E+02  0.47000000000E+01 0.  1.
          5    1    4    4  503    0 -0.19622301120E+02  0.19363105515E+02  0.98443269107E+01  0.29647349439E+02  0.47000000000E+01 0. -1.
         -5    1    4    4    0  503 -0.37642303376E+02 -0.78466964285E+02 -0.49903392646E+02  0.10043130033E+03  0.47000000000E+01 0.  1.
<mgrwt>
<rscale>  0 0.12260774E+03</rscale>
<asrwt>0</asrwt>
<pdfrwt beam="1">  1        1 0.18287562E-01 0.12375672E+03</pdfrwt>
<pdfrwt beam="2">  1       -1 0.20489557E-01 0.12375672E+03</pdfrwt>
<totfact> 0.52709536E+03</totfact>
</mgrwt>
</event>
<event>
 8    1  0.3466492E-004  0.1294054E+03  0.7546771E-02  0.1230022E+00
         -1   -1    0    0    0  501 -0.00000000000E+00  0.00000000000E+00  0.25801363355E+02  0.25801363355E+02  0.00000000000E+00 0.  1.
          1   -1    0    0  501    0  0.00000000000E+00 -0.00000000000E+00 -0.63849861124E+03  0.63849861124E+03  0.00000000000E+00 0. -1.
         23    2    1    2    0    0 -0.17848894431E+02  0.91566644933E+02 -0.34560915308E+03  0.36751419268E+03  0.83174284649E+02 0.  0.
         23    2    1    2    0    0  0.17848894431E+02 -0.91566644933E+02 -0.26708809480E+03  0.29678578192E+03  0.89681193498E+02 0.  0.
          5    1    4    4  502    0  0.53875519031E+02 -0.45421761409E+02 -0.14171409301E+03  0.15833724173E+03  0.47000000000E+01 0. -1.
         -5    1    4    4    0  502 -0.36026624600E+02 -0.46144883524E+02 -0.12537400180E+03  0.13844854019E+03  0.47000000000E+01 0.  1.
          5    1    3    3  503    0 -0.33176831648E+02  0.41148288961E+02 -0.27041677902E+03  0.27557432431E+03  0.47000000000E+01 0. -1.
         -5    1    3    3    0  503  0.15327937218E+02  0.50418355972E+02 -0.75192374067E+02  0.91939868371E+02  0.47000000000E+01 0.  1.
<mgrwt>
<rscale>  0 0.12828557E+03</rscale>
<asrwt>0</asrwt>
<pdfrwt beam="1">  1        1 0.98230543E-01 0.12940537E+03</pdfrwt>
<pdfrwt beam="2">  1       -1 0.39694410E-02 0.12940537E+03</pdfrwt>
<totfact> 0.76749152E+03</totfact>
</mgrwt>
</event>
<event>
 8    1  0.3466492E-004  0.9378374E+02  0.7546771E-02  0.1294157E+00
          1   -1    0    0  501    0  0.00000000000E+00  0.00000000000E+00  0.19604228717E+03  0.19604228717E+03  0.00000000000E+00 0. -1.
         -1   -1    0    0    0  501 -0.00000000000E+00 -0.00000000000E+00 -0.44693254437E+02  0.44693254437E+02  0.00000000000E+00 0.  1.
         23    2    1    2    0    0  0.20177198050E+02 -0.39934521812E+01  0.74058855238E+02  0.11949939033E+03  0.91500400377E+02 0.  0.
         23    2    1    2    0    0 -0.20177198050E+02  0.39934521812E+01  0.77290177496E+02  0.12123615128E+03  0.91111831599E+02 0.  0.
          5    1    3    3  502    0 -0.26321157004E+02 -0.17012269208E+02  0.61812493802E+02  0.69462903766E+02  0.47000000000E+01 0. -1.
         -5    1    4    4    0  503  0.18561180418E+02  0.33037019062E+02  0.56823705291E+02  0.68461562428E+02  0.47000000000E+01 0.  1.
          5    1    4    4  503    0 -0.38738378469E+02 -0.29043566881E+02  0.20466472206E+02  0.52774588848E+02  0.47000000000E+01 0. -1.
         -5    1    3    3    0  502  0.46498355054E+02  0.13018817027E+02  0.12246361436E+02  0.50036486567E+02  0.47000000000E+01 0.  1.
<mgrwt>
<rscale>  0 0.93688831E+02</rscale>
<asrwt>0</asrwt>
<pdfrwt beam="1">  1        1 0.30160351E-01 0.93783742E+02</pdfrwt>
<pdfrwt beam="2">  1       -1 0.68758854E-02 0.93783742E+02</pdfrwt>
<totfact> 0.14744806E+04</totfact>
</mgrwt>
</event>
<event>
 8    1  0.3466492E-004  0.1043593E+03  0.7546771E-02  0.1271674E+00
          2   -1    0    0  501    0  0.00000000000E+00  0.00000000000E+00  0.44364711901E+03  0.44364711901E+03  0.00000000000E+00 0. -1.
         -2   -1    0    0    0  501 -0.00000000000E+00 -0.00000000000E+00 -0.30927814422E+02  0.30927814422E+02  0.00000000000E+00 0.  1.
         23    2    1    2    0    0 -0.46107302791E+02 -0.12052437273E+02  0.31571201029E+03  0.33251305792E+03  0.92842423681E+02 0.  0.
         23    2    1    2    0    0  0.46107302791E+02  0.12052437273E+02  0.97007294304E+02  0.14206187551E+03  0.92195535201E+02 0.  0.
          5    1    4    4  502    0 -0.11410325827E+02  0.18504518509E+02  0.77772112656E+02  0.80890075088E+02  0.47000000000E+01 0. -1.
         -5    1    3    3    0  503 -0.68314669827E+02 -0.28912213860E+01  0.28559165739E+03  0.29370042227E+03  0.47000000000E+01 0. -1.
          5    1    3    3  503    0  0.22207367036E+02 -0.91612158874E+01  0.30120352899E+02  0.38812635649E+02  0.47000000000E+01 0.  1.
         -5    1    4    4    0  502  0.57517628618E+02 -0.64520812358E+01  0.19235181648E+02  0.61171800424E+02  0.47000000000E+01 0.  1.
<mgrwt>
<rscale>  0 0.10421522E+03</rscale>
<asrwt>0</asrwt>
<pdfrwt beam="1">  1        2 0.68253398E-01 0.10435928E+03</pdfrwt>
<pdfrwt beam="2">  1       -2 0.47581256E-02 0.10435928E+03</pdfrwt>
<totfact> 0.13898291E+04</totfact>
</mgrwt>
</event>
<event>
 8    1  0.3466492E-004  0.9189031E+02  0.7546771E-02  0.1298917E+00
         -1   -1    0    0    0  501 -0.00000000000E+00  0.00000000000E+00  0.19452881368E+02  0.19452881368E+02  0.00000000000E+00 0.  1.
          1   -1    0    0  501    0  0.00000000000E+00 -0.00000000000E+00 -0.42951528670E+03  0.42951528670E+03  0.00000000000E+00 0. -1.
         23    2    1    2    0    0  0.49872518719E+01 -0.18198373071E+01 -0.20135286493E+03  0.22092540676E+03  0.90757229180E+02 0.  0.
         23    2    1    2    0    0 -0.49872518719E+01  0.18198373071E+01 -0.20870954040E+03  0.22804276131E+03  0.91736820525E+02 0.  0.
          5    1    4    4  502    0 -0.27016076033E+02  0.37302926141E+02 -0.14042826455E+03  0.14786332928E+03  0.47000000000E+01 0. -1.
         -5    1    4    4    0  502  0.22028824162E+02 -0.35483088834E+02 -0.68281275856E+02  0.80179432024E+02  0.47000000000E+01 0.  1.
          5    1    3    3  503    0 -0.68049984111E+01  0.20672658275E+02 -0.49210530840E+01  0.22802928913E+02  0.47000000000E+01 0. -1.
         -5    1    3    3    0  503  0.11792250283E+02 -0.22492495582E+02 -0.19643181184E+03  0.19812247785E+03  0.47000000000E+01 0.  1.
<mgrwt>
<rscale>  0 0.91644842E+02</rscale>
<asrwt>0</asrwt>
<pdfrwt beam="1">  1        1 0.66079272E-01 0.91890308E+02</pdfrwt>
<pdfrwt beam="2">  1       -1 0.29927511E-02 0.91890308E+02</pdfrwt>
<totfact> 0.18919510E+04</totfact>
</mgrwt>
</event>
<event>
 8    1  0.3466492E-004  0.1072361E+03  0.7546771E-02  0.1269911E+00
          1   -1    0    0  501    0  0.00000000000E+00  0.00000000000E+00  0.23331769801E+02  0.23331769801E+02  0.00000000000E+00 0. -1.
         -1   -1    0    0    0  501 -0.00000000000E+00 -0.00000000000E+00 -0.55084452392E+03  0.55084452392E+03  0.00000000000E+00 0.  1.
         23    2    1    2    0    0 -0.28305672074E+02 -0.23642830487E+02 -0.13570994263E+03  0.16796327628E+03  0.91838331567E+02 0.  0.
         23    2    1    2    0    0  0.28305672074E+02  0.23642830487E+02 -0.39180281149E+03  0.40621301744E+03  0.10069447822E+03 0.  0.
          5    1    3    3  502    0  0.81570194162E+01  0.30447124996E+02 -0.30691751217E+02  0.44245202893E+02  0.47000000000E+01 0. -1.
         -5    1    3    3    0  502 -0.36462691490E+02 -0.54089955483E+02 -0.10501819141E+03  0.12371807339E+03  0.47000000000E+01 0.  1.
          5    1    4    4  503    0 -0.24342423754E+02 -0.21413436535E+01 -0.27072290422E+02  0.36771427163E+02  0.47000000000E+01 0. -1.
         -5    1    4    4    0  503  0.52648095828E+02  0.25784174140E+02 -0.36473052107E+03  0.36944159028E+03  0.47000000000E+01 0.  1.
<mgrwt>
<rscale>  0 0.10510618E+03</rscale>
<asrwt>0</asrwt>
<pdfrwt beam="1">  1        1 0.35895030E-02 0.10723606E+03</pdfrwt>
<pdfrwt beam="2">  1       -1 0.84745314E-01 0.10723606E+03</pdfrwt>
<totfact> 0.36158945E+03</totfact>
</mgrwt>
</event>
<event>
 8    1  0.3466492E-004  0.9414230E+02  0.7546771E-02  0.1294651E+00
          1   -1    0    0  501    0  0.00000000000E+00  0.00000000000E+00  0.77070684179E+03  0.77070684179E+03  0.00000000000E+00 0. -1.
         -1   -1    0    0    0  501 -0.00000000000E+00 -0.00000000000E+00 -0.13047099136E+02  0.13047099136E+02  0.00000000000E+00 0.  1.
         23    2    1    2    0    0  0.14082902205E+02  0.10265747066E+02  0.22592094844E+03  0.24374568441E+03  0.89821879437E+02 0.  0.
         23    2    1    2    0    0 -0.14082902205E+02 -0.10265747066E+02  0.53173879421E+03  0.54000825652E+03  0.92515177886E+02 0.  0.
          5    1    4    4  502    0 -0.31785292557E+02 -0.44296855068E+02  0.34490749819E+03  0.34922168962E+03  0.47000000000E+01 0. -1.
         -5    1    4    4    0  502  0.17702390352E+02  0.34031108001E+02  0.18683129602E+03  0.19078656690E+03  0.47000000000E+01 0.  1.
          5    1    3    3  503    0  0.34729137897E+02  0.95144835886E+01  0.21819034059E+03  0.22119166608E+03  0.47000000000E+01 0. -1.
         -5    1    3    3    0  503 -0.20646235692E+02  0.75126347782E+00  0.77306078561E+01  0.22554018331E+02  0.47000000000E+01 0.  1.
<mgrwt>
<rscale>  0 0.93473863E+02</rscale>
<asrwt>0</asrwt>
<pdfrwt beam="1">  1        1 0.11857025E+00 0.94142296E+02</pdfrwt>
<pdfrwt beam="2">  1       -1 0.20072466E-02 0.94142296E+02</pdfrwt>
<totfact> 0.15390846E+04</totfact>
</mgrwt>
</event>
<event>
 8    1  0.3466492E-004  0.1324811E+03  0.7546771E-02  0.1226854E+00
         -2   -1    0    0    0  501 -0.00000000000E+00  0.00000000000E+00  0.77425431855E+02  0.77425431855E+02  0.00000000000E+00 0. -1.
          2   -1    0    0  501    0  0.00000000000E+00 -0.00000000000E+00 -0.21860739500E+03  0.21860739500E+03  0.00000000000E+00 0.  1.
         23    2    1    2    0    0  0.59584911818E+02 -0.58900480823E+02 -0.49123286129E+02  0.14129521417E+03  0.10262364225E+03 0.  0.
         23    2    1    2    0    0 -0.59584911818E+02  0.58900480823E+02 -0.92058677020E+02  0.15473761269E+03  0.91920076205E+02 0.  0.
          5    1    4    4  502    0 -0.65562676543E+02  0.12785104027E+01 -0.55819450855E+02  0.86243841740E+02  0.47000000000E+01 0. -1.
         -5    1    3    3    0  503  0.51341016233E+02  0.50738142166E+00 -0.61107355727E+02  0.79952212650E+02  0.47000000000E+01 0.  1.
          5    1    3    3  503    0  0.82438955848E+01 -0.59407862245E+02  0.11984069598E+02  0.61343001517E+02  0.47000000000E+01 0. -1.
         -5    1    4    4    0  502  0.59777647246E+01  0.57621970421E+02 -0.36239226164E+02  0.68493770952E+02  0.47000000000E+01 0.  1.
<mgrwt>
<rscale>  0 0.13040612E+03</rscale>
<asrwt>0</asrwt>
<pdfrwt beam="1">  1        2 0.33631907E-01 0.13248109E+03</pdfrwt>
<pdfrwt beam="2">  1       -2 0.11911605E-01 0.13248109E+03</pdfrwt>
<totfact> 0.73290235E+03</totfact>
</mgrwt>
</event>
<event>
 8    1  0.3466492E-004  0.1058934E+03  0.7546771E-02  0.1272727E+00
          1   -1    0    0  501    0  0.00000000000E+00  0.00000000000E+00  0.72822415601E+03  0.72822415601E+03  0.00000000000E+00 0. -1.
         -1   -1    0    0    0  501 -0.00000000000E+00 -0.00000000000E+00 -0.89857213651E+02  0.89857213651E+02  0.00000000000E+00 0.  1.
         23    2    1    2    0    0  0.93981789497E+01  0.31382618176E+02 -0.58265195756E+02  0.11344689551E+03  0.91663354576E+02 0.  0.
         23    2    1    2    0    0 -0.93981789497E+01 -0.31382618176E+02  0.69663213812E+03  0.70463447416E+03  0.10069861878E+03 0.  0.
          5    1    3    3  502    0 -0.25000229149E+02 -0.21708487310E+02 -0.14933227757E+02  0.36624597882E+02  0.47000000000E+01 0. -1.
         -5    1    3    3    0  502  0.34398408099E+02  0.53091105485E+02 -0.43331967999E+02  0.76822297623E+02  0.47000000000E+01 0.  1.
          5    1    4    4  503    0 -0.48672542315E+02 -0.31407007946E+02  0.53864135231E+03  0.54176748974E+03  0.47000000000E+01 0. -1.
         -5    1    4    4    0  503  0.39274363366E+02  0.24389769911E-01  0.15799078580E+03  0.16286698441E+03  0.47000000000E+01 0.  1.
<mgrwt>
<rscale>  0 0.10368742E+03</rscale>
<asrwt>0</asrwt>
<pdfrwt beam="1">  1        1 0.11203448E+00 0.10589337E+03</pdfrwt>
<pdfrwt beam="2">  1       -1 0.13824187E-01 0.10589337E+03</pdfrwt>
<totfact> 0.97396318E+02</totfact>
</mgrwt>
</event>
<event>
 8    1  0.3466492E-004  0.1100407E+03  0.7546771E-02  0.1260675E+00
         -1   -1    0    0    0  501 -0.00000000000E+00  0.00000000000E+00  0.32810697410E+02  0.32810697410E+02  0.00000000000E+00 0.  1.
          1   -1    0    0  501    0  0.00000000000E+00 -0.00000000000E+00 -0.45046809325E+03  0.45046809325E+03  0.00000000000E+00 0. -1.
         23    2    1    2    0    0 -0.60181505826E+02  0.26611068161E+01 -0.31207304429E+03  0.33077631417E+03  0.91621448953E+02 0.  0.
         23    2    1    2    0    0  0.60181505826E+02 -0.26611068161E+01 -0.10558435154E+03  0.15250247649E+03  0.92087213612E+02 0.  0.
          5    1    4    4  502    0  0.83078714207E+02 -0.85053341722E+01 -0.93809583613E+02  0.12568508838E+03  0.47000000000E+01 0. -1.
         -5    1    3    3    0  503 -0.77746498926E+02 -0.18039292624E+02 -0.20051783612E+03  0.21586900374E+03  0.47000000000E+01 0.  1.
          5    1    3    3  503    0  0.17564993100E+02  0.20700399440E+02 -0.11155520817E+03  0.11490731043E+03  0.47000000000E+01 0. -1.
         -5    1    4    4    0  502 -0.22897208381E+02  0.58442273562E+01 -0.11774767932E+02  0.26817388107E+02  0.47000000000E+01 0.  1.
<mgrwt>
<rscale>  0 0.10994318E+03</rscale>
<asrwt>0</asrwt>
<pdfrwt beam="1">  1        1 0.69302783E-01 0.11004067E+03</pdfrwt>
<pdfrwt beam="2">  1       -1 0.50477996E-02 0.11004067E+03</pdfrwt>
<totfact> 0.84555988E+03</totfact>
</mgrwt>
</event>
<event>
 8    1  0.3466492E-004  0.1042054E+03  0.7546771E-02  0.1273418E+00
          1   -1    0    0  501    0  0.00000000000E+00  0.00000000000E+00  0.32816640969E+03  0.32816640969E+03  0.00000000000E+00 0. -1.
         -1   -1    0    0    0  501 -0.00000000000E+00 -0.00000000000E+00 -0.49488730155E+02  0.49488730155E+02  0.00000000000E+00 0.  1.
         23    2    1    2    0    0  0.24062258941E+02 -0.43856007951E+02  0.25302184264E+03  0.27363993316E+03  0.91413447755E+02 0.  0.
         23    2    1    2    0    0 -0.24062258941E+02  0.43856007951E+02  0.25655836895E+02  0.10401520668E+03  0.87513424771E+02 0.  0.
          5    1    4    4  502    0  0.22951722559E+02  0.47504353917E+02  0.18409827138E+02  0.56075457597E+02  0.47000000000E+01 0. -1.
         -5    1    3    3    0  503 -0.21275820052E+02 -0.27369246689E+02  0.32151857036E+02  0.47513872648E+02  0.47000000000E+01 0.  1.
          5    1    3    3  503    0  0.45338078993E+02 -0.16486761262E+02  0.22086998560E+03  0.22612606051E+03  0.47000000000E+01 0. -1.
         -5    1    4    4    0  502 -0.47013981499E+02 -0.36483459655E+01  0.72460097564E+01  0.47939749083E+02  0.47000000000E+01 0.  1.
<mgrwt>
<rscale>  0 0.10334378E+03</rscale>
<asrwt>0</asrwt>
<pdfrwt beam="1">  1        1 0.50487139E-01 0.10420537E+03</pdfrwt>
<pdfrwt beam="2">  1       -1 0.76136510E-02 0.10420537E+03</pdfrwt>
<totfact> 0.67987604E+03</totfact>
</mgrwt>
</event>
<event>
 8    1  0.3466492E-004  0.1095952E+03  0.7546771E-02  0.1262222E+00
          4   -1    0    0  501    0  0.00000000000E+00  0.00000000000E+00  0.25651187821E+03  0.25651187821E+03  0.00000000000E+00 0. -1.
         -4   -1    0    0    0  501 -0.00000000000E+00 -0.00000000000E+00 -0.96299813323E+02  0.96299813323E+02  0.00000000000E+00 0.  1.
         23    2    1    2    0    0 -0.54470287903E+02 -0.25819377032E+02 -0.47709736201E+02  0.11777429251E+03  0.89223946074E+02 0.  0.
         23    2    1    2    0    0  0.54470287903E+02  0.25819377032E+02  0.20792180109E+03  0.23503739903E+03  0.91528416776E+02 0.  0.
          5    1    4    4  502    0  0.54474563333E+02 -0.29844460587E+01  0.19601038543E+03  0.20351546910E+03  0.47000000000E+01 0. -1.
         -5    1    3    3    0  503 -0.27448368213E+02 -0.58622664552E+02 -0.29820095561E+02  0.71423790267E+02  0.47000000000E+01 0.  1.
          5    1    3    3  503    0 -0.27021919690E+02  0.32803287521E+02 -0.17889640640E+02  0.46350502242E+02  0.47000000000E+01 0. -1.
         -5    1    4    4    0  502 -0.42754298387E-02  0.28803823090E+02  0.11911415660E+02  0.31521929921E+02  0.47000000000E+01 0.  1.
<mgrwt>
<rscale>  0 0.10911272E+03</rscale>
<asrwt>0</asrwt>
<pdfrwt beam="1">  1        4 0.39463366E-01 0.10959518E+03</pdfrwt>
<pdfrwt beam="2">  1       -4 0.14815356E-01 0.10959518E+03</pdfrwt>
<totfact> 0.38329371E+02</totfact>
</mgrwt>
</event>
<event>
 8    1  0.3466492E-004  0.1043604E+03  0.7546771E-02  0.1271444E+00
          1   -1    0    0  501    0  0.00000000000E+00  0.00000000000E+00  0.80741623176E+03  0.80741623176E+03  0.00000000000E+00 0. -1.
         -1   -1    0    0    0  501 -0.00000000000E+00 -0.00000000000E+00 -0.15375517890E+02  0.15375517890E+02  0.00000000000E+00 0.  1.
         23    2    1    2    0    0  0.11653423970E+02 -0.52243614222E+02  0.25112403580E+03  0.27189980110E+03  0.89448437449E+02 0.  0.
         23    2    1    2    0    0 -0.11653423970E+02  0.52243614222E+02  0.54091667807E+03  0.55089194855E+03  0.89587325283E+02 0.  0.
          5    1    4    4  502    0  0.28821885484E+02  0.52229240681E+02  0.24597806718E+03  0.25315191921E+03  0.47000000000E+01 0.  1.
         -5    1    4    4    0  502 -0.40475309454E+02  0.14373540365E-01  0.29493861089E+03  0.29774002934E+03  0.47000000000E+01 0. -1.
          5    1    3    3  503    0 -0.31070029361E+02 -0.11132866852E+02  0.37617701805E+02  0.50263992459E+02  0.47000000000E+01 0. -1.
         -5    1    3    3    0  503  0.42723453331E+02 -0.41110747370E+02  0.21350633400E+03  0.22163580864E+03  0.47000000000E+01 0.  1.
<mgrwt>
<rscale>  0 0.10433055E+03</rscale>
<asrwt>0</asrwt>
<pdfrwt beam="1">  1        1 0.12421785E+00 0.10436037E+03</pdfrwt>
<pdfrwt beam="2">  1       -1 0.23654649E-02 0.10436037E+03</pdfrwt>
<totfact> 0.11447439E+04</totfact>
</mgrwt>
</event>
<event>
 8    1  0.3466492E-004  0.1155042E+03  0.7546771E-02  0.1250996E+00
          2   -1    0    0  501    0  0.00000000000E+00  0.00000000000E+00  0.97052856736E+03  0.97052856736E+03  0.00000000000E+00 0. -1.
         -2   -1    0    0    0  501 -0.00000000000E+00 -0.00000000000E+00 -0.13907334311E+02  0.13907334311E+02  0.00000000000E+00 0.  1.
         23    2    1    2    0    0 -0.14123845623E+02 -0.66965452537E+02  0.41489348190E+03  0.43067135881E+03  0.93044952180E+02 0.  0.
         23    2    1    2    0    0  0.14123845623E+02  0.66965452537E+02  0.54172775114E+03  0.55376454286E+03  0.92208230204E+02 0.  0.
          5    1    4    4  502    0 -0.29408190755E+02  0.39884583174E+01  0.26179417353E+03  0.26351286264E+03  0.47000000000E+01 0. -1.
         -5    1    3    3    0  503  0.27320898685E+02 -0.65142444054E+02  0.21141160341E+03  0.22295050029E+03  0.47000000000E+01 0.  1.
          5    1    3    3  503    0 -0.41444744308E+02 -0.18230084831E+01  0.20348187850E+03  0.20772085853E+03  0.47000000000E+01 0. -1.
         -5    1    4    4    0  502  0.43532036378E+02  0.62976994219E+02  0.27993357762E+03  0.29025168022E+03  0.47000000000E+01 0.  1.
<mgrwt>
<rscale>  0 0.11533558E+03</rscale>
<asrwt>0</asrwt>
<pdfrwt beam="1">  1        2 0.14931203E+00 0.11550419E+03</pdfrwt>
<pdfrwt beam="2">  1       -2 0.21395907E-02 0.11550419E+03</pdfrwt>
<totfact> 0.18074160E+04</totfact>
</mgrwt>
</event>
<event>
 8    1  0.3466492E-004  0.1128016E+03  0.7546771E-02  0.1257105E+00
          2   -1    0    0  501    0  0.00000000000E+00  0.00000000000E+00  0.16740340613E+03  0.16740340613E+03  0.00000000000E+00 0. -1.
         -2   -1    0    0    0  501 -0.00000000000E+00 -0.00000000000E+00 -0.75038067933E+02  0.75038067933E+02  0.00000000000E+00 0.  1.
         23    2    1    2    0    0  0.51100341560E+02  0.40951821835E+02  0.30177106080E+02  0.11676841792E+03  0.91847205033E+02 0.  0.
         23    2    1    2    0    0 -0.51100341560E+02 -0.40951821835E+02  0.62188232120E+02  0.12567305615E+03  0.87395904985E+02 0.  0.
          5    1    4    4  502    0 -0.29722711133E+02 -0.67711846989E+02  0.48104304558E+02  0.88342786332E+02  0.47000000000E+01 0. -1.
         -5    1    4    4    0  502 -0.21377630427E+02  0.26760025154E+02  0.14083927561E+02  0.37330269816E+02  0.47000000000E+01 0.  1.
          5    1    3    3  503    0  0.76632220983E+02  0.38486334478E+02  0.29064037353E+02  0.90666992349E+02  0.47000000000E+01 0. -1.
         -5    1    3    3    0  503 -0.25531879422E+02  0.24654873570E+01  0.11130687269E+01  0.26101425569E+02  0.47000000000E+01 0.  1.
<mgrwt>
<rscale>  0 0.11189222E+03</rscale>
<asrwt>0</asrwt>
<pdfrwt beam="1">  1        2 0.25754370E-01 0.11280162E+03</pdfrwt>
<pdfrwt beam="2">  1       -2 0.11544318E-01 0.11280162E+03</pdfrwt>
<totfact> 0.10154432E+04</totfact>
</mgrwt>
</event>
<event>
 8    1  0.3466492E-004  0.9988111E+02  0.7546771E-02  0.1282484E+00
         -3   -1    0    0    0  501 -0.00000000000E+00  0.00000000000E+00  0.42770736729E+02  0.42770736729E+02  0.00000000000E+00 0.  1.
          3   -1    0    0  501    0  0.00000000000E+00 -0.00000000000E+00 -0.22839025918E+03  0.22839025918E+03  0.00000000000E+00 0. -1.
         23    2    1    2    0    0 -0.80490796727E+01 -0.34776717116E+02 -0.11124612102E+03  0.14950563666E+03  0.93284662270E+02 0.  0.
         23    2    1    2    0    0  0.80490796727E+01  0.34776717116E+02 -0.74373401429E+02  0.12165535924E+03  0.89411497334E+02 0.  0.
          5    1    4    4  502    0  0.25409551631E+02 -0.23404157911E+02 -0.21150365813E+02  0.40777786792E+02  0.47000000000E+01 0.  1.
         -5    1    3    3    0  503 -0.11764559233E+02  0.28393889220E+02 -0.61367426744E+02  0.68794395587E+02  0.47000000000E+01 0.  1.
          5    1    3    3  503    0  0.37154795603E+01 -0.63170606336E+02 -0.49878694274E+02  0.80711241074E+02  0.47000000000E+01 0. -1.
         -5    1    4    4    0  502 -0.17360471958E+02  0.58180875027E+02 -0.53223035615E+02  0.80877572451E+02  0.47000000000E+01 0. -1.
<mgrwt>
<rscale>  0 0.98966776E+02</rscale>
<asrwt>0</asrwt>
<pdfrwt beam="1">  1        3 0.35136963E-01 0.99881109E+02</pdfrwt>
<pdfrwt beam="2">  1       -3 0.65801134E-02 0.99881109E+02</pdfrwt>
<totfact> 0.25227381E+03</totfact>
</mgrwt>
</event>
<event>
 8    1  0.3466492E-004  0.1286096E+03  0.7546771E-02  0.1230355E+00
          1   -1    0    0  501    0  0.00000000000E+00  0.00000000000E+00  0.60797935635E+03  0.60797935635E+03  0.00000000000E+00 0. -1.
         -1   -1    0    0    0  501 -0.00000000000E+00 -0.00000000000E+00 -0.77562359229E+02  0.77562359229E+02  0.00000000000E+00 0.  1.
         23    2    1    2    0    0  0.49928833400E+02  0.71753446456E+02 -0.13001229885E+02  0.12711196265E+03  0.91361773117E+02 0.  0.
         23    2    1    2    0    0 -0.49928833400E+02 -0.71753446456E+02  0.54341822700E+03  0.55842975293E+03  0.94334373541E+02 0.  0.
          5    1    3    3  502    0  0.10071684155E+02  0.76608808907E+02  0.13769018883E+02  0.78625850106E+02  0.47000000000E+01 0. -1.
         -5    1    3    3    0  502  0.39857149245E+02 -0.48553624513E+01 -0.26770248768E+02  0.48486112543E+02  0.47000000000E+01 0.  1.
          5    1    4    4  503    0 -0.72602603233E+02 -0.65005617859E+02  0.49272069014E+03  0.50228740462E+03  0.47000000000E+01 0. -1.
         -5    1    4    4    0  503  0.22673769832E+02 -0.67478285970E+01  0.50697536860E+02  0.56142348302E+02  0.47000000000E+01 0.  1.
<mgrwt>
<rscale>  0 0.12806505E+03</rscale>
<asrwt>0</asrwt>
<pdfrwt beam="1">  1        1 0.93535282E-01 0.12860956E+03</pdfrwt>
<pdfrwt beam="2">  1       -1 0.11932671E-01 0.12860956E+03</pdfrwt>
<totfact> 0.15772294E+03</totfact>
</mgrwt>
</event>
<event>
 8    1  0.3466492E-004  0.1203177E+03  0.7546771E-02  0.1242725E+00
         -2   -1    0    0    0  501 -0.00000000000E+00  0.00000000000E+00  0.72736517050E+02  0.72736517050E+02  0.00000000000E+00 0.  1.
          2   -1    0    0  501    0  0.00000000000E+00 -0.00000000000E+00 -0.22901536182E+03  0.22901536182E+03  0.00000000000E+00 0. -1.
         23    2    1    2    0    0  0.36463437790E+02 -0.68628384949E+02 -0.23095832104E+02  0.12251432516E+03  0.91852625944E+02 0.  0.
         23    2    1    2    0    0 -0.36463437790E+02  0.68628384949E+02 -0.13318301266E+03  0.17923755371E+03  0.91372579479E+02 0.  0.
          5    1    3    3  502    0  0.37432080076E+02 -0.19209531970E+01  0.20206733904E+02  0.42839850316E+02  0.47000000000E+01 0. -1.
         -5    1    4    4    0  503  0.29375218055E+02  0.33270952634E+02 -0.42434042493E+02  0.61584070077E+02  0.47000000000E+01 0.  1.
          5    1    4    4  503    0 -0.65838655845E+02  0.35357432315E+02 -0.90748970168E+02  0.11765348363E+03  0.47000000000E+01 0. -1.
         -5    1    3    3    0  502 -0.96864228580E+00 -0.66707431752E+02 -0.43302566009E+02  0.79674474845E+02  0.47000000000E+01 0.  1.
<mgrwt>
<rscale>  0 0.12022605E+03</rscale>
<asrwt>0</asrwt>
<pdfrwt beam="1">  1        2 0.35233133E-01 0.12031767E+03</pdfrwt>
<pdfrwt beam="2">  1       -2 0.11190233E-01 0.12031767E+03</pdfrwt>
<totfact> 0.76469348E+03</totfact>
</mgrwt>
</event>
<event>
 8    1  0.3466492E-004  0.1348146E+03  0.7546771E-02  0.1220689E+00
          2   -1    0    0  501    0  0.00000000000E+00  0.00000000000E+00  0.37584432471E+02  0.37584432471E+02  0.00000000000E+00 0. -1.
         -2   -1    0    0    0  501 -0.00000000000E+00 -0.00000000000E+00 -0.49504434017E+03  0.49504434017E+03  0.00000000000E+00 0.  1.
         23    2    1    2    0    0 -0.81122554136E+02 -0.59759340165E+02 -0.18513364526E+03  0.22901843579E+03  0.89570808847E+02 0.  0.
         23    2    1    2    0    0  0.81122554136E+02  0.59759340165E+02 -0.27232626244E+03  0.30361033685E+03  0.88688194827E+02 0.  0.
          5    1    3    3  502    0 -0.20933095938E+02 -0.65817217585E+02 -0.67653295672E+02  0.96794416427E+02  0.47000000000E+01 0. -1.
         -5    1    4    4    0  503  0.12271639059E+02  0.28754483960E+02 -0.18666179838E+03  0.18932017972E+03  0.47000000000E+01 0.  1.
          5    1    4    4  503    0  0.68850915077E+02  0.31004856205E+02 -0.85664464056E+02  0.11429015713E+03  0.47000000000E+01 0. -1.
         -5    1    3    3    0  502 -0.60189458199E+02  0.60578774195E+01 -0.11748034958E+03  0.13222401936E+03  0.47000000000E+01 0.  1.
<mgrwt>
<rscale>  0 0.13466817E+03</rscale>
<asrwt>0</asrwt>
<pdfrwt beam="1">  1        2 0.57822202E-02 0.13481460E+03</pdfrwt>
<pdfrwt beam="2">  1       -2 0.76160670E-01 0.13481460E+03</pdfrwt>
<totfact> 0.19807714E+03</totfact>
</mgrwt>
</event>
<event>
 8    1  0.3466492E-004  0.1281523E+03  0.7546771E-02  0.1234727E+00
         -2   -1    0    0    0  501 -0.00000000000E+00  0.00000000000E+00  0.14814540491E+03  0.14814540491E+03  0.00000000000E+00 0.  1.
          2   -1    0    0  501    0  0.00000000000E+00 -0.00000000000E+00 -0.10126820271E+03  0.10126820271E+03  0.00000000000E+00 0. -1.
         23    2    1    2    0    0  0.13828939606E+02 -0.72209059586E+02  0.22050088928E+02  0.11887854963E+03  0.90777283957E+02 0.  0.
         23    2    1    2    0    0 -0.13828939606E+02  0.72209059586E+02  0.24827113268E+02  0.13053505799E+03  0.10496488915E+03 0.  0.
          5    1    4    4  502    0  0.25858608506E+02  0.78461658620E+02 -0.61377197995E+00  0.82748814030E+02  0.47000000000E+01 0. -1.
         -5    1    4    4    0  502 -0.39687548113E+02 -0.62525990336E+01  0.25440885248E+02  0.47786243963E+02  0.47000000000E+01 0.  1.
          5    1    3    3  503    0  0.38853171585E+02 -0.35215003415E+02 -0.20987448149E+02  0.56676524131E+02  0.47000000000E+01 0. -1.
         -5    1    3    3    0  503 -0.25024231979E+02 -0.36994056171E+02  0.43037537077E+02  0.62202025496E+02  0.47000000000E+01 0.  1.
<mgrwt>
<rscale>  0 0.12521897E+03</rscale>
<asrwt>0</asrwt>
<pdfrwt beam="1">  1        2 0.15579724E-01 0.12815231E+03</pdfrwt>
<pdfrwt beam="2">  1       -2 0.22791601E-01 0.12815231E+03</pdfrwt>
<totfact> 0.58969556E+03</totfact>
</mgrwt>
</event>
<event>
 8    1  0.3466492E-004  0.1115059E+03  0.7546771E-02  0.1257924E+00
          4   -1    0    0  501    0  0.00000000000E+00  0.00000000000E+00  0.87017355355E+02  0.87017355355E+02  0.00000000000E+00 0. -1.
         -4   -1    0    0    0  501 -0.00000000000E+00 -0.00000000000E+00 -0.31003346028E+03  0.31003346028E+03  0.00000000000E+00 0.  1.
         23    2    1    2    0    0  0.61081481499E+02 -0.18262511367E+02 -0.25748000410E+03  0.28058779465E+03  0.91482737674E+02 0.  0.
         23    2    1    2    0    0 -0.61081481499E+02  0.18262511367E+02  0.34463899169E+02  0.11646302099E+03  0.91166924970E+02 0.  0.
          5    1    4    4  502    0 -0.83803870005E+02  0.40897242968E+01  0.25032250134E+02  0.87684194810E+02  0.47000000000E+01 0. -1.
         -5    1    4    4    0  502  0.22722388506E+02  0.14172787070E+02  0.94316490348E+01  0.28778826180E+02  0.47000000000E+01 0.  1.
          5    1    3    3  503    0  0.30532077087E+02 -0.39870609340E+01 -0.13005638594E+02  0.33754125991E+02  0.47000000000E+01 0. -1.
         -5    1    3    3    0  503  0.30549404412E+02 -0.14275450433E+02 -0.24447436550E+03  0.24683366866E+03  0.47000000000E+01 0.  1.
<mgrwt>
<rscale>  0 0.11144107E+03</rscale>
<asrwt>0</asrwt>
<pdfrwt beam="1">  1        4 0.13387285E-01 0.11150587E+03</pdfrwt>
<pdfrwt beam="2">  1       -4 0.47697456E-01 0.11150587E+03</pdfrwt>
<totfact> 0.31467045E+02</totfact>
</mgrwt>
</event>
<event>
 8    1  0.3466492E-004  0.9368071E+02  0.7546771E-02  0.1295114E+00
         -1   -1    0    0    0  501 -0.00000000000E+00  0.00000000000E+00  0.37762191866E+02  0.37762191866E+02  0.00000000000E+00 0.  1.
          1   -1    0    0  501    0  0.00000000000E+00 -0.00000000000E+00 -0.37226807200E+03  0.37226807200E+03  0.00000000000E+00 0. -1.
         23    2    1    2    0    0 -0.36225109736E+01  0.70550574883E+01 -0.40701903674E+02  0.10214069087E+03  0.93344412506E+02 0.  0.
         23    2    1    2    0    0  0.36225109736E+01 -0.70550574883E+01 -0.29380397646E+03  0.30788957300E+03  0.91718679429E+02 0.  0.
          5    1    4    4  502    0  0.41832513205E+02  0.17243341858E+02 -0.12371108070E+03  0.13180976249E+03  0.47000000000E+01 0. -1.
         -5    1    3    3    0  503  0.70308229582E+01 -0.27265690938E+02  0.17567744124E+02  0.33519636147E+02  0.47000000000E+01 0.  1.
          5    1    3    3  503    0 -0.10653333932E+02  0.34320748426E+02 -0.58269647798E+02  0.68621054721E+02  0.47000000000E+01 0. -1.
         -5    1    4    4    0  502 -0.38210002232E+02 -0.24298399346E+02 -0.17009289576E+03  0.17607981051E+03  0.47000000000E+01 0.  1.
<mgrwt>
<rscale>  0 0.93273111E+02</rscale>
<asrwt>0</asrwt>
<pdfrwt beam="1">  1        1 0.57272011E-01 0.93680712E+02</pdfrwt>
<pdfrwt beam="2">  1       -1 0.58095680E-02 0.93680712E+02</pdfrwt>
<totfact> 0.86217619E+03</totfact>
</mgrwt>
</event>
<event>
 7    1  0.3466492E-004  0.1787528E+03  0.7546771E-02  0.1195973E+00
          1   -1    0    0  501    0  0.00000000000E+00  0.00000000000E+00  0.10664214274E+03  0.10664214274E+03  0.00000000000E+00 0. -1.
         -1   -1    0    0    0  501 -0.00000000000E+00 -0.00000000000E+00 -0.35562387411E+03  0.35562387411E+03  0.00000000000E+00 0.  1.
         23    2    1    2    0    0  0.35699800474E+02 -0.15745868331E+02  0.53103581064E+02  0.11125588877E+03  0.89640807345E+02 0.  0.
          5    1    1    2  502    0 -0.63215433155E+02  0.44704535596E+02 -0.42738247725E+02  0.88562601082E+02  0.47000000000E+01 0. -1.
         -5    1    3    3    0  503  0.20409350159E+02 -0.50175799872E+02  0.12740848876E+02  0.55844173347E+02  0.47000000000E+01 0.  1.
          5    1    3    3  503    0  0.15290450315E+02  0.34429931541E+02  0.40362732188E+02  0.55411715426E+02  0.47000000000E+01 0. -1.
         -5    1    1    2    0  502  0.27515632681E+02 -0.28958667265E+02 -0.25934706471E+03  0.26244752699E+03  0.47000000000E+01 0.  1.
<mgrwt>
<rscale>  0 0.15372160E+03</rscale>
<asrwt>0</asrwt>
<pdfrwt beam="1">  1        1 0.16406483E-01 0.17875283E+03</pdfrwt>
<pdfrwt beam="2">  1       -1 0.54711366E-01 0.17875283E+03</pdfrwt>
<totfact> 0.11386265E+03</totfact>
</mgrwt>
</event>
<event>
 8    1  0.3466492E-004  0.1476316E+03  0.7546771E-02  0.1203954E+00
         -4   -1    0    0    0  501 -0.00000000000E+00  0.00000000000E+00  0.42137808001E+03  0.42137808001E+03  0.00000000000E+00 0.  1.
          4   -1    0    0  501    0  0.00000000000E+00 -0.00000000000E+00 -0.52103436950E+02  0.52103436950E+02  0.00000000000E+00 0. -1.
         23    2    1    2    0    0  0.49340494901E+02  0.10387629014E+03  0.15325535910E+03  0.21279639158E+03  0.92576082691E+02 0.  0.
         23    2    1    2    0    0 -0.49340494901E+02 -0.10387629014E+03  0.21601928395E+03  0.26068512537E+03  0.89820017050E+02 0.  0.
          5    1    4    4  502    0 -0.32767987199E+02 -0.52999896048E+01  0.16255185186E+02  0.37257910842E+02  0.47000000000E+01 0. -1.
         -5    1    4    4    0  502 -0.16572507703E+02 -0.98576300532E+02  0.19976409877E+03  0.22342721453E+03  0.47000000000E+01 0.  1.
          5    1    3    3  503    0  0.26508348059E+02  0.10300767577E+03  0.72673779835E+02  0.12890633056E+03  0.47000000000E+01 0. -1.
         -5    1    3    3    0  503  0.22832146842E+02  0.86861437097E+00  0.80581579270E+02  0.83890061020E+02  0.47000000000E+01 0.  1.
<mgrwt>
<rscale>  0 0.14720164E+03</rscale>
<asrwt>0</asrwt>
<pdfrwt beam="1">  1        4 0.80159137E-02 0.14763163E+03</pdfrwt>
<pdfrwt beam="2">  1       -4 0.64827395E-01 0.14763163E+03</pdfrwt>
<totfact> 0.41814412E+02</totfact>
</mgrwt>
</event>
<event>
 8    1  0.3466492E-004  0.9215939E+02  0.7546771E-02  0.1300104E+00
         -1   -1    0    0    0  501 -0.00000000000E+00  0.00000000000E+00  0.14719485043E+03  0.14719485043E+03  0.00000000000E+00 0.  1.
          1   -1    0    0  501    0  0.00000000000E+00 -0.00000000000E+00 -0.13404387182E+03  0.13404387182E+03  0.00000000000E+00 0. -1.
         23    2    1    2    0    0 -0.77070172934E+01  0.27616384658E+01  0.11433195741E+03  0.14437768146E+03  0.87784358835E+02 0.  0.
         23    2    1    2    0    0  0.77070172934E+01 -0.27616384658E+01 -0.10118097879E+03  0.13686104079E+03  0.91795039377E+02 0.  0.
          5    1    3    3  502    0  0.36033909254E+02 -0.14826721138E+02  0.38612018153E+02  0.55056809041E+02  0.47000000000E+01 0. -1.
         -5    1    4    4    0  503  0.66898553111E+01 -0.31128694819E+02 -0.54093022434E+00  0.32189010713E+02  0.47000000000E+01 0.  1.
          5    1    4    4  503    0  0.10171619824E+01  0.28367056353E+02 -0.10064004857E+03  0.10467203008E+03  0.47000000000E+01 0. -1.
         -5    1    3    3    0  502 -0.43740926548E+02  0.17588359604E+02  0.75719939254E+02  0.89320872418E+02  0.47000000000E+01 0.  1.
<mgrwt>
<rscale>  0 0.91144217E+02</rscale>
<asrwt>0</asrwt>
<pdfrwt beam="1">  1        1 0.20622134E-01 0.92159395E+02</pdfrwt>
<pdfrwt beam="2">  1       -1 0.22645361E-01 0.92159395E+02</pdfrwt>
<totfact> 0.37819629E+03</totfact>
</mgrwt>
</event>
<event>
 8    1  0.3466492E-004  0.9414025E+02  0.7546771E-02  0.1294897E+00
          2   -1    0    0  501    0  0.00000000000E+00  0.00000000000E+00  0.11663845126E+04  0.11663845126E+04  0.00000000000E+00 0. -1.
         -2   -1    0    0    0  501 -0.00000000000E+00 -0.00000000000E+00 -0.75316184803E+01  0.75316184803E+01  0.00000000000E+00 0.  1.
         23    2    1    2    0    0  0.64226489151E+01  0.17257193697E+02  0.67899966911E+03  0.68549466618E+03  0.92321858480E+02 0.  0.
         23    2    1    2    0    0 -0.64226489151E+01 -0.17257193697E+02  0.47985322497E+03  0.48842146486E+03  0.89203972285E+02 0.  0.
          5    1    4    4  502    0 -0.22735680309E+02  0.30730866685E+02  0.16181178871E+03  0.16633232485E+03  0.47000000000E+01 0. -1.
         -5    1    4    4    0  502  0.16313031394E+02 -0.47988060382E+02  0.31804143626E+03  0.32208914001E+03  0.47000000000E+01 0.  1.
          5    1    3    3  503    0 -0.22157404412E+02  0.45860013980E+02  0.45083687518E+03  0.45372907056E+03  0.47000000000E+01 0. -1.
         -5    1    3    3    0  503  0.28580053327E+02 -0.28602820283E+02  0.22816279393E+03  0.23176559561E+03  0.47000000000E+01 0.  1.
<mgrwt>
<rscale>  0 0.93366867E+02</rscale>
<asrwt>0</asrwt>
<pdfrwt beam="1">  1        2 0.17944363E+00 0.94140250E+02</pdfrwt>
<pdfrwt beam="2">  1       -2 0.11587115E-02 0.94140250E+02</pdfrwt>
<totfact> 0.33048310E+04</totfact>
</mgrwt>
</event>
<event>
 8    1  0.3466492E-004  0.1046762E+03  0.7546771E-02  0.1270871E+00
          1   -1    0    0  501    0  0.00000000000E+00  0.00000000000E+00  0.12465012044E+03  0.12465012044E+03  0.00000000000E+00 0. -1.
         -1   -1    0    0    0  501 -0.00000000000E+00 -0.00000000000E+00 -0.92353337906E+02  0.92353337906E+02  0.00000000000E+00 0.  1.
         23    2    1    2    0    0  0.41982718262E+02  0.27473814384E+02 -0.81572083286E+01  0.10499353376E+03  0.91868073745E+02 0.  0.
         23    2    1    2    0    0 -0.41982718262E+02 -0.27473814384E+02  0.40453990864E+02  0.11200992459E+03  0.91609708658E+02 0.  0.
          5    1    3    3  502    0  0.33710601308E+02  0.60905992388E+02 -0.28351433021E+01  0.69828880750E+02  0.47000000000E+01 0. -1.
         -5    1    4    4    0  503  0.11413461253E+02  0.25888678417E+02  0.13668113004E+02  0.31771025810E+02  0.47000000000E+01 0. -1.
          5    1    4    4  503    0 -0.53396179515E+02 -0.53362492800E+02  0.26785877860E+02  0.80238898780E+02  0.47000000000E+01 0.  1.
         -5    1    3    3    0  502  0.82721169542E+01 -0.33432178004E+02 -0.53220650264E+01  0.35164653007E+02  0.47000000000E+01 0.  1.
<mgrwt>
<rscale>  0 0.10461946E+03</rscale>
<asrwt>0</asrwt>
<pdfrwt beam="1">  1        1 0.19176942E-01 0.10467618E+03</pdfrwt>
<pdfrwt beam="2">  1       -1 0.14208206E-01 0.10467618E+03</pdfrwt>
<totfact> 0.87269140E+03</totfact>
</mgrwt>
</event>
<event>
 8    1  0.3466492E-004  0.1040389E+03  0.7546771E-02  0.1272353E+00
          1   -1    0    0  501    0  0.00000000000E+00  0.00000000000E+00  0.32382735639E+03  0.32382735639E+03  0.00000000000E+00 0. -1.
         -1   -1    0    0    0  501 -0.00000000000E+00 -0.00000000000E+00 -0.56031315928E+02  0.56031315928E+02  0.00000000000E+00 0.  1.
         23    2    1    2    0    0 -0.52479138886E+02  0.12671535026E+02  0.12950444118E+02  0.10484184305E+03  0.88935202443E+02 0.  0.
         23    2    1    2    0    0  0.52479138886E+02 -0.12671535026E+02  0.25484559635E+03  0.27501682927E+03  0.88166606977E+02 0.  0.
          5    1    3    3  502    0  0.10778238804E+02 -0.17234498331E+02  0.26180176211E+02  0.33476708185E+02  0.47000000000E+01 0. -1.
         -5    1    3    3    0  502 -0.63257377690E+02  0.29906033358E+02 -0.13229732093E+02  0.71365134868E+02  0.47000000000E+01 0.  1.
          5    1    4    4  503    0  0.53834421428E+02  0.24389607248E+02  0.20030193334E+03  0.20889220276E+03  0.47000000000E+01 0. -1.
         -5    1    4    4    0  503 -0.13552825422E+01 -0.37061142274E+02  0.54543663007E+02  0.66124626514E+02  0.47000000000E+01 0.  1.
<mgrwt>
<rscale>  0 0.10387447E+03</rscale>
<asrwt>0</asrwt>
<pdfrwt beam="1">  1        1 0.49819592E-01 0.10403893E+03</pdfrwt>
<pdfrwt beam="2">  1       -1 0.86202026E-02 0.10403893E+03</pdfrwt>
<totfact> 0.57368326E+03</totfact>
</mgrwt>
</event>
<event>
 8    1  0.3466492E-004  0.9557050E+02  0.7546771E-02  0.1291438E+00
         -3   -1    0    0    0  501 -0.00000000000E+00  0.00000000000E+00  0.57002249101E+02  0.57002249101E+02  0.00000000000E+00 0.  1.
          3   -1    0    0  501    0  0.00000000000E+00 -0.00000000000E+00 -0.61164830807E+03  0.61164830807E+03  0.00000000000E+00 0. -1.
         23    2    1    2    0    0 -0.26722185090E+02  0.14475135676E+01  0.12337192016E+02  0.93669055122E+02  0.88912963672E+02 0.  0.
         23    2    1    2    0    0  0.26722185090E+02 -0.14475135676E+01 -0.56698325098E+03  0.57498150204E+03  0.91747208835E+02 0.  0.
          5    1    3    3  502    0  0.59730496631E+01 -0.29315261239E+02 -0.21598493947E+02  0.37197403196E+02  0.47000000000E+01 0. -1.
         -5    1    4    4    0  503  0.48244576164E+02  0.28889039507E+02 -0.28655518078E+03  0.29205834582E+03  0.47000000000E+01 0.  1.
          5    1    4    4  503    0 -0.21522391073E+02 -0.30336553074E+02 -0.28042807020E+03  0.28292315622E+03  0.47000000000E+01 0. -1.
         -5    1    3    3    0  502 -0.32695234753E+02  0.30762774806E+02  0.33935685963E+02  0.56471651925E+02  0.47000000000E+01 0.  1.
<mgrwt>
<rscale>  0 0.94883768E+02</rscale>
<asrwt>0</asrwt>
<pdfrwt beam="1">  1        3 0.94099738E-01 0.95570502E+02</pdfrwt>
<pdfrwt beam="2">  1       -3 0.87695770E-02 0.95570502E+02</pdfrwt>
<totfact> 0.21268414E+02</totfact>
</mgrwt>
</event>
<event>
 8    1  0.3466492E-004  0.9702444E+02  0.7546771E-02  0.1288189E+00
         -1   -1    0    0    0  501 -0.00000000000E+00  0.00000000000E+00  0.12782316888E+02  0.12782316888E+02  0.00000000000E+00 0.  1.
          1   -1    0    0  501    0  0.00000000000E+00 -0.00000000000E+00 -0.72210143205E+03  0.72210143205E+03  0.00000000000E+00 0. -1.
         23    2    1    2    0    0 -0.24807047869E+02  0.19678568590E+02 -0.39339226173E+03  0.40518047075E+03  0.91712085383E+02 0.  0.
         23    2    1    2    0    0  0.24807047869E+02 -0.19678568590E+02 -0.31592685344E+03  0.32970327819E+03  0.88836024451E+02 0.  0.
          5    1    4    4  502    0  0.31929701198E+02  0.17171034197E+02 -0.54949827517E+02  0.65999422559E+02  0.47000000000E+01 0. -1.
         -5    1    4    4    0  502 -0.71226533290E+01 -0.36849602787E+02 -0.26097702592E+03  0.26370385563E+03  0.47000000000E+01 0.  1.
          5    1    3    3  503    0 -0.24740558836E+02 -0.20083214040E+02 -0.31965785826E+03  0.32127662082E+03  0.47000000000E+01 0. -1.
         -5    1    3    3    0  503 -0.66489033289E-01  0.39761782629E+02 -0.73734403468E+02  0.83903849932E+02  0.47000000000E+01 0.  1.
<mgrwt>
<rscale>  0 0.96338727E+02</rscale>
<asrwt>0</asrwt>
<pdfrwt beam="1">  1        1 0.11109248E+00 0.97024442E+02</pdfrwt>
<pdfrwt beam="2">  1       -1 0.19665111E-02 0.97024442E+02</pdfrwt>
<totfact> 0.17455843E+04</totfact>
</mgrwt>
</event>
<event>
 7    1  0.3466492E-004  0.1335805E+03  0.7546771E-02  0.1237235E+00
          2   -1    0    0  501    0  0.00000000000E+00  0.00000000000E+00  0.28938911650E+03  0.28938911650E+03  0.00000000000E+00 0. -1.
         -2   -1    0    0    0  501 -0.00000000000E+00 -0.00000000000E+00 -0.50177157729E+02  0.50177157729E+02  0.00000000000E+00 0.  1.
         23    2    1    2    0    0  0.10647071605E+02 -0.33302098332E+02  0.56116124885E+02  0.11292153779E+03  0.91541598951E+02 0.  0.
          5    1    3    3  502    0 -0.11324619096E+02 -0.48034921264E+02  0.67493225012E+02  0.83743812196E+02  0.47000000000E+01 0. -1.
         -5    1    3    3    0  502  0.21971690702E+02  0.14732822932E+02 -0.11377100126E+02  0.29177725599E+02  0.47000000000E+01 0.  1.
          5    1    1    2  503    0 -0.44626127060E+02  0.39175173237E+02  0.18235247349E+03  0.19183508543E+03  0.47000000000E+01 0. -1.
         -5    1    1    2    0  503  0.33979055455E+02 -0.58730749044E+01  0.74336039696E+00  0.34809651005E+02  0.47000000000E+01 0.  1.
<mgrwt>
<rscale>  0 0.12362434E+03</rscale>
<asrwt>0</asrwt>
<pdfrwt beam="1">  1        2 0.44521401E-01 0.13358051E+03</pdfrwt>
<pdfrwt beam="2">  1       -2 0.77195629E-02 0.13358051E+03</pdfrwt>
<totfact> 0.10728752E+04</totfact>
</mgrwt>
</event>
<event>
 8    1  0.3466492E-004  0.9135631E+02  0.7546771E-02  0.1299618E+00
          2   -1    0    0  501    0  0.00000000000E+00  0.00000000000E+00  0.78660425885E+02  0.78660425885E+02  0.00000000000E+00 0. -1.
         -2   -1    0    0    0  501 -0.00000000000E+00 -0.00000000000E+00 -0.13376160973E+03  0.13376160973E+03  0.00000000000E+00 0.  1.
         23    2    1    2    0    0 -0.79184348560E+00  0.23286616625E+01  0.20782172106E+02  0.93660684171E+02  0.91292800377E+02 0.  0.
         23    2    1    2    0    0  0.79184348560E+00 -0.23286616625E+01 -0.75883355950E+02  0.11876135144E+03  0.91323190950E+02 0.  0.
          5    1    3    3  502    0  0.33019587927E+02 -0.15296244261E+02  0.36863953421E+02  0.52012588257E+02  0.47000000000E+01 0. -1.
         -5    1    3    3    0  502 -0.33811431412E+02  0.17624905923E+02 -0.16081781316E+02  0.41648095914E+02  0.47000000000E+01 0.  1.
          5    1    4    4  503    0  0.40936211784E+02  0.10939482055E+02 -0.16502980097E+02  0.45715249698E+02  0.47000000000E+01 0. -1.
         -5    1    4    4    0  503 -0.40144368298E+02 -0.13268143717E+02 -0.59380375853E+02  0.73046101746E+02  0.47000000000E+01 0.  1.
<mgrwt>
<rscale>  0 0.91348711E+02</rscale>
<asrwt>0</asrwt>
<pdfrwt beam="1">  1        2 0.12101604E-01 0.91356307E+02</pdfrwt>
<pdfrwt beam="2">  1       -2 0.20578709E-01 0.91356307E+02</pdfrwt>
<totfact> 0.91818757E+03</totfact>
</mgrwt>
</event>
<event>
 8    1  0.3466492E-004  0.1064411E+03  0.7546771E-02  0.1270579E+00
          1   -1    0    0  501    0  0.00000000000E+00  0.00000000000E+00  0.19519965534E+03  0.19519965534E+03  0.00000000000E+00 0. -1.
         -1   -1    0    0    0  501 -0.00000000000E+00 -0.00000000000E+00 -0.57887748264E+02  0.57887748264E+02  0.00000000000E+00 0.  1.
         23    2    1    2    0    0 -0.36900470423E+02  0.22384973369E+02  0.97066673125E+02  0.13929206276E+03  0.90097768937E+02 0.  0.
         23    2    1    2    0    0  0.36900470423E+02 -0.22384973369E+02  0.40245233949E+02  0.11379534084E+03  0.97298350400E+02 0.  0.
          5    1    3    3  502    0 -0.58234605554E+02  0.30522076644E+02  0.38688386096E+02  0.76431326466E+02  0.47000000000E+01 0. -1.
         -5    1    4    4    0  503  0.44006340026E+02 -0.55811108114E+02  0.33210767747E+02  0.78590602782E+02  0.47000000000E+01 0.  1.
          5    1    4    4  503    0 -0.71058696025E+01  0.33426134745E+02  0.70344662023E+01  0.35204738055E+02  0.47000000000E+01 0. -1.
         -5    1    3    3    0  502  0.21334135131E+02 -0.81371032746E+01  0.58378287030E+02  0.62860736299E+02  0.47000000000E+01 0.  1.
<mgrwt>
<rscale>  0 0.10476714E+03</rscale>
<asrwt>0</asrwt>
<pdfrwt beam="1">  1        1 0.30030716E-01 0.10644107E+03</pdfrwt>
<pdfrwt beam="2">  1       -1 0.89058075E-02 0.10644107E+03</pdfrwt>
<totfact> 0.10188611E+04</totfact>
</mgrwt>
</event>
<event>
 8    1  0.3466492E-004  0.1046810E+03  0.7546771E-02  0.1274583E+00
          1   -1    0    0  501    0  0.00000000000E+00  0.00000000000E+00  0.59198360954E+03  0.59198360954E+03  0.00000000000E+00 0. -1.
         -1   -1    0    0    0  501 -0.00000000000E+00 -0.00000000000E+00 -0.17349329851E+02  0.17349329851E+02  0.00000000000E+00 0.  1.
         23    2    1    2    0    0 -0.82904614284E+01 -0.38547978438E+02  0.27125197239E+03  0.29075030524E+03  0.96971279672E+02 0.  0.
         23    2    1    2    0    0  0.82904614284E+01  0.38547978438E+02  0.30338230729E+03  0.31858263414E+03  0.88878523874E+02 0.  0.
          5    1    4    4  502    0  0.31236804277E+02 -0.17344023562E+02  0.96593573697E+02  0.10309685531E+03  0.47000000000E+01 0. -1.
         -5    1    4    4    0  502 -0.22946342848E+02  0.55892002000E+02  0.20678873360E+03  0.21548577884E+03  0.47000000000E+01 0.  1.
          5    1    3    3  503    0  0.25138862019E+02 -0.52209430338E+02  0.22206485810E+03  0.22954885799E+03  0.47000000000E+01 0. -1.
         -5    1    3    3    0  503 -0.33429323448E+02  0.13661451900E+02  0.49187114291E+02  0.61201447258E+02  0.47000000000E+01 0.  1.
<mgrwt>
<rscale>  0 0.10276688E+03</rscale>
<asrwt>0</asrwt>
<pdfrwt beam="1">  1        1 0.91074386E-01 0.10468098E+03</pdfrwt>
<pdfrwt beam="2">  1       -1 0.26691281E-02 0.10468098E+03</pdfrwt>
<totfact> 0.14915795E+04</totfact>
</mgrwt>
</event>
<event>
 8    1  0.3466492E-004  0.1022447E+03  0.7546771E-02  0.1276577E+00
         -1   -1    0    0    0  501 -0.00000000000E+00  0.00000000000E+00  0.10757809512E+04  0.10757809512E+04  0.00000000000E+00 0.  1.
          1   -1    0    0  501    0  0.00000000000E+00 -0.00000000000E+00 -0.97253273298E+01  0.97253273298E+01  0.00000000000E+00 0. -1.
         23    2    1    2    0    0  0.44454240627E+02  0.37014502998E+01  0.60196742511E+03  0.61028860335E+03  0.89986211402E+02 0.  0.
         23    2    1    2    0    0 -0.44454240627E+02 -0.37014502998E+01  0.46408819873E+03  0.47521767514E+03  0.92000556134E+02 0.  0.
          5    1    4    4  502    0 -0.27026667886E+02  0.42655787724E+02  0.19003670180E+03  0.19668755689E+03  0.47000000000E+01 0. -1.
         -5    1    3    3    0  503  0.66528284110E+02  0.20001819831E+02  0.35556558868E+03  0.36231900755E+03  0.47000000000E+01 0.  1.
          5    1    3    3  503    0 -0.22074043483E+02 -0.16300369531E+02  0.24640183643E+03  0.24796959580E+03  0.47000000000E+01 0. -1.
         -5    1    4    4    0  502 -0.17427572741E+02 -0.46357238024E+02  0.27405149693E+03  0.27853011826E+03  0.47000000000E+01 0.  1.
<mgrwt>
<rscale>  0 0.10178952E+03</rscale>
<asrwt>0</asrwt>
<pdfrwt beam="1">  1        1 0.14962051E-02 0.10224472E+03</pdfrwt>
<pdfrwt beam="2">  1       -1 0.16550467E+00 0.10224472E+03</pdfrwt>
<totfact> 0.25123602E+03</totfact>
</mgrwt>
</event>
<event>
 7    1  0.3466492E-004  0.1400968E+03  0.7546771E-02  0.1231225E+00
         -2   -1    0    0    0  501 -0.00000000000E+00  0.00000000000E+00  0.92848044516E+02  0.92848044516E+02  0.00000000000E+00 0.  1.
          2   -1    0    0  501    0  0.00000000000E+00 -0.00000000000E+00 -0.17209642025E+03  0.17209642025E+03  0.00000000000E+00 0. -1.
         23    2    1    2    0    0 -0.25745567854E+02 -0.17721906223E+02 -0.79717004348E+02  0.12484690071E+03  0.90857292550E+02 0.  0.
          5    1    3    3  502    0  0.46833526937E+01 -0.37606971779E+02 -0.79497052736E+02  0.88193477721E+02  0.47000000000E+01 0. -1.
         -5    1    1    2    0  503  0.25188701232E+02 -0.45618228849E+02  0.39490148428E+02  0.65551928239E+02  0.47000000000E+01 0.  1.
          5    1    1    2  503    0  0.55686662150E+00  0.63340135072E+02 -0.39021519817E+02  0.74545635823E+02  0.47000000000E+01 0. -1.
         -5    1    3    3    0  502 -0.30428920547E+02  0.19885065556E+02 -0.21995161228E+00  0.36653422985E+02  0.47000000000E+01 0.  1.
<mgrwt>
<rscale>  0 0.12749196E+03</rscale>
<asrwt>0</asrwt>
<pdfrwt beam="1">  1        2 0.26476372E-01 0.14009678E+03</pdfrwt>
<pdfrwt beam="2">  1       -2 0.14284315E-01 0.14009678E+03</pdfrwt>
<totfact> 0.71173159E+03</totfact>
</mgrwt>
</event>
<event>
 8    1  0.3466492E-004  0.9125063E+02  0.7546771E-02  0.1302482E+00
          2   -1    0    0  501    0  0.00000000000E+00  0.00000000000E+00  0.14811158247E+03  0.14811158247E+03  0.00000000000E+00 0. -1.
         -2   -1    0    0    0  501 -0.00000000000E+00 -0.00000000000E+00 -0.55622996174E+02  0.55622996174E+02  0.00000000000E+00 0.  1.
         23    2    1    2    0    0 -0.13297935368E+02 -0.22568698653E+01  0.27870234871E+02  0.95411884995E+02  0.90248264581E+02 0.  0.
         23    2    1    2    0    0  0.13297935368E+02  0.22568698653E+01  0.64618351429E+02  0.10832269365E+03  0.85885656966E+02 0.  0.
          5    1    3    3  502    0  0.36521866426E+02 -0.25678308178E+01 -0.22906582117E+01  0.36983477357E+02  0.47000000000E+01 0. -1.
         -5    1    4    4    0  503 -0.32817737560E+02 -0.13325917576E+02  0.15299770492E+02  0.38868457069E+02  0.47000000000E+01 0.  1.
          5    1    4    4  503    0  0.46115672928E+02  0.15582787441E+02  0.49318580936E+02  0.69454236585E+02  0.47000000000E+01 0. -1.
         -5    1    3    3    0  502 -0.49819801795E+02  0.31096095249E+00  0.30160893083E+02  0.58428407638E+02  0.47000000000E+01 0.  1.
<mgrwt>
<rscale>  0 0.90152909E+02</rscale>
<asrwt>0</asrwt>
<pdfrwt beam="1">  1        2 0.22786397E-01 0.91250632E+02</pdfrwt>
<pdfrwt beam="2">  1       -2 0.85573841E-02 0.91250632E+02</pdfrwt>
<totfact> 0.18152263E+04</totfact>
</mgrwt>
</event>
<event>
 8    1  0.3466492E-004  0.1006209E+03  0.7546771E-02  0.1280552E+00
         -2   -1    0    0    0  501 -0.00000000000E+00  0.00000000000E+00  0.50852464506E+02  0.50852464506E+02  0.00000000000E+00 0.  1.
          2   -1    0    0  501    0  0.00000000000E+00 -0.00000000000E+00 -0.27835441416E+03  0.27835441416E+03  0.00000000000E+00 0. -1.
         23    2    1    2    0    0 -0.36637902466E+02 -0.17806815133E+02 -0.23953304458E+02  0.10343267422E+03  0.92006188599E+02 0.  0.
         23    2    1    2    0    0  0.36637902466E+02  0.17806815133E+02 -0.20354864519E+03  0.22577420444E+03  0.88783567553E+02 0.  0.
          5    1    3    3  502    0  0.25269251373E+02 -0.26318413304E+02 -0.16524143957E+02  0.40327797824E+02  0.47000000000E+01 0. -1.
         -5    1    3    3    0  502 -0.61907153839E+02  0.85115981705E+01 -0.74291605011E+01  0.63104876401E+02  0.47000000000E+01 0.  1.
          5    1    4    4  503    0 -0.21215930334E+01  0.26192683316E+02 -0.17415452348E+03  0.17618866554E+03  0.47000000000E+01 0. -1.
         -5    1    4    4    0  503  0.38759495499E+02 -0.83858681821E+01 -0.29394121714E+02  0.49585538898E+02  0.47000000000E+01 0.  1.
<mgrwt>
<rscale>  0 0.99878176E+02</rscale>
<asrwt>0</asrwt>
<pdfrwt beam="1">  1        2 0.42823756E-01 0.10062086E+03</pdfrwt>
<pdfrwt beam="2">  1       -2 0.78234561E-02 0.10062086E+03</pdfrwt>
<totfact> 0.10700773E+04</totfact>
</mgrwt>
</event>
<event>
 8    1  0.3466492E-004  0.1080294E+03  0.7546771E-02  0.1264890E+00
          1   -1    0    0  501    0  0.00000000000E+00  0.00000000000E+00  0.30595317470E+02  0.30595317470E+02  0.00000000000E+00 0. -1.
         -1   -1    0    0    0  501 -0.00000000000E+00 -0.00000000000E+00 -0.65586671234E+03  0.65586671234E+03  0.00000000000E+00 0.  1.
         23    2    1    2    0    0  0.57134599118E+02 -0.66345152628E+01 -0.53761279325E+03  0.54835924153E+03  0.91443770179E+02 0.  0.
         23    2    1    2    0    0 -0.57134599118E+02  0.66345152628E+01 -0.87658601628E+02  0.13810278828E+03  0.89888656025E+02 0.  0.
          5    1    3    3  502    0  0.32405993424E+02 -0.38124038112E+02 -0.14073085236E+03  0.14943511467E+03  0.47000000000E+01 0. -1.
         -5    1    4    4    0  503 -0.18532115331E+02 -0.30295311027E+02 -0.57226656735E+00  0.35828238275E+02  0.47000000000E+01 0.  1.
          5    1    4    4  503    0 -0.38602483787E+02  0.36929826290E+02 -0.87086335061E+02  0.10227455000E+03  0.47000000000E+01 0. -1.
         -5    1    3    3    0  502  0.24728605694E+02  0.31489522850E+02 -0.39688194089E+03  0.39892412686E+03  0.47000000000E+01 0.  1.
<mgrwt>
<rscale>  0 0.10769956E+03</rscale>
<asrwt>0</asrwt>
<pdfrwt beam="1">  1        1 0.47069724E-02 0.10802936E+03</pdfrwt>
<pdfrwt beam="2">  1       -1 0.10090256E+00 0.10802936E+03</pdfrwt>
<totfact> 0.17230845E+03</totfact>
</mgrwt>
</event>
<event>
 8    1  0.3466492E-004  0.1108601E+03  0.7546771E-02  0.1259910E+00
          1   -1    0    0  501    0  0.00000000000E+00  0.00000000000E+00  0.24736929673E+03  0.24736929673E+03  0.00000000000E+00 0. -1.
         -1   -1    0    0    0  501 -0.00000000000E+00 -0.00000000000E+00 -0.72674374158E+02  0.72674374158E+02  0.00000000000E+00 0.  1.
         23    2    1    2    0    0 -0.55454895923E+02  0.21962095610E+02 -0.38511792798E+01  0.11092695969E+03  0.93447202625E+02 0.  0.
         23    2    1    2    0    0  0.55454895923E+02 -0.21962095610E+02  0.17854610185E+03  0.20911671120E+03  0.91068706433E+02 0.  0.
          5    1    3    3  502    0 -0.28216563078E+02  0.51333836839E+01  0.44257784029E+02  0.52946836612E+02  0.47000000000E+01 0. -1.
         -5    1    3    3    0  502 -0.27238332845E+02  0.16828711926E+02 -0.48108963309E+02  0.57980123076E+02  0.47000000000E+01 0.  1.
          5    1    4    4  503    0  0.68597518254E+02 -0.44325311484E+02  0.14459421129E+03  0.16613226263E+03  0.47000000000E+01 0. -1.
         -5    1    4    4    0  503 -0.13142622331E+02  0.22363215874E+02  0.33951890559E+02  0.42984448565E+02  0.47000000000E+01 0.  1.
<mgrwt>
<rscale>  0 0.11035733E+03</rscale>
<asrwt>0</asrwt>
<pdfrwt beam="1">  1        1 0.38056814E-01 0.11086009E+03</pdfrwt>
<pdfrwt beam="2">  1       -1 0.11180673E-01 0.11086009E+03</pdfrwt>
<totfact> 0.54069773E+03</totfact>
</mgrwt>
</event>
<event>
 8    1  0.3466492E-004  0.9210654E+02  0.7546771E-02  0.1297852E+00
         -3   -1    0    0    0  501 -0.00000000000E+00  0.00000000000E+00  0.14323726582E+03  0.14323726582E+03  0.00000000000E+00 0.  1.
          3   -1    0    0  501    0  0.00000000000E+00 -0.00000000000E+00 -0.60146123697E+02  0.60146123697E+02  0.00000000000E+00 0. -1.
         23    2    1    2    0    0 -0.58649533911E+01 -0.74976076017E+01  0.54290364353E+02  0.10691612391E+03  0.91613329231E+02 0.  0.
         23    2    1    2    0    0  0.58649533911E+01  0.74976076017E+01  0.28800777774E+02  0.96467265609E+02  0.91574214360E+02 0.  0.
          5    1    3    3  502    0 -0.30864847643E+02  0.14546259493E+02 -0.86746152016E+01  0.35518606873E+02  0.47000000000E+01 0. -1.
         -5    1    3    3    0  502  0.24999894252E+02 -0.22043867095E+02  0.62964979555E+02  0.71397517040E+02  0.47000000000E+01 0.  1.
          5    1    4    4  503    0 -0.35754588618E+02  0.21040516124E+02  0.31596289961E+02  0.52359425754E+02  0.47000000000E+01 0. -1.
         -5    1    4    4    0  503  0.41619542009E+02 -0.13542908523E+02 -0.27955121866E+01  0.44107839855E+02  0.47000000000E+01 0.  1.
<mgrwt>
<rscale>  0 0.92096808E+02</rscale>
<asrwt>0</asrwt>
<pdfrwt beam="1">  1        3 0.92532498E-02 0.92106536E+02</pdfrwt>
<pdfrwt beam="2">  1       -3 0.22036502E-01 0.92106536E+02</pdfrwt>
<totfact> 0.33447716E+03</totfact>
</mgrwt>
</event>
<event>
 8    1  0.3466492E-004  0.9920931E+02  0.7546771E-02  0.1284773E+00
          2   -1    0    0  501    0  0.00000000000E+00  0.00000000000E+00  0.48273590255E+03  0.48273590255E+03  0.00000000000E+00 0. -1.
         -2   -1    0    0    0  501 -0.00000000000E+00 -0.00000000000E+00 -0.28822684735E+02  0.28822684735E+02  0.00000000000E+00 0.  1.
         23    2    1    2    0    0  0.12289836093E+01 -0.23828312215E+02  0.84386950215E+02  0.13024456007E+03  0.96297399747E+02 0.  0.
         23    2    1    2    0    0 -0.12289836093E+01  0.23828312215E+02  0.36952626760E+03  0.38131402721E+03  0.91002340846E+02 0.  0.
          5    1    4    4  502    0  0.15118881585E+02  0.50570997958E+02  0.14152730030E+03  0.15112270890E+03  0.47000000000E+01 0. -1.
         -5    1    4    4    0  502 -0.16347865194E+02 -0.26742685744E+02  0.22799896730E+03  0.23019131831E+03  0.47000000000E+01 0.  1.
          5    1    3    3  503    0 -0.20812731537E+02 -0.40856885199E+02  0.90301442296E+02  0.10138488715E+03  0.47000000000E+01 0. -1.
         -5    1    3    3    0  503  0.22041715146E+02  0.17028572984E+02 -0.59144920809E+01  0.28859672920E+02  0.47000000000E+01 0.  1.
<mgrwt>
<rscale>  0 0.97900902E+02</rscale>
<asrwt>0</asrwt>
<pdfrwt beam="1">  1        2 0.74267057E-01 0.99209314E+02</pdfrwt>
<pdfrwt beam="2">  1       -2 0.44342595E-02 0.99209314E+02</pdfrwt>
<totfact> 0.14031557E+04</totfact>
</mgrwt>
</event>
<event>
 8    1  0.3466492E-004  0.1971783E+03  0.7546771E-02  0.1152306E+00
         -2   -1    0    0    0  501 -0.00000000000E+00  0.00000000000E+00  0.47541743544E+03  0.47541743544E+03  0.00000000000E+00 0.  1.
          2   -1    0    0  501    0  0.00000000000E+00 -0.00000000000E+00 -0.27467113990E+03  0.27467113990E+03  0.00000000000E+00 0. -1.
         23    2    1    2    0    0  0.22207502532E+02  0.17286904102E+03  0.41498015653E+03  0.45944292483E+03  0.92208417995E+02 0.  0.
         23    2    1    2    0    0 -0.22207502532E+02 -0.17286904102E+03 -0.21423386099E+03  0.29064565051E+03  0.90564167602E+02 0.  0.
          5    1    4    4  502    0 -0.36652133144E+02 -0.13320959365E+03 -0.20488463505E+03  0.24715982356E+03  0.47000000000E+01 0. -1.
         -5    1    3    3    0  503  0.35669997147E+02  0.99345715740E+02  0.32832936745E+03  0.34491184883E+03  0.47000000000E+01 0.  1.
          5    1    3    3  503    0 -0.13462494615E+02  0.73523325279E+02  0.86650789081E+02  0.11453107600E+03  0.47000000000E+01 0. -1.
         -5    1    4    4    0  502  0.14444630612E+02 -0.39659447373E+02 -0.93492259360E+01  0.43485826944E+02  0.47000000000E+01 0.  1.
<mgrwt>
<rscale>  0 0.19698711E+03</rscale>
<asrwt>0</asrwt>
<pdfrwt beam="1">  1        2 0.42257099E-01 0.19717827E+03</pdfrwt>
<pdfrwt beam="2">  1       -2 0.73141144E-01 0.19717827E+03</pdfrwt>
<totfact> 0.21109036E+02</totfact>
</mgrwt>
</event>
<event>
 8    1  0.3466492E-004  0.1028284E+03  0.7546771E-02  0.1277952E+00
          2   -1    0    0  501    0  0.00000000000E+00  0.00000000000E+00  0.64352934065E+02  0.64352934065E+02  0.00000000000E+00 0. -1.
         -2   -1    0    0    0  501 -0.00000000000E+00 -0.00000000000E+00 -0.31949336830E+03  0.31949336830E+03  0.00000000000E+00 0.  1.
         23    2    1    2    0    0  0.27256645590E+02 -0.15664365358E+02 -0.26367215091E+03  0.28066460303E+03  0.90891799161E+02 0.  0.
         23    2    1    2    0    0 -0.27256645590E+02  0.15664365358E+02  0.85317166798E+01  0.10318169934E+03  0.97904932549E+02 0.  0.
          5    1    4    4  502    0 -0.30825155592E+02 -0.23624933070E+02  0.37360279576E+02  0.54094437513E+02  0.47000000000E+01 0. -1.
         -5    1    4    4    0  502  0.35685100020E+01  0.39289298428E+02 -0.28828562896E+02  0.49087261823E+02  0.47000000000E+01 0.  1.
          5    1    3    3  503    0 -0.34081451479E+01  0.32727076347E+02 -0.14557388651E+03  0.14932020431E+03  0.47000000000E+01 0. -1.
         -5    1    3    3    0  503  0.30664790738E+02 -0.48391441705E+02 -0.11809826440E+03  0.13134439872E+03  0.47000000000E+01 0.  1.
<mgrwt>
<rscale>  0 0.10112305E+03</rscale>
<asrwt>0</asrwt>
<pdfrwt beam="1">  1        2 0.99004512E-02 0.10282837E+03</pdfrwt>
<pdfrwt beam="2">  1       -2 0.49152827E-01 0.10282837E+03</pdfrwt>
<totfact> 0.24424526E+03</totfact>
</mgrwt>
</event>
<event>
 8    1  0.3466492E-004  0.9734861E+02  0.7546771E-02  0.1287117E+00
         -1   -1    0    0    0  501 -0.00000000000E+00  0.00000000000E+00  0.13570787152E+03  0.13570787152E+03  0.00000000000E+00 0.  1.
          1   -1    0    0  501    0  0.00000000000E+00 -0.00000000000E+00 -0.79839585965E+02  0.79839585965E+02  0.00000000000E+00 0. -1.
         23    2    1    2    0    0 -0.30481726963E+02  0.75267049283E+00  0.68557941585E+02  0.11737526741E+03  0.90261064998E+02 0.  0.
         23    2    1    2    0    0  0.30481726963E+02 -0.75267049283E+00 -0.12689656028E+02  0.98172190072E+02  0.92450253336E+02 0.  0.
          5    1    4    4  502    0  0.56272295202E+02 -0.24315077554E+02 -0.27183957532E+01  0.61540830992E+02  0.47000000000E+01 0. -1.
         -5    1    4    4    0  502 -0.25790568239E+02  0.23562407061E+02 -0.99712602751E+01  0.36631359080E+02  0.47000000000E+01 0.  1.
          5    1    3    3  503    0  0.30371983474E+02 -0.11728192136E+02  0.25978915587E+02  0.41916606805E+02  0.47000000000E+01 0. -1.
         -5    1    3    3    0  503 -0.60853710438E+02  0.12480862629E+02  0.42579025997E+02  0.75458660609E+02  0.47000000000E+01 0.  1.
<mgrwt>
<rscale>  0 0.96825262E+02</rscale>
<asrwt>0</asrwt>
<pdfrwt beam="1">  1        1 0.12283013E-01 0.97348608E+02</pdfrwt>
<pdfrwt beam="2">  1       -1 0.20878134E-01 0.97348608E+02</pdfrwt>
<totfact> 0.83773023E+03</totfact>
</mgrwt>
</event>
<event>
 8    1  0.1158754E-003  0.1253305E+03  0.7546771E-02  0.1235302E+00
          2   -1    0    0  501    0  0.00000000000E+00  0.00000000000E+00  0.33360560930E+03  0.33360560930E+03  0.00000000000E+00 0. -1.
         -2   -1    0    0    0  501 -0.00000000000E+00 -0.00000000000E+00 -0.21692876844E+03  0.21692876844E+03  0.00000000000E+00 0.  1.
         23    2    1    2    0    0  0.75405532998E+01  0.76601403927E+02  0.30232079106E+03  0.32654460302E+03  0.96482547771E+02 0.  0.
         23    2    1    2    0    0 -0.75405532998E+01 -0.76601403927E+02 -0.18564395021E+03  0.22398977472E+03  0.98909594592E+02 0.  0.
          5    1    3    3  502    0  0.33225160207E+02  0.81294493244E+02  0.16799022804E+03  0.18961938883E+03  0.47000000000E+01 0. -1.
         -5    1    3    3    0  502 -0.25684606908E+02 -0.46930893168E+01  0.13433056302E+03  0.13692521419E+03  0.47000000000E+01 0.  1.
          5    1    4    4  503    0 -0.27508752957E+02 -0.57591249716E+01 -0.50806996317E+01  0.28944818508E+02  0.47000000000E+01 0. -1.
         -5    1    4    4    0  503  0.19968199657E+02 -0.70842278955E+02 -0.18056325057E+03  0.19504495621E+03  0.47000000000E+01 0.  1.
<mgrwt>
<rscale>  0 0.12485119E+03</rscale>
<asrwt>0</asrwt>
<pdfrwt beam="1">  1        2 0.51323940E-01 0.12533053E+03</pdfrwt>
<pdfrwt beam="2">  1       -2 0.33373657E-01 0.12533053E+03</pdfrwt>
<totfact> 0.81274054E+02</totfact>
</mgrwt>
</event>
<event>
 8    1  0.3466492E-004  0.9953906E+02  0.7546771E-02  0.1282334E+00
         -2   -1    0    0    0  501 -0.00000000000E+00  0.00000000000E+00  0.64093736792E+02  0.64093736792E+02  0.00000000000E+00 0.  1.
          2   -1    0    0  501    0  0.00000000000E+00 -0.00000000000E+00 -0.18540123132E+03  0.18540123132E+03  0.00000000000E+00 0. -1.
         23    2    1    2    0    0 -0.24128856165E+02 -0.33415386267E+02 -0.78184679045E+01  0.99845644599E+02  0.90604826394E+02 0.  0.
         23    2    1    2    0    0  0.24128856165E+02  0.33415386267E+02 -0.11348902662E+03  0.14964932351E+03  0.88410243326E+02 0.  0.
          5    1    3    3  502    0 -0.37742686661E+02  0.20096247227E+02 -0.10791938690E+02  0.44350033706E+02  0.47000000000E+01 0. -1.
         -5    1    4    4    0  503  0.50172749023E+02  0.31278134283E+02 -0.10696635559E+03  0.12230910700E+03  0.47000000000E+01 0.  1.
          5    1    4    4  503    0 -0.26043892858E+02  0.21372519836E+01 -0.65226710356E+01  0.27340216508E+02  0.47000000000E+01 0. -1.
         -5    1    3    3    0  502  0.13613830496E+02 -0.53511633494E+02  0.29734707855E+01  0.55495610893E+02  0.47000000000E+01 0.  1.
<mgrwt>
<rscale>  0 0.99036929E+02</rscale>
<asrwt>0</asrwt>
<pdfrwt beam="1">  1        2 0.28523267E-01 0.99539059E+02</pdfrwt>
<pdfrwt beam="2">  1       -2 0.98605748E-02 0.99539059E+02</pdfrwt>
<totfact> 0.11514432E+04</totfact>
</mgrwt>
</event>
<event>
 8    1  0.3466492E-004  0.9948858E+02  0.7546771E-02  0.1283151E+00
          1   -1    0    0  501    0  0.00000000000E+00  0.00000000000E+00  0.53280875886E+03  0.53280875886E+03  0.00000000000E+00 0. -1.
         -1   -1    0    0    0  501 -0.00000000000E+00 -0.00000000000E+00 -0.38524233882E+02  0.38524233882E+02  0.00000000000E+00 0.  1.
         23    2    1    2    0    0 -0.34989574331E+02  0.17247223778E+02  0.40419101763E+02  0.10738566704E+03  0.91521804278E+02 0.  0.
         23    2    1    2    0    0  0.34989574331E+02 -0.17247223778E+02  0.45386542321E+03  0.46394732570E+03  0.87929298857E+02 0.  0.
          5    1    4    4  502    0  0.57739905143E+02 -0.33873134714E+02  0.33942320931E+03  0.34599348392E+03  0.47000000000E+01 0. -1.
         -5    1    3    3    0  503 -0.59741179262E+02 -0.11281664901E+02  0.29803566332E+02  0.67872137352E+02  0.47000000000E+01 0.  1.
          5    1    3    3  503    0  0.24751604931E+02  0.28528888679E+02  0.10615535431E+02  0.39513529688E+02  0.47000000000E+01 0. -1.
         -5    1    4    4    0  502 -0.22750330812E+02  0.16625910936E+02  0.11444221391E+03  0.11795384178E+03  0.47000000000E+01 0.  1.
<mgrwt>
<rscale>  0 0.98654523E+02</rscale>
<asrwt>0</asrwt>
<pdfrwt beam="1">  1        1 0.81970573E-01 0.99488581E+02</pdfrwt>
<pdfrwt beam="2">  1       -1 0.59268056E-02 0.99488581E+02</pdfrwt>
<totfact> 0.53406376E+03</totfact>
</mgrwt>
</event>
<event>
 8    1  0.3466492E-004  0.1400402E+03  0.7546771E-02  0.1213489E+00
         -2   -1    0    0    0  501 -0.00000000000E+00  0.00000000000E+00  0.11866311645E+03  0.11866311645E+03  0.00000000000E+00 0.  1.
          2   -1    0    0  501    0  0.00000000000E+00 -0.00000000000E+00 -0.16484825854E+03  0.16484825854E+03  0.00000000000E+00 0. -1.
         23    2    1    2    0    0 -0.91847290567E+02 -0.51641273356E+02 -0.29479169404E+02  0.14310932044E+03  0.92241586440E+02 0.  0.
         23    2    1    2    0    0  0.91847290567E+02  0.51641273356E+02 -0.16705972687E+02  0.14040205456E+03  0.91273772256E+02 0.  0.
          5    1    3    3  502    0 -0.92633654148E+02 -0.31125905227E+02 -0.53218515807E+02  0.11137376837E+03  0.47000000000E+01 0. -1.
         -5    1    3    3    0  502  0.78636358098E+00 -0.20515368129E+02  0.23739346403E+02  0.31735552064E+02  0.47000000000E+01 0.  1.
          5    1    4    4  503    0  0.14100899992E+02  0.56868980943E+02  0.60487484692E+01  0.59089709190E+02  0.47000000000E+01 0. -1.
         -5    1    4    4    0  503  0.77746390575E+02 -0.52277075870E+01 -0.22754721156E+02  0.81312345366E+02  0.47000000000E+01 0.  1.
<mgrwt>
<rscale>  0 0.13988103E+03</rscale>
<asrwt>0</asrwt>
<pdfrwt beam="1">  1        2 0.25361270E-01 0.14004019E+03</pdfrwt>
<pdfrwt beam="2">  1       -2 0.18255864E-01 0.14004019E+03</pdfrwt>
<totfact> 0.49793859E+03</totfact>
</mgrwt>
</event>
<event>
 8    1  0.3466492E-004  0.9487697E+02  0.7546771E-02  0.1292128E+00
          1   -1    0    0  501    0  0.00000000000E+00  0.00000000000E+00  0.11185037325E+03  0.11185037325E+03  0.00000000000E+00 0. -1.
         -1   -1    0    0    0  501 -0.00000000000E+00 -0.00000000000E+00 -0.91308708390E+02  0.91308708390E+02  0.00000000000E+00 0.  1.
         23    2    1    2    0    0 -0.32300072948E+01  0.20355786055E+02  0.46896437684E+02  0.10583437792E+03  0.92611277440E+02 0.  0.
         23    2    1    2    0    0  0.32300072948E+01 -0.20355786055E+02 -0.26354772827E+02  0.97324703716E+02  0.91393287115E+02 0.  0.
          5    1    4    4  502    0 -0.41178858024E+02 -0.21415452582E+02 -0.25823247418E+01  0.46723424088E+02  0.47000000000E+01 0. -1.
         -5    1    4    4    0  502  0.44408865319E+02  0.10596665270E+01 -0.23772448086E+02  0.50601279628E+02  0.47000000000E+01 0.  1.
          5    1    3    3  503    0 -0.31169455982E+02 -0.23052259439E+02  0.35466553139E+02  0.52753275187E+02  0.47000000000E+01 0. -1.
         -5    1    3    3    0  503  0.27939448687E+02  0.43408045494E+02  0.11429884545E+02  0.53081102732E+02  0.47000000000E+01 0.  1.
<mgrwt>
<rscale>  0 0.94578433E+02</rscale>
<asrwt>0</asrwt>
<pdfrwt beam="1">  1        1 0.17207750E-01 0.94876971E+02</pdfrwt>
<pdfrwt beam="2">  1       -1 0.14047494E-01 0.94876971E+02</pdfrwt>
<totfact> 0.10100881E+04</totfact>
</mgrwt>
</event>
<event>
 8    1  0.3466492E-004  0.9397838E+02  0.7546771E-02  0.1294697E+00
          1   -1    0    0  501    0  0.00000000000E+00  0.00000000000E+00  0.12680999197E+03  0.12680999197E+03  0.00000000000E+00 0. -1.
         -1   -1    0    0    0  501 -0.00000000000E+00 -0.00000000000E+00 -0.68160509548E+02  0.68160509548E+02  0.00000000000E+00 0.  1.
         23    2    1    2    0    0  0.24711559378E+02 -0.19141538192E+01  0.27090533747E+02  0.97805080031E+02  0.90651042517E+02 0.  0.
         23    2    1    2    0    0 -0.24711559378E+02  0.19141538192E+01  0.31558948671E+02  0.97165421483E+02  0.88491958612E+02 0.  0.
          5    1    4    4  502    0 -0.53447304636E+02  0.15779265685E+02  0.32903803170E+02  0.64887208766E+02  0.47000000000E+01 0. -1.
         -5    1    3    3    0  503  0.58186838231E+02  0.44909754296E+01  0.10027921567E+02  0.59401399096E+02  0.47000000000E+01 0.  1.
          5    1    3    3  503    0 -0.33475278853E+02 -0.64051292489E+01  0.17062612180E+02  0.38403680935E+02  0.47000000000E+01 0. -1.
         -5    1    4    4    0  502  0.28735745258E+02 -0.13865111865E+02 -0.13448544989E+01  0.32278212717E+02  0.47000000000E+01 0.  1.
<mgrwt>
<rscale>  0 0.93453789E+02</rscale>
<asrwt>0</asrwt>
<pdfrwt beam="1">  1        1 0.19509230E-01 0.93978384E+02</pdfrwt>
<pdfrwt beam="2">  1       -1 0.10486232E-01 0.93978384E+02</pdfrwt>
<totfact> 0.13466544E+04</totfact>
</mgrwt>
</event>
<event>
 8    1  0.3466492E-004  0.1153787E+03  0.7546771E-02  0.1251406E+00
          2   -1    0    0  501    0  0.00000000000E+00  0.00000000000E+00  0.37763512012E+03  0.37763512012E+03  0.00000000000E+00 0. -1.
         -2   -1    0    0    0  501 -0.00000000000E+00 -0.00000000000E+00 -0.35081959309E+02  0.35081959309E+02  0.00000000000E+00 0.  1.
         23    2    1    2    0    0 -0.30705811030E+02  0.63448167696E+02  0.18641235652E+03  0.21923002763E+03  0.91343973723E+02 0.  0.
         23    2    1    2    0    0  0.30705811030E+02 -0.63448167696E+02  0.15614080430E+03  0.19348705180E+03  0.89937598561E+02 0.  0.
          5    1    3    3  502    0 -0.44195468889E+01  0.64780021949E+02  0.55294508880E+02  0.85414029004E+02  0.47000000000E+01 0. -1.
         -5    1    4    4    0  503  0.21243603564E+02 -0.47058842613E+01 -0.39717156844E+01  0.22611956230E+02  0.47000000000E+01 0.  1.
          5    1    4    4  503    0  0.94622074656E+01 -0.58742283435E+02  0.16011251998E+03  0.17087509557E+03  0.47000000000E+01 0. -1.
         -5    1    3    3    0  502 -0.26286264141E+02 -0.13318542528E+01  0.13111784764E+03  0.13381599862E+03  0.47000000000E+01 0.  1.
<mgrwt>
<rscale>  0 0.11510012E+03</rscale>
<asrwt>0</asrwt>
<pdfrwt beam="1">  1        2 0.58097708E-01 0.11537867E+03</pdfrwt>
<pdfrwt beam="2">  1       -2 0.53972248E-02 0.11537867E+03</pdfrwt>
<totfact> 0.13780908E+04</totfact>
</mgrwt>
</event>
<event>
 8    1  0.3466492E-004  0.1222622E+03  0.7546771E-02  0.1240256E+00
         -4   -1    0    0    0  501 -0.00000000000E+00  0.00000000000E+00  0.31484315869E+02  0.31484315869E+02  0.00000000000E+00 0.  1.
          4   -1    0    0  501    0  0.00000000000E+00 -0.00000000000E+00 -0.94042941488E+03  0.94042941488E+03  0.00000000000E+00 0. -1.
         23    2    1    2    0    0  0.73538151451E+02  0.23210592333E+02 -0.11152111001E+03  0.16548416655E+03  0.94876024818E+02 0.  0.
         23    2    1    2    0    0 -0.73538151451E+02 -0.23210592333E+02 -0.79742398900E+03  0.80642956420E+03  0.92179349458E+02 0.  0.
          5    1    3    3  502    0  0.38706705183E+02 -0.33625928594E+02 -0.28298104255E+02  0.58751891921E+02  0.47000000000E+01 0. -1.
         -5    1    3    3    0  502  0.34831446269E+02  0.56836520927E+02 -0.83223005755E+02  0.10673227463E+03  0.47000000000E+01 0.  1.
          5    1    4    4  503    0 -0.76363232564E+02 -0.43999009829E+02 -0.73756485225E+03  0.74282653252E+03  0.47000000000E+01 0. -1.
         -5    1    4    4    0  503  0.28250811130E+01  0.20788417497E+02 -0.59859136757E+02  0.63603031678E+02  0.47000000000E+01 0.  1.
<mgrwt>
<rscale>  0 0.12173872E+03</rscale>
<asrwt>0</asrwt>
<pdfrwt beam="1">  1        4 0.14468146E+00 0.12226222E+03</pdfrwt>
<pdfrwt beam="2">  1       -4 0.48437406E-02 0.12226222E+03</pdfrwt>
<totfact> 0.14460870E+02</totfact>
</mgrwt>
</event>
<event>
 8    1  0.3466492E-004  0.1619694E+03  0.7546771E-02  0.1187159E+00
         -2   -1    0    0    0  501 -0.00000000000E+00  0.00000000000E+00  0.60740509756E+02  0.60740509756E+02  0.00000000000E+00 0. -1.
          2   -1    0    0  501    0  0.00000000000E+00 -0.00000000000E+00 -0.49499613268E+03  0.49499613268E+03  0.00000000000E+00 0.  1.
         23    2    1    2    0    0 -0.12352212893E+03 -0.49478867607E+02 -0.32257507479E+03  0.36095537027E+03  0.92348393470E+02 0.  0.
         23    2    1    2    0    0  0.12352212893E+03  0.49478867607E+02 -0.11168054814E+03  0.19478127217E+03  0.88098379563E+02 0.  0.
          5    1    4    4  502    0  0.99912663768E+02  0.73980525478E+02 -0.79019642461E+02  0.14738335193E+03  0.47000000000E+01 0. -1.
         -5    1    3    3    0  503 -0.99617089461E+02 -0.75323412472E+02 -0.22930108765E+03  0.26114796529E+03  0.47000000000E+01 0.  1.
          5    1    3    3  503    0 -0.23905039466E+02  0.25844544866E+02 -0.93273987139E+02  0.99807404976E+02  0.47000000000E+01 0. -1.
         -5    1    4    4    0  502  0.23609465159E+02 -0.24501657871E+02 -0.32660905678E+02  0.47397920242E+02  0.47000000000E+01 0.  1.
<mgrwt>
<rscale>  0 0.16136988E+03</rscale>
<asrwt>0</asrwt>
<pdfrwt beam="1">  1        2 0.76153248E-01 0.16196944E+03</pdfrwt>
<pdfrwt beam="2">  1       -2 0.93446942E-02 0.16196944E+03</pdfrwt>
<totfact> 0.45356922E+03</totfact>
</mgrwt>
</event>
<event>
 8    1  0.3466492E-004  0.9471585E+02  0.7546771E-02  0.1292726E+00
          1   -1    0    0  501    0  0.00000000000E+00  0.00000000000E+00  0.27176343165E+03  0.27176343165E+03  0.00000000000E+00 0. -1.
         -1   -1    0    0    0  501 -0.00000000000E+00 -0.00000000000E+00 -0.98011880489E+02  0.98011880489E+02  0.00000000000E+00 0.  1.
         23    2    1    2    0    0 -0.24669671766E+02 -0.10736645792E+02 -0.64572271399E+02  0.11331997989E+03  0.89151395621E+02 0.  0.
         23    2    1    2    0    0  0.24669671766E+02  0.10736645792E+02  0.23832382256E+03  0.25645533225E+03  0.90814232200E+02 0.  0.
          5    1    3    3  502    0 -0.10246901127E+02  0.34225043687E+02 -0.38250490677E+01  0.36236357412E+02  0.47000000000E+01 0. -1.
         -5    1    3    3    0  502 -0.14422770639E+02 -0.44961689480E+02 -0.60747222331E+02  0.77083622480E+02  0.47000000000E+01 0.  1.
          5    1    4    4  503    0  0.20715465135E+02 -0.22712855271E+02  0.20973089583E+03  0.21202392072E+03  0.47000000000E+01 0. -1.
         -5    1    4    4    0  503  0.39542066310E+01  0.33449501064E+02  0.28592926727E+02  0.44431411527E+02  0.47000000000E+01 0.  1.
<mgrwt>
<rscale>  0 0.94315032E+02</rscale>
<asrwt>0</asrwt>
<pdfrwt beam="1">  1        1 0.41809758E-01 0.94715854E+02</pdfrwt>
<pdfrwt beam="2">  1       -1 0.15078751E-01 0.94715854E+02</pdfrwt>
<totfact> 0.30118578E+03</totfact>
</mgrwt>
</event>
<event>
 8    1  0.3466492E-004  0.1155467E+03  0.7546771E-02  0.1254967E+00
         -1   -1    0    0    0  501 -0.00000000000E+00  0.00000000000E+00  0.27857124913E+02  0.27857124913E+02  0.00000000000E+00 0.  1.
          1   -1    0    0  501    0  0.00000000000E+00 -0.00000000000E+00 -0.53730025098E+03  0.53730025098E+03  0.00000000000E+00 0. -1.
         23    2    1    2    0    0 -0.68461767901E+02  0.69460245087E+01 -0.12585713678E+03  0.16454626986E+03  0.80623787597E+02 0.  0.
         23    2    1    2    0    0  0.68461767901E+02 -0.69460245087E+01 -0.38358598929E+03  0.40061110603E+03  0.92821259297E+02 0.  0.
          5    1    3    3  502    0 -0.41915623034E+02  0.12452125705E+02 -0.12952495228E+03  0.13678734646E+03  0.47000000000E+01 0. -1.
         -5    1    4    4    0  503  0.48331146684E+02 -0.48380532124E+02 -0.20696415866E+03  0.21802024814E+03  0.47000000000E+01 0.  1.
          5    1    4    4  503    0  0.20130621216E+02  0.41434507616E+02 -0.17662183063E+03  0.18259085790E+03  0.47000000000E+01 0. -1.
         -5    1    3    3    0  502 -0.26546144867E+02 -0.55061011959E+01  0.36678155025E+01  0.27758923398E+02  0.47000000000E+01 0.  1.
<mgrwt>
<rscale>  0 0.11308164E+03</rscale>
<asrwt>0</asrwt>
<pdfrwt beam="1">  1        1 0.82661573E-01 0.11554673E+03</pdfrwt>
<pdfrwt beam="2">  1       -1 0.42857117E-02 0.11554673E+03</pdfrwt>
<totfact> 0.85919912E+03</totfact>
</mgrwt>
</event>
<event>
 8    1  0.3466492E-004  0.9549773E+02  0.7546771E-02  0.1290918E+00
         -3   -1    0    0    0  501 -0.00000000000E+00  0.00000000000E+00  0.11781225589E+03  0.11781225589E+03  0.00000000000E+00 0.  1.
          3   -1    0    0  501    0  0.00000000000E+00 -0.00000000000E+00 -0.85630199013E+02  0.85630199013E+02  0.00000000000E+00 0. -1.
         23    2    1    2    0    0 -0.12297450695E+01 -0.23007959567E+02 -0.17585397524E+02  0.97103363359E+02  0.92676526117E+02 0.  0.
         23    2    1    2    0    0  0.12297450695E+01  0.23007959567E+02  0.49767454397E+02  0.10633909154E+03  0.91106116128E+02 0.  0.
          5    1    4    4  502    0 -0.39843614355E+02 -0.66709688985E+01  0.10348246146E+02  0.41966553697E+02  0.47000000000E+01 0. -1.
         -5    1    3    3    0  503  0.17138656683E+02 -0.54150508287E+02 -0.88153814085E+00  0.56998931658E+02  0.47000000000E+01 0.  1.
          5    1    3    3  503    0 -0.18368401753E+02  0.31142548720E+02 -0.16703859384E+02  0.40104431701E+02  0.47000000000E+01 0. -1.
         -5    1    4    4    0  502  0.41073359424E+02  0.29678928465E+02  0.39419208251E+02  0.64372537843E+02  0.47000000000E+01 0.  1.
<mgrwt>
<rscale>  0 0.95114620E+02</rscale>
<asrwt>0</asrwt>
<pdfrwt beam="1">  1        3 0.13173877E-01 0.95497733E+02</pdfrwt>
<pdfrwt beam="2">  1       -3 0.18124963E-01 0.95497733E+02</pdfrwt>
<totfact> 0.26448714E+03</totfact>
</mgrwt>
</event>
<event>
 8    1  0.3466492E-004  0.9348399E+02  0.7546771E-02  0.1295263E+00
         -2   -1    0    0    0  501 -0.00000000000E+00  0.00000000000E+00  0.92203294643E+02  0.92203294643E+02  0.00000000000E+00 0.  1.
          2   -1    0    0  501    0  0.00000000000E+00 -0.00000000000E+00 -0.99136738336E+02  0.99136738336E+02  0.00000000000E+00 0. -1.
         23    2    1    2    0    0  0.14747734916E+02 -0.31086316940E+02 -0.25947266745E+02  0.97018128125E+02  0.86921813991E+02 0.  0.
         23    2    1    2    0    0 -0.14747734916E+02  0.31086316940E+02  0.19013823052E+02  0.94321904853E+02  0.85739381162E+02 0.  0.
          5    1    3    3  502    0  0.36151381720E+02 -0.49085865135E+02 -0.30448623610E+02  0.68304855143E+02  0.47000000000E+01 0. -1.
         -5    1    3    3    0  502 -0.21403646804E+02  0.17999548195E+02  0.45013568650E+01  0.28713272983E+02  0.47000000000E+01 0.  1.
          5    1    4    4  503    0 -0.10027223095E+02 -0.28793489122E+02 -0.91234363442E+00  0.30863126700E+02  0.47000000000E+01 0. -1.
         -5    1    4    4    0  503 -0.47205118207E+01  0.59879806062E+02  0.19926166686E+02  0.63458778153E+02  0.47000000000E+01 0.  1.
<mgrwt>
<rscale>  0 0.93208171E+02</rscale>
<asrwt>0</asrwt>
<pdfrwt beam="1">  1        2 0.15251806E-01 0.93483991E+02</pdfrwt>
<pdfrwt beam="2">  1       -2 0.14185122E-01 0.93483991E+02</pdfrwt>
<totfact> 0.12938644E+04</totfact>
</mgrwt>
</event>
<event>
 8    1  0.3466492E-004  0.1410317E+03  0.7546771E-02  0.1212886E+00
          3   -1    0    0  501    0  0.00000000000E+00  0.00000000000E+00  0.46154481979E+03  0.46154481979E+03  0.00000000000E+00 0. -1.
         -3   -1    0    0    0  501 -0.00000000000E+00 -0.00000000000E+00 -0.50216761782E+02  0.50216761782E+02  0.00000000000E+00 0.  1.
         23    2    1    2    0    0 -0.10138030003E+03 -0.34489482797E+02  0.10545613874E+03  0.17609919298E+03  0.91773846568E+02 0.  0.
         23    2    1    2    0    0  0.10138030003E+03  0.34489482797E+02  0.30587191926E+03  0.33566238859E+03  0.87430649431E+02 0.  0.
          5    1    4    4  502    0  0.10834244870E+03  0.75623241159E+01  0.22225359762E+03  0.24741468548E+03  0.47000000000E+01 0. -1.
         -5    1    4    4    0  502 -0.69621486737E+01  0.26927158681E+02  0.83618321646E+02  0.88247703107E+02  0.47000000000E+01 0.  1.
          5    1    3    3  503    0 -0.32352600326E+02 -0.51612682868E+02  0.18854106995E+02  0.63938463629E+02  0.47000000000E+01 0. -1.
         -5    1    3    3    0  503 -0.69027699701E+02  0.17123200071E+02  0.86602031746E+02  0.11216072935E+03  0.47000000000E+01 0.  1.
<mgrwt>
<rscale>  0 0.14032971E+03</rscale>
<asrwt>0</asrwt>
<pdfrwt beam="1">  1        3 0.71006893E-01 0.14103166E+03</pdfrwt>
<pdfrwt beam="2">  1       -3 0.77256560E-02 0.14103166E+03</pdfrwt>
<totfact> 0.50889490E+02</totfact>
</mgrwt>
</event>
<event>
 8    1  0.3466492E-004  0.9504866E+02  0.7546771E-02  0.1292664E+00
         -1   -1    0    0    0  501 -0.00000000000E+00  0.00000000000E+00  0.48288952587E+02  0.48288952587E+02  0.00000000000E+00 0.  1.
          1   -1    0    0  501    0  0.00000000000E+00 -0.00000000000E+00 -0.20348201472E+03  0.20348201472E+03  0.00000000000E+00 0. -1.
         23    2    1    2    0    0 -0.24371108392E+01 -0.18349232546E+02 -0.35313431930E+02  0.98782816710E+02  0.90379049332E+02 0.  0.
         23    2    1    2    0    0  0.24371108392E+01  0.18349232546E+02 -0.11987963021E+03  0.15298815060E+03  0.93228829455E+02 0.  0.
          5    1    4    4  502    0 -0.12283970404E+02  0.50725737315E+02 -0.97541129974E+02  0.11072650266E+03  0.47000000000E+01 0. -1.
         -5    1    4    4    0  502  0.14721081243E+02 -0.32376504768E+02 -0.22338500234E+02  0.42261647941E+02  0.47000000000E+01 0.  1.
          5    1    3    3  503    0 -0.18931089380E+02 -0.31682036877E+02 -0.57012645215E+02  0.68078405682E+02  0.47000000000E+01 0. -1.
         -5    1    3    3    0  503  0.16493978540E+02  0.13332804330E+02  0.21699213285E+02  0.30704411028E+02  0.47000000000E+01 0.  1.
<mgrwt>
<rscale>  0 0.94342445E+02</rscale>
<asrwt>0</asrwt>
<pdfrwt beam="1">  1        1 0.31304925E-01 0.95048664E+02</pdfrwt>
<pdfrwt beam="2">  1       -1 0.74290697E-02 0.95048664E+02</pdfrwt>
<totfact> 0.12571395E+04</totfact>
</mgrwt>
</event>
<event>
 8    1  0.3466492E-004  0.9974736E+02  0.7546771E-02  0.1282376E+00
         -1   -1    0    0    0  501 -0.00000000000E+00  0.00000000000E+00  0.33858725506E+03  0.33858725506E+03  0.00000000000E+00 0.  1.
          1   -1    0    0  501    0  0.00000000000E+00 -0.00000000000E+00 -0.55683557287E+02  0.55683557287E+02  0.00000000000E+00 0. -1.
         23    2    1    2    0    0 -0.31945523606E+02 -0.11362057545E+02  0.28014457019E+03  0.29737268998E+03  0.93807908565E+02 0.  0.
         23    2    1    2    0    0  0.31945523606E+02  0.11362057545E+02  0.27591275837E+01  0.96898122367E+02  0.90730482767E+02 0.  0.
          5    1    3    3  502    0  0.12340266593E+02 -0.38331179405E+02  0.17992838017E+03  0.18443934907E+03  0.47000000000E+01 0. -1.
         -5    1    3    3    0  502 -0.44285790199E+02  0.26969121860E+02  0.10021619002E+03  0.11293334091E+03  0.47000000000E+01 0.  1.
          5    1    4    4  503    0  0.61668474282E+02 -0.10339495418E+01  0.12122272871E+02  0.63032604828E+02  0.47000000000E+01 0. -1.
         -5    1    4    4    0  503 -0.29722950675E+02  0.12396007087E+02 -0.93631452870E+01  0.33865517539E+02  0.47000000000E+01 0.  1.
<mgrwt>
<rscale>  0 0.99017254E+02</rscale>
<asrwt>0</asrwt>
<pdfrwt beam="1">  1        1 0.85667013E-02 0.99747364E+02</pdfrwt>
<pdfrwt beam="2">  1       -1 0.52090346E-01 0.99747364E+02</pdfrwt>
<totfact> 0.28568029E+03</totfact>
</mgrwt>
</event>
<event>
 8    1  0.3466492E-004  0.1550513E+03  0.7546771E-02  0.1194699E+00
          1   -1    0    0  501    0  0.00000000000E+00  0.00000000000E+00  0.67046170932E+03  0.67046170932E+03  0.00000000000E+00 0. -1.
         -1   -1    0    0    0  501 -0.00000000000E+00 -0.00000000000E+00 -0.35812167408E+02  0.35812167408E+02  0.00000000000E+00 0.  1.
         23    2    1    2    0    0  0.21165241977E+02 -0.12243190454E+03  0.34194636418E+03  0.37503974865E+03  0.91049208511E+02 0.  0.
         23    2    1    2    0    0 -0.21165241977E+02  0.12243190454E+03  0.29270317773E+03  0.33123412808E+03  0.92754291745E+02 0.  0.
          5    1    3    3  502    0  0.52900417037E+02 -0.10435862880E+03  0.26632575585E+03  0.29093070611E+03  0.47000000000E+01 0. -1.
         -5    1    4    4    0  503 -0.39421533372E+02  0.11157935284E+03  0.28418172030E+03  0.30787229403E+03  0.47000000000E+01 0.  1.
          5    1    4    4  503    0  0.18256291395E+02  0.10852551694E+02  0.85214574239E+01  0.23361834055E+02  0.47000000000E+01 0. -1.
         -5    1    3    3    0  502 -0.31735175060E+02 -0.18073275732E+02  0.75620608334E+02  0.84109042538E+02  0.47000000000E+01 0.  1.
<mgrwt>
<rscale>  0 0.15479716E+03</rscale>
<asrwt>0</asrwt>
<pdfrwt beam="1">  1        1 0.10314795E+00 0.15505127E+03</pdfrwt>
<pdfrwt beam="2">  1       -1 0.55095647E-02 0.15505127E+03</pdfrwt>
<totfact> 0.44566189E+03</totfact>
</mgrwt>
</event>
<event>
 8    1  0.3466492E-004  0.9571751E+02  0.7546771E-02  0.1291151E+00
          2   -1    0    0  501    0  0.00000000000E+00  0.00000000000E+00  0.42548609511E+02  0.42548609511E+02  0.00000000000E+00 0. -1.
         -2   -1    0    0    0  501 -0.00000000000E+00 -0.00000000000E+00 -0.22229754866E+03  0.22229754866E+03  0.00000000000E+00 0.  1.
         23    2    1    2    0    0 -0.99105263116E+01 -0.14753228232E+02 -0.58847992741E+02  0.11236070295E+03  0.94052990613E+02 0.  0.
         23    2    1    2    0    0  0.99105263116E+01  0.14753228232E+02 -0.12090094640E+03  0.15248545521E+03  0.91207998200E+02 0.  0.
          5    1    4    4  502    0 -0.14509361131E+02 -0.30392740578E+02 -0.20712092158E+02  0.39816089735E+02  0.47000000000E+01 0. -1.
         -5    1    4    4    0  502  0.24419887442E+02  0.45145968809E+02 -0.10018885424E+03  0.11266936548E+03  0.47000000000E+01 0.  1.
          5    1    3    3  503    0 -0.45832112668E+02 -0.13492400481E+02 -0.61513511243E+01  0.48399964287E+02  0.47000000000E+01 0. -1.
         -5    1    3    3    0  503  0.35921586356E+02 -0.12608277505E+01 -0.52696641617E+02  0.63960738666E+02  0.47000000000E+01 0.  1.
<mgrwt>
<rscale>  0 0.95011225E+02</rscale>
<asrwt>0</asrwt>
<pdfrwt beam="1">  1        2 0.65459400E-02 0.95717508E+02</pdfrwt>
<pdfrwt beam="2">  1       -2 0.34199622E-01 0.95717508E+02</pdfrwt>
<totfact> 0.80597124E+03</totfact>
</mgrwt>
</event>
<event>
 8    1  0.3466492E-004  0.9878145E+02  0.7546771E-02  0.1286370E+00
          1   -1    0    0  501    0  0.00000000000E+00  0.00000000000E+00  0.10880122874E+03  0.10880122874E+03  0.00000000000E+00 0. -1.
         -1   -1    0    0    0  501 -0.00000000000E+00 -0.00000000000E+00 -0.98379073670E+02  0.98379073670E+02  0.00000000000E+00 0.  1.
         23    2    1    2    0    0  0.25677785504E+02  0.14808217173E+02  0.44869784822E+02  0.10849456894E+03  0.94229198956E+02 0.  0.
         23    2    1    2    0    0 -0.25677785504E+02 -0.14808217173E+02 -0.34447629754E+02  0.98685733465E+02  0.87599102904E+02 0.  0.
          5    1    3    3  502    0 -0.21205607773E+02  0.35141844190E+02  0.15581863711E+01  0.41341806429E+02  0.47000000000E+01 0. -1.
         -5    1    4    4    0  503  0.13831943929E+02  0.29493020650E+02 -0.13238940444E+02  0.35475632257E+02  0.47000000000E+01 0.  1.
          5    1    4    4  503    0 -0.39509729434E+02 -0.44301237823E+02 -0.21208689310E+02  0.63210101209E+02  0.47000000000E+01 0. -1.
         -5    1    3    3    0  502  0.46883393278E+02 -0.20333627017E+02  0.43311598451E+02  0.67152762514E+02  0.47000000000E+01 0.  1.
<mgrwt>
<rscale>  0 0.97166483E+02</rscale>
<asrwt>0</asrwt>
<pdfrwt beam="1">  1        1 0.16738651E-01 0.98781445E+02</pdfrwt>
<pdfrwt beam="2">  1       -1 0.15135242E-01 0.98781445E+02</pdfrwt>
<totfact> 0.93539084E+03</totfact>
</mgrwt>
</event>
<event>
 8    1  0.3466492E-004  0.1132552E+03  0.7546771E-02  0.1255609E+00
          1   -1    0    0  501    0  0.00000000000E+00  0.00000000000E+00  0.85595624920E+02  0.85595624920E+02  0.00000000000E+00 0. -1.
         -1   -1    0    0    0  501 -0.00000000000E+00 -0.00000000000E+00 -0.14874683663E+03  0.14874683663E+03  0.00000000000E+00 0.  1.
         23    2    1    2    0    0  0.30626490102E+02 -0.55094307508E+02 -0.18832173948E+02  0.11272458864E+03  0.91535880907E+02 0.  0.
         23    2    1    2    0    0 -0.30626490102E+02  0.55094307508E+02 -0.44319037765E+02  0.12161787291E+03  0.94092323209E+02 0.  0.
          5    1    3    3  502    0  0.16157407008E+02 -0.25703020486E+02  0.36833644757E+02  0.47963678439E+02  0.47000000000E+01 0. -1.
         -5    1    4    4    0  503 -0.48454205643E+02 -0.54330906791E+01 -0.27379685857E+02  0.56116536924E+02  0.47000000000E+01 0.  1.
          5    1    4    4  503    0  0.17827715541E+02  0.60527398187E+02 -0.16939351908E+02  0.65501335985E+02  0.47000000000E+01 0. -1.
         -5    1    3    3    0  502  0.14469083094E+02 -0.29391287022E+02 -0.55665818705E+02  0.64760910204E+02  0.47000000000E+01 0.  1.
<mgrwt>
<rscale>  0 0.11272272E+03</rscale>
<asrwt>0</asrwt>
<pdfrwt beam="1">  1        1 0.13168558E-01 0.11325515E+03</pdfrwt>
<pdfrwt beam="2">  1       -1 0.22884128E-01 0.11325515E+03</pdfrwt>
<totfact> 0.66866931E+03</totfact>
</mgrwt>
</event>
<event>
 8    1  0.3466492E-004  0.9360253E+02  0.7546771E-02  0.1295766E+00
         -2   -1    0    0    0  501 -0.00000000000E+00  0.00000000000E+00  0.29088351064E+02  0.29088351064E+02  0.00000000000E+00 0.  1.
          2   -1    0    0  501    0  0.00000000000E+00 -0.00000000000E+00 -0.82272816817E+03  0.82272816817E+03  0.00000000000E+00 0. -1.
         23    2    1    2    0    0 -0.59457131248E+01  0.20380983550E+02 -0.57078583462E+02  0.10963301699E+03  0.91163028307E+02 0.  0.
         23    2    1    2    0    0  0.59457131248E+01 -0.20380983550E+02 -0.73656123364E+03  0.74218350224E+03  0.88674483903E+02 0.  0.
          5    1    4    4  502    0  0.73866169322E+01 -0.54737641757E+02 -0.50548255154E+03  0.50851300027E+03  0.47000000000E+01 0. -1.
         -5    1    4    4    0  502 -0.14409038074E+01  0.34356658207E+02 -0.23107868210E+03  0.23367050197E+03  0.47000000000E+01 0.  1.
          5    1    3    3  503    0 -0.33077679416E+02 -0.23958317040E+02 -0.20843983049E+02  0.46094418971E+02  0.47000000000E+01 0. -1.
         -5    1    3    3    0  503  0.27131966291E+02  0.44339300590E+02 -0.36234600413E+02  0.63538598023E+02  0.47000000000E+01 0.  1.
<mgrwt>
<rscale>  0 0.92991080E+02</rscale>
<asrwt>0</asrwt>
<pdfrwt beam="1">  1        2 0.12657355E+00 0.93602531E+02</pdfrwt>
<pdfrwt beam="2">  1       -2 0.44751316E-02 0.93602531E+02</pdfrwt>
<totfact> 0.74938783E+03</totfact>
</mgrwt>
</event>
<event>
 8    1  0.3466492E-004  0.1136699E+03  0.7546771E-02  0.1254412E+00
         -1   -1    0    0    0  501 -0.00000000000E+00  0.00000000000E+00  0.22556388791E+02  0.22556388791E+02  0.00000000000E+00 0.  1.
          1   -1    0    0  501    0  0.00000000000E+00 -0.00000000000E+00 -0.56728556585E+03  0.56728556585E+03  0.00000000000E+00 0. -1.
         23    2    1    2    0    0 -0.37039532286E+02  0.51770389898E+02 -0.27153489281E+03  0.29394340398E+03  0.92840866590E+02 0.  0.
         23    2    1    2    0    0  0.37039532286E+02 -0.51770389898E+02 -0.27319428425E+03  0.29589855066E+03  0.94173961973E+02 0.  0.
          5    1    3    3  502    0  0.19291924995E+02  0.33058829612E+02 -0.18451556415E+03  0.18850238195E+03  0.47000000000E+01 0. -1.
         -5    1    3    3    0  502 -0.56331457281E+02  0.18711560285E+02 -0.87019328659E+02  0.10544102204E+03  0.47000000000E+01 0.  1.
          5    1    4    4  503    0  0.64585248690E+02 -0.37291583509E+02 -0.23394431980E+03  0.24558898859E+03  0.47000000000E+01 0. -1.
         -5    1    4    4    0  503 -0.27545716403E+02 -0.14478806389E+02 -0.39249964453E+02  0.50309562075E+02  0.47000000000E+01 0.  1.
<mgrwt>
<rscale>  0 0.11339335E+03</rscale>
<asrwt>0</asrwt>
<pdfrwt beam="1">  1        1 0.87274696E-01 0.11366985E+03</pdfrwt>
<pdfrwt beam="2">  1       -1 0.34702139E-02 0.11366985E+03</pdfrwt>
<totfact> 0.10869109E+04</totfact>
</mgrwt>
</event>
<event>
 8    1  0.3466492E-004  0.1200119E+03  0.7546771E-02  0.1247940E+00
          2   -1    0    0  501    0  0.00000000000E+00  0.00000000000E+00  0.47532590698E+03  0.47532590698E+03  0.00000000000E+00 0. -1.
         -2   -1    0    0    0  501 -0.00000000000E+00 -0.00000000000E+00 -0.32729247714E+02  0.32729247714E+02  0.00000000000E+00 0.  1.
         23    2    1    2    0    0 -0.59778413881E+02  0.15516172547E+02  0.33143196498E+03  0.35249112448E+03  0.10290109353E+03 0.  0.
         23    2    1    2    0    0  0.59778413881E+02 -0.15516172547E+02  0.11116469429E+03  0.15556403022E+03  0.89601159952E+02 0.  0.
          5    1    4    4  502    0  0.80913387359E+02  0.73460650312E+00  0.90619433718E+02  0.12157914158E+03  0.47000000000E+01 0. -1.
         -5    1    3    3    0  503 -0.67944496219E+02  0.43365805790E+02  0.29404549734E+03  0.30492932326E+03  0.47000000000E+01 0.  1.
          5    1    3    3  503    0  0.81660823381E+01 -0.27849633243E+02  0.37386467636E+02  0.47561801215E+02  0.47000000000E+01 0. -1.
         -5    1    4    4    0  502 -0.21134973478E+02 -0.16250779050E+02  0.20545260572E+02  0.33984888636E+02  0.47000000000E+01 0.  1.
<mgrwt>
<rscale>  0 0.11711133E+03</rscale>
<asrwt>0</asrwt>
<pdfrwt beam="1">  1        2 0.73127058E-01 0.12001186E+03</pdfrwt>
<pdfrwt beam="2">  1       -2 0.50352692E-02 0.12001186E+03</pdfrwt>
<totfact> 0.11994433E+04</totfact>
</mgrwt>
</event>
<event>
 8    1  0.3466492E-004  0.1153604E+03  0.7546771E-02  0.1252005E+00
          1   -1    0    0  501    0  0.00000000000E+00  0.00000000000E+00  0.58698275668E+03  0.58698275668E+03  0.00000000000E+00 0. -1.
         -1   -1    0    0    0  501 -0.00000000000E+00 -0.00000000000E+00 -0.31310145095E+02  0.31310145095E+02  0.00000000000E+00 0.  1.
         23    2    1    2    0    0  0.58644807724E+02  0.28429772559E+02  0.44248426889E+03  0.45667721805E+03  0.92272898692E+02 0.  0.
         23    2    1    2    0    0 -0.58644807724E+02 -0.28429772559E+02  0.11318834269E+03  0.16161568372E+03  0.95186988932E+02 0.  0.
          5    1    3    3  502    0 -0.24120514737E+02  0.15202242763E+02  0.12289580630E+03  0.12624728362E+03  0.47000000000E+01 0. -1.
         -5    1    4    4    0  503  0.23910697476E+02  0.55858003358E+01  0.33830286938E+02  0.42065436328E+02  0.47000000000E+01 0.  1.
          5    1    4    4  503    0 -0.82555505200E+02 -0.34015572895E+02  0.79358055754E+02  0.11955024739E+03  0.47000000000E+01 0. -1.
         -5    1    3    3    0  502  0.82765322461E+02  0.13227529796E+02  0.31958846259E+03  0.33042993443E+03  0.47000000000E+01 0.  1.
<mgrwt>
<rscale>  0 0.11475759E+03</rscale>
<asrwt>0</asrwt>
<pdfrwt beam="1">  1        1 0.90305031E-01 0.11536043E+03</pdfrwt>
<pdfrwt beam="2">  1       -1 0.48169458E-02 0.11536043E+03</pdfrwt>
<totfact> 0.64336653E+03</totfact>
</mgrwt>
</event>
<event>
 8    1  0.3466492E-004  0.1702062E+03  0.7546771E-02  0.1179295E+00
          1   -1    0    0  501    0  0.00000000000E+00  0.00000000000E+00  0.23350725729E+03  0.23350725729E+03  0.00000000000E+00 0. -1.
         -1   -1    0    0    0  501 -0.00000000000E+00 -0.00000000000E+00 -0.14650397183E+03  0.14650397183E+03  0.00000000000E+00 0.  1.
         23    2    1    2    0    0 -0.54270522917E+02  0.12429081538E+03 -0.37325845062E+02  0.17425091766E+03  0.10284292465E+03 0.  0.
         23    2    1    2    0    0  0.54270522917E+02 -0.12429081538E+03  0.12432913052E+03  0.20576031146E+03  0.92119903549E+02 0.  0.
          5    1    4    4  502    0  0.75590798794E+02 -0.11923717295E+03  0.10298489977E+03  0.17481261927E+03  0.47000000000E+01 0. -1.
         -5    1    4    4    0  502 -0.21320275877E+02 -0.50536424260E+01  0.21344230756E+02  0.30947692189E+02  0.47000000000E+01 0.  1.
          5    1    3    3  503    0 -0.47730257429E+02  0.48687137691E+01  0.20385768273E+01  0.48250675057E+02  0.47000000000E+01 0. -1.
         -5    1    3    3    0  503 -0.65402654877E+01  0.11942210161E+03 -0.39364421890E+02  0.12600024261E+03  0.47000000000E+01 0.  1.
<mgrwt>
<rscale>  0 0.16862012E+03</rscale>
<asrwt>0</asrwt>
<pdfrwt beam="1">  1        1 0.35924193E-01 0.17020624E+03</pdfrwt>
<pdfrwt beam="2">  1       -1 0.22539073E-01 0.17020624E+03</pdfrwt>
<totfact> 0.19630147E+03</totfact>
</mgrwt>
</event>
<event>
 7    1  0.3466492E-004  0.2645465E+03  0.7546771E-02  0.1104442E+00
          1   -1    0    0  501    0  0.00000000000E+00  0.00000000000E+00  0.81350791031E+03  0.81350791031E+03  0.00000000000E+00 0. -1.
         -1   -1    0    0    0  501 -0.00000000000E+00 -0.00000000000E+00 -0.21507127073E+02  0.21507127073E+02  0.00000000000E+00 0.  1.
         23    2    1    2    0    0  0.29198050159E+01  0.30940550173E+02  0.19876752166E+03  0.22062461777E+03  0.90558552289E+02 0.  0.
          5    1    1    2  502    0  0.19975258588E+02 -0.57531165245E+02  0.56711800959E+03  0.57039790737E+03  0.47000000000E+01 0. -1.
         -5    1    3    3    0  503  0.27601080110E+02  0.37645443536E+02  0.18567510868E+03  0.19151066557E+03  0.47000000000E+01 0.  1.
          5    1    3    3  503    0 -0.24681275094E+02 -0.67048933630E+01  0.13092412981E+02  0.29113952204E+02  0.47000000000E+01 0. -1.
         -5    1    1    2    0  502 -0.22895063604E+02  0.26590615072E+02  0.26115251989E+02  0.43992512247E+02  0.47000000000E+01 0.  1.
<mgrwt>
<rscale>  0 0.26454654E+03</rscale>
<asrwt>0</asrwt>
<pdfrwt beam="1">  1        1 0.12515504E+00 0.26454654E+03</pdfrwt>
<pdfrwt beam="2">  1       -1 0.33087894E-02 0.26454654E+03</pdfrwt>
<totfact> 0.72983389E+03</totfact>
</mgrwt>
</event>
<event>
 8    1  0.3466492E-004  0.9417154E+02  0.7546771E-02  0.1294507E+00
          2   -1    0    0  501    0  0.00000000000E+00  0.00000000000E+00  0.20207307686E+03  0.20207307686E+03  0.00000000000E+00 0. -1.
         -2   -1    0    0    0  501 -0.00000000000E+00 -0.00000000000E+00 -0.54547369187E+02  0.54547369187E+02  0.00000000000E+00 0.  1.
         23    2    1    2    0    0  0.63675595826E+01  0.20837660209E+02  0.14807351219E+02  0.95328572708E+02  0.91616184304E+02 0.  0.
         23    2    1    2    0    0 -0.63675595826E+01 -0.20837660209E+02  0.13271835645E+03  0.16129187334E+03  0.89028941176E+02 0.  0.
          5    1    4    4  502    0 -0.21721421939E+02  0.19378632860E+02  0.10686422505E+03  0.11085758512E+03  0.47000000000E+01 0. -1.
         -5    1    3    3    0  503 -0.24466186857E+02 -0.21459374675E+02  0.25608064816E+02  0.41676876615E+02  0.47000000000E+01 0.  1.
          5    1    3    3  503    0  0.30833746440E+02  0.42297034884E+02 -0.10800713597E+02  0.53651696093E+02  0.47000000000E+01 0. -1.
         -5    1    4    4    0  502  0.15353862356E+02 -0.40216293069E+02  0.25854131399E+02  0.50434288216E+02  0.47000000000E+01 0.  1.
<mgrwt>
<rscale>  0 0.93536373E+02</rscale>
<asrwt>0</asrwt>
<pdfrwt beam="1">  1        2 0.31088165E-01 0.94171541E+02</pdfrwt>
<pdfrwt beam="2">  1       -2 0.83919030E-02 0.94171541E+02</pdfrwt>
<totfact> 0.13402837E+04</totfact>
</mgrwt>
</event>
<event>
 8    1  0.3466492E-004  0.9777634E+02  0.7546771E-02  0.1287364E+00
          2   -1    0    0  501    0  0.00000000000E+00  0.00000000000E+00  0.31293725746E+03  0.31293725746E+03  0.00000000000E+00 0. -1.
         -2   -1    0    0    0  501 -0.00000000000E+00 -0.00000000000E+00 -0.33279948052E+02  0.33279948052E+02  0.00000000000E+00 0.  1.
         23    2    1    2    0    0 -0.27118288502E+02  0.83431777760E+00  0.76963222684E+02  0.12117252925E+03  0.89573135159E+02 0.  0.
         23    2    1    2    0    0  0.27118288502E+02 -0.83431777760E+00  0.20269408673E+03  0.22504467626E+03  0.93936765232E+02 0.  0.
          5    1    4    4  502    0  0.26534996688E+02 -0.28255533558E+02  0.19084747256E+03  0.19480074180E+03  0.47000000000E+01 0. -1.
         -5    1    4    4    0  502  0.58329181378E+00  0.27421215781E+02  0.11846614171E+02  0.30243934459E+02  0.47000000000E+01 0.  1.
          5    1    3    3  503    0 -0.26917102734E+02 -0.41105622244E+02  0.28846154524E+02  0.57169862956E+02  0.47000000000E+01 0. -1.
         -5    1    3    3    0  503 -0.20118576802E+00  0.41939940022E+02  0.48117068161E+02  0.64002666297E+02  0.47000000000E+01 0.  1.
<mgrwt>
<rscale>  0 0.96713014E+02</rscale>
<asrwt>0</asrwt>
<pdfrwt beam="1">  1        2 0.48144191E-01 0.97776344E+02</pdfrwt>
<pdfrwt beam="2">  1       -2 0.51199922E-02 0.97776344E+02</pdfrwt>
<totfact> 0.17899392E+04</totfact>
</mgrwt>
</event>
<event>
 8    1  0.3466492E-004  0.1534688E+03  0.7546771E-02  0.1198257E+00
          2   -1    0    0  501    0  0.00000000000E+00  0.00000000000E+00  0.66587940973E+03  0.66587940973E+03  0.00000000000E+00 0. -1.
         -2   -1    0    0    0  501 -0.00000000000E+00 -0.00000000000E+00 -0.41367527821E+02  0.41367527821E+02  0.00000000000E+00 0.  1.
         23    2    1    2    0    0 -0.12155036523E+03  0.95326509331E+01  0.45704916553E+03  0.48009844448E+03  0.82068349325E+02 0.  0.
         23    2    1    2    0    0  0.12155036523E+03 -0.95326509331E+01  0.16746271638E+03  0.22714849307E+03  0.93205760574E+02 0.  0.
          5    1    4    4  502    0  0.21946262161E+02 -0.18382632046E+02  0.10550126787E+03  0.10941739856E+03  0.47000000000E+01 0. -1.
         -5    1    4    4    0  502  0.99604103071E+02  0.88499811126E+01  0.61961448506E+02  0.11773109451E+03  0.47000000000E+01 0.  1.
          5    1    3    3  503    0 -0.11910617953E+03 -0.15838206620E+02  0.39365213111E+03  0.41160809165E+03  0.47000000000E+01 0. -1.
         -5    1    3    3    0  503 -0.24441857019E+01  0.25370857553E+02  0.63397034420E+02  0.68490352824E+02  0.47000000000E+01 0.  1.
<mgrwt>
<rscale>  0 0.15181800E+03</rscale>
<asrwt>0</asrwt>
<pdfrwt beam="1">  1        2 0.10244298E+00 0.15346881E+03</pdfrwt>
<pdfrwt beam="2">  1       -2 0.63642355E-02 0.15346881E+03</pdfrwt>
<totfact> 0.58521591E+03</totfact>
</mgrwt>
</event>
<event>
 8    1  0.3466492E-004  0.1127521E+03  0.7546771E-02  0.1255675E+00
          1   -1    0    0  501    0  0.00000000000E+00  0.00000000000E+00  0.74898518690E+02  0.74898518690E+02  0.00000000000E+00 0. -1.
         -1   -1    0    0    0  501 -0.00000000000E+00 -0.00000000000E+00 -0.20087413242E+03  0.20087413242E+03  0.00000000000E+00 0.  1.
         23    2    1    2    0    0 -0.59173884832E+02  0.29492494471E+02 -0.84179484908E+01  0.11306589937E+03  0.91332797324E+02 0.  0.
         23    2    1    2    0    0  0.59173884832E+02 -0.29492494471E+02 -0.11755766523E+03  0.16270675174E+03  0.91007288331E+02 0.  0.
          5    1    4    4  502    0  0.24266362516E+02 -0.60496854863E+02 -0.73322914652E+02  0.98219476740E+02  0.47000000000E+01 0. -1.
         -5    1    4    4    0  502  0.34907522316E+02  0.31004360391E+02 -0.44234750582E+02  0.64487274997E+02  0.47000000000E+01 0.  1.
          5    1    3    3  503    0 -0.13196403442E+02 -0.15200344422E+02  0.31289097690E+02  0.37500575577E+02  0.47000000000E+01 0. -1.
         -5    1    3    3    0  503 -0.45977481390E+02  0.44692838893E+02 -0.39707046181E+02  0.75565323791E+02  0.47000000000E+01 0.  1.
<mgrwt>
<rscale>  0 0.11268616E+03</rscale>
<asrwt>0</asrwt>
<pdfrwt beam="1">  1        1 0.11522849E-01 0.11275210E+03</pdfrwt>
<pdfrwt beam="2">  1       -1 0.30903713E-01 0.11275210E+03</pdfrwt>
<totfact> 0.48491790E+03</totfact>
</mgrwt>
</event>
<event>
 8    1  0.3466492E-004  0.1059576E+03  0.7546771E-02  0.1277719E+00
         -1   -1    0    0    0  501 -0.00000000000E+00  0.00000000000E+00  0.15052372112E+02  0.15052372112E+02  0.00000000000E+00 0.  1.
          1   -1    0    0  501    0  0.00000000000E+00 -0.00000000000E+00 -0.85320779679E+03  0.85320779679E+03  0.00000000000E+00 0. -1.
         23    2    1    2    0    0 -0.39857264634E+02  0.18864794524E+02 -0.16809273548E+03  0.18987162692E+03  0.76495653276E+02 0.  0.
         23    2    1    2    0    0  0.39857264634E+02 -0.18864794524E+02 -0.67006268920E+03  0.67838854199E+03  0.96345858380E+02 0.  0.
          5    1    4    4  502    0  0.61838783513E+02 -0.31844379022E+02 -0.59273385256E+03  0.59681957876E+03  0.47000000000E+01 0. -1.
         -5    1    3    3    0  503 -0.17938053175E+02  0.35152765887E+02 -0.32110124502E+02  0.51094430193E+02  0.47000000000E+01 0.  1.
          5    1    3    3  503    0 -0.21919211459E+02 -0.16287971363E+02 -0.13598261098E+03  0.13877719672E+03  0.47000000000E+01 0. -1.
         -5    1    4    4    0  502 -0.21981518879E+02  0.12979584498E+02 -0.77328836642E+02  0.81568963230E+02  0.47000000000E+01 0.  1.
<mgrwt>
<rscale>  0 0.10123564E+03</rscale>
<asrwt>0</asrwt>
<pdfrwt beam="1">  1        1 0.13126277E+00 0.10595757E+03</pdfrwt>
<pdfrwt beam="2">  1       -1 0.23157490E-02 0.10595757E+03</pdfrwt>
<totfact> 0.10867251E+04</totfact>
</mgrwt>
</event>
<event>
 8    1  0.3466492E-004  0.1585297E+03  0.7546771E-02  0.1192015E+00
         -2   -1    0    0    0  501 -0.00000000000E+00  0.00000000000E+00  0.31721154558E+02  0.31721154558E+02  0.00000000000E+00 0. -1.
          2   -1    0    0  501    0  0.00000000000E+00 -0.00000000000E+00 -0.12844841720E+04  0.12844841720E+04  0.00000000000E+00 0.  1.
         23    2    1    2    0    0 -0.79645372035E+02  0.10189807028E+03 -0.21436943780E+03  0.26661942032E+03  0.91679100208E+02 0.  0.
         23    2    1    2    0    0  0.79645372035E+02 -0.10189807028E+03 -0.10383935797E+04  0.10495859063E+04  0.81503044860E+02 0.  0.
          5    1    4    4  502    0  0.32381790740E+02 -0.99495593716E+02 -0.67049756846E+03  0.67862878870E+03  0.47000000000E+01 0. -1.
         -5    1    4    4    0  502  0.47263581295E+02 -0.24024765681E+01 -0.36789601121E+03  0.37095711757E+03  0.47000000000E+01 0.  1.
          5    1    3    3  503    0 -0.33984121835E+02  0.46101530414E+02 -0.22705185223E+02  0.61789053071E+02  0.47000000000E+01 0. -1.
         -5    1    3    3    0  503 -0.45661250199E+02  0.55796539870E+02 -0.19166425258E+03  0.20483036725E+03  0.47000000000E+01 0.  1.
<mgrwt>
<rscale>  0 0.15709551E+03</rscale>
<asrwt>0</asrwt>
<pdfrwt beam="1">  1        2 0.19761298E+00 0.15852968E+03</pdfrwt>
<pdfrwt beam="2">  1       -2 0.48801769E-02 0.15852968E+03</pdfrwt>
<totfact> 0.36046431E+03</totfact>
</mgrwt>
</event>
<event>
 8    1  0.3466492E-004  0.1043467E+03  0.7546771E-02  0.1272429E+00
         -1   -1    0    0    0  501 -0.00000000000E+00  0.00000000000E+00  0.72453789961E+03  0.72453789961E+03  0.00000000000E+00 0.  1.
          1   -1    0    0  501    0  0.00000000000E+00 -0.00000000000E+00 -0.23115603246E+02  0.23115603246E+02  0.00000000000E+00 0. -1.
         23    2    1    2    0    0 -0.24224972127E+02 -0.42822908661E+02  0.57794902854E+03  0.58729320877E+03  0.92019469111E+02 0.  0.
         23    2    1    2    0    0  0.24224972127E+02  0.42822908661E+02  0.12347326782E+03  0.16036029409E+03  0.89716917422E+02 0.  0.
          5    1    4    4  502    0 -0.27387380443E+02  0.26820783731E+02  0.19903767080E+02  0.43447358855E+02  0.47000000000E+01 0. -1.
         -5    1    3    3    0  503 -0.43563575846E+02 -0.60484141512E+02  0.48079342349E+03  0.48655988592E+03  0.47000000000E+01 0.  1.
          5    1    3    3  503    0  0.19338603720E+02  0.17661232852E+02  0.97155605044E+02  0.10073332284E+03  0.47000000000E+01 0. -1.
         -5    1    4    4    0  502  0.51612352570E+02  0.16002124930E+02  0.10356950075E+03  0.11691293523E+03  0.47000000000E+01 0.  1.
<mgrwt>
<rscale>  0 0.10383678E+03</rscale>
<asrwt>0</asrwt>
<pdfrwt beam="1">  1        1 0.35562472E-02 0.10434670E+03</pdfrwt>
<pdfrwt beam="2">  1       -1 0.11146735E+00 0.10434670E+03</pdfrwt>
<totfact> 0.20192121E+03</totfact>
</mgrwt>
</event>
<event>
 8    1  0.3466492E-004  0.1011914E+03  0.7546771E-02  0.1278279E+00
          1   -1    0    0  501    0  0.00000000000E+00  0.00000000000E+00  0.30694193659E+02  0.30694193659E+02  0.00000000000E+00 0. -1.
         -1   -1    0    0    0  501 -0.00000000000E+00 -0.00000000000E+00 -0.33380306408E+03  0.33380306408E+03  0.00000000000E+00 0.  1.
         23    2    1    2    0    0  0.42958809499E+02 -0.67856614279E+01 -0.13314097120E+03  0.16668729763E+03  0.90369422173E+02 0.  0.
         23    2    1    2    0    0 -0.42958809499E+02  0.67856614279E+01 -0.16996789923E+03  0.19780996012E+03  0.91368424738E+02 0.  0.
          5    1    3    3  502    0 -0.12034307142E+02 -0.21149918512E+02 -0.34661565240E+01  0.25024944405E+02  0.47000000000E+01 0. -1.
         -5    1    4    4    0  503  0.16360356254E+02 -0.15015760490E+02 -0.10354986857E+03  0.10600848835E+03  0.47000000000E+01 0.  1.
          5    1    4    4  503    0 -0.59319165753E+02  0.21801421918E+02 -0.66418030653E+02  0.91801471770E+02  0.47000000000E+01 0. -1.
         -5    1    3    3    0  502  0.54993116641E+02  0.14364257084E+02 -0.12967481467E+03  0.14166235322E+03  0.47000000000E+01 0.  1.
<mgrwt>
<rscale>  0 0.10096534E+03</rscale>
<asrwt>0</asrwt>
<pdfrwt beam="1">  1        1 0.47221838E-02 0.10119137E+03</pdfrwt>
<pdfrwt beam="2">  1       -1 0.51354316E-01 0.10119137E+03</pdfrwt>
<totfact> 0.65275702E+03</totfact>
</mgrwt>
</event>
<event>
 8    1  0.3466492E-004  0.9529056E+02  0.7546771E-02  0.1290883E+00
          1   -1    0    0  501    0  0.00000000000E+00  0.00000000000E+00  0.14789042320E+03  0.14789042320E+03  0.00000000000E+00 0. -1.
         -1   -1    0    0    0  501 -0.00000000000E+00 -0.00000000000E+00 -0.74415787284E+02  0.74415787284E+02  0.00000000000E+00 0.  1.
         23    2    1    2    0    0  0.61297979381E+01 -0.21845787511E+02 -0.10378908972E+02  0.95854122724E+02  0.92549868920E+02 0.  0.
         23    2    1    2    0    0 -0.61297979381E+01  0.21845787511E+02  0.83853544892E+02  0.12645208777E+03  0.91890699499E+02 0.  0.
          5    1    3    3  502    0 -0.19175602789E+02  0.25444996794E+02  0.15928116479E+02  0.35929743928E+02  0.47000000000E+01 0. -1.
         -5    1    3    3    0  502  0.25305400727E+02 -0.47290784304E+02 -0.26307025451E+02  0.59924378796E+02  0.47000000000E+01 0.  1.
          5    1    4    4  503    0  0.23586236571E+02  0.77658422938E+01  0.89285838898E+02  0.92793695313E+02  0.47000000000E+01 0. -1.
         -5    1    4    4    0  503 -0.29716034509E+02  0.14079945217E+02 -0.54322940061E+01  0.33658392452E+02  0.47000000000E+01 0.  1.
<mgrwt>
<rscale>  0 0.95130137E+02</rscale>
<asrwt>0</asrwt>
<pdfrwt beam="1">  1        1 0.22752373E-01 0.95290561E+02</pdfrwt>
<pdfrwt beam="2">  1       -1 0.11448583E-01 0.95290561E+02</pdfrwt>
<totfact> 0.97315419E+03</totfact>
</mgrwt>
</event>
<event>
 8    1  0.3466492E-004  0.1138618E+03  0.7546771E-02  0.1255481E+00
          1   -1    0    0  501    0  0.00000000000E+00  0.00000000000E+00  0.10753176352E+03  0.10753176352E+03  0.00000000000E+00 0. -1.
         -1   -1    0    0    0  501 -0.00000000000E+00 -0.00000000000E+00 -0.13625061707E+03  0.13625061707E+03  0.00000000000E+00 0.  1.
         23    2    1    2    0    0 -0.50982000066E+02 -0.37407610780E+02 -0.60943153404E+02  0.12544848965E+03  0.89581035576E+02 0.  0.
         23    2    1    2    0    0  0.50982000066E+02  0.37407610780E+02  0.32224299850E+02  0.11833389094E+03  0.94689020321E+02 0.  0.
          5    1    3    3  502    0  0.22081019356E+02 -0.27360373609E+02 -0.15634866491E+02  0.38764681219E+02  0.47000000000E+01 0. -1.
         -5    1    3    3    0  502 -0.73063019422E+02 -0.10047237171E+02 -0.45308286913E+02  0.86683808436E+02  0.47000000000E+01 0.  1.
          5    1    4    4  503    0  0.68460439329E+02  0.25894855467E+02 -0.69477592322E+01  0.73673174570E+02  0.47000000000E+01 0. -1.
         -5    1    4    4    0  503 -0.17478439263E+02  0.11512755313E+02  0.39172059083E+02  0.44660716371E+02  0.47000000000E+01 0.  1.
<mgrwt>
<rscale>  0 0.11279406E+03</rscale>
<asrwt>0</asrwt>
<pdfrwt beam="1">  1        1 0.16543348E-01 0.11386178E+03</pdfrwt>
<pdfrwt beam="2">  1       -1 0.20961633E-01 0.11386178E+03</pdfrwt>
<totfact> 0.57428676E+03</totfact>
</mgrwt>
</event>
<event>
 8    1  0.3466492E-004  0.1047548E+03  0.7546771E-02  0.1274625E+00
         -3   -1    0    0    0  501 -0.00000000000E+00  0.00000000000E+00  0.12850243183E+02  0.12850243183E+02  0.00000000000E+00 0.  1.
          3   -1    0    0  501    0  0.00000000000E+00 -0.00000000000E+00 -0.79652163001E+03  0.79652163001E+03  0.00000000000E+00 0. -1.
         23    2    1    2    0    0 -0.35695921677E+02  0.12309496270E+01 -0.37480151980E+03  0.38916545081E+03  0.98477686794E+02 0.  0.
         23    2    1    2    0    0  0.35695921677E+02 -0.12309496270E+01 -0.40886986702E+03  0.42020642238E+03  0.90128548144E+02 0.  0.
          5    1    3    3  502    0 -0.92856286369E+01  0.48269472932E+02 -0.14931120444E+03  0.15726439740E+03  0.47000000000E+01 0. -1.
         -5    1    4    4    0  503  0.93257842434E+01 -0.43457069506E+02 -0.14857731280E+03  0.15515410088E+03  0.47000000000E+01 0.  1.
          5    1    4    4  503    0  0.26370137434E+02  0.42226119879E+02 -0.26029255422E+03  0.26505232150E+03  0.47000000000E+01 0. -1.
         -5    1    3    3    0  502 -0.26410293040E+02 -0.47038523305E+02 -0.22549031536E+03  0.23190105342E+03  0.47000000000E+01 0.  1.
<mgrwt>
<rscale>  0 0.10274600E+03</rscale>
<asrwt>0</asrwt>
<pdfrwt beam="1">  1        3 0.12254180E+00 0.10475480E+03</pdfrwt>
<pdfrwt beam="2">  1       -3 0.19769603E-02 0.10475480E+03</pdfrwt>
<totfact> 0.12080658E+03</totfact>
</mgrwt>
</event>
<event>
 8    1  0.3466492E-004  0.1643427E+03  0.7546771E-02  0.1184260E+00
          1   -1    0    0  501    0  0.00000000000E+00  0.00000000000E+00  0.98558838436E+03  0.98558838436E+03  0.00000000000E+00 0. -1.
         -1   -1    0    0    0  501 -0.00000000000E+00 -0.00000000000E+00 -0.27237484838E+02  0.27237484838E+02  0.00000000000E+00 0.  1.
         23    2    1    2    0    0 -0.33770367024E+01  0.13539222914E+03  0.50604106027E+03  0.53205834606E+03  0.93091722734E+02 0.  0.
         23    2    1    2    0    0  0.33770367024E+01 -0.13539222914E+03  0.45230983925E+03  0.48076752314E+03  0.90613247022E+02 0.  0.
          5    1    3    3  502    0 -0.17872934057E+02  0.11682972128E+03  0.26966677600E+03  0.29446712147E+03  0.47000000000E+01 0. -1.
         -5    1    4    4    0  503  0.37023309430E+02 -0.11284895994E+03  0.37469210159E+03  0.39309270433E+03  0.47000000000E+01 0.  1.
          5    1    4    4  503    0 -0.33646272727E+02 -0.22543269202E+02  0.77617737660E+02  0.87674818814E+02  0.47000000000E+01 0. -1.
         -5    1    3    3    0  502  0.14495897355E+02  0.18562507856E+02  0.23637428427E+03  0.23759122459E+03  0.47000000000E+01 0.  1.
<mgrwt>
<rscale>  0 0.16399383E+03</rscale>
<asrwt>0</asrwt>
<pdfrwt beam="1">  1        1 0.15162895E+00 0.16434272E+03</pdfrwt>
<pdfrwt beam="2">  1       -1 0.41903831E-02 0.16434272E+03</pdfrwt>
<totfact> 0.37113154E+03</totfact>
</mgrwt>
</event>
<event>
 8    1  0.3466492E-004  0.9741011E+02  0.7546771E-02  0.1286547E+00
         -1   -1    0    0    0  501 -0.00000000000E+00  0.00000000000E+00  0.60917116539E+03  0.60917116539E+03  0.00000000000E+00 0.  1.
          1   -1    0    0  501    0  0.00000000000E+00 -0.00000000000E+00 -0.26735321968E+02  0.26735321968E+02  0.00000000000E+00 0. -1.
         23    2    1    2    0    0  0.27175454811E+02 -0.26341016623E+02  0.85037603437E+02  0.12930631568E+03  0.89757310433E+02 0.  0.
         23    2    1    2    0    0 -0.27175454811E+02  0.26341016623E+02  0.49739823998E+03  0.50660017167E+03  0.88353666031E+02 0.  0.
          5    1    3    3  502    0  0.21195485049E+02  0.21130176586E+02 -0.14762245083E+01  0.30331537841E+02  0.47000000000E+01 0. -1.
         -5    1    4    4    0  503 -0.33200369184E+02  0.54479004195E+02  0.27754548688E+03  0.28482242486E+03  0.47000000000E+01 0.  1.
          5    1    4    4  503    0  0.60249143731E+01 -0.28137987573E+02  0.21985275310E+03  0.22177774681E+03  0.47000000000E+01 0. -1.
         -5    1    3    3    0  502  0.59799697620E+01 -0.47471193209E+02  0.86513827945E+02  0.98974777841E+02  0.47000000000E+01 0.  1.
<mgrwt>
<rscale>  0 0.97085534E+02</rscale>
<asrwt>0</asrwt>
<pdfrwt beam="1">  1        1 0.41131269E-02 0.97410109E+02</pdfrwt>
<pdfrwt beam="2">  1       -1 0.93718630E-01 0.97410109E+02</pdfrwt>
<totfact> 0.24148874E+03</totfact>
</mgrwt>
</event>
<event>
 8    1  0.3466492E-004  0.2092069E+03  0.7546771E-02  0.1142732E+00
          2   -1    0    0  501    0  0.00000000000E+00  0.00000000000E+00  0.96946663993E+03  0.96946663993E+03  0.00000000000E+00 0. -1.
         -2   -1    0    0    0  501 -0.00000000000E+00 -0.00000000000E+00 -0.79621621819E+02  0.79621621819E+02  0.00000000000E+00 0.  1.
         23    2    1    2    0    0 -0.15151046673E+03  0.10757972901E+03  0.98498617635E+02  0.23123471278E+03  0.96118130943E+02 0.  0.
         23    2    1    2    0    0  0.15151046673E+03 -0.10757972901E+03  0.79134640047E+03  0.81785354897E+03  0.90147004340E+02 0.  0.
          5    1    4    4  502    0  0.40411916254E+02 -0.83077075672E+02  0.37088515381E+03  0.38224705466E+03  0.47000000000E+01 0. -1.
         -5    1    3    3    0  503 -0.97781501195E+02  0.76567757504E+02  0.12243202268E+02  0.12488326336E+03  0.47000000000E+01 0.  1.
          5    1    3    3  503    0 -0.53728965532E+02  0.31011971508E+02  0.86255415367E+02  0.10635144942E+03  0.47000000000E+01 0. -1.
         -5    1    4    4    0  502  0.11109855047E+03 -0.24502653340E+02  0.42046124666E+03  0.43560649430E+03  0.47000000000E+01 0.  1.
<mgrwt>
<rscale>  0 0.20853482E+03</rscale>
<asrwt>0</asrwt>
<pdfrwt beam="1">  1        2 0.14914871E+00 0.20920687E+03</pdfrwt>
<pdfrwt beam="2">  1       -2 0.12249481E-01 0.20920687E+03</pdfrwt>
<totfact> 0.13127867E+03</totfact>
</mgrwt>
</event>
<event>
 8    1  0.3466492E-004  0.1710699E+03  0.7546771E-02  0.1176951E+00
         -1   -1    0    0    0  501 -0.00000000000E+00  0.00000000000E+00  0.25493936498E+03  0.25493936498E+03  0.00000000000E+00 0.  1.
          1   -1    0    0  501    0  0.00000000000E+00 -0.00000000000E+00 -0.11877717035E+03  0.11877717035E+03  0.00000000000E+00 0. -1.
         23    2    1    2    0    0  0.46361112377E+02  0.13606311916E+03  0.31706301139E+02  0.17398337749E+03  0.92749129240E+02 0.  0.
         23    2    1    2    0    0 -0.46361112377E+02 -0.13606311916E+03  0.10445589349E+03  0.19973315784E+03  0.91212803473E+02 0.  0.
          5    1    3    3  502    0  0.54995305926E+02  0.66589940685E+02 -0.17551161868E+02  0.88254388884E+02  0.47000000000E+01 0. -1.
         -5    1    3    3    0  502 -0.86341935492E+01  0.69473178476E+02  0.49257463007E+02  0.85728988608E+02  0.47000000000E+01 0.  1.
          5    1    4    4  503    0 -0.22617877928E+02 -0.14314608561E+03  0.87759979542E+02  0.16948827168E+03  0.47000000000E+01 0. -1.
         -5    1    4    4    0  503 -0.23743234449E+02  0.70829664527E+01  0.16695913949E+02  0.30244886154E+02  0.47000000000E+01 0.  1.
<mgrwt>
<rscale>  0 0.17086255E+03</rscale>
<asrwt>0</asrwt>
<pdfrwt beam="1">  1        1 0.18273411E-01 0.17106995E+03</pdfrwt>
<pdfrwt beam="2">  1       -1 0.39221441E-01 0.17106995E+03</pdfrwt>
<totfact> 0.18082550E+03</totfact>
</mgrwt>
</event>
<event>
 8    1  0.3466492E-004  0.1430906E+03  0.7546771E-02  0.1209348E+00
         -2   -1    0    0    0  501 -0.00000000000E+00  0.00000000000E+00  0.22055911700E+03  0.22055911700E+03  0.00000000000E+00 0.  1.
          2   -1    0    0  501    0  0.00000000000E+00 -0.00000000000E+00 -0.92628142449E+02  0.92628142449E+02  0.00000000000E+00 0. -1.
         23    2    1    2    0    0 -0.10076088384E+03  0.44376232827E+02  0.61190336711E+02  0.15562512439E+03  0.91394290197E+02 0.  0.
         23    2    1    2    0    0  0.10076088384E+03 -0.44376232827E+02  0.66740637845E+02  0.15756213507E+03  0.90826801739E+02 0.  0.
          5    1    4    4  502    0  0.54697058455E+02  0.16039598648E+02  0.57130196127E+02  0.80839261735E+02  0.47000000000E+01 0. -1.
         -5    1    4    4    0  502  0.46063825388E+02 -0.60415831476E+02  0.96104417177E+01  0.76722873332E+02  0.47000000000E+01 0.  1.
          5    1    3    3  503    0 -0.34806174724E+02  0.32231614365E+02 -0.18704807030E+02  0.51208461894E+02  0.47000000000E+01 0. -1.
         -5    1    3    3    0  503 -0.65954709119E+02  0.12144618462E+02  0.79895143742E+02  0.10441666249E+03  0.47000000000E+01 0.  1.
<mgrwt>
<rscale>  0 0.14300007E+03</rscale>
<asrwt>0</asrwt>
<pdfrwt beam="1">  1        2 0.14250484E-01 0.14309061E+03</pdfrwt>
<pdfrwt beam="2">  1       -2 0.33932172E-01 0.14309061E+03</pdfrwt>
<totfact> 0.32503407E+03</totfact>
</mgrwt>
</event>
<event>
 8    1  0.3466492E-004  0.1462149E+03  0.7546771E-02  0.1205311E+00
          2   -1    0    0  501    0  0.00000000000E+00  0.00000000000E+00  0.85756689405E+03  0.85756689405E+03  0.00000000000E+00 0. -1.
         -2   -1    0    0    0  501 -0.00000000000E+00 -0.00000000000E+00 -0.80402637299E+02  0.80402637299E+02  0.00000000000E+00 0.  1.
         23    2    1    2    0    0 -0.88101255784E+02 -0.71297179339E+02 -0.13120714759E+01  0.14588102972E+03  0.91839176002E+02 0.  0.
         23    2    1    2    0    0  0.88101255784E+02  0.71297179339E+02  0.77847632823E+03  0.79208850163E+03  0.92377928898E+02 0.  0.
          5    1    3    3  502    0  0.16814052627E+02 -0.12505917874E+02  0.12313992986E+02  0.24755499810E+02  0.47000000000E+01 0. -1.
         -5    1    3    3    0  502 -0.10491530841E+03 -0.58791261466E+02 -0.13626064462E+02  0.12112552991E+03  0.47000000000E+01 0.  1.
          5    1    4    4  503    0 -0.16335520029E+02  0.28372820883E+02  0.16273861107E+03  0.16606568494E+03  0.47000000000E+01 0. -1.
         -5    1    4    4    0  503  0.10443677581E+03  0.42924358457E+02  0.61573771715E+03  0.62602281669E+03  0.47000000000E+01 0.  1.
<mgrwt>
<rscale>  0 0.14612989E+03</rscale>
<asrwt>0</asrwt>
<pdfrwt beam="1">  1        2 0.13193336E+00 0.14621491E+03</pdfrwt>
<pdfrwt beam="2">  1       -2 0.12369637E-01 0.14621491E+03</pdfrwt>
<totfact> 0.15183523E+03</totfact>
</mgrwt>
</event>
<event>
 8    1  0.3466492E-004  0.2222689E+03  0.7546771E-02  0.1132429E+00
         -3   -1    0    0    0  501 -0.00000000000E+00  0.00000000000E+00  0.73247065553E+02  0.73247065553E+02  0.00000000000E+00 0.  1.
          3   -1    0    0  501    0  0.00000000000E+00 -0.00000000000E+00 -0.74137149698E+03  0.74137149698E+03  0.00000000000E+00 0. -1.
         23    2    1    2    0    0  0.18686516624E+03  0.76972056949E+02 -0.20751812135E+03  0.30318758847E+03  0.89530191602E+02 0.  0.
         23    2    1    2    0    0 -0.18686516624E+03 -0.76972056949E+02 -0.46060631008E+03  0.51143097407E+03  0.92521243230E+02 0.  0.
          5    1    4    4  502    0 -0.15192215816E+03 -0.87961397800E+02 -0.42617720236E+03  0.46094104553E+03  0.47000000000E+01 0. -1.
         -5    1    3    3    0  503  0.16488009835E+03  0.93834909866E+02 -0.19599912652E+03  0.27281529418E+03  0.47000000000E+01 0.  1.
          5    1    3    3  503    0  0.21985067887E+02 -0.16862852916E+02 -0.11518994831E+02  0.30372294289E+02  0.47000000000E+01 0. -1.
         -5    1    4    4    0  502 -0.34943008072E+02  0.10989340851E+02 -0.34429107722E+02  0.50489928540E+02  0.47000000000E+01 0.  1.
<mgrwt>
<rscale>  0 0.22196119E+03</rscale>
<asrwt>0</asrwt>
<pdfrwt beam="1">  1        3 0.11405715E+00 0.22226891E+03</pdfrwt>
<pdfrwt beam="2">  1       -3 0.11268780E-01 0.22226891E+03</pdfrwt>
<totfact> 0.99511643E+01</totfact>
</mgrwt>
</event>
<event>
 8    1  0.3466492E-004  0.9975941E+02  0.7546771E-02  0.1281475E+00
          1   -1    0    0  501    0  0.00000000000E+00  0.00000000000E+00  0.39420114123E+02  0.39420114123E+02  0.00000000000E+00 0. -1.
         -1   -1    0    0    0  501 -0.00000000000E+00 -0.00000000000E+00 -0.26137152807E+03  0.26137152807E+03  0.00000000000E+00 0.  1.
         23    2    1    2    0    0 -0.98579171133E+01  0.35898183065E+02 -0.14266811951E+03  0.17336409139E+03  0.91186938655E+02 0.  0.
         23    2    1    2    0    0  0.98579171133E+01 -0.35898183065E+02 -0.79283294435E+02  0.12742755080E+03  0.92553129876E+02 0.  0.
          5    1    3    3  502    0 -0.46640584778E+02  0.21508025404E+02 -0.47087685556E+02  0.69837521694E+02  0.47000000000E+01 0. -1.
         -5    1    3    3    0  502  0.36782667665E+02  0.14390157661E+02 -0.95580433956E+02  0.10352656970E+03  0.47000000000E+01 0.  1.
          5    1    4    4  503    0 -0.20746872449E+02  0.23531815647E+02 -0.17240450410E+02  0.36104046787E+02  0.47000000000E+01 0. -1.
         -5    1    4    4    0  503  0.30604789562E+02 -0.59429998712E+02 -0.62042844024E+02  0.91323504015E+02  0.47000000000E+01 0.  1.
<mgrwt>
<rscale>  0 0.99441347E+02</rscale>
<asrwt>0</asrwt>
<pdfrwt beam="1">  1        1 0.60646330E-02 0.99759410E+02</pdfrwt>
<pdfrwt beam="2">  1       -1 0.40211004E-01 0.99759410E+02</pdfrwt>
<totfact> 0.71844682E+03</totfact>
</mgrwt>
</event>
<event>
 8    1  0.3466492E-004  0.1147460E+03  0.7546771E-02  0.1252079E+00
         -1   -1    0    0    0  501 -0.00000000000E+00  0.00000000000E+00  0.23629467654E+03  0.23629467654E+03  0.00000000000E+00 0.  1.
          1   -1    0    0  501    0  0.00000000000E+00 -0.00000000000E+00 -0.69427257626E+02  0.69427257626E+02  0.00000000000E+00 0. -1.
         23    2    1    2    0    0 -0.65612285932E+02 -0.22151450629E+02  0.15146285564E+03  0.18994657349E+03  0.91340272124E+02 0.  0.
         23    2    1    2    0    0  0.65612285932E+02  0.22151450629E+02  0.15404563282E+02  0.11577536068E+03  0.91493031106E+02 0.  0.
          5    1    4    4  502    0  0.53626255405E+02 -0.28319562074E+02 -0.19939908318E+01  0.60859172392E+02  0.47000000000E+01 0. -1.
         -5    1    3    3    0  503 -0.45159956552E+02 -0.47307521889E+02  0.14109193753E+03  0.15558421558E+03  0.47000000000E+01 0.  1.
          5    1    3    3  503    0 -0.20452329380E+02  0.25156071260E+02  0.10370918107E+02  0.34362357903E+02  0.47000000000E+01 0. -1.
         -5    1    4    4    0  502  0.11986030528E+02  0.50471012703E+02  0.17398554113E+02  0.54916188290E+02  0.47000000000E+01 0.  1.
<mgrwt>
<rscale>  0 0.11471550E+03</rscale>
<asrwt>0</asrwt>
<pdfrwt beam="1">  1        1 0.10681117E-01 0.11474595E+03</pdfrwt>
<pdfrwt beam="2">  1       -1 0.36353027E-01 0.11474595E+03</pdfrwt>
<totfact> 0.40702667E+03</totfact>
</mgrwt>
</event>
<event>
 8    1  0.3466492E-004  0.2506336E+03  0.7546771E-02  0.1112912E+00
         -1   -1    0    0    0  501 -0.00000000000E+00  0.00000000000E+00  0.19916275533E+03  0.19916275533E+03  0.00000000000E+00 0.  1.
          1   -1    0    0  501    0  0.00000000000E+00 -0.00000000000E+00 -0.68464657432E+03  0.68464657432E+03  0.00000000000E+00 0. -1.
         23    2    1    2    0    0  0.47918975411E+02 -0.22857148202E+03 -0.56728252683E+03  0.62016516698E+03  0.90852729694E+02 0.  0.
         23    2    1    2    0    0 -0.47918975411E+02  0.22857148202E+03  0.81798707838E+02  0.26364416266E+03  0.90972882241E+02 0.  0.
          5    1    3    3  502    0  0.97199756441E+01 -0.17800032476E+03 -0.48108905953E+03  0.51307637515E+03  0.47000000000E+01 0. -1.
         -5    1    4    4    0  503 -0.25145066398E+02  0.21830336818E+02 -0.11630310221E+02  0.35583592927E+02  0.47000000000E+01 0. -1.
          5    1    4    4  503    0 -0.22773909013E+02  0.20674114520E+03  0.93429018059E+02  0.22806056973E+03  0.47000000000E+01 0.  1.
         -5    1    3    3    0  502  0.38198999767E+02 -0.50571157264E+02 -0.86193467301E+02  0.10708879183E+03  0.47000000000E+01 0.  1.
<mgrwt>
<rscale>  0 0.25062273E+03</rscale>
<asrwt>0</asrwt>
<pdfrwt beam="1">  1        1 0.10533024E+00 0.25063363E+03</pdfrwt>
<pdfrwt beam="2">  1       -1 0.30640423E-01 0.25063363E+03</pdfrwt>
<totfact> 0.29004413E+02</totfact>
</mgrwt>
</event>
<event>
 8    1  0.3466492E-004  0.1684352E+03  0.7546771E-02  0.1179707E+00
         -1   -1    0    0    0  501 -0.00000000000E+00  0.00000000000E+00  0.13725233675E+02  0.13725233675E+02  0.00000000000E+00 0.  1.
          1   -1    0    0  501    0  0.00000000000E+00 -0.00000000000E+00 -0.21335624115E+04  0.21335624115E+04  0.00000000000E+00 0. -1.
         23    2    1    2    0    0  0.12183514550E+03  0.72166295938E+02 -0.85896370929E+03  0.87532227012E+03  0.91206610171E+02 0.  0.
         23    2    1    2    0    0 -0.12183514550E+03 -0.72166295938E+02 -0.12608734686E+04  0.12719653751E+04  0.89678507694E+02 0.  0.
          5    1    4    4  502    0 -0.12354039474E+03 -0.34853969207E+02 -0.10406603051E+04  0.10485575754E+04  0.47000000000E+01 0. -1.
         -5    1    4    4    0  502  0.17052492457E+01 -0.37312326731E+02 -0.22021316344E+03  0.22340779967E+03  0.47000000000E+01 0.  1.
          5    1    3    3  503    0  0.48843286368E+02  0.76676607457E+02 -0.56931008047E+03  0.57654230242E+03  0.47000000000E+01 0. -1.
         -5    1    3    3    0  503  0.72991859129E+02 -0.45103115194E+01 -0.28965362882E+03  0.29877996770E+03  0.47000000000E+01 0.  1.
<mgrwt>
<rscale>  0 0.16822921E+03</rscale>
<asrwt>0</asrwt>
<pdfrwt beam="1">  1        1 0.32824026E+00 0.16843522E+03</pdfrwt>
<pdfrwt beam="2">  1       -1 0.21115751E-02 0.16843522E+03</pdfrwt>
<totfact> 0.17568483E+03</totfact>
</mgrwt>
</event>
<event>
 8    1  0.3466492E-004  0.1305450E+03  0.7546771E-02  0.1226905E+00
          2   -1    0    0  501    0  0.00000000000E+00  0.00000000000E+00  0.20819153766E+03  0.20819153766E+03  0.00000000000E+00 0. -1.
         -2   -1    0    0    0  501 -0.00000000000E+00 -0.00000000000E+00 -0.81462295031E+02  0.81462295031E+02  0.00000000000E+00 0.  1.
         23    2    1    2    0    0  0.24536463793E+02 -0.89130462995E+02  0.60052118344E+02  0.14306652740E+03  0.91189346175E+02 0.  0.
         23    2    1    2    0    0 -0.24536463793E+02  0.89130462995E+02  0.66677124289E+02  0.14658730529E+03  0.92172239208E+02 0.  0.
          5    1    4    4  502    0 -0.41890133488E+02  0.74592408883E+02  0.82203695214E+02  0.11873646556E+03  0.47000000000E+01 0. -1.
         -5    1    3    3    0  503 -0.10561577428E+02 -0.91555463084E+02  0.31489571006E+02  0.97507091129E+02  0.47000000000E+01 0.  1.
          5    1    3    3  503    0  0.35098041222E+02  0.24250000889E+01  0.28562547338E+02  0.45559436272E+02  0.47000000000E+01 0. -1.
         -5    1    4    4    0  502  0.17353669694E+02  0.14538054112E+02 -0.15526570925E+02  0.27850839735E+02  0.47000000000E+01 0.  1.
<mgrwt>
<rscale>  0 0.13037163E+03</rscale>
<asrwt>0</asrwt>
<pdfrwt beam="1">  1        2 0.32029467E-01 0.13054501E+03</pdfrwt>
<pdfrwt beam="2">  1       -2 0.12532661E-01 0.13054501E+03</pdfrwt>
<totfact> 0.71136659E+03</totfact>
</mgrwt>
</event>
<event>
 8    1  0.3466492E-004  0.9512372E+02  0.7546771E-02  0.1291410E+00
         -2   -1    0    0    0  501 -0.00000000000E+00  0.00000000000E+00  0.44137443750E+03  0.44137443750E+03  0.00000000000E+00 0.  1.
          2   -1    0    0  501    0  0.00000000000E+00 -0.00000000000E+00 -0.34469709706E+03  0.34469709706E+03  0.00000000000E+00 0. -1.
         23    2    1    2    0    0  0.17868998919E+02 -0.19605121662E+02  0.42963536563E+03  0.44003984969E+03  0.91350205245E+02 0.  0.
         23    2    1    2    0    0 -0.17868998919E+02  0.19605121662E+02 -0.33295802519E+03  0.34603168487E+03  0.90405854246E+02 0.  0.
          5    1    3    3  502    0  0.70944378263E+01  0.36199691980E+02  0.14077820643E+03  0.14560680669E+03  0.47000000000E+01 0. -1.
         -5    1    3    3    0  502  0.10774561093E+02 -0.55804813642E+02  0.28885715920E+03  0.29443304300E+03  0.47000000000E+01 0.  1.
          5    1    4    4  503    0 -0.53895454535E+02  0.30392997452E+01 -0.19958352533E+03  0.20680819845E+03  0.47000000000E+01 0. -1.
         -5    1    4    4    0  503  0.36026455616E+02  0.16565821916E+02 -0.13337449985E+03  0.13922348642E+03  0.47000000000E+01 0.  1.
<mgrwt>
<rscale>  0 0.94896274E+02</rscale>
<asrwt>0</asrwt>
<pdfrwt beam="1">  1        2 0.53030323E-01 0.95123719E+02</pdfrwt>
<pdfrwt beam="2">  1       -2 0.67903760E-01 0.95123719E+02</pdfrwt>
<totfact> 0.19585289E+02</totfact>
</mgrwt>
</event>
<event>
 8    1  0.3466492E-004  0.1139323E+03  0.7546771E-02  0.1253708E+00
          1   -1    0    0  501    0  0.00000000000E+00  0.00000000000E+00  0.55576418412E+03  0.55576418412E+03  0.00000000000E+00 0. -1.
         -1   -1    0    0    0  501 -0.00000000000E+00 -0.00000000000E+00 -0.30123529796E+02  0.30123529796E+02  0.00000000000E+00 0.  1.
         23    2    1    2    0    0 -0.10528355843E+02  0.67463488883E+02  0.12329214185E+03  0.16787351192E+03  0.91205236434E+02 0.  0.
         23    2    1    2    0    0  0.10528355843E+02 -0.67463488883E+02  0.40234851247E+03  0.41801420200E+03  0.90495187559E+02 0.  0.
          5    1    4    4  502    0  0.49765175880E+02 -0.27984275407E+02  0.21668256907E+03  0.22412745958E+03  0.47000000000E+01 0. -1.
         -5    1    4    4    0  502 -0.39236820038E+02 -0.39479213476E+02  0.18566594341E+03  0.19388674242E+03  0.47000000000E+01 0.  1.
          5    1    3    3  503    0  0.32022396600E+02 -0.84023924375E+00  0.45540114948E+02  0.55876040979E+02  0.47000000000E+01 0. -1.
         -5    1    3    3    0  503 -0.42550752443E+02  0.68303728127E+02  0.77752026899E+02  0.11199747094E+03  0.47000000000E+01 0.  1.
<mgrwt>
<rscale>  0 0.11379011E+03</rscale>
<asrwt>0</asrwt>
<pdfrwt beam="1">  1        1 0.85502174E-01 0.11393228E+03</pdfrwt>
<pdfrwt beam="2">  1       -1 0.46343896E-02 0.11393228E+03</pdfrwt>
<totfact> 0.73193881E+03</totfact>
</mgrwt>
</event>
<event>
 8    1  0.3466492E-004  0.9458211E+02  0.7546771E-02  0.1292971E+00
         -2   -1    0    0    0  501 -0.00000000000E+00  0.00000000000E+00  0.24581148535E+03  0.24581148535E+03  0.00000000000E+00 0.  1.
          2   -1    0    0  501    0  0.00000000000E+00 -0.00000000000E+00 -0.35858687399E+02  0.35858687399E+02  0.00000000000E+00 0. -1.
         23    2    1    2    0    0  0.18017225363E+02 -0.41449553915E+01  0.10129991302E+03  0.13859093698E+03  0.92757610844E+02 0.  0.
         23    2    1    2    0    0 -0.18017225363E+02  0.41449553915E+01  0.10865288492E+03  0.14307923577E+03  0.91238244394E+02 0.  0.
          5    1    4    4  502    0 -0.56486840922E+01 -0.22918488684E+02 -0.57762720463E+01  0.24751163089E+02  0.47000000000E+01 0. -1.
         -5    1    3    3    0  503  0.19423325937E+02  0.42575959465E+02  0.43071572204E+02  0.63774824555E+02  0.47000000000E+01 0.  1.
          5    1    3    3  503    0 -0.14061005744E+01 -0.46720914857E+02  0.58228340818E+02  0.74816112424E+02  0.47000000000E+01 0. -1.
         -5    1    4    4    0  502 -0.12368541271E+02  0.27063444075E+02  0.11442915697E+03  0.11832807268E+03  0.47000000000E+01 0.  1.
<mgrwt>
<rscale>  0 0.94207494E+02</rscale>
<asrwt>0</asrwt>
<pdfrwt beam="1">  1        2 0.55167213E-02 0.94582109E+02</pdfrwt>
<pdfrwt beam="2">  1       -2 0.37817151E-01 0.94582109E+02</pdfrwt>
<totfact> 0.83181543E+03</totfact>
</mgrwt>
</event>
<event>
 8    1  0.3466492E-004  0.1245664E+03  0.7546771E-02  0.1237058E+00
          2   -1    0    0  501    0  0.00000000000E+00  0.00000000000E+00  0.10333776781E+04  0.10333776781E+04  0.00000000000E+00 0. -1.
         -2   -1    0    0    0  501 -0.00000000000E+00 -0.00000000000E+00 -0.14633100790E+02  0.14633100790E+02  0.00000000000E+00 0.  1.
         23    2    1    2    0    0 -0.67831788070E+02 -0.42375732594E+02  0.48805966104E+03  0.50290228296E+03  0.91168082642E+02 0.  0.
         23    2    1    2    0    0  0.67831788070E+02  0.42375732594E+02  0.53068491632E+03  0.54510849597E+03  0.95498365362E+02 0.  0.
          5    1    3    3  502    0  0.11777193198E+02 -0.30980819376E+02  0.76057824024E+02  0.83098712650E+02  0.47000000000E+01 0. -1.
         -5    1    4    4    0  503 -0.83563589330E+01  0.34249388891E+02  0.75032413735E+02  0.83034947371E+02  0.47000000000E+01 0.  1.
          5    1    4    4  503    0  0.76188147003E+02  0.81263437031E+01  0.45565250259E+03  0.46207354860E+03  0.47000000000E+01 0. -1.
         -5    1    3    3    0  502 -0.79608981268E+02 -0.11394913218E+02  0.41200183701E+03  0.41980357031E+03  0.47000000000E+01 0.  1.
<mgrwt>
<rscale>  0 0.12373617E+03</rscale>
<asrwt>0</asrwt>
<pdfrwt beam="1">  1        2 0.15898112E+00 0.12456642E+03</pdfrwt>
<pdfrwt beam="2">  1       -2 0.22512471E-02 0.12456642E+03</pdfrwt>
<totfact> 0.15489860E+04</totfact>
</mgrwt>
</event>
<event>
 7    1  0.3466492E-004  0.2602934E+03  0.7546771E-02  0.1106967E+00
         -1   -1    0    0    0  501 -0.00000000000E+00  0.00000000000E+00  0.59271589309E+02  0.59271589309E+02  0.00000000000E+00 0.  1.
          1   -1    0    0  501    0  0.00000000000E+00 -0.00000000000E+00 -0.28577212811E+03  0.28577212811E+03  0.00000000000E+00 0. -1.
         23    2    1    2    0    0  0.34529209971E+02 -0.13650827324E+02 -0.46231602842E+02  0.10894248302E+03  0.91391969431E+02 0.  0.
          5    1    3    3  502    0 -0.27336102946E+02 -0.18116761786E+02 -0.29907351686E+02  0.44632043049E+02  0.47000000000E+01 0. -1.
         -5    1    3    3    0  502  0.61865312917E+02  0.44659344628E+01 -0.16324251156E+02  0.64310439966E+02  0.47000000000E+01 0.  1.
          5    1    1    2  503    0 -0.66870221890E+02  0.37777579021E+02 -0.17969349215E+03  0.19547535183E+03  0.47000000000E+01 0. -1.
         -5    1    1    2    0  503  0.32341011919E+02 -0.24126751697E+02 -0.57544381168E+00  0.40625882575E+02  0.47000000000E+01 0.  1.
<mgrwt>
<rscale>  0 0.26029344E+03</rscale>
<asrwt>0</asrwt>
<pdfrwt beam="1">  1        1 0.43964942E-01 0.26029344E+03</pdfrwt>
<pdfrwt beam="2">  1       -1 0.91187062E-02 0.26029344E+03</pdfrwt>
<totfact> 0.64907622E+03</totfact>
</mgrwt>
</event>
<event>
 8    1  0.3466492E-004  0.9581812E+02  0.7546771E-02  0.1289541E+00
         -1   -1    0    0    0  501 -0.00000000000E+00  0.00000000000E+00  0.17826877281E+02  0.17826877281E+02  0.00000000000E+00 0.  1.
          1   -1    0    0  501    0  0.00000000000E+00 -0.00000000000E+00 -0.62230106277E+03  0.62230106277E+03  0.00000000000E+00 0. -1.
         23    2    1    2    0    0 -0.18990551211E+02 -0.13749710252E+02 -0.16771459673E+03  0.19298137489E+03  0.92541501661E+02 0.  0.
         23    2    1    2    0    0  0.18990551211E+02  0.13749710252E+02 -0.43675958876E+03  0.44714656516E+03  0.92905418564E+02 0.  0.
          5    1    3    3  502    0  0.36804790050E+02 -0.87307334099E+01 -0.53607025797E+02  0.65777059004E+02  0.47000000000E+01 0. -1.
         -5    1    3    3    0  502 -0.55795341260E+02 -0.50189768423E+01 -0.11410757093E+03  0.12720431588E+03  0.47000000000E+01 0.  1.
          5    1    4    4  503    0  0.49409881196E+02  0.30217091972E+02 -0.32178217814E+03  0.32698664984E+03  0.47000000000E+01 0. -1.
         -5    1    4    4    0  503 -0.30419329986E+02 -0.16467381720E+02 -0.11497741062E+03  0.12015991532E+03  0.47000000000E+01 0.  1.
<mgrwt>
<rscale>  0 0.95729796E+02</rscale>
<asrwt>0</asrwt>
<pdfrwt beam="1">  1        1 0.95738641E-01 0.95818121E+02</pdfrwt>
<pdfrwt beam="2">  1       -1 0.27425960E-02 0.95818121E+02</pdfrwt>
<totfact> 0.13308101E+04</totfact>
</mgrwt>
</event>
<event>
 8    1  0.3466492E-004  0.1078961E+03  0.7546771E-02  0.1265327E+00
         -1   -1    0    0    0  501 -0.00000000000E+00  0.00000000000E+00  0.24113477885E+02  0.24113477885E+02  0.00000000000E+00 0.  1.
          1   -1    0    0  501    0  0.00000000000E+00 -0.00000000000E+00 -0.47811142843E+03  0.47811142843E+03  0.00000000000E+00 0. -1.
         23    2    1    2    0    0 -0.55136883865E+02 -0.31361591454E+01 -0.24824106964E+03  0.27067546205E+03  0.92691238225E+02 0.  0.
         23    2    1    2    0    0  0.55136883865E+02  0.31361591454E+01 -0.20575688091E+03  0.23154944427E+03  0.90715707807E+02 0.  0.
          5    1    4    4  502    0  0.38513111981E+02 -0.41236875100E+02 -0.89341596218E+02  0.10577216305E+03  0.47000000000E+01 0. -1.
         -5    1    4    4    0  502  0.16623771884E+02  0.44373034245E+02 -0.11641528469E+03  0.12577728121E+03  0.47000000000E+01 0.  1.
          5    1    3    3  503    0 -0.37524053971E+02  0.14779283852E+02 -0.24059538018E+03  0.24399735413E+03  0.47000000000E+01 0. -1.
         -5    1    3    3    0  503 -0.17612829894E+02 -0.17915442997E+02 -0.76456894504E+01  0.26678107913E+02  0.47000000000E+01 0.  1.
<mgrwt>
<rscale>  0 0.10747055E+03</rscale>
<asrwt>0</asrwt>
<pdfrwt beam="1">  1        1 0.73555603E-01 0.10789614E+03</pdfrwt>
<pdfrwt beam="2">  1       -1 0.37097659E-02 0.10789614E+03</pdfrwt>
<totfact> 0.12280221E+04</totfact>
</mgrwt>
</event>
<event>
 8    1  0.3466492E-004  0.1094935E+03  0.7546771E-02  0.1266340E+00
         -2   -1    0    0    0  501 -0.00000000000E+00  0.00000000000E+00  0.20266656851E+03  0.20266656851E+03  0.00000000000E+00 0.  1.
          2   -1    0    0  501    0  0.00000000000E+00 -0.00000000000E+00 -0.93169469146E+02  0.93169469146E+02  0.00000000000E+00 0. -1.
         23    2    1    2    0    0  0.50402685150E+02  0.19368016930E+02 -0.39664788969E+02  0.11645650303E+03  0.95253718373E+02 0.  0.
         23    2    1    2    0    0 -0.50402685150E+02 -0.19368016930E+02  0.14916188833E+03  0.17937953463E+03  0.83738866493E+02 0.  0.
          5    1    3    3  502    0 -0.14352554894E+02  0.35804763615E+02 -0.48160854435E+00  0.38862563944E+02  0.47000000000E+01 0. -1.
         -5    1    3    3    0  502  0.64755240044E+02 -0.16436746685E+02 -0.39183180425E+02  0.77593939087E+02  0.47000000000E+01 0.  1.
          5    1    4    4  503    0 -0.14849209242E+02  0.17451242772E+02  0.11571777421E+03  0.11805819818E+03  0.47000000000E+01 0. -1.
         -5    1    4    4    0  503 -0.35553475908E+02 -0.36819259702E+02  0.33444114125E+02  0.61321336448E+02  0.47000000000E+01 0.  1.
<mgrwt>
<rscale>  0 0.10694181E+03</rscale>
<asrwt>0</asrwt>
<pdfrwt beam="1">  1        2 0.14333764E-01 0.10949348E+03</pdfrwt>
<pdfrwt beam="2">  1       -2 0.31179472E-01 0.10949348E+03</pdfrwt>
<totfact> 0.37046942E+03</totfact>
</mgrwt>
</event>
<event>
 8    1  0.3466492E-004  0.9574621E+02  0.7546771E-02  0.1290111E+00
         -2   -1    0    0    0  501 -0.00000000000E+00  0.00000000000E+00  0.53289350074E+02  0.53289350074E+02  0.00000000000E+00 0.  1.
          2   -1    0    0  501    0  0.00000000000E+00 -0.00000000000E+00 -0.28428425540E+03  0.28428425540E+03  0.00000000000E+00 0. -1.
         23    2    1    2    0    0  0.27205312421E+02  0.11722820199E+00 -0.89155543572E+01  0.96160406474E+02  0.91799748896E+02 0.  0.
         23    2    1    2    0    0 -0.27205312421E+02 -0.11722820199E+00 -0.22207935097E+03  0.24141319900E+03  0.90669464311E+02 0.  0.
          5    1    4    4  502    0  0.23350509796E+02  0.23030708578E+02 -0.45906033568E+02  0.56613724160E+02  0.47000000000E+01 0. -1.
         -5    1    4    4    0  502 -0.50555822217E+02 -0.23147936780E+02 -0.17617331740E+03  0.18479947484E+03  0.47000000000E+01 0.  1.
          5    1    3    3  503    0  0.51958836766E+02  0.27017021324E+02 -0.29639794777E+01  0.58826144983E+02  0.47000000000E+01 0. -1.
         -5    1    3    3    0  503 -0.24753524345E+02 -0.26899793122E+02 -0.59515748794E+01  0.37334261490E+02  0.47000000000E+01 0.  1.
<mgrwt>
<rscale>  0 0.95474265E+02</rscale>
<asrwt>0</asrwt>
<pdfrwt beam="1">  1        2 0.43736039E-01 0.95746210E+02</pdfrwt>
<pdfrwt beam="2">  1       -2 0.81983617E-02 0.95746210E+02</pdfrwt>
<totfact> 0.97020742E+03</totfact>
</mgrwt>
</event>
<event>
 8    1  0.3466492E-004  0.9572489E+02  0.7546771E-02  0.1291932E+00
         -2   -1    0    0    0  501 -0.00000000000E+00  0.00000000000E+00  0.19255434642E+02  0.19255434642E+02  0.00000000000E+00 0.  1.
          2   -1    0    0  501    0  0.00000000000E+00 -0.00000000000E+00 -0.47302471516E+03  0.47302471516E+03  0.00000000000E+00 0. -1.
         23    2    1    2    0    0 -0.73059979797E+01 -0.20496499054E+02 -0.27927327653E+03  0.29522333491E+03  0.93218938064E+02 0.  0.
         23    2    1    2    0    0  0.73059979797E+01  0.20496499054E+02 -0.17449600398E+03  0.19705681488E+03  0.88932833118E+02 0.  0.
          5    1    3    3  502    0 -0.36171977696E+02 -0.14105664408E+02 -0.25105871698E+03  0.25408650321E+03  0.47000000000E+01 0. -1.
         -5    1    3    3    0  502  0.28865979716E+02 -0.63908346462E+01 -0.28214559547E+02  0.41136831707E+02  0.47000000000E+01 0.  1.
          5    1    4    4  503    0 -0.59424894046E+01  0.48843889583E+02 -0.57341272359E+02  0.75704360810E+02  0.47000000000E+01 0. -1.
         -5    1    4    4    0  503  0.13248487384E+02 -0.28347390530E+02 -0.11715473162E+03  0.12135245407E+03  0.47000000000E+01 0.  1.
<mgrwt>
<rscale>  0 0.94665245E+02</rscale>
<asrwt>0</asrwt>
<pdfrwt beam="1">  1        2 0.72773038E-01 0.95724890E+02</pdfrwt>
<pdfrwt beam="2">  1       -2 0.29623744E-02 0.95724890E+02</pdfrwt>
<totfact> 0.25833784E+04</totfact>
</mgrwt>
</event>
<event>
 8    1  0.3466492E-004  0.9691799E+02  0.7546771E-02  0.1286970E+00
          1   -1    0    0  501    0  0.00000000000E+00  0.00000000000E+00  0.83854158801E+02  0.83854158801E+02  0.00000000000E+00 0. -1.
         -1   -1    0    0    0  501 -0.00000000000E+00 -0.00000000000E+00 -0.11190219352E+03  0.11190219352E+03  0.00000000000E+00 0.  1.
         23    2    1    2    0    0 -0.25685249134E+02 -0.19035955707E+02 -0.13485865689E+02  0.97851753122E+02  0.91493154842E+02 0.  0.
         23    2    1    2    0    0  0.25685249134E+02  0.19035955707E+02 -0.14562169028E+02  0.97904599196E+02  0.91384649391E+02 0.  0.
          5    1    4    4  502    0  0.23346247797E+02 -0.35069214686E+02 -0.81669335027E+01  0.43170428626E+02  0.47000000000E+01 0. -1.
         -5    1    3    3    0  503 -0.63814805298E+01  0.30221980560E+02  0.18048370532E+02  0.36082198957E+02  0.47000000000E+01 0.  1.
          5    1    3    3  503    0 -0.19303768604E+02 -0.49257936268E+02 -0.31534236221E+02  0.61769554164E+02  0.47000000000E+01 0. -1.
         -5    1    4    4    0  502  0.23390013370E+01  0.54105170394E+02 -0.63952355250E+01  0.54734170570E+02  0.47000000000E+01 0.  1.
<mgrwt>
<rscale>  0 0.96892375E+02</rscale>
<asrwt>0</asrwt>
<pdfrwt beam="1">  1        1 0.12900640E-01 0.96917991E+02</pdfrwt>
<pdfrwt beam="2">  1       -1 0.17215722E-01 0.96917991E+02</pdfrwt>
<totfact> 0.10665735E+04</totfact>
</mgrwt>
</event>
<event>
 8    1  0.3466492E-004  0.9876792E+02  0.7546771E-02  0.1284449E+00
          2   -1    0    0  501    0  0.00000000000E+00  0.00000000000E+00  0.35946661452E+03  0.35946661452E+03  0.00000000000E+00 0. -1.
         -2   -1    0    0    0  501 -0.00000000000E+00 -0.00000000000E+00 -0.26363944642E+02  0.26363944642E+02  0.00000000000E+00 0.  1.
         23    2    1    2    0    0 -0.39198053819E+02 -0.24702112693E+01  0.16819325795E+03  0.19504889916E+03  0.90622909234E+02 0.  0.
         23    2    1    2    0    0  0.39198053819E+02  0.24702112693E+01  0.16490941193E+03  0.19078166000E+03  0.87521073363E+02 0.  0.
          5    1    4    4  502    0  0.36200034421E+02 -0.27130308927E+02  0.15081960055E+03  0.15752821355E+03  0.47000000000E+01 0. -1.
         -5    1    4    4    0  502  0.29980193979E+01  0.29600520197E+02  0.14089811385E+02  0.33253446454E+02  0.47000000000E+01 0.  1.
          5    1    3    3  503    0 -0.25297505935E+02 -0.24038354487E+02  0.16506104718E+03  0.16877513320E+03  0.47000000000E+01 0. -1.
         -5    1    3    3    0  503 -0.13900547883E+02  0.21568143217E+02  0.31322107723E+01  0.26273765958E+02  0.47000000000E+01 0.  1.
<mgrwt>
<rscale>  0 0.98050611E+02</rscale>
<asrwt>0</asrwt>
<pdfrwt beam="1">  1        2 0.55302553E-01 0.98767915E+02</pdfrwt>
<pdfrwt beam="2">  1       -2 0.40559917E-02 0.98767915E+02</pdfrwt>
<totfact> 0.21881753E+04</totfact>
</mgrwt>
</event>
<event>
 8    1  0.3466492E-004  0.9475681E+02  0.7546771E-02  0.1291829E+00
          1   -1    0    0  501    0  0.00000000000E+00  0.00000000000E+00  0.35477906031E+03  0.35477906031E+03  0.00000000000E+00 0. -1.
         -1   -1    0    0    0  501 -0.00000000000E+00 -0.00000000000E+00 -0.26399283320E+02  0.26399283320E+02  0.00000000000E+00 0.  1.
         23    2    1    2    0    0 -0.21158276173E+02  0.14496409909E+02  0.20364855544E+03  0.22453629695E+03  0.91027446231E+02 0.  0.
         23    2    1    2    0    0  0.21158276173E+02 -0.14496409909E+02  0.12473122155E+03  0.15664204668E+03  0.91219705140E+02 0.  0.
          5    1    3    3  502    0 -0.54980038545E+02  0.87109653768E+01  0.15546439776E+03  0.16519671464E+03  0.47000000000E+01 0. -1.
         -5    1    3    3    0  502  0.33821762372E+02  0.57854445318E+01  0.48184157671E+02  0.59339582311E+02  0.47000000000E+01 0.  1.
          5    1    4    4  503    0 -0.19615530734E+02 -0.28024570896E+02  0.10226203507E+03  0.10793405133E+03  0.47000000000E+01 0. -1.
         -5    1    4    4    0  503  0.40773806907E+02  0.13528160988E+02  0.22469186483E+02  0.48707995346E+02  0.47000000000E+01 0.  1.
<mgrwt>
<rscale>  0 0.94710510E+02</rscale>
<asrwt>0</asrwt>
<pdfrwt beam="1">  1        1 0.54581390E-01 0.94756811E+02</pdfrwt>
<pdfrwt beam="2">  1       -1 0.40614285E-02 0.94756811E+02</pdfrwt>
<totfact> 0.15465158E+04</totfact>
</mgrwt>
</event>
<event>
 8    1  0.3466492E-004  0.1126193E+03  0.7546771E-02  0.1255905E+00
         -2   -1    0    0    0  501 -0.00000000000E+00  0.00000000000E+00  0.35890627757E+02  0.35890627757E+02  0.00000000000E+00 0.  1.
          2   -1    0    0  501    0  0.00000000000E+00 -0.00000000000E+00 -0.45976692667E+03  0.45976692667E+03  0.00000000000E+00 0. -1.
         23    2    1    2    0    0 -0.66467933827E+02 -0.33873044534E+01 -0.33175803142E+03  0.35035196632E+03  0.90849594594E+02 0.  0.
         23    2    1    2    0    0  0.66467933827E+02  0.33873044534E+01 -0.92118267494E+02  0.14530558810E+03  0.90545450848E+02 0.  0.
          5    1    4    4  502    0 -0.22000526189E+02 -0.43692640382E+01 -0.13452969320E+02  0.26574160464E+02  0.47000000000E+01 0. -1.
         -5    1    4    4    0  502  0.88468460016E+02  0.77565684916E+01 -0.78665298174E+02  0.11873142764E+03  0.47000000000E+01 0.  1.
          5    1    3    3  503    0 -0.13320199729E+02  0.37434140308E+02 -0.17993497077E+03  0.18432966741E+03  0.47000000000E+01 0. -1.
         -5    1    3    3    0  503 -0.53147734098E+02 -0.40821444761E+02 -0.15182306065E+03  0.16602229891E+03  0.47000000000E+01 0.  1.
<mgrwt>
<rscale>  0 0.11255796E+03</rscale>
<asrwt>0</asrwt>
<pdfrwt beam="1">  1        2 0.70733375E-01 0.11261931E+03</pdfrwt>
<pdfrwt beam="2">  1       -2 0.55216349E-02 0.11261931E+03</pdfrwt>
<totfact> 0.10775538E+04</totfact>
</mgrwt>
</event>
<event>
 8    1  0.3466492E-004  0.1243453E+03  0.7546771E-02  0.1236430E+00
          2   -1    0    0  501    0  0.00000000000E+00  0.00000000000E+00  0.65447101481E+03  0.65447101481E+03  0.00000000000E+00 0. -1.
         -2   -1    0    0    0  501 -0.00000000000E+00 -0.00000000000E+00 -0.25204388332E+02  0.25204388332E+02  0.00000000000E+00 0.  1.
         23    2    1    2    0    0 -0.48834065769E+02 -0.67134447237E+02  0.40292289270E+03  0.42142506733E+03  0.91435386624E+02 0.  0.
         23    2    1    2    0    0  0.48834065769E+02  0.67134447237E+02  0.22634373378E+03  0.25825033581E+03  0.92574025199E+02 0.  0.
          5    1    3    3  502    0  0.91943758607E+01 -0.26909202034E+02  0.26350582661E+03  0.26507744597E+03  0.47000000000E+01 0. -1.
         -5    1    4    4    0  503 -0.24202213028E+02  0.15988448385E+02  0.27351572163E+02  0.40144440424E+02  0.47000000000E+01 0.  1.
          5    1    4    4  503    0  0.73036278796E+02  0.51145998852E+02  0.19899216162E+03  0.21810589539E+03  0.47000000000E+01 0. -1.
         -5    1    3    3    0  502 -0.58028441629E+02 -0.40225245203E+02  0.13941706609E+03  0.15634762137E+03  0.47000000000E+01 0.  1.
<mgrwt>
<rscale>  0 0.12413340E+03</rscale>
<asrwt>0</asrwt>
<pdfrwt beam="1">  1        2 0.10068784E+00 0.12434529E+03</pdfrwt>
<pdfrwt beam="2">  1       -2 0.38775987E-02 0.12434529E+03</pdfrwt>
<totfact> 0.12412027E+04</totfact>
</mgrwt>
</event>
<event>
 8    1  0.3466492E-004  0.9667718E+02  0.7546771E-02  0.1290873E+00
          1   -1    0    0  501    0  0.00000000000E+00  0.00000000000E+00  0.68800256285E+03  0.68800256285E+03  0.00000000000E+00 0. -1.
         -1   -1    0    0    0  501 -0.00000000000E+00 -0.00000000000E+00 -0.17376654330E+02  0.17376654330E+02  0.00000000000E+00 0.  1.
         23    2    1    2    0    0  0.21952227989E+02 -0.24036728780E+02  0.50928653603E+03  0.51729181849E+03  0.84607239933E+02 0.  0.
         23    2    1    2    0    0 -0.21952227989E+02  0.24036728780E+02  0.16133937249E+03  0.18808739869E+03  0.91031927294E+02 0.  0.
          5    1    4    4  502    0 -0.34150736256E+02  0.52583359599E+02  0.86577629390E+02  0.10700027292E+03  0.47000000000E+01 0. -1.
         -5    1    4    4    0  502  0.12198508267E+02 -0.28546630819E+02  0.74761743096E+02  0.81087125771E+02  0.47000000000E+01 0.  1.
          5    1    3    3  503    0 -0.17553594327E+01  0.30530658540E+02  0.16732332419E+03  0.17015988722E+03  0.47000000000E+01 0. -1.
         -5    1    3    3    0  503  0.23707587422E+02 -0.54567387320E+02  0.34196321184E+03  0.34713193128E+03  0.47000000000E+01 0.  1.
<mgrwt>
<rscale>  0 0.95134724E+02</rscale>
<asrwt>0</asrwt>
<pdfrwt beam="1">  1        1 0.10584653E+00 0.96677176E+02</pdfrwt>
<pdfrwt beam="2">  1       -1 0.26733320E-02 0.96677176E+02</pdfrwt>
<totfact> 0.12031546E+04</totfact>
</mgrwt>
</event>
<event>
 8    1  0.3466492E-004  0.9214530E+02  0.7546771E-02  0.1298500E+00
         -1   -1    0    0    0  501 -0.00000000000E+00  0.00000000000E+00  0.88122030029E+02  0.88122030029E+02  0.00000000000E+00 0.  1.
          1   -1    0    0  501    0  0.00000000000E+00 -0.00000000000E+00 -0.14742636619E+03  0.14742636619E+03  0.00000000000E+00 0. -1.
         23    2    1    2    0    0  0.21162918413E+01  0.68582285096E+01 -0.99742299622E+02  0.13492044332E+03  0.90573095908E+02 0.  0.
         23    2    1    2    0    0 -0.21162918413E+01 -0.68582285096E+01  0.40437963465E+02  0.10062795289E+03  0.91865347249E+02 0.  0.
          5    1    3    3  502    0 -0.28022027517E+02 -0.24090696428E+02 -0.77760754515E+02  0.86223086371E+02  0.47000000000E+01 0. -1.
         -5    1    3    3    0  502  0.30138319358E+02  0.30948924938E+02 -0.21981545106E+02  0.48697356949E+02  0.47000000000E+01 0.  1.
          5    1    4    4  503    0 -0.22356576156E+01 -0.48682560583E+02  0.13987962363E+02  0.50918984289E+02  0.47000000000E+01 0. -1.
         -5    1    4    4    0  503  0.11936577430E+00  0.41824332074E+02  0.26450001102E+02  0.49708968606E+02  0.47000000000E+01 0.  1.
<mgrwt>
<rscale>  0 0.91821529E+02</rscale>
<asrwt>0</asrwt>
<pdfrwt beam="1">  1        1 0.22680980E-01 0.92145298E+02</pdfrwt>
<pdfrwt beam="2">  1       -1 0.13557235E-01 0.92145298E+02</pdfrwt>
<totfact> 0.75198014E+03</totfact>
</mgrwt>
</event>
<event>
 8    1  0.3466492E-004  0.1711810E+03  0.7546771E-02  0.1176667E+00
         -2   -1    0    0    0  501 -0.00000000000E+00  0.00000000000E+00  0.19270774618E+03  0.19270774618E+03  0.00000000000E+00 0.  1.
          2   -1    0    0  501    0  0.00000000000E+00 -0.00000000000E+00 -0.22194674367E+03  0.22194674367E+03  0.00000000000E+00 0. -1.
         23    2    1    2    0    0  0.14429244409E+03 -0.27037521738E+01 -0.13108341418E+03  0.21546811335E+03  0.91738905065E+02 0.  0.
         23    2    1    2    0    0 -0.14429244409E+03  0.27037521738E+01  0.10184441669E+03  0.19918637649E+03  0.92061434224E+02 0.  0.
          5    1    4    4  502    0 -0.30768485306E+02 -0.26384671782E+02 -0.42633186833E+01  0.41025802603E+02  0.47000000000E+01 0. -1.
         -5    1    3    3    0  503  0.92725366543E+01 -0.29778629928E+02 -0.37020083731E+02  0.48634589911E+02  0.47000000000E+01 0.  1.
          5    1    3    3  503    0  0.13501990744E+03  0.27074877755E+02 -0.94063330446E+02  0.16683352344E+03  0.47000000000E+01 0. -1.
         -5    1    4    4    0  502 -0.11352395879E+03  0.29088423956E+02  0.10610773537E+03  0.15816057389E+03  0.47000000000E+01 0.  1.
<mgrwt>
<rscale>  0 0.17113765E+03</rscale>
<asrwt>0</asrwt>
<pdfrwt beam="1">  1        2 0.34145653E-01 0.17118098E+03</pdfrwt>
<pdfrwt beam="2">  1       -2 0.29647346E-01 0.17118098E+03</pdfrwt>
<totfact> 0.15669265E+03</totfact>
</mgrwt>
</event>
<event>
 8    1  0.3466492E-004  0.1302065E+03  0.7546771E-02  0.1227472E+00
         -1   -1    0    0    0  501 -0.00000000000E+00  0.00000000000E+00  0.12072186989E+02  0.12072186989E+02  0.00000000000E+00 0.  1.
          1   -1    0    0  501    0  0.00000000000E+00 -0.00000000000E+00 -0.13976443630E+04  0.13976443630E+04  0.00000000000E+00 0. -1.
         23    2    1    2    0    0  0.38328158455E+01 -0.92944897401E+02 -0.65998412575E+03  0.67253830577E+03  0.89862573126E+02 0.  0.
         23    2    1    2    0    0 -0.38328158455E+01  0.92944897401E+02 -0.72558805022E+03  0.73717824418E+03  0.91105985787E+02 0.  0.
          5    1    4    4  502    0 -0.29433856815E+02  0.38143712531E+02 -0.13378698588E+03  0.14227558583E+03  0.47000000000E+01 0. -1.
         -5    1    4    4    0  502  0.25601040970E+02  0.54801184870E+02 -0.59180106433E+03  0.59490265835E+03  0.47000000000E+01 0.  1.
          5    1    3    3  503    0 -0.41696974266E+02 -0.58179066782E+02 -0.38126280008E+03  0.38795212874E+03  0.47000000000E+01 0. -1.
         -5    1    3    3    0  503  0.45529790112E+02 -0.34765830619E+02 -0.27872132568E+03  0.28458617702E+03  0.47000000000E+01 0.  1.
<mgrwt>
<rscale>  0 0.12998926E+03</rscale>
<asrwt>0</asrwt>
<pdfrwt beam="1">  1        1 0.21502222E+00 0.13020655E+03</pdfrwt>
<pdfrwt beam="2">  1       -1 0.18572594E-02 0.13020655E+03</pdfrwt>
<totfact> 0.62543656E+03</totfact>
</mgrwt>
</event>
<event>
 8    1  0.3466492E-004  0.1120171E+03  0.7546771E-02  0.1261987E+00
          3   -1    0    0  501    0  0.00000000000E+00  0.00000000000E+00  0.29068442592E+03  0.29068442592E+03  0.00000000000E+00 0. -1.
         -3   -1    0    0    0  501 -0.00000000000E+00 -0.00000000000E+00 -0.49246709420E+02  0.49246709420E+02  0.00000000000E+00 0.  1.
         23    2    1    2    0    0 -0.49736547485E+02 -0.41671992447E+01  0.48609543128E+02  0.12210942516E+03  0.10028327041E+03 0.  0.
         23    2    1    2    0    0  0.49736547485E+02  0.41671992447E+01  0.19282817337E+03  0.21782171018E+03  0.88161801684E+02 0.  0.
          5    1    3    3  502    0  0.24158381706E+02  0.95578447220E+01  0.37688293270E+02  0.46016054285E+02  0.47000000000E+01 0. -1.
         -5    1    3    3    0  502 -0.73894929191E+02 -0.13725043967E+02  0.10921249859E+02  0.76093370871E+02  0.47000000000E+01 0.  1.
          5    1    4    4  503    0  0.38724194561E+02 -0.30042902147E+02  0.16481739284E+03  0.17201454066E+03  0.47000000000E+01 0. -1.
         -5    1    4    4    0  503  0.11012352924E+02  0.34210101392E+02  0.28010780525E+02  0.45807169524E+02  0.47000000000E+01 0.  1.
<mgrwt>
<rscale>  0 0.10923846E+03</rscale>
<asrwt>0</asrwt>
<pdfrwt beam="1">  1        3 0.44720680E-01 0.11201707E+03</pdfrwt>
<pdfrwt beam="2">  1       -3 0.75764170E-02 0.11201707E+03</pdfrwt>
<totfact> 0.12964615E+03</totfact>
</mgrwt>
</event>
<event>
 8    1  0.3466492E-004  0.9766095E+02  0.7546771E-02  0.1287981E+00
          1   -1    0    0  501    0  0.00000000000E+00  0.00000000000E+00  0.18897776649E+02  0.18897776649E+02  0.00000000000E+00 0. -1.
         -1   -1    0    0    0  501 -0.00000000000E+00 -0.00000000000E+00 -0.65872851579E+03  0.65872851579E+03  0.00000000000E+00 0.  1.
         23    2    1    2    0    0  0.93178246378E+01 -0.27680901119E+02 -0.13762218214E+03  0.16601013090E+03  0.88127432742E+02 0.  0.
         23    2    1    2    0    0 -0.93178246378E+01  0.27680901119E+02 -0.50220855700E+03  0.51161616154E+03  0.93191243583E+02 0.  0.
          5    1    3    3  502    0  0.24721966961E+02  0.25213915889E+02 -0.70972239211E+02  0.79410741990E+02  0.47000000000E+01 0. -1.
         -5    1    3    3    0  502 -0.15404142323E+02 -0.52894817008E+02 -0.66649942928E+02  0.86599388909E+02  0.47000000000E+01 0.  1.
          5    1    4    4  503    0  0.36237662548E+02  0.17067404432E+02 -0.12156260137E+03  0.12807818133E+03  0.47000000000E+01 0. -1.
         -5    1    4    4    0  503 -0.45555487186E+02  0.10613496687E+02 -0.38064595563E+03  0.38353798021E+03  0.47000000000E+01 0.  1.
<mgrwt>
<rscale>  0 0.96433066E+02</rscale>
<asrwt>0</asrwt>
<pdfrwt beam="1">  1        1 0.29073502E-02 0.97660954E+02</pdfrwt>
<pdfrwt beam="2">  1       -1 0.10134285E+00 0.97660954E+02</pdfrwt>
<totfact> 0.32782113E+03</totfact>
</mgrwt>
</event>
<event>
 8    1  0.3466492E-004  0.1199430E+03  0.7546771E-02  0.1243287E+00
          1   -1    0    0  501    0  0.00000000000E+00  0.00000000000E+00  0.70286127453E+02  0.70286127453E+02  0.00000000000E+00 0. -1.
         -1   -1    0    0    0  501 -0.00000000000E+00 -0.00000000000E+00 -0.22755175834E+03  0.22755175834E+03  0.00000000000E+00 0.  1.
         23    2    1    2    0    0  0.92658338542E+01  0.76282773535E+02 -0.30948648449E+02  0.12364746149E+03  0.91793020850E+02 0.  0.
         23    2    1    2    0    0 -0.92658338542E+01 -0.76282773535E+02 -0.12631698244E+03  0.17419042431E+03  0.92094552781E+02 0.  0.
          5    1    4    4  502    0 -0.49982483751E+02 -0.47691003634E+02 -0.82678318591E+02  0.10784467940E+03  0.47000000000E+01 0. -1.
         -5    1    3    3    0  503 -0.75672829661E+01  0.88367870114E+02 -0.43576430120E+02  0.98929972718E+02  0.47000000000E+01 0.  1.
          5    1    3    3  503    0  0.16833116820E+02 -0.12085096580E+02  0.12627781670E+02  0.24717488771E+02  0.47000000000E+01 0. -1.
         -5    1    4    4    0  502  0.40716649896E+02 -0.28591769900E+02 -0.43638663849E+02  0.66345744907E+02  0.47000000000E+01 0.  1.
<mgrwt>
<rscale>  0 0.11988512E+03</rscale>
<asrwt>0</asrwt>
<pdfrwt beam="1">  1        1 0.10813251E-01 0.11994300E+03</pdfrwt>
<pdfrwt beam="2">  1       -1 0.35007962E-01 0.11994300E+03</pdfrwt>
<totfact> 0.42845221E+03</totfact>
</mgrwt>
</event>
<event>
 8    1  0.3466492E-004  0.1227541E+03  0.7546771E-02  0.1239784E+00
          1   -1    0    0  501    0  0.00000000000E+00  0.00000000000E+00  0.15300540015E+03  0.15300540015E+03  0.00000000000E+00 0. -1.
         -1   -1    0    0    0  501 -0.00000000000E+00 -0.00000000000E+00 -0.10897996027E+03  0.10897996027E+03  0.00000000000E+00 0.  1.
         23    2    1    2    0    0  0.82877918375E+02 -0.11857534606E+02 -0.22617891971E+02  0.12482037529E+03  0.89773083764E+02 0.  0.
         23    2    1    2    0    0 -0.82877918375E+02  0.11857534606E+02  0.66643331849E+02  0.13716498513E+03  0.85811123906E+02 0.  0.
          5    1    4    4  502    0 -0.17684258945E+01 -0.28629585811E+02  0.14554099709E+02  0.32506804399E+02  0.47000000000E+01 0. -1.
         -5    1    3    3    0  503  0.58952782178E+02  0.98801536070E+01 -0.53136810880E+02  0.80116531579E+02  0.47000000000E+01 0.  1.
          5    1    3    3  503    0  0.23925136196E+02 -0.21737688213E+02  0.30518918909E+02  0.44703843708E+02  0.47000000000E+01 0. -1.
         -5    1    4    4    0  502 -0.81109492480E+02  0.40487120417E+02  0.52089232140E+02  0.10465818074E+03  0.47000000000E+01 0.  1.
<mgrwt>
<rscale>  0 0.12203093E+03</rscale>
<asrwt>0</asrwt>
<pdfrwt beam="1">  1        1 0.23539292E-01 0.12275405E+03</pdfrwt>
<pdfrwt beam="2">  1       -1 0.16766148E-01 0.12275405E+03</pdfrwt>
<totfact> 0.52665901E+03</totfact>
</mgrwt>
</event>
<event>
 8    1  0.3466492E-004  0.9694656E+02  0.7546771E-02  0.1295909E+00
          1   -1    0    0  501    0  0.00000000000E+00  0.00000000000E+00  0.46759153197E+03  0.46759153197E+03  0.00000000000E+00 0. -1.
         -1   -1    0    0    0  501 -0.00000000000E+00 -0.00000000000E+00 -0.17769229326E+02  0.17769229326E+02  0.00000000000E+00 0.  1.
         23    2    1    2    0    0 -0.26689359880E+02 -0.17239299573E+02  0.15942478930E+03  0.17920826368E+03  0.75430915059E+02 0.  0.
         23    2    1    2    0    0  0.26689359880E+02  0.17239299573E+02  0.29039751335E+03  0.30615249762E+03  0.91592143008E+02 0.  0.
          5    1    4    4  502    0  0.37516838539E+02 -0.21076940550E+02  0.22736702815E+03  0.23145108789E+03  0.47000000000E+01 0. -1.
         -5    1    4    4    0  502 -0.10827478659E+02  0.38316240123E+02  0.63030485202E+02  0.74701409733E+02  0.47000000000E+01 0.  1.
          5    1    3    3  503    0  0.25210722475E+02  0.19826546141E+01  0.40930295097E+02  0.48341395344E+02  0.47000000000E+01 0. -1.
         -5    1    3    3    0  503 -0.51900082356E+02 -0.19221954188E+02  0.11849449420E+03  0.13086686833E+03  0.47000000000E+01 0.  1.
<mgrwt>
<rscale>  0 0.92929436E+02</rscale>
<asrwt>0</asrwt>
<pdfrwt beam="1">  1        1 0.71937149E-01 0.96946563E+02</pdfrwt>
<pdfrwt beam="2">  1       -1 0.27337279E-02 0.96946563E+02</pdfrwt>
<totfact> 0.19464680E+04</totfact>
</mgrwt>
</event>
<event>
 8    1  0.3466492E-004  0.9752655E+02  0.7546771E-02  0.1285811E+00
         -2   -1    0    0    0  501 -0.00000000000E+00  0.00000000000E+00  0.24138909536E+03  0.24138909536E+03  0.00000000000E+00 0.  1.
          2   -1    0    0  501    0  0.00000000000E+00 -0.00000000000E+00 -0.89431119398E+02  0.89431119398E+02  0.00000000000E+00 0. -1.
         23    2    1    2    0    0  0.32450950852E+02 -0.57045177936E+01  0.19983075253E+03  0.22217754437E+03  0.91350565574E+02 0.  0.
         23    2    1    2    0    0 -0.32450950852E+02  0.57045177936E+01 -0.47872776571E+02  0.10864267039E+03  0.91792272863E+02 0.  0.
          5    1    4    4  502    0 -0.27000407366E+02  0.46389245980E+02 -0.15241765641E+02  0.55994513663E+02  0.47000000000E+01 0. -1.
         -5    1    4    4    0  502 -0.54505434862E+01 -0.40684728186E+02 -0.32631010930E+02  0.52648156722E+02  0.47000000000E+01 0.  1.
          5    1    3    3  503    0  0.18347126089E+02 -0.34409394792E+02  0.30338113351E+02  0.49629775412E+02  0.47000000000E+01 0. -1.
         -5    1    3    3    0  503  0.14103824763E+02  0.28704876998E+02  0.16949263918E+03  0.17254776896E+03  0.47000000000E+01 0.  1.
<mgrwt>
<rscale>  0 0.97422474E+02</rscale>
<asrwt>0</asrwt>
<pdfrwt beam="1">  1        2 0.13758634E-01 0.97526546E+02</pdfrwt>
<pdfrwt beam="2">  1       -2 0.37136784E-01 0.97526546E+02</pdfrwt>
<totfact> 0.28026518E+03</totfact>
</mgrwt>
</event>
<event>
 8    1  0.3466492E-004  0.1102343E+03  0.7546771E-02  0.1262996E+00
          3   -1    0    0  501    0  0.00000000000E+00  0.00000000000E+00  0.69074664339E+02  0.69074664339E+02  0.00000000000E+00 0. -1.
         -3   -1    0    0    0  501 -0.00000000000E+00 -0.00000000000E+00 -0.16686030194E+03  0.16686030194E+03  0.00000000000E+00 0.  1.
         23    2    1    2    0    0 -0.49503315462E+02 -0.13330398304E+02 -0.41760693842E+02  0.11228063368E+03  0.90745288516E+02 0.  0.
         23    2    1    2    0    0  0.49503315462E+02  0.13330398304E+02 -0.56024943761E+02  0.12365433260E+03  0.97587508870E+02 0.  0.
          5    1    3    3  502    0 -0.59319457711E+01  0.34206548819E+02  0.50280026910E+00  0.35037391040E+02  0.47000000000E+01 0. -1.
         -5    1    3    3    0  502 -0.43571369691E+02 -0.47536947123E+02 -0.42263494111E+02  0.77243242637E+02  0.47000000000E+01 0.  1.
          5    1    4    4  503    0  0.77216532228E+02 -0.33481038682E+01 -0.36759749860E+02  0.85714478699E+02  0.47000000000E+01 0. -1.
         -5    1    4    4    0  503 -0.27713216766E+02  0.16678502172E+02 -0.19265193901E+02  0.37939853904E+02  0.47000000000E+01 0.  1.
<mgrwt>
<rscale>  0 0.10870041E+03</rscale>
<asrwt>0</asrwt>
<pdfrwt beam="1">  1        3 0.10626872E-01 0.11023429E+03</pdfrwt>
<pdfrwt beam="2">  1       -3 0.25670816E-01 0.11023429E+03</pdfrwt>
<totfact> 0.21047998E+03</totfact>
</mgrwt>
</event>
<event>
 8    1  0.3466492E-004  0.9392938E+02  0.7546771E-02  0.1293974E+00
          2   -1    0    0  501    0  0.00000000000E+00  0.00000000000E+00  0.35197364352E+03  0.35197364352E+03  0.00000000000E+00 0. -1.
         -2   -1    0    0    0  501 -0.00000000000E+00 -0.00000000000E+00 -0.35964497946E+02  0.35964497946E+02  0.00000000000E+00 0.  1.
         23    2    1    2    0    0  0.10535952217E+02  0.21162995347E+02  0.26598919257E+03  0.28208682973E+03  0.90905721931E+02 0.  0.
         23    2    1    2    0    0 -0.10535952217E+02 -0.21162995347E+02  0.50019953006E+02  0.10585131174E+03  0.90242040300E+02 0.  0.
          5    1    3    3  502    0 -0.28314083432E+02  0.41001033868E+02  0.14009513008E+03  0.14876662116E+03  0.47000000000E+01 0. -1.
         -5    1    3    3    0  502  0.38850035649E+02 -0.19838038521E+02  0.12589406249E+03  0.13332020857E+03  0.47000000000E+01 0.  1.
          5    1    4    4  503    0  0.37997102215E+02 -0.23704464460E+01  0.89572175166E+01  0.39391884174E+02  0.47000000000E+01 0. -1.
         -5    1    4    4    0  503 -0.48533054432E+02 -0.18792548901E+02  0.41062735490E+02  0.66459427567E+02  0.47000000000E+01 0.  1.
<mgrwt>
<rscale>  0 0.93768428E+02</rscale>
<asrwt>0</asrwt>
<pdfrwt beam="1">  1        2 0.54149789E-01 0.93929383E+02</pdfrwt>
<pdfrwt beam="2">  1       -2 0.55329999E-02 0.93929383E+02</pdfrwt>
<totfact> 0.14041112E+04</totfact>
</mgrwt>
</event>
<event>
 8    1  0.3466492E-004  0.1208850E+03  0.7546771E-02  0.1243436E+00
          2   -1    0    0  501    0  0.00000000000E+00  0.00000000000E+00  0.32967245867E+03  0.32967245867E+03  0.00000000000E+00 0.  1.
         -2   -1    0    0    0  501 -0.00000000000E+00 -0.00000000000E+00 -0.14027341660E+03  0.14027341660E+03  0.00000000000E+00 0. -1.
         23    2    1    2    0    0  0.69951600839E+02 -0.23428632175E+02 -0.10172389662E+03  0.15472255313E+03  0.90272864356E+02 0.  0.
         23    2    1    2    0    0 -0.69951600839E+02  0.23428632175E+02  0.29112293868E+03  0.31522332214E+03  0.95765599913E+02 0.  0.
          5    1    3    3  502    0  0.77195633026E+02  0.90907792291E+01 -0.90185978254E+02  0.11915287952E+03  0.47000000000E+01 0. -1.
         -5    1    4    4    0  503 -0.78918272949E+02 -0.22155958841E+01  0.26740241788E+03  0.27885326923E+03  0.47000000000E+01 0.  1.
          5    1    4    4  503    0  0.89666721101E+01  0.25644228059E+02  0.23720520798E+02  0.36370052906E+02  0.47000000000E+01 0. -1.
         -5    1    3    3    0  502 -0.72440321871E+01 -0.32519411404E+02 -0.11537918364E+02  0.35569673608E+02  0.47000000000E+01 0.  1.
<mgrwt>
<rscale>  0 0.11979452E+03</rscale>
<asrwt>0</asrwt>
<pdfrwt beam="1">  1        2 0.50718840E-01 0.12088498E+03</pdfrwt>
<pdfrwt beam="2">  1       -2 0.21580526E-01 0.12088498E+03</pdfrwt>
<totfact> 0.17737332E+03</totfact>
</mgrwt>
</event>
<event>
 8    1  0.3466492E-004  0.9451266E+02  0.7546771E-02  0.1294316E+00
          1   -1    0    0  501    0  0.00000000000E+00  0.00000000000E+00  0.21424466329E+02  0.21424466329E+02  0.00000000000E+00 0. -1.
         -1   -1    0    0    0  501 -0.00000000000E+00 -0.00000000000E+00 -0.84883091054E+03  0.84883091054E+03  0.00000000000E+00 0.  1.
         23    2    1    2    0    0  0.23805698793E+02  0.22810243183E+02 -0.72582380385E+03  0.73150497199E+03  0.84807495674E+02 0.  0.
         23    2    1    2    0    0 -0.23805698793E+02 -0.22810243183E+02 -0.10158264037E+03  0.13875040489E+03  0.88575524511E+02 0.  0.
          5    1    4    4  502    0 -0.29247769274E+02 -0.46727345193E+02 -0.30000232446E+02  0.62936322924E+02  0.47000000000E+01 0. -1.
         -5    1    3    3    0  503  0.50984244893E+02 -0.26036673577E+01 -0.49582183940E+03  0.49846520314E+03  0.47000000000E+01 0.  1.
          5    1    3    3  503    0 -0.27178546100E+02  0.25413910541E+02 -0.23000196445E+03  0.23303976885E+03  0.47000000000E+01 0. -1.
         -5    1    4    4    0  502  0.54420704809E+01  0.23917102010E+02 -0.71582407923E+02  0.75814081962E+02  0.47000000000E+01 0.  1.
<mgrwt>
<rscale>  0 0.93619620E+02</rscale>
<asrwt>0</asrwt>
<pdfrwt beam="1">  1        1 0.32960725E-02 0.94512655E+02</pdfrwt>
<pdfrwt beam="2">  1       -1 0.13058934E+00 0.94512655E+02</pdfrwt>
<totfact> 0.15391238E+03</totfact>
</mgrwt>
</event>
<event>
 8    1  0.3466492E-004  0.1200608E+03  0.7546771E-02  0.1249625E+00
         -1   -1    0    0    0  501 -0.00000000000E+00  0.00000000000E+00  0.15404753806E+03  0.15404753806E+03  0.00000000000E+00 0.  1.
          1   -1    0    0  501    0  0.00000000000E+00 -0.00000000000E+00 -0.14420961487E+03  0.14420961487E+03  0.00000000000E+00 0. -1.
         23    2    1    2    0    0 -0.13272440249E+02  0.51451582951E+02 -0.92508945962E+02  0.15156682578E+03  0.10766231716E+03 0.  0.
         23    2    1    2    0    0  0.13272440249E+02 -0.51451582951E+02  0.10234686915E+03  0.14669032715E+03  0.90662822566E+02 0.  0.
          5    1    3    3  502    0  0.10727825238E+02  0.80166712325E+02 -0.73223587571E+02  0.10920426629E+03  0.47000000000E+01 0. -1.
         -5    1    3    3    0  502 -0.24000265487E+02 -0.28715129374E+02 -0.19285358392E+02  0.42362559492E+02  0.47000000000E+01 0.  1.
          5    1    4    4  503    0 -0.19790608691E+02  0.18195646339E+02  0.20356087770E+02  0.34047173853E+02  0.47000000000E+01 0. -1.
         -5    1    4    4    0  503  0.33063048940E+02 -0.69647229290E+02  0.81990781384E+02  0.11264315330E+03  0.47000000000E+01 0.  1.
<mgrwt>
<rscale>  0 0.11612819E+03</rscale>
<asrwt>0</asrwt>
<pdfrwt beam="1">  1        1 0.22186095E-01 0.12006081E+03</pdfrwt>
<pdfrwt beam="2">  1       -1 0.23699621E-01 0.12006081E+03</pdfrwt>
<totfact> 0.32555842E+03</totfact>
</mgrwt>
</event>
<event>
 8    1  0.3466492E-004  0.1079570E+03  0.7546771E-02  0.1264718E+00
          2   -1    0    0  501    0  0.00000000000E+00  0.00000000000E+00  0.11937993534E+04  0.11937993534E+04  0.00000000000E+00 0. -1.
         -2   -1    0    0    0  501 -0.00000000000E+00 -0.00000000000E+00 -0.97113648025E+01  0.97113648025E+01  0.00000000000E+00 0.  1.
         23    2    1    2    0    0  0.49231005229E+02 -0.23462048447E+02  0.61193391058E+03  0.62138380110E+03  0.93169510925E+02 0.  0.
         23    2    1    2    0    0 -0.49231005229E+02  0.23462048447E+02  0.57215407799E+03  0.58212691707E+03  0.92397505500E+02 0.  0.
          5    1    4    4  502    0  0.11606806715E+02  0.36272976463E+02  0.32380360518E+03  0.32606948877E+03  0.47000000000E+01 0. -1.
         -5    1    3    3    0  503  0.25787378224E+01 -0.42973882485E+02  0.13554003740E+03  0.14229053448E+03  0.47000000000E+01 0.  1.
          5    1    3    3  503    0  0.46652267406E+02  0.19511834038E+02  0.47639387318E+03  0.47909326662E+03  0.47000000000E+01 0. -1.
         -5    1    4    4    0  502 -0.60837811943E+02 -0.12810928017E+02  0.24835047281E+03  0.25605742829E+03  0.47000000000E+01 0.  1.
<mgrwt>
<rscale>  0 0.10779024E+03</rscale>
<asrwt>0</asrwt>
<pdfrwt beam="1">  1        2 0.18366132E+00 0.10795702E+03</pdfrwt>
<pdfrwt beam="2">  1       -2 0.14940571E-02 0.10795702E+03</pdfrwt>
<totfact> 0.22473282E+04</totfact>
</mgrwt>
</event>
<event>
 8    1  0.3466492E-004  0.1012567E+03  0.7546771E-02  0.1277952E+00
         -2   -1    0    0    0  501 -0.00000000000E+00  0.00000000000E+00  0.37977319841E+03  0.37977319841E+03  0.00000000000E+00 0.  1.
          2   -1    0    0  501    0  0.00000000000E+00 -0.00000000000E+00 -0.43521837839E+02  0.43521837839E+02  0.00000000000E+00 0. -1.
         23    2    1    2    0    0  0.37089791768E+01 -0.44051936991E+02  0.29937253090E+03  0.31603297484E+03  0.91096647868E+02 0.  0.
         23    2    1    2    0    0 -0.37089791768E+01  0.44051936991E+02  0.36878829672E+02  0.10726206141E+03  0.90502884262E+02 0.  0.
          5    1    3    3  502    0  0.17978326308E+02  0.23147095251E+02  0.59809031564E+02  0.66769892107E+02  0.47000000000E+01 0. -1.
         -5    1    3    3    0  502 -0.14269347131E+02 -0.67199032242E+02  0.23956349933E+03  0.24926308274E+03  0.47000000000E+01 0.  1.
          5    1    4    4  503    0 -0.30081510336E+02  0.59520309537E+02  0.12818742794E+02  0.68073303712E+02  0.47000000000E+01 0. -1.
         -5    1    4    4    0  503  0.26372531160E+02 -0.15468372546E+02  0.24060086877E+02  0.39188757693E+02  0.47000000000E+01 0.  1.
<mgrwt>
<rscale>  0 0.10112302E+03</rscale>
<asrwt>0</asrwt>
<pdfrwt beam="1">  1        2 0.66956676E-02 0.10125675E+03</pdfrwt>
<pdfrwt beam="2">  1       -2 0.58426644E-01 0.10125675E+03</pdfrwt>
<totfact> 0.28091738E+03</totfact>
</mgrwt>
</event>
<event>
 8    1  0.3466492E-004  0.9897307E+02  0.7546771E-02  0.1283245E+00
          1   -1    0    0  501    0  0.00000000000E+00  0.00000000000E+00  0.15719603113E+03  0.15719603113E+03  0.00000000000E+00 0. -1.
         -1   -1    0    0    0  501 -0.00000000000E+00 -0.00000000000E+00 -0.73433383245E+02  0.73433383245E+02  0.00000000000E+00 0.  1.
         23    2    1    2    0    0  0.36338057538E+02  0.29316313805E+01  0.88283130805E+02  0.13155316701E+03  0.90461459619E+02 0.  0.
         23    2    1    2    0    0 -0.36338057538E+02 -0.29316313805E+01 -0.45204829202E+01  0.99076247368E+02  0.92014233348E+02 0.  0.
          5    1    3    3  502    0  0.62702182284E+02  0.12823105888E+02  0.78462702295E+02  0.10136311637E+03  0.47000000000E+01 0. -1.
         -5    1    3    3    0  502 -0.26364124746E+02 -0.98914745076E+01  0.98204285095E+01  0.30190050641E+02  0.47000000000E+01 0.  1.
          5    1    4    4  503    0 -0.57694656667E+02 -0.23072161879E+02 -0.20146754593E+02  0.65490302964E+02  0.47000000000E+01 0.  1.
         -5    1    4    4    0  503  0.21356599129E+02  0.20140530498E+02  0.15626271672E+02  0.33585944404E+02  0.47000000000E+01 0. -1.
<mgrwt>
<rscale>  0 0.98610601E+02</rscale>
<asrwt>0</asrwt>
<pdfrwt beam="1">  1        1 0.24184005E-01 0.98973067E+02</pdfrwt>
<pdfrwt beam="2">  1       -1 0.11297444E-01 0.98973067E+02</pdfrwt>
<totfact> 0.92338333E+03</totfact>
</mgrwt>
</event>
<event>
 8    1  0.3466492E-004  0.9804544E+02  0.7546771E-02  0.1285192E+00
          2   -1    0    0  501    0  0.00000000000E+00  0.00000000000E+00  0.79537681445E+03  0.79537681445E+03  0.00000000000E+00 0. -1.
         -2   -1    0    0    0  501 -0.00000000000E+00 -0.00000000000E+00 -0.13052239518E+02  0.13052239518E+02  0.00000000000E+00 0.  1.
         23    2    1    2    0    0 -0.10700439841E+02 -0.28145834276E+02  0.51264389595E+03  0.52193550619E+03  0.93307133525E+02 0.  0.
         23    2    1    2    0    0  0.10700439841E+02  0.28145834276E+02  0.26968067898E+03  0.28649354778E+03  0.91892311441E+02 0.  0.
          5    1    4    4  502    0 -0.59164438758E+01  0.48048840757E+02  0.24694798855E+03  0.25169246007E+03  0.47000000000E+01 0. -1.
         -5    1    3    3    0  503  0.20264457182E+02 -0.52816659548E+02  0.34330524744E+03  0.34796670914E+03  0.47000000000E+01 0.  1.
          5    1    3    3  503    0 -0.30964897024E+02  0.24670825272E+02  0.16933864851E+03  0.17396879705E+03  0.47000000000E+01 0. -1.
         -5    1    4    4    0  502  0.16616883717E+02 -0.19903006481E+02  0.22732690430E+02  0.34801087707E+02  0.47000000000E+01 0.  1.
<mgrwt>
<rscale>  0 0.97707329E+02</rscale>
<asrwt>0</asrwt>
<pdfrwt beam="1">  1        2 0.12236563E+00 0.98045441E+02</pdfrwt>
<pdfrwt beam="2">  1       -2 0.20080375E-02 0.98045441E+02</pdfrwt>
<totfact> 0.25203606E+04</totfact>
</mgrwt>
</event>
<event>
 8    1  0.3466492E-004  0.1147176E+03  0.7546771E-02  0.1252077E+00
          2   -1    0    0  501    0  0.00000000000E+00  0.00000000000E+00  0.51099405431E+03  0.51099405431E+03  0.00000000000E+00 0. -1.
         -2   -1    0    0    0  501 -0.00000000000E+00 -0.00000000000E+00 -0.32647160739E+02  0.32647160739E+02  0.00000000000E+00 0.  1.
         23    2    1    2    0    0 -0.65707333544E+02  0.15381610288E+02  0.36408120399E+03  0.38172525083E+03  0.92763119849E+02 0.  0.
         23    2    1    2    0    0  0.65707333544E+02 -0.15381610288E+02  0.11426568958E+03  0.16191596422E+03  0.92768982088E+02 0.  0.
          5    1    4    4  502    0  0.15131970574E+02 -0.50151861132E+02  0.60714539733E+02  0.80327648064E+02  0.47000000000E+01 0. -1.
         -5    1    3    3    0  503 -0.72784147961E+02  0.43773914564E+02  0.26742833311E+03  0.28063088059E+03  0.47000000000E+01 0.  1.
          5    1    3    3  503    0  0.70768144168E+01 -0.28392304276E+02  0.96652870878E+02  0.10109437024E+03  0.47000000000E+01 0. -1.
         -5    1    4    4    0  502  0.50575362970E+02  0.34770250844E+02  0.53551149845E+02  0.81588316155E+02  0.47000000000E+01 0.  1.
<mgrwt>
<rscale>  0 0.11471643E+03</rscale>
<asrwt>0</asrwt>
<pdfrwt beam="1">  1        2 0.78614464E-01 0.11471762E+03</pdfrwt>
<pdfrwt beam="2">  1       -2 0.50226405E-02 0.11471762E+03</pdfrwt>
<totfact> 0.11088752E+04</totfact>
</mgrwt>
</event>
<event>
 8    1  0.3466492E-004  0.9441729E+02  0.7546771E-02  0.1294611E+00
          2   -1    0    0  501    0  0.00000000000E+00  0.00000000000E+00  0.53681353749E+03  0.53681353749E+03  0.00000000000E+00 0. -1.
         -2   -1    0    0    0  501 -0.00000000000E+00 -0.00000000000E+00 -0.21271850093E+02  0.21271850093E+02  0.00000000000E+00 0.  1.
         23    2    1    2    0    0  0.18800397758E+02  0.20435488412E+02  0.11467704590E+03  0.14625157989E+03  0.86415482533E+02 0.  0.
         23    2    1    2    0    0 -0.18800397758E+02 -0.20435488412E+02  0.40086464150E+03  0.41183380770E+03  0.90241676702E+02 0.  0.
          5    1    4    4  502    0 -0.36583761362E+02 -0.46912996919E+02  0.30218303456E+03  0.30801928065E+03  0.47000000000E+01 0. -1.
         -5    1    4    4    0  502  0.17783363604E+02  0.26477508507E+02  0.98681606937E+02  0.10381452704E+03  0.47000000000E+01 0.  1.
          5    1    3    3  503    0  0.44023984922E+02 -0.10819064762E+02  0.83731347258E+02  0.95332008918E+02  0.47000000000E+01 0. -1.
         -5    1    3    3    0  503 -0.25223587163E+02  0.31254553174E+02  0.30945698642E+02  0.50919570971E+02  0.47000000000E+01 0.  1.
<mgrwt>
<rscale>  0 0.93491252E+02</rscale>
<asrwt>0</asrwt>
<pdfrwt beam="1">  1        2 0.82586688E-01 0.94417288E+02</pdfrwt>
<pdfrwt beam="2">  1       -2 0.32725927E-02 0.94417288E+02</pdfrwt>
<totfact> 0.19451840E+04</totfact>
</mgrwt>
</event>
<event>
 8    1  0.3466492E-004  0.1004065E+03  0.7546771E-02  0.1280568E+00
         -2   -1    0    0    0  501 -0.00000000000E+00  0.00000000000E+00  0.36402336440E+02  0.36402336440E+02  0.00000000000E+00 0.  1.
          2   -1    0    0  501    0  0.00000000000E+00 -0.00000000000E+00 -0.28318783813E+03  0.28318783813E+03  0.00000000000E+00 0. -1.
         23    2    1    2    0    0 -0.40520485723E+02 -0.98502267536E+00 -0.89136150911E+02  0.13268169792E+03  0.89533789888E+02 0.  0.
         23    2    1    2    0    0  0.40520485723E+02  0.98502267536E+00 -0.15764935078E+03  0.18690847665E+03  0.91861748342E+02 0.  0.
          5    1    3    3  502    0 -0.23023704927E+02  0.37651646639E+02 -0.76038283970E+02  0.88043444460E+02  0.47000000000E+01 0. -1.
         -5    1    3    3    0  502 -0.17496780795E+02 -0.38636669314E+02 -0.13097866941E+02  0.44638253464E+02  0.47000000000E+01 0.  1.
          5    1    4    4  503    0  0.46861409824E+01  0.42356908148E+02 -0.48632475423E+02  0.64832671169E+02  0.47000000000E+01 0. -1.
         -5    1    4    4    0  503  0.35834344740E+02 -0.41371885473E+02 -0.10901687535E+03  0.12207580548E+03  0.47000000000E+01 0.  1.
<mgrwt>
<rscale>  0 0.99870869E+02</rscale>
<asrwt>0</asrwt>
<pdfrwt beam="1">  1        2 0.43567360E-01 0.10040648E+03</pdfrwt>
<pdfrwt beam="2">  1       -2 0.56003594E-02 0.10040648E+03</pdfrwt>
<totfact> 0.17427711E+04</totfact>
</mgrwt>
</event>
<event>
 8    1  0.3466492E-004  0.1016977E+03  0.7546771E-02  0.1278014E+00
          2   -1    0    0  501    0  0.00000000000E+00  0.00000000000E+00  0.53595932014E+02  0.53595932014E+02  0.00000000000E+00 0. -1.
         -2   -1    0    0    0  501 -0.00000000000E+00 -0.00000000000E+00 -0.42399531133E+03  0.42399531133E+03  0.00000000000E+00 0.  1.
         23    2    1    2    0    0  0.27398819435E+02  0.35517954184E+02 -0.62376775259E+01  0.99495805864E+02  0.88590554732E+02 0.  0.
         23    2    1    2    0    0 -0.27398819435E+02 -0.35517954184E+02 -0.36416170179E+03  0.37809543748E+03  0.91269898746E+02 0.  0.
          5    1    3    3  502    0  0.39191719021E+02 -0.20878005630E+00  0.28011445371E+02  0.48402122895E+02  0.47000000000E+01 0. -1.
         -5    1    3    3    0  502 -0.11792899586E+02  0.35726734240E+02 -0.34249122897E+02  0.51093682969E+02  0.47000000000E+01 0.  1.
          5    1    4    4  503    0  0.32931383745E+02 -0.20781763238E+02 -0.15221821814E+03  0.15719043753E+03  0.47000000000E+01 0. -1.
         -5    1    4    4    0  503 -0.60330203180E+02 -0.14736190946E+02 -0.21194348365E+03  0.22090499995E+03  0.47000000000E+01 0.  1.
<mgrwt>
<rscale>  0 0.10109290E+03</rscale>
<asrwt>0</asrwt>
<pdfrwt beam="1">  1        2 0.82455277E-02 0.10169766E+03</pdfrwt>
<pdfrwt beam="2">  1       -2 0.65230050E-01 0.10169766E+03</pdfrwt>
<totfact> 0.17262436E+03</totfact>
</mgrwt>
</event>
<event>
 8    1  0.3466492E-004  0.1386575E+03  0.7546771E-02  0.1215335E+00
          3   -1    0    0  501    0  0.00000000000E+00  0.00000000000E+00  0.43153318852E+03  0.43153318852E+03  0.00000000000E+00 0. -1.
         -3   -1    0    0    0  501 -0.00000000000E+00 -0.00000000000E+00 -0.12273525779E+03  0.12273525779E+03  0.00000000000E+00 0.  1.
         23    2    1    2    0    0 -0.45912153797E+02  0.92016959654E+02  0.37594777473E+03  0.40070266616E+03  0.93009949006E+02 0.  0.
         23    2    1    2    0    0  0.45912153797E+02 -0.92016959654E+02 -0.67149843995E+02  0.15356578015E+03  0.92186227581E+02 0.  0.
          5    1    4    4  502    0  0.51777614698E+02 -0.62618121107E+02 -0.16798935558E+01  0.81405543528E+02  0.47000000000E+01 0. -1.
         -5    1    3    3    0  503 -0.73849275976E+02  0.59419215175E+02  0.27459455445E+03  0.29053161279E+03  0.47000000000E+01 0. -1.
          5    1    3    3  503    0  0.27937122179E+02  0.32597744480E+02  0.10135322028E+03  0.11017105337E+03  0.47000000000E+01 0.  1.
         -5    1    4    4    0  502 -0.58654609008E+01 -0.29398838547E+02 -0.65469950439E+02  0.72160236626E+02  0.47000000000E+01 0.  1.
<mgrwt>
<rscale>  0 0.13851948E+03</rscale>
<asrwt>0</asrwt>
<pdfrwt beam="1">  1        3 0.66389721E-01 0.13865748E+03</pdfrwt>
<pdfrwt beam="2">  1       -3 0.18882348E-01 0.13865748E+03</pdfrwt>
<totfact> 0.13020902E+02</totfact>
</mgrwt>
</event>
<event>
 8    1  0.3466492E-004  0.9784042E+02  0.7546771E-02  0.1286543E+00
         -2   -1    0    0    0  501 -0.00000000000E+00  0.00000000000E+00  0.11214167283E+03  0.11214167283E+03  0.00000000000E+00 0.  1.
          2   -1    0    0  501    0  0.00000000000E+00 -0.00000000000E+00 -0.13484622202E+03  0.13484622202E+03  0.00000000000E+00 0. -1.
         23    2    1    2    0    0 -0.15920899746E+02 -0.19736729062E+02  0.65483696445E+02  0.11526881922E+03  0.91409915549E+02 0.  0.
         23    2    1    2    0    0  0.15920899746E+02  0.19736729062E+02 -0.88188245635E+02  0.13171907564E+03  0.94497273481E+02 0.  0.
          5    1    3    3  502    0  0.15507769047E+02  0.30998969668E+02  0.23103040044E+02  0.41919774338E+02  0.47000000000E+01 0. -1.
         -5    1    3    3    0  502 -0.31428668793E+02 -0.50735698729E+02  0.42380656401E+02  0.73349044879E+02  0.47000000000E+01 0.  1.
          5    1    4    4  503    0  0.51377379659E+02  0.76131510898E+01 -0.75734308044E+02  0.91953089263E+02  0.47000000000E+01 0. -1.
         -5    1    4    4    0  503 -0.35456479913E+02  0.12123577972E+02 -0.12453937592E+02  0.39765986373E+02  0.47000000000E+01 0.  1.
<mgrwt>
<rscale>  0 0.97087145E+02</rscale>
<asrwt>0</asrwt>
<pdfrwt beam="1">  1        2 0.20745572E-01 0.97840422E+02</pdfrwt>
<pdfrwt beam="2">  1       -2 0.17252565E-01 0.97840422E+02</pdfrwt>
<totfact> 0.66627096E+03</totfact>
</mgrwt>
</event>
<event>
 8    1  0.3466492E-004  0.1126131E+03  0.7546771E-02  0.1257691E+00
          2   -1    0    0  501    0  0.00000000000E+00  0.00000000000E+00  0.13242311371E+04  0.13242311371E+04  0.00000000000E+00 0. -1.
         -2   -1    0    0    0  501 -0.00000000000E+00 -0.00000000000E+00 -0.92856066116E+01  0.92856066116E+01  0.00000000000E+00 0.  1.
         23    2    1    2    0    0  0.61182991883E+02  0.17733838025E+02  0.69703559747E+03  0.70542884723E+03  0.87825889445E+02 0.  0.
         23    2    1    2    0    0 -0.61182991883E+02 -0.17733838025E+02  0.61790993300E+03  0.62808789646E+03  0.92864809680E+02 0.  0.
          5    1    3    3  502    0  0.53927426691E+00 -0.25073504515E+02  0.81116595574E+02  0.85035072311E+02  0.47000000000E+01 0. -1.
         -5    1    4    4    0  503  0.19651418525E+02 -0.21064848847E+02  0.11264824635E+03  0.11636848161E+03  0.47000000000E+01 0.  1.
          5    1    4    4  503    0 -0.80834410408E+02  0.33310108222E+01  0.50526168665E+03  0.51171941485E+03  0.47000000000E+01 0. -1.
         -5    1    3    3    0  502  0.60643717616E+02  0.42807342540E+02  0.61591900189E+03  0.62039377492E+03  0.47000000000E+01 0.  1.
<mgrwt>
<rscale>  0 0.11156926E+03</rscale>
<asrwt>0</asrwt>
<pdfrwt beam="1">  1        2 0.20372772E+00 0.11261314E+03</pdfrwt>
<pdfrwt beam="2">  1       -2 0.14285559E-02 0.11261314E+03</pdfrwt>
<totfact> 0.20443458E+04</totfact>
</mgrwt>
</event>
<event>
 8    1  0.3466492E-004  0.1375123E+03  0.7546771E-02  0.1221459E+00
          1   -1    0    0  501    0  0.00000000000E+00  0.00000000000E+00  0.21596245307E+03  0.21596245307E+03  0.00000000000E+00 0. -1.
         -1   -1    0    0    0  501 -0.00000000000E+00 -0.00000000000E+00 -0.90765208350E+02  0.90765208350E+02  0.00000000000E+00 0.  1.
         23    2    1    2    0    0  0.83515018074E+02 -0.12608106580E+02  0.57674363472E+01  0.12459279781E+03  0.91413233995E+02 0.  0.
         23    2    1    2    0    0 -0.83515018074E+02  0.12608106580E+02  0.11942980837E+03  0.18213486361E+03  0.10851685038E+03 0.  0.
          5    1    3    3  502    0  0.89182073995E+02  0.18337574373E+02  0.12663710046E+02  0.92044383360E+02  0.47000000000E+01 0. -1.
         -5    1    4    4    0  503 -0.52017953592E+02  0.31500431150E+02  0.42410902831E+01  0.61140996928E+02  0.47000000000E+01 0.  1.
          5    1    4    4  503    0 -0.31497064482E+02 -0.18892324570E+02  0.11518871809E+03  0.12099386668E+03  0.47000000000E+01 0. -1.
         -5    1    3    3    0  502 -0.56670559214E+01 -0.30945680953E+02 -0.68962736984E+01  0.32548414453E+02  0.47000000000E+01 0.  1.
<mgrwt>
<rscale>  0 0.13412598E+03</rscale>
<asrwt>0</asrwt>
<pdfrwt beam="1">  1        1 0.33224993E-01 0.13751229E+03</pdfrwt>
<pdfrwt beam="2">  1       -1 0.13963878E-01 0.13751229E+03</pdfrwt>
<totfact> 0.45972949E+03</totfact>
</mgrwt>
</event>
<event>
 8    1  0.3466492E-004  0.1000180E+03  0.7546771E-02  0.1283329E+00
          2   -1    0    0  501    0  0.00000000000E+00  0.00000000000E+00  0.77459277615E+03  0.77459277615E+03  0.00000000000E+00 0. -1.
         -2   -1    0    0    0  501 -0.00000000000E+00 -0.00000000000E+00 -0.13021867394E+02  0.13021867394E+02  0.00000000000E+00 0.  1.
         23    2    1    2    0    0  0.27293974293E+02  0.79313167104E+01  0.29191010603E+03  0.30856944869E+03  0.95894357738E+02 0.  0.
         23    2    1    2    0    0 -0.27293974293E+02 -0.79313167104E+01  0.46966080273E+03  0.47904519485E+03  0.89973119746E+02 0.  0.
          5    1    3    3  502    0  0.15099123026E+02 -0.27347950401E+02  0.25103847836E+03  0.25301838179E+03  0.47000000000E+01 0. -1.
         -5    1    4    4    0  503 -0.28667927740E+02 -0.38055379307E+02  0.40173895391E+03  0.40458168404E+03  0.47000000000E+01 0.  1.
          5    1    4    4  503    0  0.13739534473E+01  0.30124062597E+02  0.67921848817E+02  0.74463510810E+02  0.47000000000E+01 0. -1.
         -5    1    3    3    0  502  0.12194851267E+02  0.35279267112E+02  0.40871627673E+02  0.55551066902E+02  0.47000000000E+01 0.  1.
<mgrwt>
<rscale>  0 0.98571362E+02</rscale>
<asrwt>0</asrwt>
<pdfrwt beam="1">  1        2 0.11916808E+00 0.10001797E+03</pdfrwt>
<pdfrwt beam="2">  1       -2 0.20033648E-02 0.10001797E+03</pdfrwt>
<totfact> 0.26166331E+04</totfact>
</mgrwt>
</event>
<event>
 8    1  0.3466492E-004  0.9301359E+02  0.7546771E-02  0.1296224E+00
         -1   -1    0    0    0  501 -0.00000000000E+00  0.00000000000E+00  0.30084592717E+03  0.30084592717E+03  0.00000000000E+00 0.  1.
          1   -1    0    0  501    0  0.00000000000E+00 -0.00000000000E+00 -0.59985772145E+02  0.59985772145E+02  0.00000000000E+00 0. -1.
         23    2    1    2    0    0 -0.16396030593E+02  0.78651449219E+01  0.25143651291E+03  0.26808925332E+03  0.91218624179E+02 0.  0.
         23    2    1    2    0    0  0.16396030593E+02 -0.78651449219E+01 -0.10576357888E+02  0.92742445993E+02  0.90325033178E+02 0.  0.
          5    1    4    4  502    0  0.49897797233E+02  0.12855329950E+02 -0.21887985853E+00  0.51741546027E+02  0.47000000000E+01 0. -1.
         -5    1    4    4    0  502 -0.33501766640E+02 -0.20720474872E+02 -0.10357478030E+02  0.41000899966E+02  0.47000000000E+01 0.  1.
          5    1    3    3  503    0  0.35310770244E+02  0.10485219660E+02  0.68595600240E+02  0.78001517285E+02  0.47000000000E+01 0. -1.
         -5    1    3    3    0  503 -0.51706800837E+02 -0.26200747383E+01  0.18284091267E+03  0.19008773604E+03  0.47000000000E+01 0.  1.
<mgrwt>
<rscale>  0 0.92793766E+02</rscale>
<asrwt>0</asrwt>
<pdfrwt beam="1">  1        1 0.92285805E-02 0.93013589E+02</pdfrwt>
<pdfrwt beam="2">  1       -1 0.46283988E-01 0.93013589E+02</pdfrwt>
<totfact> 0.31906549E+03</totfact>
</mgrwt>
</event>
<event>
 8    1  0.3466492E-004  0.1118871E+03  0.7546771E-02  0.1257182E+00
          2   -1    0    0  501    0  0.00000000000E+00  0.00000000000E+00  0.29856819373E+02  0.29856819373E+02  0.00000000000E+00 0. -1.
         -2   -1    0    0    0  501 -0.00000000000E+00 -0.00000000000E+00 -0.42136096406E+03  0.42136096406E+03  0.00000000000E+00 0.  1.
         23    2    1    2    0    0 -0.61249875232E+02 -0.26211848061E+02 -0.21342389619E+03  0.24090539040E+03  0.89705292300E+02 0.  0.
         23    2    1    2    0    0  0.61249875232E+02  0.26211848061E+02 -0.17808024850E+03  0.21031239303E+03  0.89889485270E+02 0.  0.
          5    1    4    4  502    0  0.83640690941E+02  0.11365564186E+02 -0.13131189316E+03  0.15617248322E+03  0.47000000000E+01 0. -1.
         -5    1    3    3    0  503  0.21481526404E+02 -0.13340395886E+02 -0.72394165422E+02  0.76827256402E+02  0.47000000000E+01 0. -1.
          5    1    3    3  503    0 -0.82731401635E+02 -0.12871452175E+02 -0.14102973077E+03  0.16407813400E+03  0.47000000000E+01 0.  1.
         -5    1    4    4    0  502 -0.22390815709E+02  0.14846283874E+02 -0.46768355340E+02  0.54139909809E+02  0.47000000000E+01 0.  1.
<mgrwt>
<rscale>  0 0.11185012E+03</rscale>
<asrwt>0</asrwt>
<pdfrwt beam="1">  1        2 0.45933572E-02 0.11188712E+03</pdfrwt>
<pdfrwt beam="2">  1       -2 0.64824758E-01 0.11188712E+03</pdfrwt>
<totfact> 0.37115306E+03</totfact>
</mgrwt>
</event>
<event>
 8    1  0.3466492E-004  0.1071651E+03  0.7546771E-02  0.1266025E+00
         -2   -1    0    0    0  501 -0.00000000000E+00  0.00000000000E+00  0.19806744918E+02  0.19806744918E+02  0.00000000000E+00 0.  1.
          2   -1    0    0  501    0  0.00000000000E+00 -0.00000000000E+00 -0.70118713898E+03  0.70118713898E+03  0.00000000000E+00 0. -1.
         23    2    1    2    0    0  0.57634480111E+00 -0.54842369087E+02 -0.18961678415E+03  0.21768900992E+03  0.91793042146E+02 0.  0.
         23    2    1    2    0    0 -0.57634480111E+00  0.54842369087E+02 -0.49176360991E+03  0.50330487398E+03  0.92066989309E+02 0.  0.
          5    1    4    4  502    0  0.29362557297E+02  0.58547040059E+02 -0.42301905732E+03  0.42808542199E+03  0.47000000000E+01 0. -1.
         -5    1    3    3    0  503 -0.23372004304E+02 -0.37371400727E+02 -0.26101087291E+02  0.51441509846E+02  0.47000000000E+01 0.  1.
          5    1    3    3  503    0  0.23948349105E+02 -0.17470968361E+02 -0.16351569686E+03  0.16624750007E+03  0.47000000000E+01 0. -1.
         -5    1    4    4    0  502 -0.29938902098E+02 -0.37046709719E+01 -0.68744552590E+02  0.75219451984E+02  0.47000000000E+01 0.  1.
<mgrwt>
<rscale>  0 0.10710619E+03</rscale>
<asrwt>0</asrwt>
<pdfrwt beam="1">  1        2 0.10787496E+00 0.10716505E+03</pdfrwt>
<pdfrwt beam="2">  1       -2 0.30471912E-02 0.10716505E+03</pdfrwt>
<totfact> 0.16138275E+04</totfact>
</mgrwt>
</event>
<event>
 8    1  0.3466492E-004  0.2418206E+03  0.7546771E-02  0.1118701E+00
         -1   -1    0    0    0  501 -0.00000000000E+00  0.00000000000E+00  0.51018862546E+02  0.51018862546E+02  0.00000000000E+00 0.  1.
          1   -1    0    0  501    0  0.00000000000E+00 -0.00000000000E+00 -0.12201935012E+04  0.12201935012E+04  0.00000000000E+00 0. -1.
         23    2    1    2    0    0  0.15614799593E+03  0.15934355731E+03 -0.74535231860E+03  0.78359894029E+03  0.93298737906E+02 0.  0.
         23    2    1    2    0    0 -0.15614799593E+03 -0.15934355731E+03 -0.42382232006E+03  0.48761342346E+03  0.91481833526E+02 0.  0.
          5    1    3    3  502    0  0.75688435059E+02  0.13024806196E+03 -0.55007309904E+03  0.57034708830E+03  0.47000000000E+01 0. -1.
         -5    1    3    3    0  502  0.80459560876E+02  0.29095495349E+02 -0.19527921957E+03  0.21325185200E+03  0.47000000000E+01 0.  1.
          5    1    4    4  503    0 -0.41675624609E+01 -0.55954853431E+02 -0.11854747418E+03  0.13123988660E+03  0.47000000000E+01 0. -1.
         -5    1    4    4    0  503 -0.15198043347E+03 -0.10338870388E+03 -0.30527484588E+03  0.35637353686E+03  0.47000000000E+01 0.  1.
<mgrwt>
<rscale>  0 0.24164666E+03</rscale>
<asrwt>0</asrwt>
<pdfrwt beam="1">  1        1 0.18772206E+00 0.24182064E+03</pdfrwt>
<pdfrwt beam="2">  1       -1 0.78490564E-02 0.24182064E+03</pdfrwt>
<totfact> 0.98525511E+02</totfact>
</mgrwt>
</event>
<event>
 8    1  0.3466492E-004  0.2196256E+03  0.7546771E-02  0.1134557E+00
         -2   -1    0    0    0  501 -0.00000000000E+00  0.00000000000E+00  0.91230018587E+02  0.91230018587E+02  0.00000000000E+00 0.  1.
          2   -1    0    0  501    0  0.00000000000E+00 -0.00000000000E+00 -0.52693426263E+03  0.52693426263E+03  0.00000000000E+00 0. -1.
         23    2    1    2    0    0 -0.19325468958E+03 -0.47315328971E+02 -0.19251516758E+03  0.29048098795E+03  0.87926100887E+02 0.  0.
         23    2    1    2    0    0  0.19325468958E+03  0.47315328971E+02 -0.24318907646E+03  0.32768329326E+03  0.93001604129E+02 0.  0.
          5    1    4    4  502    0  0.17733957514E+03  0.62838719634E+02 -0.17956256400E+03  0.26012080652E+03  0.47000000000E+01 0. -1.
         -5    1    3    3    0  503 -0.70567237516E+02 -0.47601011433E+02 -0.12218599190E+03  0.14898690518E+03  0.47000000000E+01 0.  1.
          5    1    3    3  503    0 -0.12268745206E+03  0.28568246271E+00 -0.70329175677E+02  0.14149408277E+03  0.47000000000E+01 0. -1.
         -5    1    4    4    0  502  0.15915114433E+02 -0.15523390663E+02 -0.63626512468E+02  0.67562486736E+02  0.47000000000E+01 0.  1.
<mgrwt>
<rscale>  0 0.21909857E+03</rscale>
<asrwt>0</asrwt>
<pdfrwt beam="1">  1        2 0.81066811E-01 0.21962562E+03</pdfrwt>
<pdfrwt beam="2">  1       -2 0.14035387E-01 0.21962562E+03</pdfrwt>
<totfact> 0.22267394E+03</totfact>
</mgrwt>
</event>
<event>
 8    1  0.3466492E-004  0.1129269E+03  0.7546771E-02  0.1255245E+00
         -2   -1    0    0    0  501 -0.00000000000E+00  0.00000000000E+00  0.22722432455E+02  0.22722432455E+02  0.00000000000E+00 0.  1.
          2   -1    0    0  501    0  0.00000000000E+00 -0.00000000000E+00 -0.63469190204E+03  0.63469190204E+03  0.00000000000E+00 0. -1.
         23    2    1    2    0    0  0.43479997861E+02  0.27638700264E+02 -0.19413419588E+03  0.22458779941E+03  0.10048475341E+03 0.  0.
         23    2    1    2    0    0 -0.43479997861E+02 -0.27638700264E+02 -0.41783527371E+03  0.43282653509E+03  0.10048923105E+03 0.  0.
          5    1    3    3  502    0  0.56595494151E+02 -0.21986197791E+02 -0.11539886287E+03  0.13048153281E+03  0.47000000000E+01 0. -1.
         -5    1    4    4    0  503 -0.70217202147E+02 -0.32458607653E+02 -0.22372291370E+03  0.23676581004E+03  0.47000000000E+01 0.  1.
          5    1    4    4  503    0  0.26737204286E+02  0.48199073892E+01 -0.19411236000E+03  0.19606072505E+03  0.47000000000E+01 0. -1.
         -5    1    3    3    0  502 -0.13115496290E+02  0.49624898055E+02 -0.78735333008E+02  0.94106266602E+02  0.47000000000E+01 0.  1.
<mgrwt>
<rscale>  0 0.11292594E+03</rscale>
<asrwt>0</asrwt>
<pdfrwt beam="1">  1        2 0.97644919E-01 0.11292694E+03</pdfrwt>
<pdfrwt beam="2">  1       -2 0.34957585E-02 0.11292694E+03</pdfrwt>
<totfact> 0.14875180E+04</totfact>
</mgrwt>
</event>
<event>
 8    1  0.3466492E-004  0.1042021E+03  0.7546771E-02  0.1278556E+00
         -1   -1    0    0    0  501 -0.00000000000E+00  0.00000000000E+00  0.11207058837E+02  0.11207058837E+02  0.00000000000E+00 0.  1.
          1   -1    0    0  501    0  0.00000000000E+00 -0.00000000000E+00 -0.12371718016E+04  0.12371718016E+04  0.00000000000E+00 0. -1.
         23    2    1    2    0    0 -0.93731331713E+01  0.11493258416E+02 -0.23798138655E+03  0.25491563114E+03  0.90149254232E+02 0.  0.
         23    2    1    2    0    0  0.93731331713E+01 -0.11493258416E+02 -0.98798335624E+03  0.99346322933E+03  0.10314128760E+03 0.  0.
          5    1    3    3  502    0 -0.31193265795E+02 -0.12457144655E+02 -0.20727044772E+03  0.21002697156E+03  0.47000000000E+01 0. -1.
         -5    1    4    4    0  503  0.34615681433E+02  0.35929174578E+02 -0.44822880727E+03  0.45102140155E+03  0.47000000000E+01 0.  1.
          5    1    4    4  503    0 -0.25242548262E+02 -0.47422432994E+02 -0.53975454896E+03  0.54244182778E+03  0.47000000000E+01 0. -1.
         -5    1    3    3    0  502  0.21820132624E+02  0.23950403070E+02 -0.30710938835E+02  0.44888659582E+02  0.47000000000E+01 0.  1.
<mgrwt>
<rscale>  0 0.10083181E+03</rscale>
<asrwt>0</asrwt>
<pdfrwt beam="1">  1        1 0.19033419E+00 0.10420209E+03</pdfrwt>
<pdfrwt beam="2">  1       -1 0.17241623E-02 0.10420209E+03</pdfrwt>
<totfact> 0.87951180E+03</totfact>
</mgrwt>
</event>
<event>
 8    1  0.3466492E-004  0.9484697E+02  0.7546771E-02  0.1292661E+00
         -1   -1    0    0    0  501 -0.00000000000E+00  0.00000000000E+00  0.37682067986E+03  0.37682067986E+03  0.00000000000E+00 0.  1.
          1   -1    0    0  501    0  0.00000000000E+00 -0.00000000000E+00 -0.90259505798E+02  0.90259505798E+02  0.00000000000E+00 0. -1.
         23    2    1    2    0    0  0.15990241789E+02  0.20547204539E+02  0.34392323574E+03  0.35623636202E+03  0.89125069989E+02 0.  0.
         23    2    1    2    0    0 -0.15990241789E+02 -0.20547204539E+02 -0.57362061673E+02  0.11084382364E+03  0.91203463051E+02 0.  0.
          5    1    4    4  502    0  0.23238687015E+02 -0.40179698641E+02 -0.45479950164E+02  0.65153362339E+02  0.47000000000E+01 0. -1.
         -5    1    4    4    0  502 -0.39228928805E+02  0.19632494102E+02 -0.11882111509E+02  0.45690461299E+02  0.47000000000E+01 0.  1.
          5    1    3    3  503    0 -0.85873074232E-01 -0.33221387532E+02  0.17455881658E+03  0.17775415160E+03  0.47000000000E+01 0. -1.
         -5    1    3    3    0  503  0.16076114864E+02  0.53768592071E+02  0.16936441916E+03  0.17848221043E+03  0.47000000000E+01 0.  1.
<mgrwt>
<rscale>  0 0.94343777E+02</rscale>
<asrwt>0</asrwt>
<pdfrwt beam="1">  1        1 0.13886078E-01 0.94846967E+02</pdfrwt>
<pdfrwt beam="2">  1       -1 0.57972411E-01 0.94846967E+02</pdfrwt>
<totfact> 0.12449386E+03</totfact>
</mgrwt>
</event>
<event>
 8    1  0.3466492E-004  0.9350436E+02  0.7546771E-02  0.1296755E+00
         -1   -1    0    0    0  501 -0.00000000000E+00  0.00000000000E+00  0.14670029764E+03  0.14670029764E+03  0.00000000000E+00 0.  1.
          1   -1    0    0  501    0  0.00000000000E+00 -0.00000000000E+00 -0.81756719118E+02  0.81756719118E+02  0.00000000000E+00 0. -1.
         23    2    1    2    0    0  0.17395052870E+02  0.12702474112E+02  0.95443118915E+02  0.13361307910E+03  0.90989698568E+02 0.  0.
         23    2    1    2    0    0 -0.17395052870E+02 -0.12702474112E+02 -0.30499540389E+02  0.94843937661E+02  0.87184917470E+02 0.  0.
          5    1    3    3  502    0 -0.30964023304E+02 -0.17718712287E+02  0.32643334219E+02  0.48583955924E+02  0.47000000000E+01 0. -1.
         -5    1    3    3    0  502  0.48359076173E+02  0.30421186399E+02  0.62799784696E+02  0.85029123176E+02  0.47000000000E+01 0.  1.
          5    1    4    4  503    0 -0.34906434843E+02 -0.32270040916E+02 -0.44000475299E+02  0.64945720111E+02  0.47000000000E+01 0. -1.
         -5    1    4    4    0  503  0.17511381973E+02  0.19567566804E+02  0.13500934910E+02  0.29898217550E+02  0.47000000000E+01 0.  1.
<mgrwt>
<rscale>  0 0.92565781E+02</rscale>
<asrwt>0</asrwt>
<pdfrwt beam="1">  1        1 0.12577957E-01 0.93504363E+02</pdfrwt>
<pdfrwt beam="2">  1       -1 0.22569276E-01 0.93504363E+02</pdfrwt>
<totfact> 0.71454503E+03</totfact>
</mgrwt>
</event>
<event>
 8    1  0.3466492E-004  0.1530023E+03  0.7546771E-02  0.1205355E+00
         -2   -1    0    0    0  501 -0.00000000000E+00  0.00000000000E+00  0.70617699940E+02  0.70617699940E+02  0.00000000000E+00 0.  1.
          2   -1    0    0  501    0  0.00000000000E+00 -0.00000000000E+00 -0.28028574001E+03  0.28028574001E+03  0.00000000000E+00 0. -1.
         23    2    1    2    0    0 -0.74015947518E+02  0.45843191558E+02 -0.13043170205E+03  0.20105255322E+03  0.12581630085E+03 0.  0.
         23    2    1    2    0    0  0.74015947518E+02 -0.45843191558E+02 -0.79236338025E+02  0.14985088673E+03  0.92719643498E+02 0.  0.
          5    1    4    4  502    0  0.43905109256E+02 -0.54774524546E+02 -0.91833359850E+02  0.11568648642E+03  0.47000000000E+01 0. -1.
         -5    1    3    3    0  503  0.26492321921E+02  0.34149878972E+02 -0.72012481368E+02  0.84118635434E+02  0.47000000000E+01 0. -1.
          5    1    3    3  503    0 -0.10050826944E+03  0.11693312586E+02 -0.58419220678E+02  0.11693391779E+03  0.47000000000E+01 0. -1.
         -5    1    4    4    0  502  0.30110838262E+02  0.89313329877E+01  0.12597021826E+02  0.34164400311E+02  0.47000000000E+01 0.  1.
<mgrwt>
<rscale>  0 0.14609499E+03</rscale>
<asrwt>0</asrwt>
<pdfrwt beam="1">  1        2 0.43120882E-01 0.15300229E+03</pdfrwt>
<pdfrwt beam="2">  1       -2 0.10864262E-01 0.15300229E+03</pdfrwt>
<totfact> 0.65686192E+03</totfact>
</mgrwt>
</event>
<event>
 8    1  0.3466492E-004  0.1121355E+03  0.7546771E-02  0.1257227E+00
         -3   -1    0    0    0  501 -0.00000000000E+00  0.00000000000E+00  0.52661308365E+02  0.52661308365E+02  0.00000000000E+00 0.  1.
          3   -1    0    0  501    0  0.00000000000E+00 -0.00000000000E+00 -0.35469745953E+03  0.35469745953E+03  0.00000000000E+00 0. -1.
         23    2    1    2    0    0 -0.58546641967E+02  0.26393756982E+02 -0.32713573424E+02  0.11562425716E+03  0.90412672032E+02 0.  0.
         23    2    1    2    0    0  0.58546641967E+02 -0.26393756982E+02 -0.26932257774E+03  0.29173451074E+03  0.91924067473E+02 0.  0.
          5    1    3    3  502    0 -0.41581091634E+02 -0.28395794062E+02 -0.25137847600E+01  0.50633165176E+02  0.47000000000E+01 0.  1.
         -5    1    4    4    0  503  0.50549744571E+02  0.11283615865E+01 -0.52739002537E+02  0.73212309516E+02  0.47000000000E+01 0.  1.
          5    1    4    4  503    0  0.79968973964E+01 -0.27522118568E+02 -0.21658357521E+03  0.21852220122E+03  0.47000000000E+01 0. -1.
         -5    1    3    3    0  502 -0.16965550333E+02  0.54789551044E+02 -0.30199788664E+02  0.64991091982E+02  0.47000000000E+01 0. -1.
<mgrwt>
<rscale>  0 0.11182533E+03</rscale>
<asrwt>0</asrwt>
<pdfrwt beam="1">  1        3 0.54568844E-01 0.11213552E+03</pdfrwt>
<pdfrwt beam="2">  1       -3 0.81017392E-02 0.11213552E+03</pdfrwt>
<totfact> 0.78415698E+02</totfact>
</mgrwt>
</event>
<event>
 8    1  0.3466492E-004  0.1465359E+03  0.7546771E-02  0.1207745E+00
         -2   -1    0    0    0  501 -0.00000000000E+00  0.00000000000E+00  0.16422205805E+03  0.16422205805E+03  0.00000000000E+00 0.  1.
          2   -1    0    0  501    0  0.00000000000E+00 -0.00000000000E+00 -0.22165973264E+03  0.22165973264E+03  0.00000000000E+00 0. -1.
         23    2    1    2    0    0  0.11440835299E+02 -0.10222708180E+03 -0.15800907623E+03  0.21549860142E+03  0.10436239780E+03 0.  0.
         23    2    1    2    0    0 -0.11440835299E+02  0.10222708180E+03  0.10057140164E+03  0.17038318928E+03  0.91293786170E+02 0.  0.
          5    1    4    4  502    0  0.21899547528E+02  0.40859125694E+02  0.87560178433E+02  0.99186355824E+02  0.47000000000E+01 0. -1.
         -5    1    4    4    0  502 -0.33340382828E+02  0.61367956110E+02  0.13011223209E+02  0.71196833452E+02  0.47000000000E+01 0.  1.
          5    1    3    3  503    0 -0.11419445813E+02 -0.11069297403E+03 -0.15444569751E+03  0.19041770328E+03  0.47000000000E+01 0. -1.
         -5    1    3    3    0  503  0.22860281112E+02  0.84658922209E+01 -0.35633787214E+01  0.25080898141E+02  0.47000000000E+01 0.  1.
<mgrwt>
<rscale>  0 0.14423188E+03</rscale>
<asrwt>0</asrwt>
<pdfrwt beam="1">  1        2 0.34101497E-01 0.14653593E+03</pdfrwt>
<pdfrwt beam="2">  1       -2 0.25264932E-01 0.14653593E+03</pdfrwt>
<totfact> 0.20739955E+03</totfact>
</mgrwt>
</event>
<event>
 8    1  0.3466492E-004  0.1312345E+03  0.7546771E-02  0.1238158E+00
          1   -1    0    0  501    0  0.00000000000E+00  0.00000000000E+00  0.17744546457E+03  0.17744546457E+03  0.00000000000E+00 0. -1.
         -1   -1    0    0    0  501 -0.00000000000E+00 -0.00000000000E+00 -0.32711656145E+03  0.32711656145E+03  0.00000000000E+00 0.  1.
         23    2    1    2    0    0  0.35626338808E+02  0.30163914794E+02 -0.29310290118E+03  0.31015221916E+03  0.90033274924E+02 0.  0.
         23    2    1    2    0    0 -0.35626338808E+02 -0.30163914794E+02  0.14343180430E+03  0.19440980686E+03  0.12265150935E+03 0.  0.
          5    1    4    4  502    0 -0.74173111302E+00 -0.62366470180E+02  0.13091179405E+03  0.14508657619E+03  0.47000000000E+01 0. -1.
         -5    1    3    3    0  503  0.43293585332E+02 -0.64050387955E+01 -0.24569874288E+03  0.24961033894E+03  0.47000000000E+01 0.  1.
          5    1    3    3  503    0 -0.76672465238E+01  0.36568953590E+02 -0.47404158306E+02  0.60541880220E+02  0.47000000000E+01 0. -1.
         -5    1    4    4    0  502 -0.34884607695E+02  0.32202555386E+02  0.12520010249E+02  0.49323230673E+02  0.47000000000E+01 0.  1.
<mgrwt>
<rscale>  0 0.12304444E+03</rscale>
<asrwt>0</asrwt>
<pdfrwt beam="1">  1        1 0.27299303E-01 0.13123449E+03</pdfrwt>
<pdfrwt beam="2">  1       -1 0.50325624E-01 0.13123449E+03</pdfrwt>
<totfact> 0.69190729E+02</totfact>
</mgrwt>
</event>
<event>
 8    1  0.3466492E-004  0.3022000E+03  0.7546771E-02  0.1084366E+00
          1   -1    0    0  501    0  0.00000000000E+00  0.00000000000E+00  0.19085354566E+04  0.19085354566E+04  0.00000000000E+00 0. -1.
         -1   -1    0    0    0  501 -0.00000000000E+00 -0.00000000000E+00 -0.51804387637E+02  0.51804387637E+02  0.00000000000E+00 0.  1.
         23    2    1    2    0    0  0.24370869340E+03 -0.15192352325E+03  0.65067383620E+03  0.71742686092E+03  0.94075371396E+02 0.  0.
         23    2    1    2    0    0 -0.24370869340E+03  0.15192352325E+03  0.12060572328E+04  0.12429129833E+04  0.88226703604E+02 0.  0.
          5    1    4    4  502    0 -0.36641411194E+02  0.36018058914E+02  0.37823759580E+03  0.38174030761E+03  0.47000000000E+01 0. -1.
         -5    1    3    3    0  503  0.25778128307E+02  0.10011281026E+02  0.93265053021E+02  0.97391979967E+02  0.47000000000E+01 0.  1.
          5    1    3    3  503    0  0.21793056510E+03 -0.16193480428E+03  0.55740878318E+03  0.62003488096E+03  0.47000000000E+01 0. -1.
         -5    1    4    4    0  502 -0.20706728221E+03  0.11590546434E+03  0.82781963698E+03  0.86117267572E+03  0.47000000000E+01 0.  1.
<mgrwt>
<rscale>  0 0.30175674E+03</rscale>
<asrwt>0</asrwt>
<pdfrwt beam="1">  1        1 0.29362079E+00 0.30220003E+03</pdfrwt>
<pdfrwt beam="2">  1       -1 0.79699073E-02 0.30220003E+03</pdfrwt>
<totfact> 0.33357684E+02</totfact>
</mgrwt>
</event>
<event>
 8    1  0.3466492E-004  0.1779104E+03  0.7546771E-02  0.1169881E+00
          1   -1    0    0  501    0  0.00000000000E+00  0.00000000000E+00  0.91477197860E+02  0.91477197860E+02  0.00000000000E+00 0. -1.
         -1   -1    0    0    0  501 -0.00000000000E+00 -0.00000000000E+00 -0.41466134329E+03  0.41466134329E+03  0.00000000000E+00 0.  1.
         23    2    1    2    0    0 -0.16655406918E+02 -0.15291965784E+03 -0.58323358455E+02  0.18707220029E+03  0.89064974289E+02 0.  0.
         23    2    1    2    0    0  0.16655406918E+02  0.15291965784E+03 -0.26486078698E+03  0.31906634087E+03  0.89388304947E+02 0.  0.
          5    1    3    3  502    0  0.97634932621E+01 -0.74605125717E+02  0.14554312553E+02  0.76780001288E+02  0.47000000000E+01 0. -1.
         -5    1    3    3    0  502 -0.26418900180E+02 -0.78314532123E+02 -0.72877671008E+02  0.11029219900E+03  0.47000000000E+01 0.  1.
          5    1    4    4  503    0 -0.13721911262E+02  0.32049653669E+02 -0.12083879088E+02  0.37196522456E+02  0.47000000000E+01 0. -1.
         -5    1    4    4    0  503  0.30377318180E+02  0.12087000417E+03 -0.25277690789E+03  0.28186981841E+03  0.47000000000E+01 0.  1.
<mgrwt>
<rscale>  0 0.17786978E+03</rscale>
<asrwt>0</asrwt>
<pdfrwt beam="1">  1        1 0.14073415E-01 0.17791035E+03</pdfrwt>
<pdfrwt beam="2">  1       -1 0.63794054E-01 0.17791035E+03</pdfrwt>
<totfact> 0.10376687E+03</totfact>
</mgrwt>
</event>
<event>
 8    1  0.3466492E-004  0.1456062E+03  0.7546771E-02  0.1206082E+00
         -1   -1    0    0    0  501 -0.00000000000E+00  0.00000000000E+00  0.26071357901E+03  0.26071357901E+03  0.00000000000E+00 0.  1.
          1   -1    0    0  501    0  0.00000000000E+00 -0.00000000000E+00 -0.14637667326E+03  0.14637667326E+03  0.00000000000E+00 0. -1.
         23    2    1    2    0    0 -0.10684376641E+03  0.37358677678E+02  0.19301829542E+03  0.24158514701E+03  0.91082707853E+02 0.  0.
         23    2    1    2    0    0  0.10684376641E+03 -0.37358677678E+02 -0.78681389663E+02  0.16550510526E+03  0.91596493212E+02 0.  0.
          5    1    3    3  502    0 -0.10831817378E+03  0.86394809615E+00  0.14177214295E+03  0.17847970107E+03  0.47000000000E+01 0.  1.
         -5    1    4    4    0  503  0.33956280866E+02 -0.57968017438E+02 -0.22225394620E+02  0.70918109267E+02  0.47000000000E+01 0.  1.
          5    1    4    4  503    0  0.72887485546E+02  0.20609339760E+02 -0.56455995043E+02  0.94586995993E+02  0.47000000000E+01 0. -1.
         -5    1    3    3    0  502  0.14744073672E+01  0.36494729582E+02  0.51246152463E+02  0.63105445934E+02  0.47000000000E+01 0. -1.
<mgrwt>
<rscale>  0 0.14552551E+03</rscale>
<asrwt>0</asrwt>
<pdfrwt beam="1">  1        1 0.22519488E-01 0.14560625E+03</pdfrwt>
<pdfrwt beam="2">  1       -1 0.40109782E-01 0.14560625E+03</pdfrwt>
<totfact> 0.13253408E+03</totfact>
</mgrwt>
</event>
<event>
 8    1  0.3466492E-004  0.1004909E+03  0.7546771E-02  0.1283556E+00
          1   -1    0    0  501    0  0.00000000000E+00  0.00000000000E+00  0.24138097359E+03  0.24138097359E+03  0.00000000000E+00 0. -1.
         -1   -1    0    0    0  501 -0.00000000000E+00 -0.00000000000E+00 -0.44818210057E+02  0.44818210057E+02  0.00000000000E+00 0.  1.
         23    2    1    2    0    0 -0.47196825039E+01  0.98058889705E+01  0.15487399741E+03  0.18461954334E+03  0.99899899145E+02 0.  0.
         23    2    1    2    0    0  0.47196825039E+01 -0.98058889705E+01  0.41688766122E+02  0.10157964030E+03  0.91989343087E+02 0.  0.
          5    1    4    4  502    0 -0.23776764962E+02 -0.24958257669E+02  0.56028965713E+02  0.65951377368E+02  0.47000000000E+01 0. -1.
         -5    1    4    4    0  502  0.28496447466E+02  0.15152368698E+02 -0.14340199591E+02  0.35628262934E+02  0.47000000000E+01 0.  1.
          5    1    3    3  503    0 -0.32966618936E+02 -0.78412639922E+01  0.14582934256E+03  0.14978841923E+03  0.47000000000E+01 0. -1.
         -5    1    3    3    0  503  0.28246936432E+02  0.17647152963E+02  0.90446548507E+01  0.34831124111E+02  0.47000000000E+01 0.  1.
<mgrwt>
<rscale>  0 0.98465464E+02</rscale>
<asrwt>0</asrwt>
<pdfrwt beam="1">  1        1 0.37135534E-01 0.10049090E+03</pdfrwt>
<pdfrwt beam="2">  1       -1 0.68951094E-02 0.10049090E+03</pdfrwt>
<totfact> 0.11450572E+04</totfact>
</mgrwt>
</event>
<event>
 8    1  0.3466492E-004  0.1161950E+03  0.7546771E-02  0.1250369E+00
         -2   -1    0    0    0  501 -0.00000000000E+00  0.00000000000E+00  0.28053647844E+02  0.28053647844E+02  0.00000000000E+00 0.  1.
          2   -1    0    0  501    0  0.00000000000E+00 -0.00000000000E+00 -0.47320776691E+03  0.47320776691E+03  0.00000000000E+00 0. -1.
         23    2    1    2    0    0 -0.27487342072E+02 -0.63296361637E+02 -0.22807372423E+03  0.25596659540E+03  0.93484174632E+02 0.  0.
         23    2    1    2    0    0  0.27487342072E+02  0.63296361637E+02 -0.21708039484E+03  0.24529481935E+03  0.91014653812E+02 0.  0.
          5    1    3    3  502    0  0.10036453428E+02  0.20129948451E+02 -0.30451822042E+02  0.38149032593E+02  0.47000000000E+01 0. -1.
         -5    1    3    3    0  502 -0.37523795500E+02 -0.83426310088E+02 -0.19762190219E+03  0.21781756281E+03  0.47000000000E+01 0.  1.
          5    1    4    4  503    0  0.28802969188E+02  0.32038630397E+02 -0.20787753829E+03  0.21234699385E+03  0.47000000000E+01 0. -1.
         -5    1    4    4    0  503 -0.13156271153E+01  0.31257731240E+02 -0.92028565511E+01  0.32947825508E+02  0.47000000000E+01 0.  1.
<mgrwt>
<rscale>  0 0.11569744E+03</rscale>
<asrwt>0</asrwt>
<pdfrwt beam="1">  1        2 0.72801197E-01 0.11619498E+03</pdfrwt>
<pdfrwt beam="2">  1       -2 0.43159457E-02 0.11619498E+03</pdfrwt>
<totfact> 0.15127735E+04</totfact>
</mgrwt>
</event>
<event>
 8    1  0.3466492E-004  0.1895098E+03  0.7546771E-02  0.1158913E+00
          1   -1    0    0  501    0  0.00000000000E+00  0.00000000000E+00  0.68094170949E+03  0.68094170949E+03  0.00000000000E+00 0. -1.
         -1   -1    0    0    0  501 -0.00000000000E+00 -0.00000000000E+00 -0.59168820522E+02  0.59168820522E+02  0.00000000000E+00 0.  1.
         23    2    1    2    0    0 -0.28352706050E+02 -0.16325497968E+03  0.43298917649E+03  0.47264533212E+03  0.91966943427E+02 0.  0.
         23    2    1    2    0    0  0.28352706050E+02  0.16325497968E+03  0.18878371247E+03  0.26746519789E+03  0.91881867940E+02 0.  0.
          5    1    4    4  502    0  0.48687336321E+02  0.10345867500E+03  0.73736299999E+02  0.13613701219E+03  0.47000000000E+01 0. -1.
         -5    1    4    4    0  502 -0.20334630271E+02  0.59796304679E+02  0.11504741247E+03  0.13132818570E+03  0.47000000000E+01 0.  1.
          5    1    3    3  503    0  0.51042881889E+01 -0.42927706993E+02  0.23144957325E+03  0.23549912260E+03  0.47000000000E+01 0. -1.
         -5    1    3    3    0  503 -0.33456994239E+02 -0.12032727269E+03  0.20153960324E+03  0.23714620952E+03  0.47000000000E+01 0.  1.
<mgrwt>
<rscale>  0 0.18949953E+03</rscale>
<asrwt>0</asrwt>
<pdfrwt beam="1">  1        1 0.10476026E+00 0.18950985E+03</pdfrwt>
<pdfrwt beam="2">  1       -1 0.91028959E-02 0.18950985E+03</pdfrwt>
<totfact> 0.20555188E+03</totfact>
</mgrwt>
</event>
<event>
 8    1  0.3466492E-004  0.1632803E+03  0.7546771E-02  0.1185055E+00
          1   -1    0    0  501    0  0.00000000000E+00  0.00000000000E+00  0.19534288489E+03  0.19534288489E+03  0.00000000000E+00 0. -1.
         -1   -1    0    0    0  501 -0.00000000000E+00 -0.00000000000E+00 -0.20054329331E+03  0.20054329331E+03  0.00000000000E+00 0.  1.
         23    2    1    2    0    0  0.72320437527E+02  0.11489145850E+03 -0.11450970205E+03  0.19943147205E+03  0.90720159043E+02 0.  0.
         23    2    1    2    0    0 -0.72320437527E+02 -0.11489145850E+03  0.10930929363E+03  0.19645470615E+03  0.90640150990E+02 0.  0.
          5    1    3    3  502    0  0.59391056364E+02  0.16760470366E+02 -0.60633867158E+02  0.86641599648E+02  0.47000000000E+01 0. -1.
         -5    1    3    3    0  502  0.12929381163E+02  0.98130988136E+02 -0.53875834896E+02  0.11278987240E+03  0.47000000000E+01 0.  1.
          5    1    4    4  503    0 -0.10479468902E+02 -0.82816500565E+02  0.92402738262E+02  0.12461439753E+03  0.47000000000E+01 0. -1.
         -5    1    4    4    0  503 -0.61840968625E+02 -0.32074957937E+02  0.16906555373E+02  0.71840308613E+02  0.47000000000E+01 0.  1.
<mgrwt>
<rscale>  0 0.16326914E+03</rscale>
<asrwt>0</asrwt>
<pdfrwt beam="1">  1        1 0.30052751E-01 0.16328025E+03</pdfrwt>
<pdfrwt beam="2">  1       -1 0.30852814E-01 0.16328025E+03</pdfrwt>
<totfact> 0.14537494E+03</totfact>
</mgrwt>
</event>
<event>
 8    1  0.3466492E-004  0.1090620E+03  0.7546771E-02  0.1262389E+00
          2   -1    0    0  501    0  0.00000000000E+00  0.00000000000E+00  0.15156719173E+04  0.15156719173E+04  0.00000000000E+00 0. -1.
         -2   -1    0    0    0  501 -0.00000000000E+00 -0.00000000000E+00 -0.83547970216E+01  0.83547970216E+01  0.00000000000E+00 0.  1.
         23    2    1    2    0    0 -0.21321233662E+02  0.57153148906E+02  0.94292923043E+03  0.94919785496E+03  0.90221709351E+02 0.  0.
         23    2    1    2    0    0  0.21321233662E+02 -0.57153148906E+02  0.56438788990E+03  0.57482885941E+03  0.90407134159E+02 0.  0.
          5    1    3    3  502    0  0.31803387432E+02  0.26961118322E+01  0.32018237084E+03  0.32180361257E+03  0.47000000000E+01 0. -1.
         -5    1    4    4    0  503  0.38763043745E+02  0.52586851788E+01  0.13782078117E+03  0.14334184683E+03  0.47000000000E+01 0.  1.
          5    1    4    4  503    0 -0.17441810084E+02 -0.62411834085E+02  0.42656710873E+03  0.43148701258E+03  0.47000000000E+01 0. -1.
         -5    1    3    3    0  502 -0.53124621094E+02  0.54457037074E+02  0.62274685959E+03  0.62739424239E+03  0.47000000000E+01 0.  1.
<mgrwt>
<rscale>  0 0.10902360E+03</rscale>
<asrwt>0</asrwt>
<pdfrwt beam="1">  1        2 0.23318008E+00 0.10906203E+03</pdfrwt>
<pdfrwt beam="2">  1       -2 0.12853546E-02 0.10906203E+03</pdfrwt>
<totfact> 0.18849385E+04</totfact>
</mgrwt>
</event>
<event>
 8    1  0.3466492E-004  0.9776890E+02  0.7546771E-02  0.1285110E+00
         -3   -1    0    0    0  501 -0.00000000000E+00  0.00000000000E+00  0.36703673933E+02  0.36703673933E+02  0.00000000000E+00 0.  1.
          3   -1    0    0  501    0  0.00000000000E+00 -0.00000000000E+00 -0.27046682348E+03  0.27046682348E+03  0.00000000000E+00 0. -1.
         23    2    1    2    0    0  0.14641731965E+02  0.35264247619E+02 -0.86980997749E+02  0.13086042745E+03  0.90004500048E+02 0.  0.
         23    2    1    2    0    0 -0.14641731965E+02 -0.35264247619E+02 -0.14678215180E+03  0.17631006996E+03  0.89901575112E+02 0.  0.
          5    1    4    4  502    0  0.10153186992E+02 -0.55765156588E+02 -0.55738816494E+02  0.79635077444E+02  0.47000000000E+01 0. -1.
         -5    1    4    4    0  502 -0.24794918957E+02  0.20500908969E+02 -0.91043335303E+02  0.96674992514E+02  0.47000000000E+01 0.  1.
          5    1    3    3  503    0  0.51079854280E+02  0.28109949506E+02 -0.65040376145E+02  0.87473774948E+02  0.47000000000E+01 0. -1.
         -5    1    3    3    0  503 -0.36438122315E+02  0.71542981130E+01 -0.21940621604E+02  0.43386652506E+02  0.47000000000E+01 0.  1.
<mgrwt>
<rscale>  0 0.97745204E+02</rscale>
<asrwt>0</asrwt>
<pdfrwt beam="1">  1        3 0.41610281E-01 0.97768898E+02</pdfrwt>
<pdfrwt beam="2">  1       -3 0.56467189E-02 0.97768898E+02</pdfrwt>
<totfact> 0.23228589E+03</totfact>
</mgrwt>
</event>
<event>
 8    1  0.3466492E-004  0.1229038E+03  0.7546771E-02  0.1240469E+00
         -1   -1    0    0    0  501 -0.00000000000E+00  0.00000000000E+00  0.18028679792E+02  0.18028679792E+02  0.00000000000E+00 0.  1.
          1   -1    0    0  501    0  0.00000000000E+00 -0.00000000000E+00 -0.12239284872E+04  0.12239284872E+04  0.00000000000E+00 0. -1.
         23    2    1    2    0    0  0.27666983846E+02  0.68777062687E+02 -0.23061607659E+03  0.25895986887E+03  0.91546122561E+02 0.  0.
         23    2    1    2    0    0 -0.27666983846E+02 -0.68777062687E+02 -0.97528373084E+03  0.98299729814E+03  0.98028496732E+02 0.  0.
          5    1    3    3  502    0  0.75537104921E+01  0.46465001241E+02 -0.29925783457E+02  0.55979437279E+02  0.47000000000E+01 0.  1.
         -5    1    4    4    0  503  0.20046617310E+02 -0.70045839165E+02 -0.67046676327E+03  0.67443017215E+03  0.47000000000E+01 0.  1.
          5    1    4    4  503    0 -0.47713601156E+02  0.12687764779E+01 -0.30481696757E+03  0.30856712599E+03  0.47000000000E+01 0. -1.
         -5    1    3    3    0  502  0.20113273354E+02  0.22312061446E+02 -0.20069029313E+03  0.20298043159E+03  0.47000000000E+01 0. -1.
<mgrwt>
<rscale>  0 0.12160701E+03</rscale>
<asrwt>0</asrwt>
<pdfrwt beam="1">  1        1 0.18829675E+00 0.12290375E+03</pdfrwt>
<pdfrwt beam="2">  1       -1 0.27736421E-02 0.12290375E+03</pdfrwt>
<totfact> 0.45646859E+03</totfact>
</mgrwt>
</event>
<event>
 8    1  0.3466492E-004  0.9588448E+02  0.7546771E-02  0.1291262E+00
         -2   -1    0    0    0  501 -0.00000000000E+00  0.00000000000E+00  0.18719651032E+03  0.18719651032E+03  0.00000000000E+00 0.  1.
          2   -1    0    0  501    0  0.00000000000E+00 -0.00000000000E+00 -0.81888465485E+02  0.81888465485E+02  0.00000000000E+00 0. -1.
         23    2    1    2    0    0  0.12382166502E+02 -0.18874962610E+02  0.14071383868E+03  0.17027688754E+03  0.93189332938E+02 0.  0.
         23    2    1    2    0    0 -0.12382166502E+02  0.18874962610E+02 -0.35405793852E+02  0.98808088257E+02  0.89442080733E+02 0.  0.
          5    1    4    4  502    0 -0.39520396140E+02  0.39031914730E+02 -0.32565816246E+02  0.64559851814E+02  0.47000000000E+01 0. -1.
         -5    1    3    3    0  503 -0.12071135689E+02 -0.41430934061E+02  0.12659911132E+03  0.13383444848E+03  0.47000000000E+01 0.  1.
          5    1    3    3  503    0  0.24453302191E+02  0.22555971450E+02  0.14114727365E+02  0.36442439060E+02  0.47000000000E+01 0. -1.
         -5    1    4    4    0  502  0.27138229638E+02 -0.20156952120E+02 -0.28399776067E+01  0.34248236443E+02  0.47000000000E+01 0.  1.
<mgrwt>
<rscale>  0 0.94961824E+02</rscale>
<asrwt>0</asrwt>
<pdfrwt beam="1">  1        2 0.12598225E-01 0.95884483E+02</pdfrwt>
<pdfrwt beam="2">  1       -2 0.28799463E-01 0.95884483E+02</pdfrwt>
<totfact> 0.49219333E+03</totfact>
</mgrwt>
</event>
<event>
 8    1  0.3466492E-004  0.1030356E+03  0.7546771E-02  0.1275024E+00
         -1   -1    0    0    0  501 -0.00000000000E+00  0.00000000000E+00  0.72342738364E+03  0.72342738364E+03  0.00000000000E+00 0.  1.
          1   -1    0    0  501    0  0.00000000000E+00 -0.00000000000E+00 -0.17648604670E+02  0.17648604670E+02  0.00000000000E+00 0. -1.
         23    2    1    2    0    0 -0.47420266717E+02  0.61011506301E+00  0.51454559859E+03  0.52476043049E+03  0.91472850842E+02 0.  0.
         23    2    1    2    0    0  0.47420266717E+02 -0.61011506301E+00  0.19123318038E+03  0.21631555782E+03  0.89292985963E+02 0.  0.
          5    1    3    3  502    0  0.10234338690E+02  0.21883344292E+02  0.45922872057E+02  0.52102040496E+02  0.47000000000E+01 0. -1.
         -5    1    3    3    0  502 -0.57654605407E+02 -0.21273229229E+02  0.46862272653E+03  0.47265838999E+03  0.47000000000E+01 0.  1.
          5    1    4    4  503    0  0.65291587000E+02 -0.17352475070E+02  0.17191390357E+03  0.18477169687E+03  0.47000000000E+01 0. -1.
         -5    1    4    4    0  503 -0.17871320283E+02  0.16742360007E+02  0.19319276809E+02  0.31543860951E+02  0.47000000000E+01 0.  1.
<mgrwt>
<rscale>  0 0.10254961E+03</rscale>
<asrwt>0</asrwt>
<pdfrwt beam="1">  1        1 0.27151705E-02 0.10303561E+03</pdfrwt>
<pdfrwt beam="2">  1       -1 0.11129650E+00 0.10303561E+03</pdfrwt>
<totfact> 0.29330775E+03</totfact>
</mgrwt>
</event>
<event>
 8    1  0.3466492E-004  0.1235841E+03  0.7546771E-02  0.1238597E+00
          1   -1    0    0  501    0  0.00000000000E+00  0.00000000000E+00  0.55580055585E+03  0.55580055585E+03  0.00000000000E+00 0. -1.
         -1   -1    0    0    0  501 -0.00000000000E+00 -0.00000000000E+00 -0.72883569267E+02  0.72883569267E+02  0.00000000000E+00 0.  1.
         23    2    1    2    0    0  0.16541298616E+02  0.79264795878E+02  0.49266794181E+03  0.50793182160E+03  0.93362262640E+02 0.  0.
         23    2    1    2    0    0 -0.16541298616E+02 -0.79264795878E+02 -0.97509552217E+01  0.12075230352E+03  0.89047825643E+02 0.  0.
          5    1    3    3  502    0  0.49687184509E+02  0.53705311176E+02  0.39217510717E+03  0.39896927380E+03  0.47000000000E+01 0. -1.
         -5    1    3    3    0  502 -0.33145885892E+02  0.25559484702E+02  0.10049283463E+03  0.10896254780E+03  0.47000000000E+01 0.  1.
          5    1    4    4  503    0  0.26792590860E+02 -0.66418512590E+02  0.74621122266E+01  0.72159786991E+02  0.47000000000E+01 0. -1.
         -5    1    4    4    0  503 -0.43333889476E+02 -0.12846283288E+02 -0.17213067448E+02  0.48592516527E+02  0.47000000000E+01 0.  1.
<mgrwt>
<rscale>  0 0.12276956E+03</rscale>
<asrwt>0</asrwt>
<pdfrwt beam="1">  1        1 0.85507775E-01 0.12358412E+03</pdfrwt>
<pdfrwt beam="2">  1       -1 0.11212857E-01 0.12358412E+03</pdfrwt>
<totfact> 0.19563322E+03</totfact>
</mgrwt>
</event>
<event>
 8    1  0.3466492E-004  0.9259716E+02  0.7546771E-02  0.1297993E+00
         -1   -1    0    0    0  501 -0.00000000000E+00  0.00000000000E+00  0.44755209312E+03  0.44755209312E+03  0.00000000000E+00 0.  1.
          1   -1    0    0  501    0  0.00000000000E+00 -0.00000000000E+00 -0.20102110877E+02  0.20102110877E+02  0.00000000000E+00 0. -1.
         23    2    1    2    0    0 -0.81017281920E+01  0.46026673160E+00  0.14958529302E+03  0.17476682158E+03  0.90010178279E+02 0.  0.
         23    2    1    2    0    0  0.81017281920E+01 -0.46026673160E+00  0.27786468923E+03  0.29288738242E+03  0.92240898817E+02 0.  0.
          5    1    4    4  502    0 -0.29249644102E+01  0.34801192147E+02  0.22769136741E+03  0.23040209892E+03  0.47000000000E+01 0. -1.
         -5    1    3    3    0  503 -0.27401895100E+02 -0.36294394767E+02  0.99801715582E+02  0.10977531316E+03  0.47000000000E+01 0.  1.
          5    1    3    3  503    0  0.19300166908E+02  0.36754661499E+02  0.49783577438E+02  0.64991508423E+02  0.47000000000E+01 0. -1.
         -5    1    4    4    0  502  0.11026692602E+02 -0.35261458879E+02  0.50173321813E+02  0.62485283498E+02  0.47000000000E+01 0.  1.
<mgrwt>
<rscale>  0 0.92036605E+02</rscale>
<asrwt>0</asrwt>
<pdfrwt beam="1">  1        1 0.30926328E-02 0.92597156E+02</pdfrwt>
<pdfrwt beam="2">  1       -1 0.68854161E-01 0.92597156E+02</pdfrwt>
<totfact> 0.66468842E+03</totfact>
</mgrwt>
</event>
<event>
 8    1  0.3466492E-004  0.1047753E+03  0.7546771E-02  0.1273581E+00
          1   -1    0    0  501    0  0.00000000000E+00  0.00000000000E+00  0.46013172067E+03  0.46013172067E+03  0.00000000000E+00 0. -1.
         -1   -1    0    0    0  501 -0.00000000000E+00 -0.00000000000E+00 -0.22631505114E+02  0.22631505114E+02  0.00000000000E+00 0.  1.
         23    2    1    2    0    0  0.12638159384E+02  0.30284031217E+02  0.20884490882E+03  0.23365371847E+03  0.99503862226E+02 0.  0.
         23    2    1    2    0    0 -0.12638159384E+02 -0.30284031217E+02  0.22865530673E+03  0.24910950731E+03  0.93249405971E+02 0.  0.
          5    1    4    4  502    0 -0.14548902176E+02  0.31815805746E+02  0.64498286360E+02  0.73525743744E+02  0.47000000000E+01 0. -1.
         -5    1    3    3    0  503  0.33667370695E+02  0.46786783327E+02  0.19457878317E+03  0.20299134908E+03  0.47000000000E+01 0.  1.
          5    1    3    3  503    0 -0.21029211311E+02 -0.16502752110E+02  0.14266125652E+02  0.30662369392E+02  0.47000000000E+01 0. -1.
         -5    1    4    4    0  502  0.19107427921E+01 -0.62099836963E+02  0.16415702038E+03  0.17558376356E+03  0.47000000000E+01 0.  1.
<mgrwt>
<rscale>  0 0.10326277E+03</rscale>
<asrwt>0</asrwt>
<pdfrwt beam="1">  1        1 0.70789488E-01 0.10477530E+03</pdfrwt>
<pdfrwt beam="2">  1       -1 0.34817704E-02 0.10477530E+03</pdfrwt>
<totfact> 0.14106742E+04</totfact>
</mgrwt>
</event>
<event>
 8    1  0.3466492E-004  0.1441856E+03  0.7546771E-02  0.1207868E+00
         -1   -1    0    0    0  501 -0.00000000000E+00  0.00000000000E+00  0.32767282181E+02  0.32767282181E+02  0.00000000000E+00 0.  1.
          1   -1    0    0  501    0  0.00000000000E+00 -0.00000000000E+00 -0.10061157779E+04  0.10061157779E+04  0.00000000000E+00 0. -1.
         23    2    1    2    0    0  0.24881022337E+02  0.11040960256E+03 -0.17081230904E+03  0.22353153250E+03  0.89331716042E+02 0.  0.
         23    2    1    2    0    0 -0.24881022337E+02 -0.11040960256E+03 -0.80253618667E+03  0.81535152757E+03  0.89019306840E+02 0.  0.
          5    1    3    3  502    0 -0.18412200419E+02  0.80845052454E+02 -0.13931999063E+03  0.16219457888E+03  0.47000000000E+01 0. -1.
         -5    1    4    4    0  503 -0.44065464025E+02 -0.24843078262E+02 -0.40857867366E+03  0.41172511003E+03  0.47000000000E+01 0.  1.
          5    1    4    4  503    0  0.19184441688E+02 -0.85566524300E+02 -0.39395751301E+03  0.40362641754E+03  0.47000000000E+01 0. -1.
         -5    1    3    3    0  502  0.43293222756E+02  0.29564550108E+02 -0.31492318409E+02  0.61336953613E+02  0.47000000000E+01 0.  1.
<mgrwt>
<rscale>  0 0.14413729E+03</rscale>
<asrwt>0</asrwt>
<pdfrwt beam="1">  1        1 0.15478705E+00 0.14418565E+03</pdfrwt>
<pdfrwt beam="2">  1       -1 0.50411200E-02 0.14418565E+03</pdfrwt>
<totfact> 0.27173682E+03</totfact>
</mgrwt>
</event>
<event>
 8    1  0.3466492E-004  0.9255925E+02  0.7546771E-02  0.1297225E+00
         -1   -1    0    0    0  501 -0.00000000000E+00  0.00000000000E+00  0.78263462482E+02  0.78263462482E+02  0.00000000000E+00 0.  1.
          1   -1    0    0  501    0  0.00000000000E+00 -0.00000000000E+00 -0.11898037593E+03  0.11898037593E+03  0.00000000000E+00 0. -1.
         23    2    1    2    0    0 -0.81626920473E+01  0.14876406234E+02 -0.49480173029E+02  0.10427067227E+03  0.90200601819E+02 0.  0.
         23    2    1    2    0    0  0.81626920473E+01 -0.14876406234E+02  0.87632595800E+01  0.92973166145E+02  0.90990537424E+02 0.  0.
          5    1    4    4  502    0 -0.19647516905E+02 -0.32254501053E+02  0.34229913085E+02  0.51187446787E+02  0.47000000000E+01 0. -1.
         -5    1    4    4    0  502  0.27810208952E+02  0.17378094819E+02 -0.25466653506E+02  0.41785719358E+02  0.47000000000E+01 0.  1.
          5    1    3    3  503    0 -0.10349877842E+02 -0.30792906593E+02 -0.48168853567E+02  0.58289377435E+02  0.47000000000E+01 0. -1.
         -5    1    3    3    0  503  0.21871857944E+01  0.45669312827E+02 -0.13113194620E+01  0.45981294833E+02  0.47000000000E+01 0.  1.
<mgrwt>
<rscale>  0 0.92364529E+02</rscale>
<asrwt>0</asrwt>
<pdfrwt beam="1">  1        1 0.18304673E-01 0.92559251E+02</pdfrwt>
<pdfrwt beam="2">  1       -1 0.12040533E-01 0.92559251E+02</pdfrwt>
<totfact> 0.11808778E+04</totfact>
</mgrwt>
</event>
<event>
 8    1  0.3466492E-004  0.1093328E+03  0.7546771E-02  0.1262944E+00
          1   -1    0    0  501    0  0.00000000000E+00  0.00000000000E+00  0.57777617981E+03  0.57777617981E+03  0.00000000000E+00 0. -1.
         -1   -1    0    0    0  501 -0.00000000000E+00 -0.00000000000E+00 -0.20345961760E+02  0.20345961760E+02  0.00000000000E+00 0.  1.
         23    2    1    2    0    0 -0.57727285848E+02 -0.17298576208E+00  0.29747125345E+03  0.31610739128E+03  0.90012592113E+02 0.  0.
         23    2    1    2    0    0  0.57727285848E+02  0.17298576208E+00  0.25995896460E+03  0.28201475029E+03  0.92850345441E+02 0.  0.
          5    1    3    3  502    0 -0.51083044863E+02 -0.32125349025E+02  0.25635238860E+03  0.26340112503E+03  0.47000000000E+01 0. -1.
         -5    1    4    4    0  503  0.57366248228E+02  0.35938977459E+02  0.20777545238E+03  0.21857544498E+03  0.47000000000E+01 0.  1.
          5    1    4    4  503    0  0.36103762041E+00 -0.35765991697E+02  0.52183512216E+02  0.63439305304E+02  0.47000000000E+01 0. -1.
         -5    1    3    3    0  502 -0.66442409849E+01  0.31952363263E+02  0.41118864844E+02  0.52706266254E+02  0.47000000000E+01 0.  1.
<mgrwt>
<rscale>  0 0.10872791E+03</rscale>
<asrwt>0</asrwt>
<pdfrwt beam="1">  1        1 0.88888631E-01 0.10933278E+03</pdfrwt>
<pdfrwt beam="2">  1       -1 0.31301484E-02 0.10933278E+03</pdfrwt>
<totfact> 0.12283789E+04</totfact>
</mgrwt>
</event>
<event>
 8    1  0.3466492E-004  0.1417412E+03  0.7546771E-02  0.1211679E+00
         -2   -1    0    0    0  501 -0.00000000000E+00  0.00000000000E+00  0.26116339300E+02  0.26116339300E+02  0.00000000000E+00 0.  1.
          2   -1    0    0  501    0  0.00000000000E+00 -0.00000000000E+00 -0.86688234476E+03  0.86688234476E+03  0.00000000000E+00 0. -1.
         23    2    1    2    0    0 -0.78923578099E+02 -0.72491259088E+02 -0.25975610432E+03  0.29494930474E+03  0.89654586111E+02 0.  0.
         23    2    1    2    0    0  0.78923578099E+02  0.72491259088E+02 -0.58100990114E+03  0.59804937932E+03  0.92771984231E+02 0.  0.
          5    1    3    3  502    0 -0.35146674856E+02  0.16763207293E+02 -0.58525818852E+02  0.70453213870E+02  0.47000000000E+01 0. -1.
         -5    1    3    3    0  502 -0.43776903243E+02 -0.89254466382E+02 -0.20123028547E+03  0.22449609087E+03  0.47000000000E+01 0.  1.
          5    1    4    4  503    0  0.41301227575E+02  0.90131687907E+02 -0.43418541498E+03  0.44538587444E+03  0.47000000000E+01 0. -1.
         -5    1    4    4    0  503  0.37622350523E+02 -0.17640428819E+02 -0.14682448616E+03  0.15266350489E+03  0.47000000000E+01 0.  1.
<mgrwt>
<rscale>  0 0.14123330E+03</rscale>
<asrwt>0</asrwt>
<pdfrwt beam="1">  1        2 0.13336652E+00 0.14174115E+03</pdfrwt>
<pdfrwt beam="2">  1       -2 0.40178982E-02 0.14174115E+03</pdfrwt>
<totfact> 0.84300582E+03</totfact>
</mgrwt>
</event>
<event>
 8    1  0.3466492E-004  0.1061439E+03  0.7546771E-02  0.1268589E+00
         -1   -1    0    0    0  501 -0.00000000000E+00  0.00000000000E+00  0.41667874057E+02  0.41667874057E+02  0.00000000000E+00 0.  1.
          1   -1    0    0  501    0  0.00000000000E+00 -0.00000000000E+00 -0.34410488798E+03  0.34410488798E+03  0.00000000000E+00 0. -1.
         23    2    1    2    0    0  0.50387680176E+01 -0.52276618904E+02 -0.58947207001E+02  0.12015307609E+03  0.90574579285E+02 0.  0.
         23    2    1    2    0    0 -0.50387680176E+01  0.52276618904E+02 -0.24348980692E+03  0.26561968595E+03  0.92240432687E+02 0.  0.
          5    1    3    3  502    0 -0.34850272930E+02 -0.25233820428E+02 -0.57161831850E+02  0.71699736660E+02  0.47000000000E+01 0. -1.
         -5    1    4    4    0  503 -0.34383499852E+02 -0.43940606254E+01 -0.44552553710E+02  0.56644089479E+02  0.47000000000E+01 0.  1.
          5    1    4    4  503    0  0.29344731835E+02  0.56670679529E+02 -0.19893725321E+03  0.20897559647E+03  0.47000000000E+01 0. -1.
         -5    1    3    3    0  502  0.39889040948E+02 -0.27042798476E+02 -0.17853751510E+01  0.48453339426E+02  0.47000000000E+01 0.  1.
<mgrwt>
<rscale>  0 0.10578096E+03</rscale>
<asrwt>0</asrwt>
<pdfrwt beam="1">  1        1 0.52939210E-01 0.10614392E+03</pdfrwt>
<pdfrwt beam="2">  1       -1 0.64104425E-02 0.10614392E+03</pdfrwt>
<totfact> 0.82959514E+03</totfact>
</mgrwt>
</event>
<event>
 8    1  0.3466492E-004  0.1140770E+03  0.7546771E-02  0.1267656E+00
         -1   -1    0    0    0  501 -0.00000000000E+00  0.00000000000E+00  0.24340861243E+03  0.24340861243E+03  0.00000000000E+00 0.  1.
          1   -1    0    0  501    0  0.00000000000E+00 -0.00000000000E+00 -0.43410439146E+02  0.43410439146E+02  0.00000000000E+00 0. -1.
         23    2    1    2    0    0  0.30894772224E+02 -0.19827529210E+02  0.14635709551E+03  0.18556392887E+03  0.10800904789E+03 0.  0.
         23    2    1    2    0    0 -0.30894772224E+02  0.19827529210E+02  0.53641077775E+02  0.10125512270E+03  0.77637727836E+02 0.  0.
          5    1    3    3  502    0  0.12887389415E+02 -0.60548031642E+02  0.51466654518E+02  0.80641524470E+02  0.47000000000E+01 0. -1.
         -5    1    4    4    0  503  0.81878915848E+01  0.38396416206E+02  0.38459366287E+02  0.55159216830E+02  0.47000000000E+01 0.  1.
          5    1    4    4  503    0 -0.39082663809E+02 -0.18568886996E+02  0.15181711488E+02  0.46095905874E+02  0.47000000000E+01 0. -1.
         -5    1    3    3    0  502  0.18007382809E+02  0.40720502431E+02  0.94890440994E+02  0.10492240440E+03  0.47000000000E+01 0.  1.
<mgrwt>
<rscale>  0 0.10626021E+03</rscale>
<asrwt>0</asrwt>
<pdfrwt beam="1">  1        1 0.66785292E-02 0.11407705E+03</pdfrwt>
<pdfrwt beam="2">  1       -1 0.37447478E-01 0.11407705E+03</pdfrwt>
<totfact> 0.72206517E+03</totfact>
</mgrwt>
</event>
<event>
 8    1  0.3466492E-004  0.9243088E+02  0.7546771E-02  0.1300413E+00
         -2   -1    0    0    0  501 -0.00000000000E+00  0.00000000000E+00  0.40653200261E+02  0.40653200261E+02  0.00000000000E+00 0.  1.
          2   -1    0    0  501    0  0.00000000000E+00 -0.00000000000E+00 -0.41440541550E+03  0.41440541550E+03  0.00000000000E+00 0. -1.
         23    2    1    2    0    0 -0.23592280515E+01  0.11910233532E+02 -0.25152574620E+02  0.95792068442E+02  0.91629955509E+02 0.  0.
         23    2    1    2    0    0  0.23592280515E+01 -0.11910233532E+02 -0.34859964062E+03  0.35926654731E+03  0.86042564827E+02 0.  0.
          5    1    3    3  502    0  0.22611204991E+02 -0.28507858105E+02 -0.30555302541E+02  0.47746005888E+02  0.47000000000E+01 0. -1.
         -5    1    4    4    0  503 -0.16745217367E+02 -0.43665345123E+02 -0.15025531467E+03  0.15743511126E+03  0.47000000000E+01 0.  1.
          5    1    4    4  503    0  0.19104445418E+02  0.31755111591E+02 -0.19834432594E+03  0.20183143606E+03  0.47000000000E+01 0. -1.
         -5    1    3    3    0  502 -0.24970433043E+02  0.40418091638E+02  0.54027279213E+01  0.48046062554E+02  0.47000000000E+01 0.  1.
<mgrwt>
<rscale>  0 0.91014699E+02</rscale>
<asrwt>0</asrwt>
<pdfrwt beam="1">  1        2 0.63754674E-01 0.92430884E+02</pdfrwt>
<pdfrwt beam="2">  1       -2 0.62543390E-02 0.92430884E+02</pdfrwt>
<totfact> 0.98269448E+03</totfact>
</mgrwt>
</event>
<event>
 8    1  0.3466492E-004  0.1009477E+03  0.7546771E-02  0.1282433E+00
         -2   -1    0    0    0  501 -0.00000000000E+00  0.00000000000E+00  0.32678054133E+03  0.32678054133E+03  0.00000000000E+00 0.  1.
          2   -1    0    0  501    0  0.00000000000E+00 -0.00000000000E+00 -0.28889341198E+02  0.28889341198E+02  0.00000000000E+00 0. -1.
         23    2    1    2    0    0 -0.20662422415E+02 -0.13249321771E+02  0.13988372531E+03  0.16816839548E+03  0.90059271625E+02 0.  0.
         23    2    1    2    0    0  0.20662422415E+02  0.13249321771E+02  0.15800747483E+03  0.18750148705E+03  0.97918156215E+02 0.  0.
          5    1    4    4  502    0  0.37015888776E+02 -0.24983281357E+02  0.33143645934E+02  0.55811572591E+02  0.47000000000E+01 0. -1.
         -5    1    4    4    0  502 -0.16353466361E+02  0.38232603127E+02  0.12486382889E+03  0.13168991446E+03  0.47000000000E+01 0.  1.
          5    1    3    3  503    0  0.29239734432E+02  0.64476494322E+01  0.18845660970E+02  0.35690099331E+02  0.47000000000E+01 0. -1.
         -5    1    3    3    0  503 -0.49902156847E+02 -0.19696971203E+02  0.12103806434E+03  0.13247829615E+03  0.47000000000E+01 0.  1.
<mgrwt>
<rscale>  0 0.98990691E+02</rscale>
<asrwt>0</asrwt>
<pdfrwt beam="1">  1        2 0.44445143E-02 0.10094774E+03</pdfrwt>
<pdfrwt beam="2">  1       -2 0.50273927E-01 0.10094774E+03</pdfrwt>
<totfact> 0.64225790E+03</totfact>
</mgrwt>
</event>
<event>
 8    1  0.3466492E-004  0.1266250E+03  0.7546771E-02  0.1235073E+00
         -2   -1    0    0    0  501 -0.00000000000E+00  0.00000000000E+00  0.77534119825E+02  0.77534119825E+02  0.00000000000E+00 0.  1.
          2   -1    0    0  501    0  0.00000000000E+00 -0.00000000000E+00 -0.21517477982E+03  0.21517477982E+03  0.00000000000E+00 0. -1.
         23    2    1    2    0    0  0.54041881090E+02  0.68175246061E+02 -0.11029460796E+03  0.16316474658E+03  0.83002680051E+02 0.  0.
         23    2    1    2    0    0 -0.54041881090E+02 -0.68175246061E+02 -0.27346052036E+02  0.12954415306E+03  0.92008108029E+02 0.  0.
          5    1    4    4  502    0 -0.62803635331E+02 -0.16114705613E+02 -0.38258908413E+02  0.75430858544E+02  0.47000000000E+01 0. -1.
         -5    1    4    4    0  502  0.87617542410E+01 -0.52060540448E+02  0.10912856377E+02  0.54113294517E+02  0.47000000000E+01 0.  1.
          5    1    3    3  503    0  0.34295428172E+02 -0.11253229488E+02 -0.21336243716E+02  0.42191668174E+02  0.47000000000E+01 0.  1.
         -5    1    3    3    0  503  0.19746452918E+02  0.79428475550E+02 -0.88958364242E+02  0.12097307841E+03  0.47000000000E+01 0. -1.
<mgrwt>
<rscale>  0 0.12499781E+03</rscale>
<asrwt>0</asrwt>
<pdfrwt beam="1">  1        2 0.33103812E-01 0.12662496E+03</pdfrwt>
<pdfrwt beam="2">  1       -2 0.11928326E-01 0.12662496E+03</pdfrwt>
<totfact> 0.74135897E+03</totfact>
</mgrwt>
</event>
<event>
 8    1  0.3466492E-004  0.9603816E+02  0.7546771E-02  0.1293233E+00
          1   -1    0    0  501    0  0.00000000000E+00  0.00000000000E+00  0.32287669378E+03  0.32287669378E+03  0.00000000000E+00 0. -1.
         -1   -1    0    0    0  501 -0.00000000000E+00 -0.00000000000E+00 -0.56497965115E+02  0.56497965115E+02  0.00000000000E+00 0.  1.
         23    2    1    2    0    0  0.80478954500E+01 -0.26140071299E+02 -0.78288010384E+01  0.88835337958E+02  0.84156729949E+02 0.  0.
         23    2    1    2    0    0 -0.80478954500E+01  0.26140071299E+02  0.27420752970E+03  0.29053932093E+03  0.92061152046E+02 0.  0.
          5    1    4    4  502    0  0.39457686414E+02 -0.29867736828E+01  0.10353607897E+03  0.11093980116E+03  0.47000000000E+01 0. -1.
         -5    1    4    4    0  502 -0.47505581864E+02  0.29126844982E+02  0.17067145073E+03  0.17959951977E+03  0.47000000000E+01 0.  1.
          5    1    3    3  503    0  0.34102720802E+02 -0.43606324336E+02  0.21090984687E+01  0.55597170652E+02  0.47000000000E+01 0. -1.
         -5    1    3    3    0  503 -0.26054825352E+02  0.17466253036E+02 -0.99378995071E+01  0.33238167306E+02  0.47000000000E+01 0.  1.
<mgrwt>
<rscale>  0 0.94092725E+02</rscale>
<asrwt>0</asrwt>
<pdfrwt beam="1">  1        1 0.49673337E-01 0.96038157E+02</pdfrwt>
<pdfrwt beam="2">  1       -1 0.86919948E-02 0.96038157E+02</pdfrwt>
<totfact> 0.56555066E+03</totfact>
</mgrwt>
</event>
<event>
 8    1  0.3466492E-004  0.9527274E+02  0.7546771E-02  0.1290705E+00
         -1   -1    0    0    0  501 -0.00000000000E+00  0.00000000000E+00  0.85409116662E+02  0.85409116662E+02  0.00000000000E+00 0.  1.
          1   -1    0    0  501    0  0.00000000000E+00 -0.00000000000E+00 -0.26217628022E+03  0.26217628022E+03  0.00000000000E+00 0. -1.
         23    2    1    2    0    0  0.22993292339E+02 -0.13614542985E+02  0.45706512147E+02  0.10566920348E+03  0.91448608731E+02 0.  0.
         23    2    1    2    0    0 -0.22993292339E+02  0.13614542985E+02 -0.22247367571E+03  0.24191619340E+03  0.91185859508E+02 0.  0.
          5    1    4    4  502    0  0.22957806826E+02  0.24823785403E+02 -0.15897147862E+03  0.16259551725E+03  0.47000000000E+01 0. -1.
         -5    1    4    4    0  502 -0.45951099165E+02 -0.11209242417E+02 -0.63502197091E+02  0.79320676153E+02  0.47000000000E+01 0.  1.
          5    1    3    3  503    0 -0.19361960272E+02  0.13991575455E+02 -0.13365798394E+02  0.27773805213E+02  0.47000000000E+01 0. -1.
         -5    1    3    3    0  503  0.42355252610E+02 -0.27606118440E+02  0.59072310541E+02  0.77895398270E+02  0.47000000000E+01 0.  1.
<mgrwt>
<rscale>  0 0.95209635E+02</rscale>
<asrwt>0</asrwt>
<pdfrwt beam="1">  1        1 0.40334812E-01 0.95272742E+02</pdfrwt>
<pdfrwt beam="2">  1       -1 0.13139864E-01 0.95272742E+02</pdfrwt>
<totfact> 0.38937837E+03</totfact>
</mgrwt>
</event>
<event>
 8    1  0.3466492E-004  0.1086349E+03  0.7546771E-02  0.1268454E+00
          2   -1    0    0  501    0  0.00000000000E+00  0.00000000000E+00  0.38652344120E+03  0.38652344120E+03  0.00000000000E+00 0. -1.
         -2   -1    0    0    0  501 -0.00000000000E+00 -0.00000000000E+00 -0.35298851286E+02  0.35298851286E+02  0.00000000000E+00 0.  1.
         23    2    1    2    0    0  0.26541256169E+02 -0.23343599605E+02  0.28117040483E+03  0.30142717443E+03  0.10272381909E+03 0.  0.
         23    2    1    2    0    0 -0.26541256169E+02  0.23343599605E+02  0.70054185075E+02  0.12039511805E+03  0.91312834158E+02 0.  0.
          5    1    4    4  502    0  0.21775170037E+02  0.19073077266E+01 -0.98846170412E+01  0.24445684833E+02  0.47000000000E+01 0. -1.
         -5    1    4    4    0  502 -0.48316426206E+02  0.21436291878E+02  0.79938802116E+02  0.95949433217E+02  0.47000000000E+01 0.  1.
          5    1    3    3  503    0  0.49367250824E+02 -0.28506587016E+02  0.26825813084E+03  0.27428865401E+03  0.47000000000E+01 0. -1.
         -5    1    3    3    0  503 -0.22825994654E+02  0.51629874109E+01  0.12912273996E+02  0.27138520422E+02  0.47000000000E+01 0.  1.
<mgrwt>
<rscale>  0 0.10584971E+03</rscale>
<asrwt>0</asrwt>
<pdfrwt beam="1">  1        2 0.59465142E-01 0.10863492E+03</pdfrwt>
<pdfrwt beam="2">  1       -2 0.54305928E-02 0.10863492E+03</pdfrwt>
<totfact> 0.13254542E+04</totfact>
</mgrwt>
</event>
<event>
 8    1  0.3466492E-004  0.1150822E+03  0.7546771E-02  0.1254496E+00
         -1   -1    0    0    0  501 -0.00000000000E+00  0.00000000000E+00  0.32334008591E+02  0.32334008591E+02  0.00000000000E+00 0.  1.
          1   -1    0    0  501    0  0.00000000000E+00 -0.00000000000E+00 -0.39966962904E+03  0.39966962904E+03  0.00000000000E+00 0. -1.
         23    2    1    2    0    0  0.55241090361E+02 -0.25034073637E+02 -0.22929596419E+03  0.25655518044E+03  0.97804082284E+02 0.  0.
         23    2    1    2    0    0 -0.55241090361E+02  0.25034073637E+02 -0.13803965626E+03  0.17544845719E+03  0.89715837635E+02 0.  0.
          5    1    3    3  502    0  0.11492952595E+02 -0.56068285637E+02 -0.15082655458E+03  0.16138921952E+03  0.47000000000E+01 0. -1.
         -5    1    4    4    0  503  0.22523004015E+02 -0.40959076732E+01 -0.18430410434E+02  0.29762933294E+02  0.47000000000E+01 0.  1.
          5    1    4    4  503    0 -0.77764094376E+02  0.29129981311E+02 -0.11960924583E+03  0.14568552390E+03  0.47000000000E+01 0. -1.
         -5    1    3    3    0  502  0.43748137766E+02  0.31034211999E+02 -0.78469409612E+02  0.95165960917E+02  0.47000000000E+01 0.  1.
<mgrwt>
<rscale>  0 0.11334584E+03</rscale>
<asrwt>0</asrwt>
<pdfrwt beam="1">  1        1 0.61487633E-01 0.11508224E+03</pdfrwt>
<pdfrwt beam="2">  1       -1 0.49744631E-02 0.11508224E+03</pdfrwt>
<totfact> 0.10080684E+04</totfact>
</mgrwt>
</event>
<event>
 8    1  0.3466492E-004  0.1060164E+03  0.7546771E-02  0.1275197E+00
         -2   -1    0    0    0  501 -0.00000000000E+00  0.00000000000E+00  0.13583972143E+02  0.13583972143E+02  0.00000000000E+00 0.  1.
          2   -1    0    0  501    0  0.00000000000E+00 -0.00000000000E+00 -0.73368940385E+03  0.73368940385E+03  0.00000000000E+00 0. -1.
         23    2    1    2    0    0  0.17101555524E+02  0.11404843639E+02 -0.29605552147E+03  0.31017179010E+03  0.90194977263E+02 0.  0.
         23    2    1    2    0    0 -0.17101555524E+02 -0.11404843639E+02 -0.42404991024E+03  0.43710158589E+03  0.10400450161E+03 0.  0.
          5    1    4    4  502    0  0.36242204090E+02 -0.94007487501E+01 -0.29447210204E+03  0.29688007733E+03  0.47000000000E+01 0. -1.
         -5    1    3    3    0  503  0.41419513451E+02 -0.24653920558E+02 -0.16860282881E+03  0.17542062529E+03  0.47000000000E+01 0.  1.
          5    1    3    3  503    0 -0.24317957926E+02  0.36058764197E+02 -0.12745269266E+03  0.13475116482E+03  0.47000000000E+01 0. -1.
         -5    1    4    4    0  502 -0.53343759614E+02 -0.20040948892E+01 -0.12957780820E+03  0.14022150856E+03  0.47000000000E+01 0.  1.
<mgrwt>
<rscale>  0 0.10246466E+03</rscale>
<asrwt>0</asrwt>
<pdfrwt beam="1">  1        2 0.11287530E+00 0.10601637E+03</pdfrwt>
<pdfrwt beam="2">  1       -2 0.20898418E-02 0.10601637E+03</pdfrwt>
<totfact> 0.26425061E+04</totfact>
</mgrwt>
</event>
<event>
 8    1  0.3466492E-004  0.1015730E+03  0.7546771E-02  0.1279623E+00
         -1   -1    0    0    0  501 -0.00000000000E+00  0.00000000000E+00  0.23986755805E+03  0.23986755805E+03  0.00000000000E+00 0.  1.
          1   -1    0    0  501    0  0.00000000000E+00 -0.00000000000E+00 -0.45060391225E+02  0.45060391225E+02  0.00000000000E+00 0. -1.
         23    2    1    2    0    0 -0.17196832139E+01 -0.29393581281E+02  0.56608455678E+02  0.11628234367E+03  0.97211759911E+02 0.  0.
         23    2    1    2    0    0  0.17196832139E+01  0.29393581281E+02  0.13819871114E+03  0.16864560560E+03  0.92062568916E+02 0.  0.
          5    1    4    4  502    0 -0.16861855879E+02 -0.16377055427E+02  0.10784359804E+03  0.11047561616E+03  0.47000000000E+01 0. -1.
         -5    1    4    4    0  502  0.18581539093E+02  0.45770636708E+02  0.30355113105E+02  0.58169989439E+02  0.47000000000E+01 0.  1.
          5    1    3    3  503    0 -0.10270306650E+02  0.34443058776E+02  0.13707523472E+02  0.38752931454E+02  0.47000000000E+01 0. -1.
         -5    1    3    3    0  503  0.85506234363E+01 -0.63836640057E+02  0.42900932206E+02  0.77529412219E+02  0.47000000000E+01 0.  1.
<mgrwt>
<rscale>  0 0.10032085E+03</rscale>
<asrwt>0</asrwt>
<pdfrwt beam="1">  1        1 0.69323680E-02 0.10157296E+03</pdfrwt>
<pdfrwt beam="2">  1       -1 0.36902700E-01 0.10157296E+03</pdfrwt>
<totfact> 0.69756226E+03</totfact>
</mgrwt>
</event>
<event>
 8    1  0.3466492E-004  0.1141232E+03  0.7546771E-02  0.1253629E+00
          1   -1    0    0  501    0  0.00000000000E+00  0.00000000000E+00  0.15889793098E+03  0.15889793098E+03  0.00000000000E+00 0. -1.
         -1   -1    0    0    0  501 -0.00000000000E+00 -0.00000000000E+00 -0.10598660768E+03  0.10598660768E+03  0.00000000000E+00 0.  1.
         23    2    1    2    0    0 -0.67634172874E+02 -0.32924197910E+00 -0.37770377311E+02  0.11912008087E+03  0.90490344920E+02 0.  0.
         23    2    1    2    0    0  0.67634172874E+02  0.32924197910E+00  0.90681700607E+02  0.14576445779E+03  0.91921796043E+02 0.  0.
          5    1    3    3  502    0 -0.23672359120E+02 -0.43792879249E+02 -0.24649264810E+02  0.55748301453E+02  0.47000000000E+01 0. -1.
         -5    1    3    3    0  502 -0.43961813754E+02  0.43463637270E+02 -0.13121112501E+02  0.63371779417E+02  0.47000000000E+01 0.  1.
          5    1    4    4  503    0  0.42132818601E+02 -0.45037362639E+02  0.50406414454E+02  0.79789943319E+02  0.47000000000E+01 0. -1.
         -5    1    4    4    0  503  0.25501354272E+02  0.45366604618E+02  0.40275286153E+02  0.65974514466E+02  0.47000000000E+01 0.  1.
<mgrwt>
<rscale>  0 0.11383467E+03</rscale>
<asrwt>0</asrwt>
<pdfrwt beam="1">  1        1 0.24445836E-01 0.11412321E+03</pdfrwt>
<pdfrwt beam="2">  1       -1 0.16305632E-01 0.11412321E+03</pdfrwt>
<totfact> 0.52229590E+03</totfact>
</mgrwt>
</event>
<event>
 8    1  0.1133207E-003  0.1403166E+03  0.7546771E-02  0.1213183E+00
         -3   -1    0    0    0  501 -0.00000000000E+00  0.00000000000E+00  0.49650040900E+03  0.49650040900E+03  0.00000000000E+00 0.  1.
          3   -1    0    0  501    0  0.00000000000E+00 -0.00000000000E+00 -0.28028829857E+03  0.28028829857E+03  0.00000000000E+00 0. -1.
         23    2    1    2    0    0  0.21027731121E+02  0.10459370653E+03 -0.25198587788E+03  0.28801666115E+03  0.89859365255E+02 0.  0.
         23    2    1    2    0    0 -0.21027731121E+02 -0.10459370653E+03  0.46819798831E+03  0.48877204642E+03  0.91141363683E+02 0.  0.
          5    1    3    3  502    0 -0.29439700813E+02  0.73159617744E+02 -0.15904451408E+03  0.17758455200E+03  0.47000000000E+01 0. -1.
         -5    1    4    4    0  503  0.53039849497E+01 -0.97061679777E+02  0.43364570814E+03  0.44443198819E+03  0.47000000000E+01 0.  1.
          5    1    4    4  503    0 -0.26331716071E+02 -0.75320267557E+01  0.34552280170E+02  0.44340058223E+02  0.47000000000E+01 0. -1.
         -5    1    3    3    0  502  0.50467431933E+02  0.31434088788E+02 -0.92941363807E+02  0.11043210915E+03  0.47000000000E+01 0.  1.
<mgrwt>
<rscale>  0 0.14010884E+03</rscale>
<asrwt>0</asrwt>
<pdfrwt beam="1">  1        3 0.43121277E-01 0.14031663E+03</pdfrwt>
<pdfrwt beam="2">  1       -3 0.76384678E-01 0.14031663E+03</pdfrwt>
<totfact> 0.21119810E+01</totfact>
</mgrwt>
</event>
<event>
 8    1  0.3466492E-004  0.1086684E+03  0.7546771E-02  0.1263346E+00
          1   -1    0    0  501    0  0.00000000000E+00  0.00000000000E+00  0.67547043784E+03  0.67547043784E+03  0.00000000000E+00 0. -1.
         -1   -1    0    0    0  501 -0.00000000000E+00 -0.00000000000E+00 -0.18588135033E+02  0.18588135033E+02  0.00000000000E+00 0.  1.
         23    2    1    2    0    0  0.40549739457E+02  0.43550928900E+02  0.24097145412E+03  0.26434080445E+03  0.90927742838E+02 0.  0.
         23    2    1    2    0    0 -0.40549739457E+02 -0.43550928900E+02  0.41591084869E+03  0.42971776843E+03  0.90191804870E+02 0.  0.
          5    1    4    4  502    0  0.23337352723E+02  0.72743936016E+01  0.70708935913E+02  0.74962607027E+02  0.47000000000E+01 0. -1.
         -5    1    4    4    0  502 -0.63887092180E+02 -0.50825322502E+02  0.34520191278E+03  0.35475516140E+03  0.47000000000E+01 0.  1.
          5    1    3    3  503    0  0.23857567993E+01  0.60486433171E+02  0.18252921959E+03  0.19236243510E+03  0.47000000000E+01 0. -1.
         -5    1    3    3    0  503  0.38163982658E+02 -0.16935504271E+02  0.58442234527E+02  0.71978369346E+02  0.47000000000E+01 0.  1.
<mgrwt>
<rscale>  0 0.10851430E+03</rscale>
<asrwt>0</asrwt>
<pdfrwt beam="1">  1        1 0.10391851E+00 0.10866839E+03</pdfrwt>
<pdfrwt beam="2">  1       -1 0.28597136E-02 0.10866839E+03</pdfrwt>
<totfact> 0.11303893E+04</totfact>
</mgrwt>
</event>
<event>
 8    1  0.3466492E-004  0.1408336E+03  0.7546771E-02  0.1217099E+00
         -1   -1    0    0    0  501 -0.00000000000E+00  0.00000000000E+00  0.59651547241E+02  0.59651547241E+02  0.00000000000E+00 0.  1.
          1   -1    0    0  501    0  0.00000000000E+00 -0.00000000000E+00 -0.34207900190E+03  0.34207900190E+03  0.00000000000E+00 0. -1.
         23    2    1    2    0    0  0.83106897279E+02 -0.67376651561E+02 -0.64930284401E+02  0.14261837820E+03  0.68393643106E+02 0.  0.
         23    2    1    2    0    0 -0.83106897279E+02  0.67376651561E+02 -0.21749717026E+03  0.25911217094E+03  0.91584542952E+02 0.  0.
          5    1    4    4  502    0 -0.70198072563E+02  0.89562165007E+02 -0.18723300530E+03  0.21915163487E+03  0.47000000000E+01 0. -1.
         -5    1    3    3    0  503  0.71885452891E+02 -0.19718358621E+02 -0.54179725188E+02  0.92270605424E+02  0.47000000000E+01 0.  1.
          5    1    3    3  503    0  0.11221444388E+02 -0.47658292940E+02 -0.10750559213E+02  0.50347772776E+02  0.47000000000E+01 0. -1.
         -5    1    4    4    0  502 -0.12908824716E+02 -0.22185513446E+02 -0.30264164958E+02  0.39960536070E+02  0.47000000000E+01 0.  1.
<mgrwt>
<rscale>  0 0.13723471E+03</rscale>
<asrwt>0</asrwt>
<pdfrwt beam="1">  1        1 0.52627540E-01 0.14083358E+03</pdfrwt>
<pdfrwt beam="2">  1       -1 0.91771609E-02 0.14083358E+03</pdfrwt>
<totfact> 0.49669080E+03</totfact>
</mgrwt>
</event>
<event>
 8    1  0.3466492E-004  0.1116774E+03  0.7546771E-02  0.1259419E+00
         -1   -1    0    0    0  501 -0.00000000000E+00  0.00000000000E+00  0.32322659529E+03  0.32322659529E+03  0.00000000000E+00 0.  1.
          1   -1    0    0  501    0  0.00000000000E+00 -0.00000000000E+00 -0.72302156781E+02  0.72302156781E+02  0.00000000000E+00 0. -1.
         23    2    1    2    0    0  0.34163412562E+02  0.45213366040E+02  0.26209630302E+03  0.28329398875E+03  0.91376281285E+02 0.  0.
         23    2    1    2    0    0 -0.34163412562E+02 -0.45213366040E+02 -0.11171864504E+02  0.11223476332E+03  0.96231202398E+02 0.  0.
          5    1    4    4  502    0  0.12887633781E+02 -0.39912688415E+02 -0.38702005553E+02  0.57262981365E+02  0.47000000000E+01 0. -1.
         -5    1    3    3    0  503  0.48566538799E+02  0.25716234376E+02  0.24959787263E+03  0.25561929001E+03  0.47000000000E+01 0.  1.
          5    1    3    3  503    0 -0.14403126237E+02  0.19497131664E+02  0.12498430383E+02  0.27674698744E+02  0.47000000000E+01 0. -1.
         -5    1    4    4    0  502 -0.47051046343E+02 -0.53006776255E+01  0.27530141050E+02  0.54971781957E+02  0.47000000000E+01 0.  1.
<mgrwt>
<rscale>  0 0.11062374E+03</rscale>
<asrwt>0</asrwt>
<pdfrwt beam="1">  1        1 0.11123409E-01 0.11167735E+03</pdfrwt>
<pdfrwt beam="2">  1       -1 0.49727168E-01 0.11167735E+03</pdfrwt>
<totfact> 0.22173691E+03</totfact>
</mgrwt>
</event>
<event>
 8    1  0.3466492E-004  0.1307722E+03  0.7546771E-02  0.1226510E+00
          1   -1    0    0  501    0  0.00000000000E+00  0.00000000000E+00  0.25852425198E+03  0.25852425198E+03  0.00000000000E+00 0. -1.
         -1   -1    0    0    0  501 -0.00000000000E+00 -0.00000000000E+00 -0.81784302484E+02  0.81784302484E+02  0.00000000000E+00 0.  1.
         23    2    1    2    0    0  0.86845431610E+02  0.36406062529E+02  0.16354640292E+03  0.20940102478E+03  0.90740469966E+02 0.  0.
         23    2    1    2    0    0 -0.86845431610E+02 -0.36406062529E+02  0.13193546572E+02  0.13090752968E+03  0.89973225327E+02 0.  0.
          5    1    3    3  502    0 -0.13932814383E+01  0.25485062235E+02  0.90766752438E+02  0.94404041113E+02  0.47000000000E+01 0. -1.
         -5    1    3    3    0  502  0.88238713048E+02  0.10921000294E+02  0.72779650481E+02  0.11499698366E+03  0.47000000000E+01 0.  1.
          5    1    4    4  503    0 -0.42832213564E+02 -0.69269245571E+01 -0.37421780582E+02  0.57489655283E+02  0.47000000000E+01 0. -1.
         -5    1    4    4    0  503 -0.44013218046E+02 -0.29479137972E+02  0.50615327154E+02  0.73417874399E+02  0.47000000000E+01 0.  1.
<mgrwt>
<rscale>  0 0.13063918E+03</rscale>
<asrwt>0</asrwt>
<pdfrwt beam="1">  1        1 0.39772961E-01 0.13077218E+03</pdfrwt>
<pdfrwt beam="2">  1       -1 0.12582201E-01 0.13077218E+03</pdfrwt>
<totfact> 0.43140386E+03</totfact>
</mgrwt>
</event>
<event>
 8    1  0.3466492E-004  0.1010336E+03  0.7546771E-02  0.1279146E+00
          2   -1    0    0  501    0  0.00000000000E+00  0.00000000000E+00  0.43028974098E+03  0.43028974098E+03  0.00000000000E+00 0. -1.
         -2   -1    0    0    0  501 -0.00000000000E+00 -0.00000000000E+00 -0.60662552553E+02  0.60662552553E+02  0.00000000000E+00 0.  1.
         23    2    1    2    0    0 -0.65068403213E+01 -0.37907694649E+02 -0.72194929142E+01  0.10129120869E+03  0.93426204007E+02 0.  0.
         23    2    1    2    0    0  0.65068403213E+01  0.37907694649E+02  0.37684668134E+03  0.38966108484E+03  0.91340065241E+02 0.  0.
          5    1    3    3  502    0 -0.33194853955E+02 -0.57939295035E+02 -0.90174525894E+01  0.67544538562E+02  0.47000000000E+01 0. -1.
         -5    1    3    3    0  502  0.26688013634E+02  0.20031600386E+02  0.17979596752E+01  0.33746670128E+02  0.47000000000E+01 0.  1.
          5    1    4    4  503    0  0.14134167070E+01  0.64105056661E+02  0.32349291468E+03  0.32981996890E+03  0.47000000000E+01 0. -1.
         -5    1    4    4    0  503  0.50934236144E+01 -0.26197362011E+02  0.53353766661E+02  0.59841115943E+02  0.47000000000E+01 0.  1.
<mgrwt>
<rscale>  0 0.10054865E+03</rscale>
<asrwt>0</asrwt>
<pdfrwt beam="1">  1        2 0.66198420E-01 0.10103360E+03</pdfrwt>
<pdfrwt beam="2">  1       -2 0.93327007E-02 0.10103360E+03</pdfrwt>
<totfact> 0.51579808E+03</totfact>
</mgrwt>
</event>
<event>
 8    1  0.3466492E-004  0.1225016E+03  0.7546771E-02  0.1240452E+00
         -2   -1    0    0    0  501 -0.00000000000E+00  0.00000000000E+00  0.65535695659E+02  0.65535695659E+02  0.00000000000E+00 0.  1.
          2   -1    0    0  501    0  0.00000000000E+00 -0.00000000000E+00 -0.43959379178E+03  0.43959379178E+03  0.00000000000E+00 0. -1.
         23    2    1    2    0    0  0.73135681308E+02  0.23217899608E+02 -0.36313991568E+03  0.38214231477E+03  0.90962913486E+02 0.  0.
         23    2    1    2    0    0 -0.73135681308E+02 -0.23217899608E+02 -0.10918180440E+02  0.12298717267E+03  0.95492089911E+02 0.  0.
          5    1    3    3  502    0  0.30355077401E+02  0.55534071013E+02 -0.22834714488E+03  0.23700205135E+03  0.47000000000E+01 0. -1.
         -5    1    4    4    0  503 -0.21548149797E+02 -0.28212094656E+02  0.37538287223E+02  0.51879264183E+02  0.47000000000E+01 0.  1.
          5    1    4    4  503    0 -0.51587531511E+02  0.49941950471E+01 -0.48456467663E+02  0.71107908491E+02  0.47000000000E+01 0. -1.
         -5    1    3    3    0  502  0.42780603907E+02 -0.32316171404E+02 -0.13479277080E+03  0.14514026341E+03  0.47000000000E+01 0.  1.
<mgrwt>
<rscale>  0 0.12161788E+03</rscale>
<asrwt>0</asrwt>
<pdfrwt beam="1">  1        2 0.67629815E-01 0.12250158E+03</pdfrwt>
<pdfrwt beam="2">  1       -2 0.10082415E-01 0.12250158E+03</pdfrwt>
<totfact> 0.45184660E+03</totfact>
</mgrwt>
</event>
<event>
 8    1  0.3466492E-004  0.1447134E+03  0.7546771E-02  0.1207296E+00
         -1   -1    0    0    0  501 -0.00000000000E+00  0.00000000000E+00  0.92046809050E+02  0.92046809050E+02  0.00000000000E+00 0.  1.
          1   -1    0    0  501    0  0.00000000000E+00 -0.00000000000E+00 -0.22772568995E+03  0.22772568995E+03  0.00000000000E+00 0. -1.
         23    2    1    2    0    0  0.47082077417E+02  0.10226911009E+03 -0.78578157666E+02  0.16420106073E+03  0.90065357324E+02 0.  0.
         23    2    1    2    0    0 -0.47082077417E+02 -0.10226911009E+03 -0.57100723238E+02  0.15557143827E+03  0.90919122959E+02 0.  0.
          5    1    3    3  502    0  0.24292369258E+02  0.10607606346E+03 -0.86748754478E+02  0.13924685579E+03  0.47000000000E+01 0. -1.
         -5    1    4    4    0  503 -0.16961859890E+02 -0.10195915663E+03 -0.67294374080E+02  0.12342607947E+03  0.47000000000E+01 0.  1.
          5    1    4    4  503    0 -0.30120217527E+02 -0.30995346420E+00  0.10193650842E+02  0.32145358802E+02  0.47000000000E+01 0. -1.
         -5    1    3    3    0  502  0.22789708159E+02 -0.38069533706E+01  0.81705968122E+01  0.24954204941E+02  0.47000000000E+01 0.  1.
<mgrwt>
<rscale>  0 0.14457954E+03</rscale>
<asrwt>0</asrwt>
<pdfrwt beam="1">  1        1 0.35034721E-01 0.14471344E+03</pdfrwt>
<pdfrwt beam="2">  1       -1 0.14161048E-01 0.14471344E+03</pdfrwt>
<totfact> 0.42231765E+03</totfact>
</mgrwt>
</event>
<event>
 8    1  0.3466492E-004  0.9197958E+02  0.7546771E-02  0.1299365E+00
         -1   -1    0    0    0  501 -0.00000000000E+00  0.00000000000E+00  0.24849343035E+02  0.24849343035E+02  0.00000000000E+00 0.  1.
          1   -1    0    0  501    0  0.00000000000E+00 -0.00000000000E+00 -0.37478969834E+03  0.37478969834E+03  0.00000000000E+00 0. -1.
         23    2    1    2    0    0 -0.64449063119E+01 -0.18609651502E+01 -0.10987519597E+03  0.14329271614E+03  0.91734637965E+02 0.  0.
         23    2    1    2    0    0  0.64449063119E+01  0.18609651502E+01 -0.24006515934E+03  0.25634632523E+03  0.89650196445E+02 0.  0.
          5    1    3    3  502    0  0.20134040798E+01 -0.42989819163E+02 -0.81841350280E+02  0.92586580903E+02  0.47000000000E+01 0. -1.
         -5    1    3    3    0  502 -0.84583103917E+01  0.41128854013E+02 -0.28033845686E+02  0.50706135241E+02  0.47000000000E+01 0.  1.
          5    1    4    4  503    0 -0.36702072664E+02 -0.56104941264E+01 -0.57968599148E+02  0.68999770068E+02  0.47000000000E+01 0. -1.
         -5    1    4    4    0  503  0.43146978976E+02  0.74714592765E+01 -0.18209656019E+03  0.18734655517E+03  0.47000000000E+01 0.  1.
<mgrwt>
<rscale>  0 0.91455430E+02</rscale>
<asrwt>0</asrwt>
<pdfrwt beam="1">  1        1 0.57659950E-01 0.91979584E+02</pdfrwt>
<pdfrwt beam="2">  1       -1 0.38229761E-02 0.91979584E+02</pdfrwt>
<totfact> 0.15734982E+04</totfact>
</mgrwt>
</event>
<event>
 8    1  0.3466492E-004  0.1193034E+03  0.7546771E-02  0.1244698E+00
          2   -1    0    0  501    0  0.00000000000E+00  0.00000000000E+00  0.74509472542E+03  0.74509472542E+03  0.00000000000E+00 0. -1.
         -2   -1    0    0    0  501 -0.00000000000E+00 -0.00000000000E+00 -0.32642709639E+02  0.32642709639E+02  0.00000000000E+00 0.  1.
         23    2    1    2    0    0  0.16781465299E+02 -0.75635397999E+02  0.10513211047E+03  0.15901594430E+03  0.90724742385E+02 0.  0.
         23    2    1    2    0    0 -0.16781465299E+02  0.75635397999E+02  0.60731990531E+03  0.61872149076E+03  0.89311168037E+02 0.  0.
          5    1    3    3  502    0 -0.28385506166E+02  0.15793495873E+01  0.17563162655E+02  0.33745903275E+02  0.47000000000E+01 0. -1.
         -5    1    4    4    0  503  0.31363897581E+02  0.45660645231E+02  0.20531444075E+03  0.21270801155E+03  0.47000000000E+01 0.  1.
          5    1    4    4  503    0 -0.48145362880E+02  0.29974752767E+02  0.40200546456E+03  0.40601347922E+03  0.47000000000E+01 0. -1.
         -5    1    3    3    0  502  0.45166971466E+02 -0.77214747586E+02  0.87568947816E+02  0.12527004102E+03  0.47000000000E+01 0.  1.
<mgrwt>
<rscale>  0 0.11903468E+03</rscale>
<asrwt>0</asrwt>
<pdfrwt beam="1">  1        2 0.11462995E+00 0.11930344E+03</pdfrwt>
<pdfrwt beam="2">  1       -2 0.50219559E-02 0.11930344E+03</pdfrwt>
<totfact> 0.72271902E+03</totfact>
</mgrwt>
</event>
<event>
 8    1  0.3466492E-004  0.9366471E+02  0.7546771E-02  0.1295631E+00
         -2   -1    0    0    0  501 -0.00000000000E+00  0.00000000000E+00  0.28046630485E+02  0.28046630485E+02  0.00000000000E+00 0.  1.
          2   -1    0    0  501    0  0.00000000000E+00 -0.00000000000E+00 -0.51920538594E+03  0.51920538594E+03  0.00000000000E+00 0. -1.
         23    2    1    2    0    0 -0.94183538968E+01 -0.17256277423E+02 -0.71619322192E+02  0.11790845915E+03  0.91578343118E+02 0.  0.
         23    2    1    2    0    0  0.94183538968E+01  0.17256277423E+02 -0.41953943327E+03  0.42934355727E+03  0.89084620487E+02 0.  0.
          5    1    3    3  502    0  0.39066693115E+02 -0.13916935504E+02 -0.48190061077E+02  0.63751545796E+02  0.47000000000E+01 0. -1.
         -5    1    3    3    0  502 -0.48485047011E+02 -0.33393419192E+01 -0.23429261115E+02  0.54156913359E+02  0.47000000000E+01 0.  1.
          5    1    4    4  503    0  0.21585733702E+02 -0.28062777034E+02 -0.27490027226E+03  0.27721059331E+03  0.47000000000E+01 0. -1.
         -5    1    4    4    0  503 -0.12167379805E+02  0.45319054457E+02 -0.14463916100E+03  0.15213296396E+03  0.47000000000E+01 0.  1.
<mgrwt>
<rscale>  0 0.93049504E+02</rscale>
<asrwt>0</asrwt>
<pdfrwt beam="1">  1        2 0.79877744E-01 0.93664707E+02</pdfrwt>
<pdfrwt beam="2">  1       -2 0.43148666E-02 0.93664707E+02</pdfrwt>
<totfact> 0.13433948E+04</totfact>
</mgrwt>
</event>
<event>
 8    1  0.3466492E-004  0.1616568E+03  0.7546771E-02  0.1187093E+00
         -1   -1    0    0    0  501 -0.00000000000E+00  0.00000000000E+00  0.23499802097E+02  0.23499802097E+02  0.00000000000E+00 0.  1.
          1   -1    0    0  501    0  0.00000000000E+00 -0.00000000000E+00 -0.11118585872E+04  0.11118585872E+04  0.00000000000E+00 0. -1.
         23    2    1    2    0    0  0.43480724588E+02 -0.12396701915E+03 -0.58758687028E+03  0.60941877332E+03  0.94204649021E+02 0.  0.
         23    2    1    2    0    0 -0.43480724588E+02  0.12396701915E+03 -0.50077191480E+03  0.52593961596E+03  0.92636783927E+02 0.  0.
          5    1    3    3  502    0  0.58900952550E+02 -0.30561048567E+02 -0.22291083750E+03  0.23262551747E+03  0.47000000000E+01 0. -1.
         -5    1    4    4    0  503 -0.65585602217E+01  0.29149712256E+02 -0.24577230519E+02  0.38972435089E+02  0.47000000000E+01 0.  1.
          5    1    4    4  503    0 -0.36922164366E+02  0.94817306891E+02 -0.47619468428E+03  0.48696718087E+03  0.47000000000E+01 0. -1.
         -5    1    3    3    0  502 -0.15420227963E+02 -0.93405970580E+02 -0.36467603278E+03  0.37679325585E+03  0.47000000000E+01 0.  1.
<mgrwt>
<rscale>  0 0.16142914E+03</rscale>
<asrwt>0</asrwt>
<pdfrwt beam="1">  1        1 0.17105519E+00 0.16165677E+03</pdfrwt>
<pdfrwt beam="2">  1       -1 0.36153537E-02 0.16165677E+03</pdfrwt>
<totfact> 0.37367133E+03</totfact>
</mgrwt>
</event>
<event>
 7    1  0.3466492E-004  0.2744633E+03  0.7546771E-02  0.1140159E+00
         -1   -1    0    0    0  501 -0.00000000000E+00  0.00000000000E+00  0.27669659503E+03  0.27669659503E+03  0.00000000000E+00 0.  1.
          1   -1    0    0  501    0  0.00000000000E+00 -0.00000000000E+00 -0.20018646485E+03  0.20018646485E+03  0.00000000000E+00 0. -1.
         23    2    1    2    0    0  0.19550180622E+02  0.25061996735E+02  0.16237792841E+03  0.18930111184E+03  0.91967418519E+02 0.  0.
          5    1    3    3  502    0  0.30133793791E+02 -0.27479656241E+02  0.91744450747E+02  0.10051025459E+03  0.47000000000E+01 0. -1.
         -5    1    3    3    0  502 -0.10583613169E+02  0.52541652976E+02  0.70633477660E+02  0.88790857252E+02  0.47000000000E+01 0.  1.
          5    1    1    2  503    0 -0.14047480190E+03  0.26177883500E+02 -0.41358902411E+02  0.14883245735E+03  0.47000000000E+01 0. -1.
         -5    1    1    2    0  503  0.12092462128E+03 -0.51239880235E+02 -0.44508895819E+02  0.13874949068E+03  0.47000000000E+01 0.  1.
<mgrwt>
<rscale>  0 0.21178603E+03</rscale>
<asrwt>0</asrwt>
<pdfrwt beam="1">  1        1 0.30797918E-01 0.27446329E+03</pdfrwt>
<pdfrwt beam="2">  1       -1 0.42568707E-01 0.27446329E+03</pdfrwt>
<totfact> 0.81010360E+02</totfact>
</mgrwt>
</event>
<event>
 8    1  0.3466492E-004  0.9537777E+02  0.7546771E-02  0.1294178E+00
          1   -1    0    0  501    0  0.00000000000E+00  0.00000000000E+00  0.41431174481E+03  0.41431174481E+03  0.00000000000E+00 0. -1.
         -1   -1    0    0    0  501 -0.00000000000E+00 -0.00000000000E+00 -0.20474644370E+02  0.20474644370E+02  0.00000000000E+00 0.  1.
         23    2    1    2    0    0  0.38258810633E+01  0.41331070346E+01  0.18413616163E+03  0.20441407734E+03  0.88584812793E+02 0.  0.
         23    2    1    2    0    0 -0.38258810633E+01 -0.41331070346E+01  0.20970093882E+03  0.23037231184E+03  0.95211335366E+02 0.  0.
          5    1    4    4  502    0  0.33542019472E+02  0.27353683240E+02  0.71500055554E+02  0.83711641970E+02  0.47000000000E+01 0. -1.
         -5    1    3    3    0  503 -0.36371151786E+02  0.13411774941E+02  0.46867267607E+02  0.61003009453E+02  0.47000000000E+01 0.  1.
          5    1    3    3  503    0  0.40197032850E+02 -0.92786679064E+01  0.13726889402E+03  0.14341106789E+03  0.47000000000E+01 0. -1.
         -5    1    4    4    0  502 -0.37367900535E+02 -0.31486790274E+02  0.13820088327E+03  0.14666066987E+03  0.47000000000E+01 0.  1.
<mgrwt>
<rscale>  0 0.93679416E+02</rscale>
<asrwt>0</asrwt>
<pdfrwt beam="1">  1        1 0.63740262E-01 0.95377766E+02</pdfrwt>
<pdfrwt beam="2">  1       -1 0.31499456E-02 0.95377766E+02</pdfrwt>
<totfact> 0.18451652E+04</totfact>
</mgrwt>
</event>
<event>
 8    1  0.3466492E-004  0.9252633E+02  0.7546771E-02  0.1297167E+00
         -1   -1    0    0    0  501 -0.00000000000E+00  0.00000000000E+00  0.91847494806E+02  0.91847494806E+02  0.00000000000E+00 0.  1.
          1   -1    0    0  501    0  0.00000000000E+00 -0.00000000000E+00 -0.92807276262E+02  0.92807276262E+02  0.00000000000E+00 0. -1.
         23    2    1    2    0    0 -0.13109166747E+02 -0.95117609528E+01 -0.41566614520E+01  0.92073230616E+02  0.90542134459E+02 0.  0.
         23    2    1    2    0    0  0.13109166747E+02  0.95117609528E+01  0.31968799953E+01  0.92581540452E+02  0.91097737302E+02 0.  0.
          5    1    3    3  502    0  0.18478232613E+01 -0.36621153370E+02 -0.32958115603E+02  0.49526262821E+02  0.47000000000E+01 0. -1.
         -5    1    3    3    0  502 -0.14956990008E+02  0.27109392417E+02  0.28801454151E+02  0.42546967795E+02  0.47000000000E+01 0.  1.
          5    1    4    4  503    0 -0.11654592360E+02  0.41511895015E+02  0.20924848359E+02  0.48156061193E+02  0.47000000000E+01 0. -1.
         -5    1    4    4    0  503  0.24763759107E+02 -0.32000134062E+02 -0.17727968363E+02  0.44425479259E+02  0.47000000000E+01 0.  1.
<mgrwt>
<rscale>  0 0.92389282E+02</rscale>
<asrwt>0</asrwt>
<pdfrwt beam="1">  1        1 0.14278043E-01 0.92526329E+02</pdfrwt>
<pdfrwt beam="2">  1       -1 0.14130384E-01 0.92526329E+02</pdfrwt>
<totfact> 0.12671788E+04</totfact>
</mgrwt>
</event>
<event>
 8    1  0.3466492E-004  0.1174061E+03  0.7546771E-02  0.1247829E+00
          1   -1    0    0  501    0  0.00000000000E+00  0.00000000000E+00  0.99308321002E+03  0.99308321002E+03  0.00000000000E+00 0. -1.
         -1   -1    0    0    0  501 -0.00000000000E+00 -0.00000000000E+00 -0.14071660553E+02  0.14071660553E+02  0.00000000000E+00 0.  1.
         23    2    1    2    0    0  0.30439424745E+02  0.42985798177E+02  0.41790166892E+03  0.43408064731E+03  0.10492790887E+03 0.  0.
         23    2    1    2    0    0 -0.30439424745E+02 -0.42985798177E+02  0.56110988055E+03  0.57307422326E+03  0.10390105821E+03 0.  0.
          5    1    4    4  502    0 -0.60083962328E+02 -0.29346041897E+02  0.49151955529E+03  0.49606938621E+03  0.47000000000E+01 0. -1.
         -5    1    4    4    0  502  0.29644537583E+02 -0.13639756280E+02  0.69590325253E+02  0.77004837047E+02  0.47000000000E+01 0.  1.
          5    1    3    3  503    0 -0.10701676580E+02 -0.27710093218E+02  0.17929015969E+03  0.18179501233E+03  0.47000000000E+01 0. -1.
         -5    1    3    3    0  503  0.41141101325E+02  0.70695891395E+02  0.23861150924E+03  0.25228563498E+03  0.47000000000E+01 0.  1.
<mgrwt>
<rscale>  0 0.11717627E+03</rscale>
<asrwt>0</asrwt>
<pdfrwt beam="1">  1        1 0.15278198E+00 0.11740615E+03</pdfrwt>
<pdfrwt beam="2">  1       -1 0.21648716E-02 0.11740615E+03</pdfrwt>
<totfact> 0.94544949E+03</totfact>
</mgrwt>
</event>
<event>
 8    1  0.3466492E-004  0.1033779E+03  0.7546771E-02  0.1278229E+00
          2   -1    0    0  501    0  0.00000000000E+00  0.00000000000E+00  0.19469037939E+02  0.19469037939E+02  0.00000000000E+00 0. -1.
         -2   -1    0    0    0  501 -0.00000000000E+00 -0.00000000000E+00 -0.51361527220E+03  0.51361527220E+03  0.00000000000E+00 0.  1.
         23    2    1    2    0    0  0.16051208297E+02 -0.22036504331E+02 -0.19410977779E+03  0.21573771280E+03  0.90116070026E+02 0.  0.
         23    2    1    2    0    0 -0.16051208297E+02  0.22036504331E+02 -0.30003645647E+03  0.31734659735E+03  0.99718297341E+02 0.  0.
          5    1    3    3  502    0  0.34815326108E+02 -0.47562532373E+02 -0.98271089251E+02  0.11468913811E+03  0.47000000000E+01 0. -1.
         -5    1    3    3    0  502 -0.18764117812E+02  0.25526028042E+02 -0.95838688542E+02  0.10104857469E+03  0.47000000000E+01 0.  1.
          5    1    4    4  503    0  0.23865723711E+02  0.21678071635E+02 -0.29855594073E+02  0.44192285022E+02  0.47000000000E+01 0. -1.
         -5    1    4    4    0  503 -0.39916932008E+02  0.35843269654E+00 -0.27018086240E+03  0.27315431232E+03  0.47000000000E+01 0.  1.
<mgrwt>
<rscale>  0 0.10098931E+03</rscale>
<asrwt>0</asrwt>
<pdfrwt beam="1">  1        2 0.29952373E-02 0.10337789E+03</pdfrwt>
<pdfrwt beam="2">  1       -2 0.79017715E-01 0.10337789E+03</pdfrwt>
<totfact> 0.42560169E+03</totfact>
</mgrwt>
</event>
<event>
 8    1  0.3466492E-004  0.2420839E+03  0.7546771E-02  0.1118608E+00
          2   -1    0    0  501    0  0.00000000000E+00  0.00000000000E+00  0.12022446057E+03  0.12022446057E+03  0.00000000000E+00 0. -1.
         -2   -1    0    0    0  501 -0.00000000000E+00 -0.00000000000E+00 -0.15027127582E+04  0.15027127582E+04  0.00000000000E+00 0.  1.
         23    2    1    2    0    0 -0.11087576824E+03  0.19351188194E+03 -0.13584709161E+04  0.13796648461E+04  0.91058075059E+02 0.  0.
         23    2    1    2    0    0  0.11087576824E+03 -0.19351188194E+03 -0.24017381515E+02  0.24327237273E+03  0.94150561792E+02 0.  0.
          5    1    4    4  502    0  0.60063420285E+02 -0.99388087417E+02  0.34529706932E+02  0.12124354431E+03  0.47000000000E+01 0. -1.
         -5    1    4    4    0  502  0.50812347952E+02 -0.94123794519E+02 -0.58547088447E+02  0.12202882842E+03  0.47000000000E+01 0.  1.
          5    1    3    3  503    0 -0.37857644945E+02  0.12582917799E+03 -0.57283175629E+03  0.58772824870E+03  0.47000000000E+01 0. -1.
         -5    1    3    3    0  503 -0.73018123292E+02  0.67682703946E+02 -0.78563915985E+03  0.79193659736E+03  0.47000000000E+01 0.  1.
<mgrwt>
<rscale>  0 0.24178688E+03</rscale>
<asrwt>0</asrwt>
<pdfrwt beam="1">  1        2 0.18496072E-01 0.24208390E+03</pdfrwt>
<pdfrwt beam="2">  1       -2 0.23118657E+00 0.24208390E+03</pdfrwt>
<totfact> 0.28448208E+01</totfact>
</mgrwt>
</event>
<event>
 8    1  0.3466492E-004  0.1105099E+03  0.7546771E-02  0.1260543E+00
         -2   -1    0    0    0  501 -0.00000000000E+00  0.00000000000E+00  0.19774094756E+02  0.19774094756E+02  0.00000000000E+00 0.  1.
          2   -1    0    0  501    0  0.00000000000E+00 -0.00000000000E+00 -0.93673420405E+03  0.93673420405E+03  0.00000000000E+00 0. -1.
         23    2    1    2    0    0  0.22148504768E+02  0.59103111698E+02 -0.17191817786E+03  0.20331515761E+03  0.88303223944E+02 0.  0.
         23    2    1    2    0    0 -0.22148504768E+02 -0.59103111698E+02 -0.74504193144E+03  0.75319314120E+03  0.90712150650E+02 0.  0.
          5    1    4    4  502    0  0.10339089963E+02 -0.68300962336E+02 -0.60991075068E+03  0.61382825939E+03  0.47000000000E+01 0. -1.
         -5    1    4    4    0  502 -0.32487594730E+02  0.91978506374E+01 -0.13513118076E+03  0.13936488181E+03  0.47000000000E+01 0.  1.
          5    1    3    3  503    0  0.12479204763E+02 -0.22360744624E+02 -0.48480632098E+02  0.55029039064E+02  0.47000000000E+01 0. -1.
         -5    1    3    3    0  503  0.96693000042E+01  0.81463856322E+02 -0.12343754576E+03  0.14828611854E+03  0.47000000000E+01 0.  1.
<mgrwt>
<rscale>  0 0.11001437E+03</rscale>
<asrwt>0</asrwt>
<pdfrwt beam="1">  1        2 0.14411297E+00 0.11050986E+03</pdfrwt>
<pdfrwt beam="2">  1       -2 0.30421681E-02 0.11050986E+03</pdfrwt>
<totfact> 0.11318791E+04</totfact>
</mgrwt>
</event>
<event>
 8    1  0.3466492E-004  0.3085805E+03  0.7546771E-02  0.1081460E+00
         -1   -1    0    0    0  501 -0.00000000000E+00  0.00000000000E+00  0.15809175547E+03  0.15809175547E+03  0.00000000000E+00 0.  1.
          1   -1    0    0  501    0  0.00000000000E+00 -0.00000000000E+00 -0.10736936257E+04  0.10736936257E+04  0.00000000000E+00 0. -1.
         23    2    1    2    0    0  0.68328324562E+01  0.29424868908E+03 -0.48206279090E+02  0.31232315422E+03  0.92698051187E+02 0.  0.
         23    2    1    2    0    0 -0.68328324562E+01 -0.29424868908E+03 -0.86739559116E+03  0.91946222697E+03  0.80041842931E+02 0.  0.
          5    1    4    4  502    0  0.18734352779E+02 -0.17536907079E+03 -0.41412316014E+03  0.45013927704E+03  0.47000000000E+01 0. -1.
         -5    1    3    3    0  503 -0.53095457611E+01  0.17830133742E+03  0.15981285393E+02  0.17915649495E+03  0.47000000000E+01 0.  1.
          5    1    3    3  503    0  0.12142378217E+02  0.11594735167E+03 -0.64187564482E+02  0.13316665927E+03  0.47000000000E+01 0. -1.
         -5    1    4    4    0  502 -0.25567185235E+02 -0.11887961829E+03 -0.45327243102E+03  0.46932294993E+03  0.47000000000E+01 0.  1.
<mgrwt>
<rscale>  0 0.30768585E+03</rscale>
<asrwt>0</asrwt>
<pdfrwt beam="1">  1        1 0.16518363E+00 0.30858047E+03</pdfrwt>
<pdfrwt beam="2">  1       -1 0.24321809E-01 0.30858047E+03</pdfrwt>
<totfact> 0.20621765E+02</totfact>
</mgrwt>
</event>
<event>
 8    1  0.3466492E-004  0.9948864E+02  0.7546771E-02  0.1282136E+00
         -1   -1    0    0    0  501 -0.00000000000E+00  0.00000000000E+00  0.56115358194E+02  0.56115358194E+02  0.00000000000E+00 0.  1.
          1   -1    0    0  501    0  0.00000000000E+00 -0.00000000000E+00 -0.22718123305E+03  0.22718123305E+03  0.00000000000E+00 0. -1.
         23    2    1    2    0    0  0.30259034050E+02  0.27872000456E+02 -0.16442122085E+02  0.99431166981E+02  0.89015482010E+02 0.  0.
         23    2    1    2    0    0 -0.30259034050E+02 -0.27872000456E+02 -0.15462375277E+03  0.18386542426E+03  0.90584390306E+02 0.  0.
          5    1    4    4  502    0 -0.48800606613E+02 -0.16009816464E+02 -0.15281719412E+03  0.16128545579E+03  0.47000000000E+01 0. -1.
         -5    1    4    4    0  502  0.18541572563E+02 -0.11862183992E+02 -0.18065586480E+01  0.22579968475E+02  0.47000000000E+01 0.  1.
          5    1    3    3  503    0 -0.11822829006E+02 -0.20648203992E+02 -0.24567258104E+02  0.34521989870E+02  0.47000000000E+01 0. -1.
         -5    1    3    3    0  503  0.42081863056E+02  0.48520204448E+02  0.81251360195E+01  0.64909177111E+02  0.47000000000E+01 0.  1.
<mgrwt>
<rscale>  0 0.99130120E+02</rscale>
<asrwt>0</asrwt>
<pdfrwt beam="1">  1        1 0.34950959E-01 0.99488639E+02</pdfrwt>
<pdfrwt beam="2">  1       -1 0.86331320E-02 0.99488639E+02</pdfrwt>
<totfact> 0.88082783E+03</totfact>
</mgrwt>
</event>
<event>
 8    1  0.3466492E-004  0.9931295E+02  0.7546771E-02  0.1285906E+00
          2   -1    0    0  501    0  0.00000000000E+00  0.00000000000E+00  0.72724812932E+03  0.72724812932E+03  0.00000000000E+00 0. -1.
         -2   -1    0    0    0  501 -0.00000000000E+00 -0.00000000000E+00 -0.12586117397E+02  0.12586117397E+02  0.00000000000E+00 0.  1.
         23    2    1    2    0    0 -0.23111644921E+02  0.13309946277E+02  0.35314379133E+03  0.36684274447E+03  0.95664826401E+02 0.  0.
         23    2    1    2    0    0  0.23111644921E+02 -0.13309946277E+02  0.36151822059E+03  0.37299150225E+03  0.87840390089E+02 0.  0.
          5    1    3    3  502    0 -0.28858874943E+02 -0.28693478724E+02  0.75105382371E+02  0.85551498206E+02  0.47000000000E+01 0. -1.
         -5    1    3    3    0  502  0.57472300225E+01  0.42003425001E+02  0.27803840896E+03  0.28129124626E+03  0.47000000000E+01 0.  1.
          5    1    4    4  503    0  0.19112454555E+02 -0.36881695597E+02  0.33242145520E+03  0.33503978759E+03  0.47000000000E+01 0. -1.
         -5    1    4    4    0  503  0.39991903658E+01  0.23571749321E+02  0.29096765387E+02  0.37951714660E+02  0.47000000000E+01 0.  1.
<mgrwt>
<rscale>  0 0.97378944E+02</rscale>
<asrwt>0</asrwt>
<pdfrwt beam="1">  1        2 0.11188429E+00 0.99312949E+02</pdfrwt>
<pdfrwt beam="2">  1       -2 0.19363263E-02 0.99312949E+02</pdfrwt>
<totfact> 0.29617531E+04</totfact>
</mgrwt>
</event>
<event>
 8    1  0.3466492E-004  0.1147539E+03  0.7546771E-02  0.1252461E+00
         -1   -1    0    0    0  501 -0.00000000000E+00  0.00000000000E+00  0.41870839602E+02  0.41870839602E+02  0.00000000000E+00 0.  1.
          1   -1    0    0  501    0  0.00000000000E+00 -0.00000000000E+00 -0.45971227909E+03  0.45971227909E+03  0.00000000000E+00 0. -1.
         23    2    1    2    0    0 -0.32341182687E+02 -0.60900122824E+02 -0.67254214563E+02  0.13300973256E+03  0.91726127805E+02 0.  0.
         23    2    1    2    0    0  0.32341182687E+02  0.60900122824E+02 -0.35058722493E+03  0.36857338614E+03  0.90444245954E+02 0.  0.
          5    1    3    3  502    0 -0.39440292578E+02 -0.38682203924E+01 -0.63786499059E+02  0.75241659138E+02  0.47000000000E+01 0. -1.
         -5    1    3    3    0  502  0.70991098918E+01 -0.57031902431E+02 -0.34677155039E+01  0.57768073423E+02  0.47000000000E+01 0.  1.
          5    1    4    4  503    0 -0.31504800125E+02  0.21843215962E+02 -0.12718624483E+03  0.13292144066E+03  0.47000000000E+01 0. -1.
         -5    1    4    4    0  503  0.63845982811E+02  0.39056906862E+02 -0.22340098010E+03  0.23565194547E+03  0.47000000000E+01 0.  1.
<mgrwt>
<rscale>  0 0.11449754E+03</rscale>
<asrwt>0</asrwt>
<pdfrwt beam="1">  1        1 0.70724965E-01 0.11475391E+03</pdfrwt>
<pdfrwt beam="2">  1       -1 0.64416677E-02 0.11475391E+03</pdfrwt>
<totfact> 0.57603918E+03</totfact>
</mgrwt>
</event>
<event>
 8    1  0.3466492E-004  0.1051125E+03  0.7546771E-02  0.1271425E+00
         -1   -1    0    0    0  501 -0.00000000000E+00  0.00000000000E+00  0.94020168516E+02  0.94020168516E+02  0.00000000000E+00 0.  1.
          1   -1    0    0  501    0  0.00000000000E+00 -0.00000000000E+00 -0.11920123246E+03  0.11920123246E+03  0.00000000000E+00 0. -1.
         23    2    1    2    0    0 -0.61583500317E+01 -0.45385738101E+02 -0.34416708237E+02  0.10770392114E+03  0.91202161839E+02 0.  0.
         23    2    1    2    0    0  0.61583500317E+01  0.45385738101E+02  0.92356442904E+01  0.10551747984E+03  0.94608936834E+02 0.  0.
          5    1    3    3  502    0 -0.38778503490E+01 -0.21535580030E+02 -0.64898531985E+02  0.68649314522E+02  0.47000000000E+01 0. -1.
         -5    1    4    4    0  503 -0.33121145262E+02  0.10965296594E+01 -0.20349564710E+02  0.39171512923E+02  0.47000000000E+01 0.  1.
          5    1    4    4  503    0  0.39279495294E+02  0.44289208441E+02  0.29585209000E+02  0.66345966920E+02  0.47000000000E+01 0. -1.
         -5    1    3    3    0  502 -0.22804996827E+01 -0.23850158071E+02  0.30481823748E+02  0.39054606614E+02  0.47000000000E+01 0.  1.
<mgrwt>
<rscale>  0 0.10434016E+03</rscale>
<asrwt>0</asrwt>
<pdfrwt beam="1">  1        1 0.18338651E-01 0.10511252E+03</pdfrwt>
<pdfrwt beam="2">  1       -1 0.14464641E-01 0.10511252E+03</pdfrwt>
<totfact> 0.89856230E+03</totfact>
</mgrwt>
</event>
<event>
 8    1  0.3466492E-004  0.1295242E+03  0.7546771E-02  0.1228807E+00
         -2   -1    0    0    0  501 -0.00000000000E+00  0.00000000000E+00  0.26360967337E+03  0.26360967337E+03  0.00000000000E+00 0.  1.
          2   -1    0    0  501    0  0.00000000000E+00 -0.00000000000E+00 -0.70934880522E+02  0.70934880522E+02  0.00000000000E+00 0. -1.
         23    2    1    2    0    0  0.75290610393E+02 -0.49701678999E+02  0.39129255188E+02  0.13366462891E+03  0.90532875251E+02 0.  0.
         23    2    1    2    0    0 -0.75290610393E+02  0.49701678999E+02  0.15354553766E+03  0.20087992498E+03  0.92938577658E+02 0.  0.
          5    1    3    3  502    0  0.43185954625E+02 -0.29774524321E+02 -0.25606613774E+02  0.58560546824E+02  0.47000000000E+01 0. -1.
         -5    1    4    4    0  503 -0.30570642728E+02 -0.25739574005E+02  0.62868568594E+02  0.74643397457E+02  0.47000000000E+01 0.  1.
          5    1    4    4  503    0 -0.44719967664E+02  0.75441253004E+02  0.90676969062E+02  0.12623652752E+03  0.47000000000E+01 0. -1.
         -5    1    3    3    0  502  0.32104655768E+02 -0.19927154678E+02  0.64735868962E+02  0.75104082085E+02  0.47000000000E+01 0.  1.
<mgrwt>
<rscale>  0 0.12909323E+03</rscale>
<asrwt>0</asrwt>
<pdfrwt beam="1">  1        2 0.10913059E-01 0.12952418E+03</pdfrwt>
<pdfrwt beam="2">  1       -2 0.40555334E-01 0.12952418E+03</pdfrwt>
<totfact> 0.31883230E+03</totfact>
</mgrwt>
</event>
<event>
 8    1  0.3466492E-004  0.1077319E+03  0.7546771E-02  0.1266331E+00
          2   -1    0    0  501    0  0.00000000000E+00  0.00000000000E+00  0.11432338583E+03  0.11432338583E+03  0.00000000000E+00 0. -1.
         -2   -1    0    0    0  501 -0.00000000000E+00 -0.00000000000E+00 -0.10513238335E+03  0.10513238335E+03  0.00000000000E+00 0.  1.
         23    2    1    2    0    0 -0.46593350682E+02  0.19394223012E+02  0.31851145619E+02  0.10936652219E+03  0.91648592371E+02 0.  0.
         23    2    1    2    0    0  0.46593350682E+02 -0.19394223012E+02 -0.22660143138E+02  0.11008924700E+03  0.95179220446E+02 0.  0.
          5    1    4    4  502    0  0.52256276612E+02  0.27569780471E+02 -0.19708488566E+02  0.62460593674E+02  0.47000000000E+01 0. -1.
         -5    1    3    3    0  503 -0.14629139300E+02 -0.14804308041E+02 -0.26749800288E+02  0.34217262730E+02  0.47000000000E+01 0.  1.
          5    1    3    3  503    0 -0.31964211382E+02  0.34198531053E+02  0.58600945908E+02  0.75149259456E+02  0.47000000000E+01 0. -1.
         -5    1    4    4    0  502 -0.56629259295E+01 -0.46964003483E+02 -0.29516545717E+01  0.47628653329E+02  0.47000000000E+01 0.  1.
<mgrwt>
<rscale>  0 0.10694681E+03</rscale>
<asrwt>0</asrwt>
<pdfrwt beam="1">  1        2 0.17588213E-01 0.10773189E+03</pdfrwt>
<pdfrwt beam="2">  1       -2 0.16174213E-01 0.10773189E+03</pdfrwt>
<totfact> 0.89952816E+03</totfact>
</mgrwt>
</event>
<event>
 8    1  0.3466492E-004  0.9913742E+02  0.7546771E-02  0.1283388E+00
         -3   -1    0    0    0  501 -0.00000000000E+00  0.00000000000E+00  0.27072759851E+02  0.27072759851E+02  0.00000000000E+00 0.  1.
          3   -1    0    0  501    0  0.00000000000E+00 -0.00000000000E+00 -0.35683537479E+03  0.35683537479E+03  0.00000000000E+00 0. -1.
         23    2    1    2    0    0  0.12889583049E+02 -0.27684585336E+02 -0.15119682614E+03  0.18080018983E+03  0.94316757758E+02 0.  0.
         23    2    1    2    0    0 -0.12889583049E+02  0.27684585336E+02 -0.17856578880E+03  0.20310794481E+03  0.91839635762E+02 0.  0.
          5    1    3    3  502    0 -0.23217003944E+02  0.94823422468E+00 -0.11153800269E+01  0.23733151769E+02  0.47000000000E+01 0. -1.
         -5    1    4    4    0  503  0.28394770103E+02 -0.36539658056E+01 -0.17589728174E+02  0.33927908461E+02  0.47000000000E+01 0.  1.
          5    1    4    4  503    0 -0.41284353151E+02  0.31338551142E+02 -0.16097606063E+03  0.16918003635E+03  0.47000000000E+01 0. -1.
         -5    1    3    3    0  502  0.36106586993E+02 -0.28632819561E+02 -0.15008144611E+03  0.15706703807E+03  0.47000000000E+01 0.  1.
<mgrwt>
<rscale>  0 0.98543694E+02</rscale>
<asrwt>0</asrwt>
<pdfrwt beam="1">  1        3 0.54897748E-01 0.99137422E+02</pdfrwt>
<pdfrwt beam="2">  1       -3 0.41650402E-02 0.99137422E+02</pdfrwt>
<totfact> 0.21768812E+03</totfact>
</mgrwt>
</event>
<event>
 8    1  0.3466492E-004  0.1066289E+03  0.7546771E-02  0.1267874E+00
          1   -1    0    0  501    0  0.00000000000E+00  0.00000000000E+00  0.44319751316E+03  0.44319751316E+03  0.00000000000E+00 0. -1.
         -1   -1    0    0    0  501 -0.00000000000E+00 -0.00000000000E+00 -0.25242162672E+02  0.25242162672E+02  0.00000000000E+00 0.  1.
         23    2    1    2    0    0  0.51250676610E+02 -0.11364833536E+02  0.20087353486E+03  0.22742009985E+03  0.92811279029E+02 0.  0.
         23    2    1    2    0    0 -0.51250676610E+02  0.11364833536E+02  0.21708181563E+03  0.24101957598E+03  0.90609767878E+02 0.  0.
          5    1    4    4  502    0 -0.35893298097E+02 -0.29368952909E+02  0.17187594396E+03  0.17808507617E+03  0.47000000000E+01 0. -1.
         -5    1    3    3    0  503  0.50281044560E+02  0.29580985438E+02  0.76039205914E+02  0.95954515149E+02  0.47000000000E+01 0.  1.
          5    1    3    3  503    0  0.96963205039E+00 -0.40945818974E+02  0.12483432894E+03  0.13146558470E+03  0.47000000000E+01 0. -1.
         -5    1    4    4    0  502 -0.15357378513E+02  0.40733786445E+02  0.45205871675E+02  0.62934499813E+02  0.47000000000E+01 0.  1.
<mgrwt>
<rscale>  0 0.10614801E+03</rscale>
<asrwt>0</asrwt>
<pdfrwt beam="1">  1        1 0.68184227E-01 0.10662891E+03</pdfrwt>
<pdfrwt beam="2">  1       -1 0.38834100E-02 0.10662891E+03</pdfrwt>
<totfact> 0.12641337E+04</totfact>
</mgrwt>
</event>
<event>
 8    1  0.3466492E-004  0.9282110E+02  0.7546771E-02  0.1301003E+00
          2   -1    0    0  501    0  0.00000000000E+00  0.00000000000E+00  0.19716653769E+02  0.19716653769E+02  0.00000000000E+00 0. -1.
         -2   -1    0    0    0  501 -0.00000000000E+00 -0.00000000000E+00 -0.60577264411E+03  0.60577264411E+03  0.00000000000E+00 0.  1.
         23    2    1    2    0    0  0.61803524235E+01  0.45623148419E+01 -0.11969909543E+03  0.15147154728E+03  0.92502674105E+02 0.  0.
         23    2    1    2    0    0 -0.61803524235E+01 -0.45623148419E+01 -0.46635689491E+03  0.47401775059E+03  0.84528474355E+02 0.  0.
          5    1    4    4  502    0  0.28571546290E+02  0.25483202576E+02 -0.22513796251E+03  0.22841829838E+03  0.47000000000E+01 0. -1.
         -5    1    4    4    0  502 -0.34751898714E+02 -0.30045517418E+02 -0.24121893240E+03  0.24559945222E+03  0.47000000000E+01 0.  1.
          5    1    3    3  503    0 -0.30539436218E+02 -0.61780204319E+01 -0.68848634040E+01  0.32253936892E+02  0.47000000000E+01 0. -1.
         -5    1    3    3    0  503  0.36719788641E+02  0.10740335274E+02 -0.11281423202E+03  0.11921761039E+03  0.47000000000E+01 0.  1.
<mgrwt>
<rscale>  0 0.90767902E+02</rscale>
<asrwt>0</asrwt>
<pdfrwt beam="1">  1        2 0.30333316E-02 0.92821098E+02</pdfrwt>
<pdfrwt beam="2">  1       -2 0.93195783E-01 0.92821098E+02</pdfrwt>
<totfact> 0.28792443E+03</totfact>
</mgrwt>
</event>
<event>
 8    1  0.3466492E-004  0.1264704E+03  0.7546771E-02  0.1232816E+00
         -4   -1    0    0    0  501 -0.00000000000E+00  0.00000000000E+00  0.17283285396E+03  0.17283285396E+03  0.00000000000E+00 0.  1.
          4   -1    0    0  501    0  0.00000000000E+00 -0.00000000000E+00 -0.10613879320E+03  0.10613879320E+03  0.00000000000E+00 0. -1.
         23    2    1    2    0    0 -0.34401247967E+02  0.80703967277E+02 -0.16675587687E+02  0.12749473007E+03  0.90995905267E+02 0.  0.
         23    2    1    2    0    0  0.34401247967E+02 -0.80703967277E+02  0.83369648449E+02  0.15147691708E+03  0.91094357289E+02 0.  0.
          5    1    4    4  502    0 -0.12625867116E+02 -0.77949794484E+02  0.50743590159E+02  0.93981832941E+02  0.47000000000E+01 0. -1.
         -5    1    3    3    0  503 -0.18703321727E+02  0.97964504780E+02 -0.26715684051E+01  0.99880357018E+02  0.47000000000E+01 0.  1.
          5    1    3    3  503    0 -0.15697926240E+02 -0.17260537502E+02 -0.14004019282E+02  0.27614373054E+02  0.47000000000E+01 0. -1.
         -5    1    4    4    0  502  0.47027115083E+02 -0.27541727927E+01  0.32626058290E+02  0.57495084141E+02  0.47000000000E+01 0.  1.
<mgrwt>
<rscale>  0 0.12645266E+03</rscale>
<asrwt>0</asrwt>
<pdfrwt beam="1">  1        4 0.16329045E-01 0.12647038E+03</pdfrwt>
<pdfrwt beam="2">  1       -4 0.26589670E-01 0.12647038E+03</pdfrwt>
<totfact> 0.70655047E+02</totfact>
</mgrwt>
</event>
<event>
 8    1  0.3466492E-004  0.9263693E+02  0.7546771E-02  0.1297291E+00
          2   -1    0    0  501    0  0.00000000000E+00  0.00000000000E+00  0.17045075023E+03  0.17045075023E+03  0.00000000000E+00 0. -1.
         -2   -1    0    0    0  501 -0.00000000000E+00 -0.00000000000E+00 -0.12132775488E+03  0.12132775488E+03  0.00000000000E+00 0.  1.
         23    2    1    2    0    0 -0.15624672325E+02 -0.11546881870E+02 -0.87468334533E+02  0.12740608673E+03  0.90576710718E+02 0.  0.
         23    2    1    2    0    0  0.15624672325E+02  0.11546881870E+02  0.13659132988E+03  0.16437241838E+03  0.89351215203E+02 0.  0.
          5    1    3    3  502    0 -0.26665194176E+02 -0.47527966982E+02 -0.50811414615E+02  0.74658087848E+02  0.47000000000E+01 0. -1.
         -5    1    3    3    0  502  0.11040521851E+02  0.35981085111E+02 -0.36656919918E+02  0.52747998886E+02  0.47000000000E+01 0.  1.
          5    1    4    4  503    0  0.31567898746E+02  0.43837318796E+02  0.92800020196E+02  0.10748105181E+03  0.47000000000E+01 0. -1.
         -5    1    4    4    0  503 -0.15943226421E+02 -0.32290436926E+02  0.43791309685E+02  0.56891366564E+02  0.47000000000E+01 0.  1.
<mgrwt>
<rscale>  0 0.92336000E+02</rscale>
<asrwt>0</asrwt>
<pdfrwt beam="1">  1        2 0.26223192E-01 0.92636933E+02</pdfrwt>
<pdfrwt beam="2">  1       -2 0.18665808E-01 0.92636933E+02</pdfrwt>
<totfact> 0.45028998E+03</totfact>
</mgrwt>
</event>
<event>
 8    1  0.3466492E-004  0.1463016E+03  0.7546771E-02  0.1205318E+00
         -1   -1    0    0    0  501 -0.00000000000E+00  0.00000000000E+00  0.16758741643E+03  0.16758741643E+03  0.00000000000E+00 0.  1.
          1   -1    0    0  501    0  0.00000000000E+00 -0.00000000000E+00 -0.33572538485E+03  0.33572538485E+03  0.00000000000E+00 0. -1.
         23    2    1    2    0    0 -0.69663240948E+02 -0.90475196414E+02  0.11438834452E+03  0.18515362067E+03  0.90324091925E+02 0.  0.
         23    2    1    2    0    0  0.69663240948E+02  0.90475196414E+02 -0.28252631294E+03  0.31815918060E+03  0.91462661185E+02 0.  0.
          5    1    3    3  502    0 -0.12641699109E+02 -0.44229006547E+02 -0.33063525628E+01  0.46357734455E+02  0.47000000000E+01 0. -1.
         -5    1    3    3    0  502 -0.57021541838E+02 -0.46246189867E+02  0.11769469708E+03  0.13879588622E+03  0.47000000000E+01 0.  1.
          5    1    4    4  503    0  0.85591099939E+02  0.51843099470E+02 -0.16161860552E+03  0.19014785564E+03  0.47000000000E+01 0. -1.
         -5    1    4    4    0  503 -0.15927858992E+02  0.38632096944E+02 -0.12090770742E+03  0.12801132497E+03  0.47000000000E+01 0.  1.
<mgrwt>
<rscale>  0 0.14612397E+03</rscale>
<asrwt>0</asrwt>
<pdfrwt beam="1">  1        1 0.51650059E-01 0.14630156E+03</pdfrwt>
<pdfrwt beam="2">  1       -1 0.25782680E-01 0.14630156E+03</pdfrwt>
<totfact> 0.99868532E+02</totfact>
</mgrwt>
</event>
<event>
 8    1  0.3466492E-004  0.1355251E+03  0.7546771E-02  0.1223253E+00
         -2   -1    0    0    0  501 -0.00000000000E+00  0.00000000000E+00  0.26934962013E+03  0.26934962013E+03  0.00000000000E+00 0.  1.
          2   -1    0    0  501    0  0.00000000000E+00 -0.00000000000E+00 -0.66755482980E+02  0.66755482980E+02  0.00000000000E+00 0. -1.
         23    2    1    2    0    0  0.71260774081E+02 -0.47598581872E+02  0.13677217739E+03  0.18544132358E+03  0.91313378341E+02 0.  0.
         23    2    1    2    0    0 -0.71260774081E+02  0.47598581872E+02  0.65821959760E+02  0.15066377953E+03  0.10499200521E+03 0.  0.
          5    1    4    4  502    0  0.11192301560E+02  0.49623433839E+02  0.13369934752E+02  0.52807177121E+02  0.47000000000E+01 0. -1.
         -5    1    3    3    0  503 -0.98590471820E+01 -0.29430927640E+02  0.76390928093E+02  0.82589613197E+02  0.47000000000E+01 0.  1.
          5    1    3    3  503    0  0.81119821263E+02 -0.18167654231E+02  0.60381249299E+02  0.10285171038E+03  0.47000000000E+01 0. -1.
         -5    1    4    4    0  502 -0.82453075641E+02 -0.20248519673E+01  0.52452025008E+02  0.97856602412E+02  0.47000000000E+01 0.  1.
<mgrwt>
<rscale>  0 0.13287382E+03</rscale>
<asrwt>0</asrwt>
<pdfrwt beam="1">  1        2 0.10270074E-01 0.13552507E+03</pdfrwt>
<pdfrwt beam="2">  1       -2 0.41438403E-01 0.13552507E+03</pdfrwt>
<totfact> 0.33046362E+03</totfact>
</mgrwt>
</event>
<event>
 8    1  0.3466492E-004  0.9990323E+02  0.7546771E-02  0.1284394E+00
         -1   -1    0    0    0  501 -0.00000000000E+00  0.00000000000E+00  0.24569377303E+02  0.24569377303E+02  0.00000000000E+00 0.  1.
          1   -1    0    0  501    0  0.00000000000E+00 -0.00000000000E+00 -0.60925272740E+03  0.60925272740E+03  0.00000000000E+00 0. -1.
         23    2    1    2    0    0 -0.37718477833E+02 -0.15367553144E+02 -0.10379438387E+03  0.14406224261E+03  0.91223957180E+02 0.  0.
         23    2    1    2    0    0  0.37718477833E+02  0.15367553144E+02 -0.48088896622E+03  0.48975986209E+03  0.83376731867E+02 0.  0.
          5    1    4    4  502    0  0.57946386006E+02 -0.58605895084E+01 -0.38405628232E+03  0.38847580125E+03  0.47000000000E+01 0. -1.
         -5    1    3    3    0  503 -0.32844164837E+02 -0.52528118092E+02 -0.64149162240E+02  0.89303680609E+02  0.47000000000E+01 0.  1.
          5    1    3    3  503    0 -0.48743129957E+01  0.37160564949E+02 -0.39645221628E+02  0.54758562001E+02  0.47000000000E+01 0. -1.
         -5    1    4    4    0  502 -0.20227908174E+02  0.21228142652E+02 -0.96832683900E+02  0.10128406084E+03  0.47000000000E+01 0.  1.
<mgrwt>
<rscale>  0 0.98076137E+02</rscale>
<asrwt>0</asrwt>
<pdfrwt beam="1">  1        1 0.93731174E-01 0.99903231E+02</pdfrwt>
<pdfrwt beam="2">  1       -1 0.37799048E-02 0.99903231E+02</pdfrwt>
<totfact> 0.86397357E+03</totfact>
</mgrwt>
</event>
<event>
 8    1  0.3466492E-004  0.1027537E+03  0.7546771E-02  0.1276200E+00
          2   -1    0    0  501    0  0.00000000000E+00  0.00000000000E+00  0.37633728248E+03  0.37633728248E+03  0.00000000000E+00 0. -1.
         -2   -1    0    0    0  501 -0.00000000000E+00 -0.00000000000E+00 -0.31145477810E+02  0.31145477810E+02  0.00000000000E+00 0.  1.
         23    2    1    2    0    0 -0.42477295777E+02  0.12103283443E+02  0.24262593131E+03  0.26229985485E+03  0.89347978064E+02 0.  0.
         23    2    1    2    0    0  0.42477295777E+02 -0.12103283443E+02  0.10256587336E+03  0.14518290544E+03  0.92776653999E+02 0.  0.
          5    1    3    3  502    0  0.31276879878E+01 -0.31017553429E+02  0.12476351890E+03  0.12868526217E+03  0.47000000000E+01 0. -1.
         -5    1    4    4    0  503 -0.26757360257E+02 -0.53400179818E+01  0.52478009031E+02  0.59333831428E+02  0.47000000000E+01 0.  1.
          5    1    4    4  503    0  0.69234656034E+02 -0.67632654609E+01  0.50087864329E+02  0.85849074013E+02  0.47000000000E+01 0. -1.
         -5    1    3    3    0  502 -0.45604983765E+02  0.43120836872E+02  0.11786241241E+03  0.13361459268E+03  0.47000000000E+01 0.  1.
<mgrwt>
<rscale>  0 0.10197362E+03</rscale>
<asrwt>0</asrwt>
<pdfrwt beam="1">  1        2 0.57898040E-01 0.10275367E+03</pdfrwt>
<pdfrwt beam="2">  1       -2 0.47916123E-02 0.10275367E+03</pdfrwt>
<totfact> 0.16353109E+04</totfact>
</mgrwt>
</event>
<event>
 8    1  0.3466492E-004  0.9469054E+02  0.7546771E-02  0.1300048E+00
         -1   -1    0    0    0  501 -0.00000000000E+00  0.00000000000E+00  0.30498649895E+03  0.30498649895E+03  0.00000000000E+00 0.  1.
          1   -1    0    0  501    0  0.00000000000E+00 -0.00000000000E+00 -0.12047782696E+03  0.12047782696E+03  0.00000000000E+00 0. -1.
         23    2    1    2    0    0 -0.69941187823E+00  0.21382529507E+02  0.27964145209E+03  0.29123860243E+03  0.78504013109E+02 0.  0.
         23    2    1    2    0    0  0.69941187823E+00 -0.21382529507E+02 -0.95132780097E+02  0.13422572349E+03  0.92242057930E+02 0.  0.
          5    1    3    3  502    0  0.26764681026E+02 -0.17917018302E+02  0.95254724659E+02  0.10066240741E+03  0.47000000000E+01 0. -1.
         -5    1    4    4    0  503  0.45302568431E+02 -0.67339734077E+01 -0.35231250198E+02  0.57974132980E+02  0.47000000000E+01 0.  1.
          5    1    4    4  503    0 -0.44603156553E+02 -0.14648556099E+02 -0.59901529899E+02  0.76251590505E+02  0.47000000000E+01 0. -1.
         -5    1    3    3    0  502 -0.27464092904E+02  0.39299547809E+02  0.18438672743E+03  0.19057619502E+03  0.47000000000E+01 0.  1.
<mgrwt>
<rscale>  0 0.91167905E+02</rscale>
<asrwt>0</asrwt>
<pdfrwt beam="1">  1        1 0.18535050E-01 0.94690543E+02</pdfrwt>
<pdfrwt beam="2">  1       -1 0.46921000E-01 0.94690543E+02</pdfrwt>
<totfact> 0.12671359E+03</totfact>
</mgrwt>
</event>
<event>
 8    1  0.3466492E-004  0.9707325E+02  0.7546771E-02  0.1286619E+00
         -1   -1    0    0    0  501 -0.00000000000E+00  0.00000000000E+00  0.14010723799E+02  0.14010723799E+02  0.00000000000E+00 0.  1.
          1   -1    0    0  501    0  0.00000000000E+00 -0.00000000000E+00 -0.90666741633E+03  0.90666741633E+03  0.00000000000E+00 0. -1.
         23    2    1    2    0    0 -0.50289955554E+01 -0.41912068106E+02 -0.68038479908E+03  0.68726311953E+03  0.87322439264E+02 0.  0.
         23    2    1    2    0    0  0.50289955554E+01  0.41912068106E+02 -0.21227189346E+03  0.23341502060E+03  0.87414545943E+02 0.  0.
          5    1    3    3  502    0  0.33221250126E+02  0.59861595810E+01 -0.30194856486E+03  0.30386594312E+03  0.47000000000E+01 0. -1.
         -5    1    3    3    0  502 -0.38250245681E+02 -0.47898227687E+02 -0.37843623422E+03  0.38339717641E+03  0.47000000000E+01 0.  1.
          5    1    4    4  503    0  0.43808507357E+02  0.32081686742E+02 -0.14624447728E+03  0.15607035937E+03  0.47000000000E+01 0. -1.
         -5    1    4    4    0  503 -0.38779511802E+02  0.98303813635E+01 -0.66027416182E+02  0.77344661231E+02  0.47000000000E+01 0.  1.
<mgrwt>
<rscale>  0 0.97052506E+02</rscale>
<asrwt>0</asrwt>
<pdfrwt beam="1">  1        1 0.13948728E+00 0.97073246E+02</pdfrwt>
<pdfrwt beam="2">  1       -1 0.21554962E-02 0.97073246E+02</pdfrwt>
<totfact> 0.10890549E+04</totfact>
</mgrwt>
</event>
<event>
 8    1  0.3466492E-004  0.1097127E+03  0.7546771E-02  0.1264737E+00
         -2   -1    0    0    0  501 -0.00000000000E+00  0.00000000000E+00  0.79310472677E+02  0.79310472677E+02  0.00000000000E+00 0.  1.
          2   -1    0    0  501    0  0.00000000000E+00 -0.00000000000E+00 -0.14451344737E+03  0.14451344737E+03  0.00000000000E+00 0. -1.
         23    2    1    2    0    0  0.31390682782E+02 -0.22157144908E+02 -0.49797123660E+02  0.12048499140E+03  0.10276461255E+03 0.  0.
         23    2    1    2    0    0 -0.31390682782E+02  0.22157144908E+02 -0.15405851034E+02  0.10333892865E+03  0.94685161943E+02 0.  0.
          5    1    4    4  502    0 -0.36958854103E+02  0.47459910950E+02 -0.35689109370E+02  0.70101373535E+02  0.47000000000E+01 0. -1.
         -5    1    4    4    0  502  0.55681713207E+01 -0.25302766042E+02  0.20283258335E+02  0.33237555113E+02  0.47000000000E+01 0.  1.
          5    1    3    3  503    0  0.41346412789E+02  0.16024341218E+02 -0.64244347494E+02  0.78203142820E+02  0.47000000000E+01 0. -1.
         -5    1    3    3    0  503 -0.99557300073E+01 -0.38181486127E+02  0.14447223834E+02  0.42281848580E+02  0.47000000000E+01 0.  1.
<mgrwt>
<rscale>  0 0.10778010E+03</rscale>
<asrwt>0</asrwt>
<pdfrwt beam="1">  1        2 0.22232838E-01 0.10971271E+03</pdfrwt>
<pdfrwt beam="2">  1       -2 0.12201611E-01 0.10971271E+03</pdfrwt>
<totfact> 0.10909570E+04</totfact>
</mgrwt>
</event>
<event>
 8    1  0.3466492E-004  0.9873693E+02  0.7546771E-02  0.1285244E+00
          1   -1    0    0  501    0  0.00000000000E+00  0.00000000000E+00  0.33559145733E+03  0.33559145733E+03  0.00000000000E+00 0. -1.
         -1   -1    0    0    0  501 -0.00000000000E+00 -0.00000000000E+00 -0.28142747335E+02  0.28142747335E+02  0.00000000000E+00 0.  1.
         23    2    1    2    0    0 -0.10760677870E+02 -0.18674524903E+02  0.13821420164E+03  0.16985919647E+03  0.96355856180E+02 0.  0.
         23    2    1    2    0    0  0.10760677870E+02  0.18674524903E+02  0.16923450836E+03  0.19387500820E+03  0.92101411053E+02 0.  0.
          5    1    3    3  502    0 -0.12152886951E+02  0.32166144601E+02  0.17678532072E+02  0.38948350619E+02  0.47000000000E+01 0. -1.
         -5    1    3    3    0  502  0.13922090811E+01 -0.50840669504E+02  0.12053566957E+03  0.13091084585E+03  0.47000000000E+01 0.  1.
          5    1    4    4  503    0 -0.22100799072E+02  0.44893590196E+02  0.11148390502E+03  0.12228912804E+03  0.47000000000E+01 0. -1.
         -5    1    4    4    0  503  0.32861476942E+02 -0.26219065294E+02  0.57750603342E+02  0.71585880158E+02  0.47000000000E+01 0.  1.
<mgrwt>
<rscale>  0 0.97683363E+02</rscale>
<asrwt>0</asrwt>
<pdfrwt beam="1">  1        1 0.51629452E-01 0.98736929E+02</pdfrwt>
<pdfrwt beam="2">  1       -1 0.43296537E-02 0.98736929E+02</pdfrwt>
<totfact> 0.15147076E+04</totfact>
</mgrwt>
</event>
<event>
 8    1  0.3466492E-004  0.1099728E+03  0.7546771E-02  0.1264269E+00
          2   -1    0    0  501    0  0.00000000000E+00  0.00000000000E+00  0.32065652338E+03  0.32065652338E+03  0.00000000000E+00 0. -1.
         -2   -1    0    0    0  501 -0.00000000000E+00 -0.00000000000E+00 -0.68518828595E+02  0.68518828595E+02  0.00000000000E+00 0.  1.
         23    2    1    2    0    0  0.35315488744E+02  0.30975090768E+02 -0.73483849207E+01  0.11021805342E+03  0.99435308339E+02 0.  0.
         23    2    1    2    0    0 -0.35315488744E+02 -0.30975090768E+02  0.25948607971E+03  0.27895729856E+03  0.90980815917E+02 0.  0.
          5    1    3    3  502    0 -0.24330779707E+02 -0.12003726041E+02  0.17320629282E+02  0.32529532409E+02  0.47000000000E+01 0. -1.
         -5    1    3    3    0  502  0.59646268451E+02  0.42978816809E+02 -0.24669014203E+02  0.77688521007E+02  0.47000000000E+01 0.  1.
          5    1    4    4  503    0 -0.12330898050E+02  0.31050715245E+02  0.11751278984E+03  0.12226014779E+03  0.47000000000E+01 0. -1.
         -5    1    4    4    0  503 -0.22984590694E+02 -0.62025806013E+02  0.14197328987E+03  0.15669715077E+03  0.47000000000E+01 0.  1.
<mgrwt>
<rscale>  0 0.10802659E+03</rscale>
<asrwt>0</asrwt>
<pdfrwt beam="1">  1        2 0.49331772E-01 0.10997282E+03</pdfrwt>
<pdfrwt beam="2">  1       -2 0.10541358E-01 0.10997282E+03</pdfrwt>
<totfact> 0.58506435E+03</totfact>
</mgrwt>
</event>
<event>
 8    1  0.3466492E-004  0.1058391E+03  0.7546771E-02  0.1268818E+00
          1   -1    0    0  501    0  0.00000000000E+00  0.00000000000E+00  0.26657633784E+03  0.26657633784E+03  0.00000000000E+00 0. -1.
         -1   -1    0    0    0  501 -0.00000000000E+00 -0.00000000000E+00 -0.41744683116E+02  0.41744683116E+02  0.00000000000E+00 0.  1.
         23    2    1    2    0    0  0.52240932591E+02  0.22910364079E+01  0.11278160309E+03  0.15418756802E+03  0.91212675936E+02 0.  0.
         23    2    1    2    0    0 -0.52240932591E+02 -0.22910364079E+01  0.11205005163E+03  0.15413345293E+03  0.92019255354E+02 0.  0.
          5    1    4    4  502    0  0.18507375886E+01 -0.23237412071E+02  0.88012960277E+02  0.91168929610E+02  0.47000000000E+01 0. -1.
         -5    1    3    3    0  503  0.33851634543E+02  0.27551344610E+02  0.11441637764E+03  0.12254879528E+03  0.47000000000E+01 0.  1.
          5    1    3    3  503    0  0.18389298049E+02 -0.25260308202E+02 -0.16347745494E+01  0.31638772748E+02  0.47000000000E+01 0. -1.
         -5    1    4    4    0  502 -0.54091670180E+02  0.20946375663E+02  0.24037091353E+02  0.62964523321E+02  0.47000000000E+01 0.  1.
<mgrwt>
<rscale>  0 0.10566350E+03</rscale>
<asrwt>0</asrwt>
<pdfrwt beam="1">  1        1 0.41011743E-01 0.10583906E+03</pdfrwt>
<pdfrwt beam="2">  1       -1 0.64222591E-02 0.10583906E+03</pdfrwt>
<totfact> 0.11319165E+04</totfact>
</mgrwt>
</event>
<event>
 8    1  0.3466492E-004  0.9695865E+02  0.7546771E-02  0.1287271E+00
         -1   -1    0    0    0  501 -0.00000000000E+00  0.00000000000E+00  0.28276006194E+02  0.28276006194E+02  0.00000000000E+00 0.  1.
          1   -1    0    0  501    0  0.00000000000E+00 -0.00000000000E+00 -0.36620926437E+03  0.36620926437E+03  0.00000000000E+00 0. -1.
         23    2    1    2    0    0  0.44258545705E+01  0.33786666513E+02 -0.23061017331E+03  0.24985047569E+03  0.89905957244E+02 0.  0.
         23    2    1    2    0    0 -0.44258545705E+01 -0.33786666513E+02 -0.10732308487E+03  0.14463479487E+03  0.90773632291E+02 0.  0.
          5    1    3    3  502    0 -0.15724644737E+02  0.56926657064E+02 -0.10601061923E+03  0.12144237369E+03  0.47000000000E+01 0. -1.
         -5    1    4    4    0  503 -0.44920647349E+02 -0.25743271710E+02 -0.40308891246E+02  0.65783564134E+02  0.47000000000E+01 0.  1.
          5    1    4    4  503    0  0.40494792779E+02 -0.80433948026E+01 -0.67014193622E+02  0.78851230739E+02  0.47000000000E+01 0. -1.
         -5    1    3    3    0  502  0.20150499307E+02 -0.23139990551E+02 -0.12459955408E+03  0.12840810201E+03  0.47000000000E+01 0.  1.
<mgrwt>
<rscale>  0 0.96755047E+02</rscale>
<asrwt>0</asrwt>
<pdfrwt beam="1">  1        1 0.56339884E-01 0.96958648E+02</pdfrwt>
<pdfrwt beam="2">  1       -1 0.43501550E-02 0.96958648E+02</pdfrwt>
<totfact> 0.13484168E+04</totfact>
</mgrwt>
</event>
<event>
 8    1  0.3466492E-004  0.9690094E+02  0.7546771E-02  0.1289226E+00
         -2   -1    0    0    0  501 -0.00000000000E+00  0.00000000000E+00  0.41650357205E+02  0.41650357205E+02  0.00000000000E+00 0.  1.
          2   -1    0    0  501    0  0.00000000000E+00 -0.00000000000E+00 -0.30709164755E+03  0.30709164755E+03  0.00000000000E+00 0. -1.
         23    2    1    2    0    0 -0.18826127803E+02 -0.70128008445E+01 -0.22562068725E+03  0.24397811251E+03  0.90647793147E+02 0.  0.
         23    2    1    2    0    0  0.18826127803E+02  0.70128008445E+01 -0.39820603093E+02  0.10476389225E+03  0.94795517955E+02 0.  0.
          5    1    3    3  502    0  0.30537002753E+02  0.15736312718E+02 -0.56652930297E+02  0.66421266070E+02  0.47000000000E+01 0. -1.
         -5    1    3    3    0  502 -0.49363130556E+02 -0.22749113562E+02 -0.16896775695E+03  0.17755684644E+03  0.47000000000E+01 0.  1.
          5    1    4    4  503    0  0.51928956663E+02  0.24249864103E+02 -0.14140515642E+02  0.59217536523E+02  0.47000000000E+01 0. -1.
         -5    1    4    4    0  503 -0.33102828860E+02 -0.17237063259E+02 -0.25680087451E+02  0.45546355725E+02  0.47000000000E+01 0.  1.
<mgrwt>
<rscale>  0 0.95871240E+02</rscale>
<asrwt>0</asrwt>
<pdfrwt beam="1">  1        2 0.47244869E-01 0.96900943E+02</pdfrwt>
<pdfrwt beam="2">  1       -2 0.64077473E-02 0.96900943E+02</pdfrwt>
<totfact> 0.13030574E+04</totfact>
</mgrwt>
</event>
<event>
 8    1  0.3466492E-004  0.9566378E+02  0.7546771E-02  0.1291507E+00
          2   -1    0    0  501    0  0.00000000000E+00  0.00000000000E+00  0.21577604429E+03  0.21577604429E+03  0.00000000000E+00 0. -1.
         -2   -1    0    0    0  501 -0.00000000000E+00 -0.00000000000E+00 -0.48028389723E+02  0.48028389723E+02  0.00000000000E+00 0.  1.
         23    2    1    2    0    0  0.19678023637E+02 -0.35747723680E+01  0.13308868544E+03  0.16205570800E+03  0.90274308022E+02 0.  0.
         23    2    1    2    0    0 -0.19678023637E+02  0.35747723680E+01  0.34658969124E+02  0.10174872602E+03  0.93549748765E+02 0.  0.
          5    1    3    3  502    0 -0.10253632132E+02  0.38775880438E+02  0.59148399307E+02  0.71619334095E+02  0.47000000000E+01 0. -1.
         -5    1    4    4    0  503 -0.67441048811E+01 -0.44669058827E+02  0.14438308473E+02  0.47658813652E+02  0.47000000000E+01 0.  1.
          5    1    4    4  503    0 -0.12933918756E+02  0.48243831195E+02  0.20220660651E+02  0.54089912367E+02  0.47000000000E+01 0. -1.
         -5    1    3    3    0  502  0.29931655769E+02 -0.42350652806E+02  0.73940286137E+02  0.90436373900E+02  0.47000000000E+01 0.  1.
<mgrwt>
<rscale>  0 0.94853412E+02</rscale>
<asrwt>0</asrwt>
<pdfrwt beam="1">  1        2 0.33196314E-01 0.95663782E+02</pdfrwt>
<pdfrwt beam="2">  1       -2 0.73889832E-02 0.95663782E+02</pdfrwt>
<totfact> 0.15205173E+04</totfact>
</mgrwt>
</event>
<event>
 8    1  0.3466492E-004  0.1049037E+03  0.7546771E-02  0.1271063E+00
          1   -1    0    0  501    0  0.00000000000E+00  0.00000000000E+00  0.41207856423E+03  0.41207856423E+03  0.00000000000E+00 0. -1.
         -1   -1    0    0    0  501 -0.00000000000E+00 -0.00000000000E+00 -0.30497192450E+02  0.30497192450E+02  0.00000000000E+00 0.  1.
         23    2    1    2    0    0 -0.41475991956E+02  0.26975148380E+02  0.10770834054E+03  0.14929906030E+03  0.90781089694E+02 0.  0.
         23    2    1    2    0    0  0.41475991956E+02 -0.26975148380E+02  0.27387303124E+03  0.29327669638E+03  0.92503334315E+02 0.  0.
          5    1    3    3  502    0 -0.30709537882E+02 -0.11005692955E+02  0.10431548271E+03  0.10939840459E+03  0.47000000000E+01 0. -1.
         -5    1    3    3    0  502 -0.10766454074E+02  0.37980841335E+02  0.33928578311E+01  0.39900655710E+02  0.47000000000E+01 0.  1.
          5    1    4    4  503    0  0.67979245004E+02 -0.33597287696E+02  0.17947786583E+03  0.19489574089E+03  0.47000000000E+01 0. -1.
         -5    1    4    4    0  503 -0.26503253048E+02  0.66221393166E+01  0.94395165411E+02  0.98380955496E+02  0.47000000000E+01 0.  1.
<mgrwt>
<rscale>  0 0.10452275E+03</rscale>
<asrwt>0</asrwt>
<pdfrwt beam="1">  1        1 0.63396698E-01 0.10490369E+03</pdfrwt>
<pdfrwt beam="2">  1       -1 0.46918761E-02 0.10490369E+03</pdfrwt>
<totfact> 0.10495029E+04</totfact>
</mgrwt>
</event>
<event>
 8    1  0.3466492E-004  0.9825946E+02  0.7546771E-02  0.1284304E+00
         -3   -1    0    0    0  501 -0.00000000000E+00  0.00000000000E+00  0.13913180941E+03  0.13913180941E+03  0.00000000000E+00 0.  1.
          3   -1    0    0  501    0  0.00000000000E+00 -0.00000000000E+00 -0.11233091502E+03  0.11233091502E+03  0.00000000000E+00 0. -1.
         23    2    1    2    0    0  0.24117960685E+02 -0.30893944997E+02 -0.64668445528E+02  0.11763047382E+03  0.90104431959E+02 0.  0.
         23    2    1    2    0    0 -0.24117960685E+02  0.30893944997E+02  0.91469339916E+02  0.13383225062E+03  0.89489213295E+02 0.  0.
          5    1    3    3  502    0  0.35996378176E+02 -0.55196612224E+02 -0.61021161751E+02  0.89933739076E+02  0.47000000000E+01 0. -1.
         -5    1    4    4    0  503  0.12916198104E+02  0.51793031693E+02  0.61646382848E+02  0.81680553522E+02  0.47000000000E+01 0.  1.
          5    1    4    4  503    0 -0.37034158788E+02 -0.20899086696E+02  0.29822957067E+02  0.52151697097E+02  0.47000000000E+01 0. -1.
         -5    1    3    3    0  502 -0.11878417492E+02  0.24302667227E+02 -0.36472837768E+01  0.27696734742E+02  0.47000000000E+01 0.  1.
<mgrwt>
<rscale>  0 0.98118188E+02</rscale>
<asrwt>0</asrwt>
<pdfrwt beam="1">  1        3 0.17281679E-01 0.98259455E+02</pdfrwt>
<pdfrwt beam="2">  1       -3 0.21404894E-01 0.98259455E+02</pdfrwt>
<totfact> 0.12550023E+03</totfact>
</mgrwt>
</event>
<event>
 8    1  0.3466492E-004  0.9466600E+02  0.7546771E-02  0.1296890E+00
         -2   -1    0    0    0  501 -0.00000000000E+00  0.00000000000E+00  0.80902980227E+02  0.80902980227E+02  0.00000000000E+00 0.  1.
          2   -1    0    0  501    0  0.00000000000E+00 -0.00000000000E+00 -0.12220257391E+03  0.12220257391E+03  0.00000000000E+00 0. -1.
         23    2    1    2    0    0  0.24477304964E+02  0.12387409116E+02 -0.61901630765E+02  0.10622369149E+03  0.81847873397E+02 0.  0.
         23    2    1    2    0    0 -0.24477304964E+02 -0.12387409116E+02  0.20602037079E+02  0.96881862651E+02  0.90603890733E+02 0.  0.
          5    1    3    3  502    0 -0.23957107430E+02  0.88732493486E+01  0.17379547280E+01  0.26034362621E+02  0.47000000000E+01 0. -1.
         -5    1    3    3    0  502  0.48434412394E+02  0.35141597674E+01 -0.63639585493E+02  0.80189328869E+02  0.47000000000E+01 0.  1.
          5    1    4    4  503    0 -0.15129998148E+02  0.21204311518E+02 -0.26919833672E+02  0.37753239806E+02  0.47000000000E+01 0. -1.
         -5    1    4    4    0  503 -0.93473068161E+01 -0.33591720634E+02  0.47521870751E+02  0.59128622845E+02  0.47000000000E+01 0.  1.
<mgrwt>
<rscale>  0 0.92507544E+02</rscale>
<asrwt>0</asrwt>
<pdfrwt beam="1">  1        2 0.18800396E-01 0.94665999E+02</pdfrwt>
<pdfrwt beam="2">  1       -2 0.12446612E-01 0.94665999E+02</pdfrwt>
<totfact> 0.12575558E+04</totfact>
</mgrwt>
</event>
<event>
 8    1  0.3466492E-004  0.1067901E+03  0.7546771E-02  0.1269476E+00
         -1   -1    0    0    0  501 -0.00000000000E+00  0.00000000000E+00  0.34564268436E+03  0.34564268436E+03  0.00000000000E+00 0.  1.
          1   -1    0    0  501    0  0.00000000000E+00 -0.00000000000E+00 -0.32793191689E+02  0.32793191689E+02  0.00000000000E+00 0. -1.
         23    2    1    2    0    0  0.88198035410E+01  0.58311574663E+02  0.11123962643E+03  0.15028973918E+03  0.82065355287E+02 0.  0.
         23    2    1    2    0    0 -0.88198035410E+01 -0.58311574663E+02  0.20160986624E+03  0.22814613688E+03  0.89028607375E+02 0.  0.
          5    1    4    4  502    0  0.65399182327E+01  0.22731072865E+02  0.48680914564E+02  0.54326730501E+02  0.47000000000E+01 0. -1.
         -5    1    4    4    0  502 -0.15359721774E+02 -0.81042647529E+02  0.15292895168E+03  0.17381940638E+03  0.47000000000E+01 0.  1.
          5    1    3    3  503    0 -0.12218168581E+02  0.65156730660E+02  0.44910450834E+02  0.80210484276E+02  0.47000000000E+01 0. -1.
         -5    1    3    3    0  503  0.21037972122E+02 -0.68451559963E+01  0.66329175599E+02  0.70079254900E+02  0.47000000000E+01 0.  1.
<mgrwt>
<rscale>  0 0.10532732E+03</rscale>
<asrwt>0</asrwt>
<pdfrwt beam="1">  1        1 0.50451067E-02 0.10679008E+03</pdfrwt>
<pdfrwt beam="2">  1       -1 0.53175795E-01 0.10679008E+03</pdfrwt>
<totfact> 0.56235223E+03</totfact>
</mgrwt>
</event>
<event>
 8    1  0.3466492E-004  0.1500444E+03  0.7546771E-02  0.1200481E+00
          1   -1    0    0  501    0  0.00000000000E+00  0.00000000000E+00  0.17698352249E+03  0.17698352249E+03  0.00000000000E+00 0. -1.
         -1   -1    0    0    0  501 -0.00000000000E+00 -0.00000000000E+00 -0.15640899222E+03  0.15640899222E+03  0.00000000000E+00 0.  1.
         23    2    1    2    0    0  0.93566485568E+02 -0.71591850539E+02 -0.61959090283E+02  0.16214668898E+03  0.92588009982E+02 0.  0.
         23    2    1    2    0    0 -0.93566485568E+02  0.71591850539E+02  0.82533620552E+02  0.17124582572E+03  0.92915305637E+02 0.  0.
          5    1    4    4  502    0 -0.72711928551E+02  0.34317513273E+01  0.64973011371E+02  0.97685125159E+02  0.47000000000E+01 0. -1.
         -5    1    3    3    0  503  0.29143353951E+02  0.70081441405E+00 -0.58041478406E+02  0.65120883255E+02  0.47000000000E+01 0.  1.
          5    1    3    3  503    0  0.64423131617E+02 -0.72292664953E+02 -0.39176118775E+01  0.97025805723E+02  0.47000000000E+01 0. -1.
         -5    1    4    4    0  502 -0.20854557017E+02  0.68160099211E+02  0.17560609181E+02  0.73560700566E+02  0.47000000000E+01 0.  1.
<mgrwt>
<rscale>  0 0.14999380E+03</rscale>
<asrwt>0</asrwt>
<pdfrwt beam="1">  1        1 0.27228234E-01 0.15004444E+03</pdfrwt>
<pdfrwt beam="2">  1       -1 0.24062922E-01 0.15004444E+03</pdfrwt>
<totfact> 0.24815232E+03</totfact>
</mgrwt>
</event>
<event>
 8    1  0.3466492E-004  0.1063553E+03  0.7546771E-02  0.1268484E+00
          1   -1    0    0  501    0  0.00000000000E+00  0.00000000000E+00  0.92872595625E+02  0.92872595625E+02  0.00000000000E+00 0. -1.
         -1   -1    0    0    0  501 -0.00000000000E+00 -0.00000000000E+00 -0.12114942002E+03  0.12114942002E+03  0.00000000000E+00 0.  1.
         23    2    1    2    0    0  0.28009196672E+02 -0.43490807289E+02 -0.26714010726E+02  0.10765522319E+03  0.90554090433E+02 0.  0.
         23    2    1    2    0    0 -0.28009196672E+02  0.43490807289E+02 -0.15628136663E+01  0.10636679245E+03  0.92927319627E+02 0.  0.
          5    1    3    3  502    0  0.18503625454E+02  0.23366084708E+02  0.85042345345E+01  0.31349163857E+02  0.47000000000E+01 0. -1.
         -5    1    4    4    0  503 -0.52991872284E+02  0.30635712476E+02 -0.28026141499E+02  0.67485109575E+02  0.47000000000E+01 0.  1.
          5    1    4    4  503    0  0.24982675612E+02  0.12855094813E+02  0.26463327832E+02  0.38881682877E+02  0.47000000000E+01 0. -1.
         -5    1    3    3    0  502  0.95055712180E+01 -0.66856891997E+02 -0.35218245260E+02  0.76306059333E+02  0.47000000000E+01 0.  1.
<mgrwt>
<rscale>  0 0.10583470E+03</rscale>
<asrwt>0</asrwt>
<pdfrwt beam="1">  1        1 0.14288092E-01 0.10635531E+03</pdfrwt>
<pdfrwt beam="2">  1       -1 0.18638372E-01 0.10635531E+03</pdfrwt>
<totfact> 0.83166299E+03</totfact>
</mgrwt>
</event>
<event>
 8    1  0.3466492E-004  0.9978022E+02  0.7546771E-02  0.1285410E+00
          2   -1    0    0  501    0  0.00000000000E+00  0.00000000000E+00  0.49617900784E+03  0.49617900784E+03  0.00000000000E+00 0. -1.
         -2   -1    0    0    0  501 -0.00000000000E+00 -0.00000000000E+00 -0.19773408671E+02  0.19773408671E+02  0.00000000000E+00 0.  1.
         23    2    1    2    0    0  0.42679341160E+02  0.85311217951E+00  0.18026678579E+03  0.20603932985E+03  0.90187789771E+02 0.  0.
         23    2    1    2    0    0 -0.42679341160E+02 -0.85311217951E+00  0.29613881338E+03  0.30991308666E+03  0.80781622489E+02 0.  0.
          5    1    3    3  502    0 -0.24608181524E+02 -0.13334222844E+02  0.75238397387E+02  0.80413124166E+02  0.47000000000E+01 0. -1.
         -5    1    3    3    0  502  0.67287522684E+02  0.14187335024E+02  0.10502838841E+03  0.12562620569E+03  0.47000000000E+01 0.  1.
          5    1    4    4  503    0 -0.11975852052E+01  0.33677549791E+02  0.77108292666E+02  0.84281613464E+02  0.47000000000E+01 0. -1.
         -5    1    4    4    0  503 -0.41481755955E+02 -0.34530661971E+02  0.21903052071E+03  0.22563147319E+03  0.47000000000E+01 0.  1.
<mgrwt>
<rscale>  0 0.97606927E+02</rscale>
<asrwt>0</asrwt>
<pdfrwt beam="1">  1        2 0.76335223E-01 0.99780215E+02</pdfrwt>
<pdfrwt beam="2">  1       -2 0.30420632E-02 0.99780215E+02</pdfrwt>
<totfact> 0.23705475E+04</totfact>
</mgrwt>
</event>
<event>
 8    1  0.3466492E-004  0.1561710E+03  0.7546771E-02  0.1193482E+00
          1   -1    0    0  501    0  0.00000000000E+00  0.00000000000E+00  0.67757730680E+03  0.67757730680E+03  0.00000000000E+00 0. -1.
         -1   -1    0    0    0  501 -0.00000000000E+00 -0.00000000000E+00 -0.15100842723E+03  0.15100842723E+03  0.00000000000E+00 0.  1.
         23    2    1    2    0    0  0.69349145376E+02 -0.10622614394E+03 -0.98492044878E+02  0.18463492049E+03  0.91082782885E+02 0.  0.
         23    2    1    2    0    0 -0.69349145376E+02  0.10622614394E+03  0.62506092444E+03  0.64395081354E+03  0.88759187554E+02 0.  0.
          5    1    4    4  502    0 -0.37470251644E+02  0.10169994587E+03  0.56796940490E+03  0.57823717768E+03  0.47000000000E+01 0. -1.
         -5    1    3    3    0  503  0.49041818088E+02 -0.10089258062E+03 -0.11251471641E+03  0.15895302500E+03  0.47000000000E+01 0.  1.
          5    1    3    3  503    0  0.20307327287E+02 -0.53335633168E+01  0.14022671531E+02  0.25681895492E+02  0.47000000000E+01 0. -1.
         -5    1    4    4    0  502 -0.31878893732E+02  0.45261980714E+01  0.57091519540E+02  0.65713635860E+02  0.47000000000E+01 0.  1.
<mgrwt>
<rscale>  0 0.15583396E+03</rscale>
<asrwt>0</asrwt>
<pdfrwt beam="1">  1        1 0.10424266E+00 0.15617097E+03</pdfrwt>
<pdfrwt beam="2">  1       -1 0.23232066E-01 0.15617097E+03</pdfrwt>
<totfact> 0.47249672E+02</totfact>
</mgrwt>
</event>
<event>
 8    1  0.3466492E-004  0.9333447E+02  0.7546771E-02  0.1295826E+00
         -2   -1    0    0    0  501 -0.00000000000E+00  0.00000000000E+00  0.78887262622E+02  0.78887262622E+02  0.00000000000E+00 0.  1.
          2   -1    0    0  501    0  0.00000000000E+00 -0.00000000000E+00 -0.46118253535E+03  0.46118253535E+03  0.00000000000E+00 0. -1.
         23    2    1    2    0    0  0.10321630001E+02 -0.14306740876E+02 -0.42686587612E+03  0.43663932914E+03  0.90156578702E+02 0.  0.
         23    2    1    2    0    0 -0.10321630001E+02  0.14306740876E+02  0.44570603391E+02  0.10343046882E+03  0.91652082978E+02 0.  0.
          5    1    4    4  502    0 -0.32787229992E+02  0.17561241991E+02 -0.14327657872E+02  0.40134417286E+02  0.47000000000E+01 0. -1.
         -5    1    4    4    0  502  0.22465599991E+02 -0.32545011148E+01  0.58898261263E+02  0.63296051538E+02  0.47000000000E+01 0.  1.
          5    1    3    3  503    0 -0.32395098512E+02  0.44702412751E+01 -0.29177624549E+03  0.29364075482E+03  0.47000000000E+01 0. -1.
         -5    1    3    3    0  503  0.42716728513E+02 -0.18776982152E+02 -0.13508963063E+03  0.14299857432E+03  0.47000000000E+01 0.  1.
<mgrwt>
<rscale>  0 0.92965256E+02</rscale>
<asrwt>0</asrwt>
<pdfrwt beam="1">  1        2 0.70951161E-01 0.93334469E+02</pdfrwt>
<pdfrwt beam="2">  1       -2 0.12136502E-01 0.93334469E+02</pdfrwt>
<totfact> 0.31604943E+03</totfact>
</mgrwt>
</event>
<event>
 8    1  0.3466492E-004  0.1055392E+03  0.7546771E-02  0.1269246E+00
         -2   -1    0    0    0  501 -0.00000000000E+00  0.00000000000E+00  0.99409689038E+02  0.99409689038E+02  0.00000000000E+00 0.  1.
          2   -1    0    0  501    0  0.00000000000E+00 -0.00000000000E+00 -0.11256196114E+03  0.11256196114E+03  0.00000000000E+00 0. -1.
         23    2    1    2    0    0 -0.48627723673E+02  0.20766117223E+02  0.29970923051E+01  0.10520402481E+03  0.90901139372E+02 0.  0.
         23    2    1    2    0    0  0.48627723673E+02 -0.20766117223E+02 -0.16149364409E+02  0.10676762537E+03  0.91338035465E+02 0.  0.
          5    1    4    4  502    0  0.29650942276E+02  0.34668050136E+02 -0.13993749420E+02  0.47947545306E+02  0.47000000000E+01 0.  1.
         -5    1    4    4    0  502  0.18976781397E+02 -0.55434167359E+02 -0.21556149892E+01  0.58820080066E+02  0.47000000000E+01 0. -1.
          5    1    3    3  503    0 -0.21381614918E+02  0.12142658794E+02 -0.43637158752E+02  0.50308142910E+02  0.47000000000E+01 0. -1.
         -5    1    3    3    0  503 -0.27246108755E+02  0.86234584293E+01  0.46634251057E+02  0.54895881897E+02  0.47000000000E+01 0.  1.
<mgrwt>
<rscale>  0 0.10544461E+03</rscale>
<asrwt>0</asrwt>
<pdfrwt beam="1">  1        2 0.17317225E-01 0.10553921E+03</pdfrwt>
<pdfrwt beam="2">  1       -2 0.15293798E-01 0.10553921E+03</pdfrwt>
<totfact> 0.10014120E+04</totfact>
</mgrwt>
</event>
<event>
 8    1  0.3466492E-004  0.9846419E+02  0.7546771E-02  0.1284923E+00
         -3   -1    0    0    0  501 -0.00000000000E+00  0.00000000000E+00  0.39009855918E+03  0.39009855918E+03  0.00000000000E+00 0.  1.
          3   -1    0    0  501    0  0.00000000000E+00 -0.00000000000E+00 -0.10193190548E+03  0.10193190548E+03  0.00000000000E+00 0. -1.
         23    2    1    2    0    0 -0.38904619803E+01  0.30302676721E+02  0.35932216436E+03  0.37256893818E+03  0.93604529755E+02 0.  0.
         23    2    1    2    0    0  0.38904619803E+01 -0.30302676721E+02 -0.71155510653E+02  0.11946152648E+03  0.90964617850E+02 0.  0.
          5    1    4    4  502    0  0.27285916605E+02  0.31942087289E+00 -0.75480690120E+02  0.80399302581E+02  0.47000000000E+01 0. -1.
         -5    1    4    4    0  502 -0.23395454625E+02 -0.30622097593E+02  0.43251794665E+01  0.39062223894E+02  0.47000000000E+01 0.  1.
          5    1    3    3  503    0 -0.48098018824E+02  0.89841458411E+01  0.17748464231E+03  0.18416574748E+03  0.47000000000E+01 0. -1.
         -5    1    3    3    0  503  0.44207556844E+02  0.21318530879E+02  0.18183752205E+03  0.18840319070E+03  0.47000000000E+01 0.  1.
<mgrwt>
<rscale>  0 0.97831585E+02</rscale>
<asrwt>0</asrwt>
<pdfrwt beam="1">  1        3 0.15681832E-01 0.98464186E+02</pdfrwt>
<pdfrwt beam="2">  1       -3 0.60015162E-01 0.98464186E+02</pdfrwt>
<totfact> 0.21155918E+02</totfact>
</mgrwt>
</event>
<event>
 8    1  0.3466492E-004  0.1045793E+03  0.7546771E-02  0.1271279E+00
         -2   -1    0    0    0  501 -0.00000000000E+00  0.00000000000E+00  0.31283800639E+02  0.31283800639E+02  0.00000000000E+00 0.  1.
          2   -1    0    0  501    0  0.00000000000E+00 -0.00000000000E+00 -0.35787131586E+03  0.35787131586E+03  0.00000000000E+00 0. -1.
         23    2    1    2    0    0 -0.33198562223E+02 -0.35829975384E+02 -0.19608648944E+03  0.22192070825E+03  0.91722176913E+02 0.  0.
         23    2    1    2    0    0  0.33198562223E+02  0.35829975384E+02 -0.13050102578E+03  0.16723440825E+03  0.92471065227E+02 0.  0.
          5    1    4    4  502    0 -0.21636420268E+01  0.54630112084E+02 -0.10779139417E+03  0.12095538496E+03  0.47000000000E+01 0. -1.
         -5    1    3    3    0  503  0.10427711903E+02 -0.50828908825E+02 -0.67767997156E+02  0.85480445638E+02  0.47000000000E+01 0.  1.
          5    1    3    3  503    0 -0.43626274126E+02  0.14998933441E+02 -0.12831849229E+03  0.13644026261E+03  0.47000000000E+01 0. -1.
         -5    1    4    4    0  502  0.35362204250E+02 -0.18800136700E+02 -0.22709631612E+02  0.46279023296E+02  0.47000000000E+01 0.  1.
<mgrwt>
<rscale>  0 0.10441351E+03</rscale>
<asrwt>0</asrwt>
<pdfrwt beam="1">  1        2 0.55057128E-01 0.10457930E+03</pdfrwt>
<pdfrwt beam="2">  1       -2 0.48128922E-02 0.10457930E+03</pdfrwt>
<totfact> 0.17158985E+04</totfact>
</mgrwt>
</event>
<event>
 8    1  0.3466492E-004  0.1424737E+03  0.7546771E-02  0.1218221E+00
          1   -1    0    0  501    0  0.00000000000E+00  0.00000000000E+00  0.62243182070E+02  0.62243182070E+02  0.00000000000E+00 0. -1.
         -1   -1    0    0    0  501 -0.00000000000E+00 -0.00000000000E+00 -0.29507962114E+03  0.29507962114E+03  0.00000000000E+00 0.  1.
         23    2    1    2    0    0 -0.77687330159E+02 -0.66422813528E+02 -0.61999811101E+02  0.13487302914E+03  0.62445544194E+02 0.  0.
         23    2    1    2    0    0  0.77687330159E+02  0.66422813528E+02 -0.17083662797E+03  0.22244977407E+03  0.99254405961E+02 0.  0.
          5    1    4    4  502    0  0.47202831563E+02  0.38438896128E+02 -0.17435954568E+02  0.63496130235E+02  0.47000000000E+01 0. -1.
         -5    1    3    3    0  503 -0.44654981686E+02 -0.16615329849E+01 -0.11976274943E+02  0.46501067114E+02  0.47000000000E+01 0.  1.
          5    1    3    3  503    0 -0.33032348473E+02 -0.64761280543E+02 -0.50023536158E+02  0.88371962030E+02  0.47000000000E+01 0. -1.
         -5    1    4    4    0  502  0.30484498597E+02  0.27983917400E+02 -0.15340067341E+03  0.15895364384E+03  0.47000000000E+01 0.  1.
<mgrwt>
<rscale>  0 0.13642539E+03</rscale>
<asrwt>0</asrwt>
<pdfrwt beam="1">  1        1 0.95758741E-02 0.14247368E+03</pdfrwt>
<pdfrwt beam="2">  1       -1 0.45396865E-01 0.14247368E+03</pdfrwt>
<totfact> 0.32252048E+03</totfact>
</mgrwt>
</event>
<event>
 8    1  0.3466492E-004  0.1356410E+03  0.7546771E-02  0.1219803E+00
         -2   -1    0    0    0  501 -0.00000000000E+00  0.00000000000E+00  0.23366168519E+02  0.23366168519E+02  0.00000000000E+00 0.  1.
          2   -1    0    0  501    0  0.00000000000E+00 -0.00000000000E+00 -0.10197787570E+04  0.10197787570E+04  0.00000000000E+00 0. -1.
         23    2    1    2    0    0  0.97818790434E+02 -0.74236836569E+01 -0.75335128811E+03  0.76546498038E+03  0.93674148217E+02 0.  0.
         23    2    1    2    0    0 -0.97818790434E+02  0.74236836569E+01 -0.24306130041E+03  0.27767994518E+03  0.91671856956E+02 0.  0.
          5    1    4    4  502    0 -0.59134300845E+02 -0.40902296096E+02 -0.13664999714E+03  0.15448357544E+03  0.47000000000E+01 0. -1.
         -5    1    3    3    0  503  0.11623832396E+02  0.18220757487E+02 -0.34406411828E+02  0.40902330714E+02  0.47000000000E+01 0.  1.
          5    1    3    3  503    0  0.86194958038E+02 -0.25644441144E+02 -0.71894487628E+03  0.72456264966E+03  0.47000000000E+01 0. -1.
         -5    1    4    4    0  502 -0.38684489589E+02  0.48325979753E+02 -0.10641130327E+03  0.12319636974E+03  0.47000000000E+01 0.  1.
<mgrwt>
<rscale>  0 0.13529591E+03</rscale>
<asrwt>0</asrwt>
<pdfrwt beam="1">  1        2 0.15688905E+00 0.13564097E+03</pdfrwt>
<pdfrwt beam="2">  1       -2 0.35947950E-02 0.13564097E+03</pdfrwt>
<totfact> 0.79854950E+03</totfact>
</mgrwt>
</event>
<event>
 8    1  0.3466492E-004  0.1592221E+03  0.7546771E-02  0.1189630E+00
          1   -1    0    0  501    0  0.00000000000E+00  0.00000000000E+00  0.70156982308E+02  0.70156982308E+02  0.00000000000E+00 0. -1.
         -1   -1    0    0    0  501 -0.00000000000E+00 -0.00000000000E+00 -0.36211580960E+03  0.36211580960E+03  0.00000000000E+00 0.  1.
         23    2    1    2    0    0 -0.11929788079E+03 -0.53747322598E+02 -0.13359941864E+03  0.20770795353E+03  0.90404813203E+02 0.  0.
         23    2    1    2    0    0  0.11929788079E+03  0.53747322598E+02 -0.15835940865E+03  0.22456483837E+03  0.90724336752E+02 0.  0.
          5    1    3    3  502    0 -0.75444348019E+02 -0.29556425408E+01 -0.24462201073E+02  0.79505186952E+02  0.47000000000E+01 0. -1.
         -5    1    4    4    0  503  0.42433589982E+02  0.53984130515E+02 -0.30445459763E+02  0.75258965754E+02  0.47000000000E+01 0.  1.
          5    1    4    4  503    0  0.76864290811E+02 -0.23680791671E+00 -0.12791394888E+03  0.14930587262E+03  0.47000000000E+01 0. -1.
         -5    1    3    3    0  502 -0.43853532773E+02 -0.50791680057E+02 -0.10913721757E+03  0.12820276658E+03  0.47000000000E+01 0.  1.
<mgrwt>
<rscale>  0 0.15917658E+03</rscale>
<asrwt>0</asrwt>
<pdfrwt beam="1">  1        1 0.10793382E-01 0.15922206E+03</pdfrwt>
<pdfrwt beam="2">  1       -1 0.55710124E-01 0.15922206E+03</pdfrwt>
<totfact> 0.19001394E+03</totfact>
</mgrwt>
</event>
<event>
 8    1  0.3466492E-004  0.1152980E+03  0.7546771E-02  0.1251162E+00
         -2   -1    0    0    0  501 -0.00000000000E+00  0.00000000000E+00  0.37283164937E+02  0.37283164937E+02  0.00000000000E+00 0.  1.
          2   -1    0    0  501    0  0.00000000000E+00 -0.00000000000E+00 -0.47348078755E+03  0.47348078755E+03  0.00000000000E+00 0. -1.
         23    2    1    2    0    0  0.35426609508E+02  0.61135079976E+02 -0.34522874571E+03  0.36390020575E+03  0.90818116101E+02 0.  0.
         23    2    1    2    0    0 -0.35426609508E+02 -0.61135079976E+02 -0.90968876897E+02  0.14686374674E+03  0.91110267678E+02 0.  0.
          5    1    4    4  502    0  0.14612526321E+02 -0.20644782996E+02  0.95225541159E+01  0.27431770401E+02  0.47000000000E+01 0. -1.
         -5    1    4    4    0  502 -0.50039135829E+02 -0.40490296980E+02 -0.10049143101E+03  0.11943197633E+03  0.47000000000E+01 0.  1.
          5    1    3    3  503    0 -0.20017410846E+02  0.49149659750E+02 -0.11503094782E+03  0.12676984952E+03  0.47000000000E+01 0. -1.
         -5    1    3    3    0  503  0.55444020354E+02  0.11985420226E+02 -0.23019779789E+03  0.23713035623E+03  0.47000000000E+01 0.  1.
<mgrwt>
<rscale>  0 0.11524025E+03</rscale>
<asrwt>0</asrwt>
<pdfrwt beam="1">  1        2 0.72843201E-01 0.11529798E+03</pdfrwt>
<pdfrwt beam="2">  1       -2 0.57358713E-02 0.11529798E+03</pdfrwt>
<totfact> 0.98753568E+03</totfact>
</mgrwt>
</event>
<event>
 8    1  0.3466492E-004  0.9155343E+02  0.7546771E-02  0.1300805E+00
         -4   -1    0    0    0  501 -0.00000000000E+00  0.00000000000E+00  0.13482258523E+03  0.13482258523E+03  0.00000000000E+00 0.  1.
          4   -1    0    0  501    0  0.00000000000E+00 -0.00000000000E+00 -0.62617272472E+02  0.62617272472E+02  0.00000000000E+00 0. -1.
         23    2    1    2    0    0  0.58190254727E+01  0.67935949766E+01  0.54563739359E+02  0.10420222335E+03  0.88322634179E+02 0.  0.
         23    2    1    2    0    0 -0.58190254727E+01 -0.67935949766E+01  0.17641573398E+02  0.93237634350E+02  0.91115406804E+02 0.  0.
          5    1    4    4  502    0 -0.16290182336E+02 -0.25962981689E+02 -0.28407913729E+02  0.42054084476E+02  0.47000000000E+01 0. -1.
         -5    1    3    3    0  503  0.37580872968E+02  0.12664510833E+02  0.59018085539E+02  0.71259639828E+02  0.47000000000E+01 0.  1.
          5    1    3    3  503    0 -0.31761847495E+02 -0.58709158564E+01 -0.44543461798E+01  0.32942583523E+02  0.47000000000E+01 0. -1.
         -5    1    4    4    0  502  0.10471156864E+02  0.19169386712E+02  0.46049487127E+02  0.51183549873E+02  0.47000000000E+01 0.  1.
<mgrwt>
<rscale>  0 0.90850635E+02</rscale>
<asrwt>0</asrwt>
<pdfrwt beam="1">  1        4 0.96334266E-02 0.91553434E+02</pdfrwt>
<pdfrwt beam="2">  1       -4 0.20741936E-01 0.91553434E+02</pdfrwt>
<totfact> 0.25378908E+03</totfact>
</mgrwt>
</event>
<event>
 8    1  0.3466492E-004  0.1109898E+03  0.7546771E-02  0.1260332E+00
         -2   -1    0    0    0  501 -0.00000000000E+00  0.00000000000E+00  0.28677009288E+02  0.28677009288E+02  0.00000000000E+00 0.  1.
          2   -1    0    0  501    0  0.00000000000E+00 -0.00000000000E+00 -0.42745175210E+03  0.42745175210E+03  0.00000000000E+00 0. -1.
         23    2    1    2    0    0  0.16854884496E+02 -0.56279902383E+02 -0.16589968276E+03  0.19960319162E+03  0.94165889899E+02 0.  0.
         23    2    1    2    0    0 -0.16854884496E+02  0.56279902383E+02 -0.23287506005E+03  0.25652556977E+03  0.90128018997E+02 0.  0.
          5    1    4    4  502    0 -0.39834274897E+02  0.10766137944E+02 -0.42648649534E+02  0.59528787069E+02  0.47000000000E+01 0.  1.
         -5    1    4    4    0  502  0.22979390400E+02  0.45513764439E+02 -0.19022641051E+03  0.19699678270E+03  0.47000000000E+01 0. -1.
          5    1    3    3  503    0 -0.19391292517E+02 -0.22306516603E+02 -0.14041998673E+03  0.14357390285E+03  0.47000000000E+01 0.  1.
         -5    1    3    3    0  503  0.36246177014E+02 -0.33973385780E+02 -0.25479696035E+02  0.56029288765E+02  0.47000000000E+01 0. -1.
<mgrwt>
<rscale>  0 0.11012866E+03</rscale>
<asrwt>0</asrwt>
<pdfrwt beam="1">  1        2 0.65761806E-01 0.11098977E+03</pdfrwt>
<pdfrwt beam="2">  1       -2 0.44118477E-02 0.11098977E+03</pdfrwt>
<totfact> 0.16268734E+04</totfact>
</mgrwt>
</event>
<event>
 8    1  0.3466492E-004  0.9558369E+02  0.7546771E-02  0.1291641E+00
          2   -1    0    0  501    0  0.00000000000E+00  0.00000000000E+00  0.67641543959E+03  0.67641543959E+03  0.00000000000E+00 0. -1.
         -2   -1    0    0    0  501 -0.00000000000E+00 -0.00000000000E+00 -0.16824912671E+02  0.16824912671E+02  0.00000000000E+00 0.  1.
         23    2    1    2    0    0  0.23417286947E+02  0.20558955019E+01  0.48928457474E+03  0.49794478239E+03  0.89426032018E+02 0.  0.
         23    2    1    2    0    0 -0.23417286947E+02 -0.20558955019E+01  0.17030595218E+03  0.19529556987E+03  0.92647969363E+02 0.  0.
          5    1    3    3  502    0  0.35989160604E+02 -0.33970249132E+02  0.34760574536E+03  0.35114248065E+03  0.47000000000E+01 0. -1.
         -5    1    4    4    0  503  0.34009910771E+02  0.21578529743E+01  0.40010084327E+02  0.52765776863E+02  0.47000000000E+01 0.  1.
          5    1    4    4  503    0 -0.57427197718E+02 -0.42137484762E+01  0.13029586785E+03  0.14252979300E+03  0.47000000000E+01 0. -1.
         -5    1    3    3    0  502 -0.12571873657E+02  0.36026144634E+02  0.14167882937E+03  0.14680230174E+03  0.47000000000E+01 0.  1.
<mgrwt>
<rscale>  0 0.94794065E+02</rscale>
<asrwt>0</asrwt>
<pdfrwt beam="1">  1        2 0.10406389E+00 0.95583692E+02</pdfrwt>
<pdfrwt beam="2">  1       -2 0.25884486E-02 0.95583692E+02</pdfrwt>
<totfact> 0.21125530E+04</totfact>
</mgrwt>
</event>
<event>
 8    1  0.3466492E-004  0.1005718E+03  0.7546771E-02  0.1279111E+00
          2   -1    0    0  501    0  0.00000000000E+00  0.00000000000E+00  0.57110093065E+03  0.57110093065E+03  0.00000000000E+00 0. -1.
         -2   -1    0    0    0  501 -0.00000000000E+00 -0.00000000000E+00 -0.52080464915E+02  0.52080464915E+02  0.00000000000E+00 0.  1.
         23    2    1    2    0    0  0.30275575210E+02  0.30907477481E+02  0.63803612992E+01  0.10077394326E+03  0.90789845309E+02 0.  0.
         23    2    1    2    0    0 -0.30275575210E+02 -0.30907477481E+02  0.51264010444E+03  0.52240745231E+03  0.90762254982E+02 0.  0.
          5    1    3    3  502    0 -0.75797743235E+01  0.28748562072E+02  0.39877364231E+02  0.49962255534E+02  0.47000000000E+01 0. -1.
         -5    1    4    4    0  503  0.19692358195E+02 -0.17553162242E+02  0.48831018172E+02  0.55699737986E+02  0.47000000000E+01 0.  1.
          5    1    4    4  503    0 -0.49967933405E+02 -0.13354315239E+02  0.46380908627E+03  0.46670771432E+03  0.47000000000E+01 0. -1.
         -5    1    3    3    0  502  0.37855349533E+02  0.21589154086E+01 -0.33497002932E+02  0.50811687725E+02  0.47000000000E+01 0.  1.
<mgrwt>
<rscale>  0 0.10056553E+03</rscale>
<asrwt>0</asrwt>
<pdfrwt beam="1">  1        2 0.87861677E-01 0.10057176E+03</pdfrwt>
<pdfrwt beam="2">  1       -2 0.80123796E-02 0.10057176E+03</pdfrwt>
<totfact> 0.47979883E+03</totfact>
</mgrwt>
</event>
<event>
 8    1  0.3466492E-004  0.1262354E+03  0.7546771E-02  0.1233165E+00
          3   -1    0    0  501    0  0.00000000000E+00  0.00000000000E+00  0.58453570980E+02  0.58453570980E+02  0.00000000000E+00 0. -1.
         -3   -1    0    0    0  501 -0.00000000000E+00 -0.00000000000E+00 -0.27306526258E+03  0.27306526258E+03  0.00000000000E+00 0.  1.
         23    2    1    2    0    0 -0.52752268858E+02  0.69491292910E+02 -0.11457154401E+03  0.17044928433E+03  0.91183760457E+02 0.  0.
         23    2    1    2    0    0  0.52752268858E+02 -0.69491292910E+02 -0.10004014759E+03  0.16106954923E+03  0.91233365060E+02 0.  0.
          5    1    3    3  502    0 -0.62372161604E+02  0.76816351674E+01 -0.50221753623E+02  0.80582929948E+02  0.47000000000E+01 0. -1.
         -5    1    4    4    0  503 -0.24831906469E+02 -0.27107699746E+02 -0.37141558257E+02  0.52469384542E+02  0.47000000000E+01 0.  1.
          5    1    4    4  503    0  0.77584175328E+02 -0.42383593164E+02 -0.62898589335E+02  0.10860016469E+03  0.47000000000E+01 0. -1.
         -5    1    3    3    0  502  0.96198927459E+01  0.61809657742E+02 -0.64349790386E+02  0.89866354379E+02  0.47000000000E+01 0.  1.
<mgrwt>
<rscale>  0 0.12622641E+03</rscale>
<asrwt>0</asrwt>
<pdfrwt beam="1">  1        3 0.89928570E-02 0.12623537E+03</pdfrwt>
<pdfrwt beam="2">  1       -3 0.42010041E-01 0.12623537E+03</pdfrwt>
<totfact> 0.11305219E+03</totfact>
</mgrwt>
</event>
<event>
 8    1  0.3466492E-004  0.9488117E+02  0.7546771E-02  0.1294412E+00
          2   -1    0    0  501    0  0.00000000000E+00  0.00000000000E+00  0.30485714379E+03  0.30485714379E+03  0.00000000000E+00 0. -1.
         -2   -1    0    0    0  501 -0.00000000000E+00 -0.00000000000E+00 -0.40427607691E+02  0.40427607691E+02  0.00000000000E+00 0.  1.
         23    2    1    2    0    0 -0.12893984481E+02 -0.18087795499E+00  0.38902520325E+02  0.10254678376E+03  0.94000793714E+02 0.  0.
         23    2    1    2    0    0  0.12893984481E+02  0.18087795499E+00  0.22552701578E+03  0.24273796773E+03  0.88842549364E+02 0.  0.
          5    1    3    3  502    0  0.31498226591E+02 -0.10927743597E+02  0.45028040062E+02  0.56224267451E+02  0.47000000000E+01 0. -1.
         -5    1    3    3    0  502 -0.44392211072E+02  0.10746865643E+02 -0.61255197372E+01  0.46322516307E+02  0.47000000000E+01 0.  1.
          5    1    4    4  503    0 -0.15920549399E+02 -0.37527986425E+02  0.12294459346E+03  0.12961202382E+03  0.47000000000E+01 0. -1.
         -5    1    4    4    0  503  0.28814533880E+02  0.37708864380E+02  0.10258242232E+03  0.11312594391E+03  0.47000000000E+01 0.  1.
<mgrwt>
<rscale>  0 0.93577643E+02</rscale>
<asrwt>0</asrwt>
<pdfrwt beam="1">  1        2 0.46901098E-01 0.94881172E+02</pdfrwt>
<pdfrwt beam="2">  1       -2 0.62196321E-02 0.94881172E+02</pdfrwt>
<totfact> 0.13707342E+04</totfact>
</mgrwt>
</event>
<event>
 8    1  0.3466492E-004  0.9714748E+02  0.7546771E-02  0.1286740E+00
         -1   -1    0    0    0  501 -0.00000000000E+00  0.00000000000E+00  0.43953156081E+02  0.43953156081E+02  0.00000000000E+00 0.  1.
          1   -1    0    0  501    0  0.00000000000E+00 -0.00000000000E+00 -0.28693063085E+03  0.28693063085E+03  0.00000000000E+00 0. -1.
         23    2    1    2    0    0  0.11992043830E+02  0.30225448949E+02 -0.20496159053E+03  0.22656293390E+03  0.90907219441E+02 0.  0.
         23    2    1    2    0    0 -0.11992043830E+02 -0.30225448949E+02 -0.38015884246E+02  0.10432085304E+03  0.91543683800E+02 0.  0.
          5    1    4    4  502    0  0.36676111706E+01  0.24140337465E+02  0.12943918489E+02  0.28032878741E+02  0.47000000000E+01 0. -1.
         -5    1    4    4    0  502 -0.15659655001E+02 -0.54365786415E+02 -0.50959802735E+02  0.76287974295E+02  0.47000000000E+01 0.  1.
          5    1    3    3  503    0  0.12442488427E+02  0.61810738032E+02 -0.15331058108E+03  0.16583608511E+03  0.47000000000E+01 0. -1.
         -5    1    3    3    0  503 -0.45044459680E+00 -0.31585289083E+02 -0.51651009451E+02  0.60726848791E+02  0.47000000000E+01 0.  1.
<mgrwt>
<rscale>  0 0.96997253E+02</rscale>
<asrwt>0</asrwt>
<pdfrwt beam="1">  1        1 0.44143174E-01 0.97147480E+02</pdfrwt>
<pdfrwt beam="2">  1       -1 0.67620240E-02 0.97147480E+02</pdfrwt>
<totfact> 0.95125977E+03</totfact>
</mgrwt>
</event>
<event>
 8    1  0.3466492E-004  0.9906566E+02  0.7546771E-02  0.1283059E+00
          2   -1    0    0  501    0  0.00000000000E+00  0.00000000000E+00  0.13948138518E+03  0.13948138518E+03  0.00000000000E+00 0. -1.
         -2   -1    0    0    0  501 -0.00000000000E+00 -0.00000000000E+00 -0.79545624933E+02  0.79545624933E+02  0.00000000000E+00 0.  1.
         23    2    1    2    0    0  0.23389922844E+02  0.24759501587E+02 -0.90937647729E+01  0.99482171590E+02  0.93026257030E+02 0.  0.
         23    2    1    2    0    0 -0.23389922844E+02 -0.24759501587E+02  0.69029525020E+02  0.11954483852E+03  0.91464592514E+02 0.  0.
          5    1    4    4  502    0 -0.85370571744E+01  0.34255502153E+02  0.17582871821E+02  0.39718612192E+02  0.47000000000E+01 0. -1.
         -5    1    4    4    0  502 -0.14852865669E+02 -0.59015003741E+02  0.51446653199E+02  0.79826226333E+02  0.47000000000E+01 0.  1.
          5    1    3    3  503    0 -0.14688080846E+02  0.24236484800E+02  0.32173828352E+02  0.43132263391E+02  0.47000000000E+01 0. -1.
         -5    1    3    3    0  503  0.38078003690E+02  0.52301678737E+00 -0.41267593125E+02  0.56349908198E+02  0.47000000000E+01 0.  1.
<mgrwt>
<rscale>  0 0.98697370E+02</rscale>
<asrwt>0</asrwt>
<pdfrwt beam="1">  1        2 0.21458675E-01 0.99065665E+02</pdfrwt>
<pdfrwt beam="2">  1       -2 0.12237788E-01 0.99065665E+02</pdfrwt>
<totfact> 0.11189573E+04</totfact>
</mgrwt>
</event>
<event>
 8    1  0.3466492E-004  0.1126815E+03  0.7546771E-02  0.1257161E+00
         -1   -1    0    0    0  501 -0.00000000000E+00  0.00000000000E+00  0.48824431493E+02  0.48824431493E+02  0.00000000000E+00 0.  1.
          1   -1    0    0  501    0  0.00000000000E+00 -0.00000000000E+00 -0.27990483586E+03  0.27990483586E+03  0.00000000000E+00 0. -1.
         23    2    1    2    0    0 -0.60833585447E+02  0.27974127800E+02 -0.16837118071E+03  0.20259806609E+03  0.90630265066E+02 0.  0.
         23    2    1    2    0    0  0.60833585447E+02 -0.27974127800E+02 -0.62709223655E+02  0.12613120126E+03  0.86564174201E+02 0.  0.
          5    1    4    4  502    0  0.43845553626E+02 -0.45525742543E+01 -0.80458682592E+02  0.91863203241E+02  0.47000000000E+01 0. -1.
         -5    1    3    3    0  503 -0.28494834762E+02 -0.32785336026E+02 -0.65009314636E+02  0.78327101669E+02  0.47000000000E+01 0.  1.
          5    1    3    3  503    0 -0.32338750685E+02  0.60759463826E+02 -0.10336186608E+03  0.12427096442E+03  0.47000000000E+01 0. -1.
         -5    1    4    4    0  502  0.16988031820E+02 -0.23421553545E+02  0.17749458937E+02  0.34267998018E+02  0.47000000000E+01 0.  1.
<mgrwt>
<rscale>  0 0.11186168E+03</rscale>
<asrwt>0</asrwt>
<pdfrwt beam="1">  1        1 0.43062283E-01 0.11268151E+03</pdfrwt>
<pdfrwt beam="2">  1       -1 0.75114509E-02 0.11268151E+03</pdfrwt>
<totfact> 0.84851844E+03</totfact>
</mgrwt>
</event>
<event>
 8    1  0.3466492E-004  0.1140715E+03  0.7546771E-02  0.1263430E+00
         -1   -1    0    0    0  501 -0.00000000000E+00  0.00000000000E+00  0.50974746361E+02  0.50974746361E+02  0.00000000000E+00 0.  1.
          1   -1    0    0  501    0  0.00000000000E+00 -0.00000000000E+00 -0.21702486468E+03  0.21702486468E+03  0.00000000000E+00 0. -1.
         23    2    1    2    0    0 -0.88071677392E+01 -0.17345186211E+00 -0.52392944340E+02  0.10697082141E+03  0.92844707593E+02 0.  0.
         23    2    1    2    0    0  0.88071677392E+01  0.17345186211E+00 -0.11365717398E+03  0.16102878963E+03  0.11373091753E+03 0.  0.
          5    1    3    3  502    0  0.31388991353E+02  0.21219777681E+02 -0.10627816998E+01  0.38193811644E+02  0.47000000000E+01 0. -1.
         -5    1    3    3    0  502 -0.40196159092E+02 -0.21393229543E+02 -0.51330162641E+02  0.68777009769E+02  0.47000000000E+01 0.  1.
          5    1    4    4  503    0  0.50744191551E+02 -0.40585600510E+01 -0.10634078669E+03  0.11799109204E+03  0.47000000000E+01 0. -1.
         -5    1    4    4    0  503 -0.41937023812E+02  0.42320119131E+01 -0.73163872875E+01  0.43037697592E+02  0.47000000000E+01 0.  1.
<mgrwt>
<rscale>  0 0.10846978E+03</rscale>
<asrwt>0</asrwt>
<pdfrwt beam="1">  1        1 0.33388440E-01 0.11407155E+03</pdfrwt>
<pdfrwt beam="2">  1       -1 0.78422688E-02 0.11407155E+03</pdfrwt>
<totfact> 0.10887699E+04</totfact>
</mgrwt>
</event>
<event>
 8    1  0.3466492E-004  0.1121834E+03  0.7546771E-02  0.1258085E+00
         -2   -1    0    0    0  501 -0.00000000000E+00  0.00000000000E+00  0.38819325345E+02  0.38819325345E+02  0.00000000000E+00 0.  1.
          2   -1    0    0  501    0  0.00000000000E+00 -0.00000000000E+00 -0.40700111526E+03  0.40700111526E+03  0.00000000000E+00 0. -1.
         23    2    1    2    0    0 -0.18397917665E+02  0.61429878858E+02 -0.80103007766E+02  0.13784632974E+03  0.92048929268E+02 0.  0.
         23    2    1    2    0    0  0.18397917665E+02 -0.61429878858E+02 -0.28807878215E+03  0.30797411086E+03  0.88014514974E+02 0.  0.
          5    1    4    4  502    0  0.42389340757E+02 -0.15551399608E+02 -0.20503803139E+03  0.21000330129E+03  0.47000000000E+01 0. -1.
         -5    1    3    3    0  503 -0.44181208286E+02  0.57515596461E+02 -0.25269963501E+02  0.76945981423E+02  0.47000000000E+01 0.  1.
          5    1    3    3  503    0  0.25783290622E+02  0.39142823969E+01 -0.54833044265E+02  0.60900348319E+02  0.47000000000E+01 0. -1.
         -5    1    4    4    0  502 -0.23991423092E+02 -0.45878479250E+02 -0.83040750762E+02  0.97970809568E+02  0.47000000000E+01 0.  1.
<mgrwt>
<rscale>  0 0.11135276E+03</rscale>
<asrwt>0</asrwt>
<pdfrwt beam="1">  1        2 0.62615558E-01 0.11218342E+03</pdfrwt>
<pdfrwt beam="2">  1       -2 0.59722037E-02 0.11218342E+03</pdfrwt>
<totfact> 0.10905805E+04</totfact>
</mgrwt>
</event>
<event>
 8    1  0.3466492E-004  0.1229735E+03  0.7546771E-02  0.1239329E+00
         -1   -1    0    0    0  501 -0.00000000000E+00  0.00000000000E+00  0.29113654165E+03  0.29113654165E+03  0.00000000000E+00 0.  1.
          1   -1    0    0  501    0  0.00000000000E+00 -0.00000000000E+00 -0.12697978745E+03  0.12697978745E+03  0.00000000000E+00 0. -1.
         23    2    1    2    0    0  0.66987694756E+02 -0.47971085666E+02 -0.79446676339E+02  0.14640443097E+03  0.91290233423E+02 0.  0.
         23    2    1    2    0    0 -0.66987694756E+02  0.47971085666E+02  0.24360343055E+03  0.27171189812E+03  0.87727691749E+02 0.  0.
          5    1    4    4  502    0  0.21280702928E+02  0.12027871244E+02  0.47665200754E+02  0.53773593582E+02  0.47000000000E+01 0. -1.
         -5    1    3    3    0  503  0.23812310487E+02 -0.74725975564E+00  0.17653898833E+02  0.30022236290E+02  0.47000000000E+01 0.  1.
          5    1    3    3  503    0  0.43175384269E+02 -0.47223825910E+02 -0.97100575172E+02  0.11638219468E+03  0.47000000000E+01 0. -1.
         -5    1    4    4    0  502 -0.88268397684E+02  0.35943214422E+02  0.19593822979E+03  0.21793830454E+03  0.47000000000E+01 0.  1.
<mgrwt>
<rscale>  0 0.12231295E+03</rscale>
<asrwt>0</asrwt>
<pdfrwt beam="1">  1        1 0.19535352E-01 0.12297351E+03</pdfrwt>
<pdfrwt beam="2">  1       -1 0.44790237E-01 0.12297351E+03</pdfrwt>
<totfact> 0.12990175E+03</totfact>
</mgrwt>
</event>
<event>
 8    1  0.3466492E-004  0.9366965E+02  0.7546771E-02  0.1294614E+00
         -1   -1    0    0    0  501 -0.00000000000E+00  0.00000000000E+00  0.48142391854E+02  0.48142391854E+02  0.00000000000E+00 0.  1.
          1   -1    0    0  501    0  0.00000000000E+00 -0.00000000000E+00 -0.18368984562E+03  0.18368984562E+03  0.00000000000E+00 0. -1.
         23    2    1    2    0    0  0.77795504577E+01 -0.12516927262E+02 -0.53641177468E+02  0.10794155605E+03  0.92503020112E+02 0.  0.
         23    2    1    2    0    0 -0.77795504577E+01  0.12516927262E+02 -0.81906276298E+02  0.12389068142E+03  0.91777273725E+02 0.  0.
          5    1    3    3  502    0  0.13616549648E+02  0.38944445769E+02 -0.20868410078E+02  0.46472151013E+02  0.47000000000E+01 0. -1.
         -5    1    3    3    0  502 -0.58369991899E+01 -0.51461373031E+02 -0.32772767390E+02  0.61469405042E+02  0.47000000000E+01 0.  1.
          5    1    4    4  503    0  0.35825657480E+02  0.24975908260E+02 -0.56927628073E+02  0.71903536529E+02  0.47000000000E+01 0. -1.
         -5    1    4    4    0  503 -0.43605207938E+02 -0.12458980998E+02 -0.24978648225E+02  0.51987144891E+02  0.47000000000E+01 0.  1.
<mgrwt>
<rscale>  0 0.93489976E+02</rscale>
<asrwt>0</asrwt>
<pdfrwt beam="1">  1        1 0.28259976E-01 0.93669651E+02</pdfrwt>
<pdfrwt beam="2">  1       -1 0.74065218E-02 0.93669651E+02</pdfrwt>
<totfact> 0.14302198E+04</totfact>
</mgrwt>
</event>
<event>
 8    1  0.3466492E-004  0.9408428E+02  0.7546771E-02  0.1293802E+00
         -3   -1    0    0    0  501 -0.00000000000E+00  0.00000000000E+00  0.22397731753E+03  0.22397731753E+03  0.00000000000E+00 0.  1.
          3   -1    0    0  501    0  0.00000000000E+00 -0.00000000000E+00 -0.43865820801E+02  0.43865820801E+02  0.00000000000E+00 0. -1.
         23    2    1    2    0    0  0.11635957143E+02  0.17584345421E+02  0.45590963848E+02  0.10368582022E+03  0.90706166431E+02 0.  0.
         23    2    1    2    0    0 -0.11635957143E+02 -0.17584345421E+02  0.13452053288E+03  0.16415731811E+03  0.91691038925E+02 0.  0.
          5    1    4    4  502    0 -0.41419060822E+02 -0.16625086126E+02  0.12454499214E+03  0.13238382513E+03  0.47000000000E+01 0. -1.
         -5    1    3    3    0  503  0.24202686555E+02  0.47421876194E+02  0.46664964375E+02  0.70952894785E+02  0.47000000000E+01 0.  1.
          5    1    3    3  503    0 -0.12566729412E+02 -0.29837530773E+02 -0.10740005270E+01  0.32732925440E+02  0.47000000000E+01 0. -1.
         -5    1    4    4    0  502  0.29783103679E+02 -0.95925929502E+00  0.99755407427E+01  0.31773492982E+02  0.47000000000E+01 0.  1.
<mgrwt>
<rscale>  0 0.93843465E+02</rscale>
<asrwt>0</asrwt>
<pdfrwt beam="1">  1        3 0.67485879E-02 0.94084278E+02</pdfrwt>
<pdfrwt beam="2">  1       -3 0.34458048E-01 0.94084278E+02</pdfrwt>
<totfact> 0.24826381E+03</totfact>
</mgrwt>
</event>
<event>
 8    1  0.3466492E-004  0.1105310E+03  0.7546771E-02  0.1262223E+00
          1   -1    0    0  501    0  0.00000000000E+00  0.00000000000E+00  0.13070857700E+03  0.13070857700E+03  0.00000000000E+00 0. -1.
         -1   -1    0    0    0  501 -0.00000000000E+00 -0.00000000000E+00 -0.96316930946E+02  0.96316930946E+02  0.00000000000E+00 0.  1.
         23    2    1    2    0    0 -0.31498175955E+02 -0.42893698639E+02 -0.14053831420E+02  0.11142087119E+03  0.96876704563E+02 0.  0.
         23    2    1    2    0    0  0.31498175955E+02  0.42893698639E+02  0.48445477478E+02  0.11560463676E+03  0.90473550178E+02 0.  0.
          5    1    4    4  502    0  0.22806613731E+02  0.70982216123E+02  0.29531153116E+02  0.80329295030E+02  0.47000000000E+01 0. -1.
         -5    1    4    4    0  502  0.86915622233E+01 -0.28088517484E+02  0.18914324362E+02  0.35275341734E+02  0.47000000000E+01 0.  1.
          5    1    3    3  503    0  0.33432267695E+02 -0.46218812798E+01  0.23005030524E+01  0.34153486265E+02  0.47000000000E+01 0. -1.
         -5    1    3    3    0  503 -0.64930443650E+02 -0.38271817359E+02 -0.16354334472E+02  0.77267384921E+02  0.47000000000E+01 0.  1.
<mgrwt>
<rscale>  0 0.10911219E+03</rscale>
<asrwt>0</asrwt>
<pdfrwt beam="1">  1        1 0.20109012E-01 0.11053099E+03</pdfrwt>
<pdfrwt beam="2">  1       -1 0.14817989E-01 0.11053099E+03</pdfrwt>
<totfact> 0.77344682E+03</totfact>
</mgrwt>
</event>
<event>
 8    1  0.3466492E-004  0.1014513E+03  0.7546771E-02  0.1278798E+00
         -1   -1    0    0    0  501 -0.00000000000E+00  0.00000000000E+00  0.13563629861E+02  0.13563629861E+02  0.00000000000E+00 0.  1.
          1   -1    0    0  501    0  0.00000000000E+00 -0.00000000000E+00 -0.76903441768E+03  0.76903441768E+03  0.00000000000E+00 0. -1.
         23    2    1    2    0    0 -0.32864670020E+02 -0.83335965822E+01 -0.30341340045E+03  0.31992509610E+03  0.95618200001E+02 0.  0.
         23    2    1    2    0    0  0.32864670020E+02  0.83335965822E+01 -0.45205738737E+03  0.46267295144E+03  0.92524824549E+02 0.  0.
          5    1    4    4  502    0  0.44581869347E+02 -0.16867574723E+02 -0.40497965520E+03  0.40780224285E+03  0.47000000000E+01 0. -1.
         -5    1    3    3    0  503 -0.42634773010E+02  0.14037437198E+02 -0.59158049815E+02  0.74407918736E+02  0.47000000000E+01 0.  1.
          5    1    3    3  503    0  0.97701029892E+01 -0.22371033780E+02 -0.24425535064E+03  0.24551717736E+03  0.47000000000E+01 0. -1.
         -5    1    4    4    0  502 -0.11717199326E+02  0.25201171305E+02 -0.47077732169E+02  0.54870708592E+02  0.47000000000E+01 0.  1.
<mgrwt>
<rscale>  0 0.10071586E+03</rscale>
<asrwt>0</asrwt>
<pdfrwt beam="1">  1        1 0.11831300E+00 0.10145135E+03</pdfrwt>
<pdfrwt beam="2">  1       -1 0.20867120E-02 0.10145135E+03</pdfrwt>
<totfact> 0.14696787E+04</totfact>
</mgrwt>
</event>
<event>
 8    1  0.3466492E-004  0.9138699E+02  0.7546771E-02  0.1299827E+00
         -2   -1    0    0    0  501 -0.00000000000E+00  0.00000000000E+00  0.65111754539E+02  0.65111754539E+02  0.00000000000E+00 0.  1.
          2   -1    0    0  501    0  0.00000000000E+00 -0.00000000000E+00 -0.12800855088E+03  0.12800855088E+03  0.00000000000E+00 0. -1.
         23    2    1    2    0    0  0.14251277684E+01  0.15536635304E+01 -0.25642729962E+02  0.94431665338E+02  0.90858928891E+02 0.  0.
         23    2    1    2    0    0 -0.14251277684E+01 -0.15536635304E+01 -0.37254066382E+02  0.98688640085E+02  0.91362669402E+02 0.  0.
          5    1    4    4  502    0  0.84331213002E+01 -0.19492488957E+02 -0.62308382194E+02  0.65996205590E+02  0.47000000000E+01 0. -1.
         -5    1    4    4    0  502 -0.98582490686E+01  0.17938825426E+02  0.25054315812E+02  0.32692434495E+02  0.47000000000E+01 0.  1.
          5    1    3    3  503    0  0.15309555215E+01  0.42401749546E+02  0.52379732760E+01  0.43009051994E+02  0.47000000000E+01 0. -1.
         -5    1    3    3    0  503 -0.10582775310E+00 -0.40848086016E+02 -0.30880703238E+02  0.51422613344E+02  0.47000000000E+01 0.  1.
<mgrwt>
<rscale>  0 0.91260829E+02</rscale>
<asrwt>0</asrwt>
<pdfrwt beam="1">  1        2 0.19693623E-01 0.91386992E+02</pdfrwt>
<pdfrwt beam="2">  1       -2 0.10017193E-01 0.91386992E+02</pdfrwt>
<totfact> 0.16732061E+04</totfact>
</mgrwt>
</event>
<event>
 8    1  0.3466492E-004  0.9384391E+02  0.7546771E-02  0.1294294E+00
          1   -1    0    0  501    0  0.00000000000E+00  0.00000000000E+00  0.20299615593E+02  0.20299615593E+02  0.00000000000E+00 0. -1.
         -1   -1    0    0    0  501 -0.00000000000E+00 -0.00000000000E+00 -0.57631189492E+03  0.57631189492E+03  0.00000000000E+00 0.  1.
         23    2    1    2    0    0  0.49314892113E+01 -0.13926218361E+02 -0.12669418498E+03  0.15715650023E+03  0.91806807556E+02 0.  0.
         23    2    1    2    0    0 -0.49314892113E+01  0.13926218361E+02 -0.42931809435E+03  0.43945501029E+03  0.92673732974E+02 0.  0.
          5    1    3    3  502    0 -0.81124910264E+01  0.23513718558E+02 -0.10655410616E+01  0.25336393762E+02  0.47000000000E+01 0. -1.
         -5    1    3    3    0  502  0.13043980238E+02 -0.37439936920E+02 -0.12562864392E+03  0.13182010647E+03  0.47000000000E+01 0.  1.
          5    1    4    4  503    0  0.37177911164E+02  0.14626893128E+01 -0.30935847571E+03  0.31162331914E+03  0.47000000000E+01 0. -1.
         -5    1    4    4    0  503 -0.42109400375E+02  0.12463529049E+02 -0.11995961864E+03  0.12783169115E+03  0.47000000000E+01 0.  1.
<mgrwt>
<rscale>  0 0.93629173E+02</rscale>
<asrwt>0</asrwt>
<pdfrwt beam="1">  1        1 0.31230185E-02 0.93843913E+02</pdfrwt>
<pdfrwt beam="2">  1       -1 0.88663349E-01 0.93843913E+02</pdfrwt>
<totfact> 0.39444008E+03</totfact>
</mgrwt>
</event>
<event>
 8    1  0.3466492E-004  0.1073115E+03  0.7546771E-02  0.1267102E+00
          2   -1    0    0  501    0  0.00000000000E+00  0.00000000000E+00  0.25037419800E+03  0.25037419800E+03  0.00000000000E+00 0. -1.
         -2   -1    0    0    0  501 -0.00000000000E+00 -0.00000000000E+00 -0.99908208758E+02  0.99908208758E+02  0.00000000000E+00 0.  1.
         23    2    1    2    0    0  0.40289408422E+02 -0.17792694752E+02 -0.54465909067E+02  0.12034237790E+03  0.97856712854E+02 0.  0.
         23    2    1    2    0    0 -0.40289408422E+02  0.17792694752E+02  0.20493189831E+03  0.22994002885E+03  0.94527866308E+02 0.  0.
          5    1    3    3  502    0 -0.30221160259E+02 -0.62865639444E+01 -0.14581261831E+01  0.31257887734E+02  0.47000000000E+01 0. -1.
         -5    1    3    3    0  502  0.70510568681E+02 -0.11506130808E+02 -0.53007782884E+02  0.89084490166E+02  0.47000000000E+01 0.  1.
          5    1    4    4  503    0  0.19790792929E+02  0.16235839063E+02  0.13555480371E+03  0.13803069500E+03  0.47000000000E+01 0. -1.
         -5    1    4    4    0  503 -0.60080201351E+02  0.15568556889E+01  0.69377094597E+02  0.91909333850E+02  0.47000000000E+01 0.  1.
<mgrwt>
<rscale>  0 0.10654669E+03</rscale>
<asrwt>0</asrwt>
<pdfrwt beam="1">  1        2 0.38519107E-01 0.10731148E+03</pdfrwt>
<pdfrwt beam="2">  1       -2 0.15370494E-01 0.10731148E+03</pdfrwt>
<totfact> 0.41486544E+03</totfact>
</mgrwt>
</event>
<event>
 8    1  0.3466492E-004  0.1225624E+03  0.7546771E-02  0.1239360E+00
         -1   -1    0    0    0  501 -0.00000000000E+00  0.00000000000E+00  0.22332634982E+03  0.22332634982E+03  0.00000000000E+00 0.  1.
          1   -1    0    0  501    0  0.00000000000E+00 -0.00000000000E+00 -0.13475692840E+03  0.13475692840E+03  0.00000000000E+00 0. -1.
         23    2    1    2    0    0  0.51262973308E+02 -0.63814230673E+02  0.17144766182E+03  0.21012945357E+03  0.89777157704E+02 0.  0.
         23    2    1    2    0    0 -0.51262973308E+02  0.63814230673E+02 -0.82878240402E+02  0.14795382465E+03  0.91221614917E+02 0.  0.
          5    1    3    3  502    0  0.52645856095E+02 -0.99960473973E+01  0.37169520264E+02  0.65384786948E+02  0.47000000000E+01 0. -1.
         -5    1    4    4    0  503 -0.15929059703E+02  0.40864297525E+02  0.10552295514E+02  0.45354897154E+02  0.47000000000E+01 0.  1.
          5    1    4    4  503    0 -0.35333913606E+02  0.22949933148E+02 -0.93430535916E+02  0.10259892750E+03  0.47000000000E+01 0. -1.
         -5    1    3    3    0  502 -0.13828827868E+01 -0.53818183276E+02  0.13427814156E+03  0.14474466662E+03  0.47000000000E+01 0.  1.
<mgrwt>
<rscale>  0 0.12229366E+03</rscale>
<asrwt>0</asrwt>
<pdfrwt beam="1">  1        1 0.20731835E-01 0.12256236E+03</pdfrwt>
<pdfrwt beam="2">  1       -1 0.34357900E-01 0.12256236E+03</pdfrwt>
<totfact> 0.19125838E+03</totfact>
</mgrwt>
</event>
<event>
 8    1  0.3466492E-004  0.9432604E+02  0.7546771E-02  0.1294072E+00
          3   -1    0    0  501    0  0.00000000000E+00  0.00000000000E+00  0.22730303517E+03  0.22730303517E+03  0.00000000000E+00 0. -1.
         -3   -1    0    0    0  501 -0.00000000000E+00 -0.00000000000E+00 -0.48820236763E+02  0.48820236763E+02  0.00000000000E+00 0.  1.
         23    2    1    2    0    0 -0.67681615793E+01  0.17836060119E+02  0.15285280528E+03  0.17837718326E+03  0.89947242180E+02 0.  0.
         23    2    1    2    0    0  0.67681615793E+01 -0.17836060119E+02  0.25629993134E+02  0.97746088676E+02  0.92376773334E+02 0.  0.
          5    1    3    3  502    0 -0.35222227003E+02  0.14569822670E+02  0.14246408694E+03  0.14754996128E+03  0.47000000000E+01 0. -1.
         -5    1    4    4    0  503 -0.28767111585E+02 -0.57100626825E+01 -0.21964895842E+02  0.36941821479E+02  0.47000000000E+01 0.  1.
          5    1    4    4  503    0  0.35535273164E+02 -0.12125997436E+02  0.47594888976E+02  0.60804267197E+02  0.47000000000E+01 0. -1.
         -5    1    3    3    0  502  0.28454065424E+02  0.32662374487E+01  0.10388718339E+02  0.30827221979E+02  0.47000000000E+01 0.  1.
<mgrwt>
<rscale>  0 0.93725830E+02</rscale>
<asrwt>0</asrwt>
<pdfrwt beam="1">  1        3 0.34969697E-01 0.94326037E+02</pdfrwt>
<pdfrwt beam="2">  1       -3 0.75108058E-02 0.94326037E+02</pdfrwt>
<totfact> 0.20363957E+03</totfact>
</mgrwt>
</event>
<event>
 8    1  0.3466492E-004  0.1165797E+03  0.7546771E-02  0.1255864E+00
         -2   -1    0    0    0  501 -0.00000000000E+00  0.00000000000E+00  0.22511568726E+02  0.22511568726E+02  0.00000000000E+00 0.  1.
          2   -1    0    0  501    0  0.00000000000E+00 -0.00000000000E+00 -0.55354892746E+03  0.55354892746E+03  0.00000000000E+00 0. -1.
         23    2    1    2    0    0 -0.41856901615E+02 -0.61697385640E+01 -0.22096301501E+03  0.24983088188E+03  0.10863125541E+03 0.  0.
         23    2    1    2    0    0  0.41856901615E+02  0.61697385640E+01 -0.31007434372E+03  0.32622961430E+03  0.92139007631E+02 0.  0.
          5    1    4    4  502    0  0.69205581338E+02 -0.66909889275E+01 -0.19189533089E+03  0.20415702251E+03  0.47000000000E+01 0. -1.
         -5    1    3    3    0  503 -0.65956217706E+02 -0.20725455582E+02 -0.79255384044E+02  0.10527712507E+03  0.47000000000E+01 0.  1.
          5    1    3    3  503    0  0.24099316091E+02  0.14555717018E+02 -0.14170763097E+03  0.14455375681E+03  0.47000000000E+01 0. -1.
         -5    1    4    4    0  502 -0.27348679723E+02  0.12860727491E+02 -0.11817901283E+03  0.12207259180E+03  0.47000000000E+01 0.  1.
<mgrwt>
<rscale>  0 0.11258083E+03</rscale>
<asrwt>0</asrwt>
<pdfrwt beam="1">  1        2 0.85161375E-01 0.11657965E+03</pdfrwt>
<pdfrwt beam="2">  1       -2 0.34633182E-02 0.11657965E+03</pdfrwt>
<totfact> 0.17641192E+04</totfact>
</mgrwt>
</event>
<event>
 8    1  0.3466492E-004  0.1178300E+03  0.7546771E-02  0.1247285E+00
         -2   -1    0    0    0  501 -0.00000000000E+00  0.00000000000E+00  0.20135159462E+03  0.20135159462E+03  0.00000000000E+00 0.  1.
          2   -1    0    0  501    0  0.00000000000E+00 -0.00000000000E+00 -0.70674606387E+02  0.70674606387E+02  0.00000000000E+00 0. -1.
         23    2    1    2    0    0  0.69500040760E+02 -0.28738125693E+02  0.40138460221E+02  0.12447892384E+03  0.90707061236E+02 0.  0.
         23    2    1    2    0    0 -0.69500040760E+02  0.28738125693E+02  0.90538528010E+02  0.14754727716E+03  0.88976617209E+02 0.  0.
          5    1    4    4  502    0 -0.82263051585E+02 -0.29859693977E+00  0.52084937764E+02  0.97479380169E+02  0.47000000000E+01 0. -1.
         -5    1    3    3    0  503  0.75861889688E+02 -0.50244683018E+02  0.44098816626E+02  0.10122425651E+03  0.47000000000E+01 0.  1.
          5    1    3    3  503    0 -0.63618489285E+01  0.21506557325E+02 -0.39603564052E+01  0.23254667330E+02  0.47000000000E+01 0. -1.
         -5    1    4    4    0  502  0.12763010825E+02  0.29036722633E+02  0.38453590246E+02  0.50067896994E+02  0.47000000000E+01 0.  1.
<mgrwt>
<rscale>  0 0.11749686E+03</rscale>
<asrwt>0</asrwt>
<pdfrwt beam="1">  1        2 0.10873016E-01 0.11782999E+03</pdfrwt>
<pdfrwt beam="2">  1       -2 0.30977168E-01 0.11782999E+03</pdfrwt>
<totfact> 0.52344450E+03</totfact>
</mgrwt>
</event>
<event>
 8    1  0.3466492E-004  0.1019712E+03  0.7546771E-02  0.1278405E+00
         -2   -1    0    0    0  501 -0.00000000000E+00  0.00000000000E+00  0.21600049804E+02  0.21600049804E+02  0.00000000000E+00 0.  1.
          2   -1    0    0  501    0  0.00000000000E+00 -0.00000000000E+00 -0.46248272370E+03  0.46248272370E+03  0.00000000000E+00 0. -1.
         23    2    1    2    0    0  0.29910123932E+02  0.17751617839E+02 -0.21559571868E+03  0.23849452932E+03  0.95856096058E+02 0.  0.
         23    2    1    2    0    0 -0.29910123932E+02 -0.17751617839E+02 -0.22528695522E+03  0.24558824419E+03  0.91376353850E+02 0.  0.
          5    1    4    4  502    0  0.26828628243E+02 -0.26774764715E+02 -0.11449998637E+03  0.12070211347E+03  0.47000000000E+01 0. -1.
         -5    1    4    4    0  502 -0.56738752175E+02  0.90231468761E+01 -0.11078696885E+03  0.12488613072E+03  0.47000000000E+01 0.  1.
          5    1    3    3  503    0  0.56550104482E+02  0.34998152134E+02 -0.11524125971E+03  0.13313685782E+03  0.47000000000E+01 0. -1.
         -5    1    3    3    0  503 -0.26639980550E+02 -0.17246534295E+02 -0.10035445897E+03  0.10535767150E+03  0.47000000000E+01 0.  1.
<mgrwt>
<rscale>  0 0.10090480E+03</rscale>
<asrwt>0</asrwt>
<pdfrwt beam="1">  1        2 0.71151186E-01 0.10197120E+03</pdfrwt>
<pdfrwt beam="2">  1       -2 0.33230847E-02 0.10197120E+03</pdfrwt>
<totfact> 0.22524780E+04</totfact>
</mgrwt>
</event>
<event>
 8    1  0.3466492E-004  0.1233450E+03  0.7546771E-02  0.1240286E+00
         -1   -1    0    0    0  501 -0.00000000000E+00  0.00000000000E+00  0.12192745477E+02  0.12192745477E+02  0.00000000000E+00 0.  1.
          1   -1    0    0  501    0  0.00000000000E+00 -0.00000000000E+00 -0.12419183751E+04  0.12419183751E+04  0.00000000000E+00 0. -1.
         23    2    1    2    0    0 -0.32596271946E+02 -0.79310980299E+02 -0.76558722397E+03  0.77545972470E+03  0.88663626113E+02 0.  0.
         23    2    1    2    0    0  0.32596271946E+02  0.79310980299E+02 -0.46413840562E+03  0.47865139584E+03  0.79560986825E+02 0.  0.
          5    1    3    3  502    0 -0.14680220175E+01 -0.73833590712E+02 -0.68150261758E+03  0.68550817790E+03  0.47000000000E+01 0. -1.
         -5    1    3    3    0  502 -0.31128249929E+02 -0.54773895874E+01 -0.84084606391E+02  0.89951546803E+02  0.47000000000E+01 0.  1.
          5    1    4    4  503    0  0.56174049935E+02  0.65470607981E+02 -0.39094454147E+03  0.40037688358E+03  0.47000000000E+01 0. -1.
         -5    1    4    4    0  503 -0.23577777988E+02  0.13840372318E+02 -0.73193864150E+02  0.78274512263E+02  0.47000000000E+01 0.  1.
<mgrwt>
<rscale>  0 0.12172019E+03</rscale>
<asrwt>0</asrwt>
<pdfrwt beam="1">  1        1 0.19106433E+00 0.12334499E+03</pdfrwt>
<pdfrwt beam="2">  1       -1 0.18758073E-02 0.12334499E+03</pdfrwt>
<totfact> 0.78058744E+03</totfact>
</mgrwt>
</event>
<event>
 8    1  0.3466492E-004  0.1980791E+03  0.7546771E-02  0.1151394E+00
         -1   -1    0    0    0  501 -0.00000000000E+00  0.00000000000E+00  0.59717071672E+02  0.59717071672E+02  0.00000000000E+00 0.  1.
          1   -1    0    0  501    0  0.00000000000E+00 -0.00000000000E+00 -0.76267009634E+03  0.76267009634E+03  0.00000000000E+00 0. -1.
         23    2    1    2    0    0 -0.10628485224E+02 -0.17447603969E+03 -0.50470443733E+03  0.54214113688E+03  0.92927875817E+02 0.  0.
         23    2    1    2    0    0  0.10628485224E+02  0.17447603969E+03 -0.19824858733E+03  0.28024603114E+03  0.93169106813E+02 0.  0.
          5    1    3    3  502    0 -0.19620564453E+02 -0.10929435989E+03 -0.42178671917E+03  0.43618384900E+03  0.47000000000E+01 0. -1.
         -5    1    4    4    0  503 -0.96674963899E+01  0.17475149466E+03 -0.18842546273E+03  0.25721156735E+03  0.47000000000E+01 0.  1.
          5    1    4    4  503    0  0.20295981614E+02 -0.27545496882E+00 -0.98231246021E+01  0.23034463790E+02  0.47000000000E+01 0. -1.
         -5    1    3    3    0  502  0.89920792287E+01 -0.65181679794E+02 -0.82917718161E+02  0.10595728788E+03  0.47000000000E+01 0.  1.
<mgrwt>
<rscale>  0 0.19805077E+03</rscale>
<asrwt>0</asrwt>
<pdfrwt beam="1">  1        1 0.11733385E+00 0.19807911E+03</pdfrwt>
<pdfrwt beam="2">  1       -1 0.91872430E-02 0.19807911E+03</pdfrwt>
<totfact> 0.17179665E+03</totfact>
</mgrwt>
</event>
<event>
 8    1  0.3466492E-004  0.1068657E+03  0.7546771E-02  0.1267492E+00
          4   -1    0    0  501    0  0.00000000000E+00  0.00000000000E+00  0.81570925912E+02  0.81570925912E+02  0.00000000000E+00 0. -1.
         -4   -1    0    0    0  501 -0.00000000000E+00 -0.00000000000E+00 -0.14099921689E+03  0.14099921689E+03  0.00000000000E+00 0.  1.
         23    2    1    2    0    0  0.45386334426E+02 -0.25408301903E+02 -0.47435664363E+02  0.11503359460E+03  0.90978483588E+02 0.  0.
         23    2    1    2    0    0 -0.45386334426E+02  0.25408301903E+02 -0.11992626620E+02  0.10753654820E+03  0.93353012526E+02 0.  0.
          5    1    4    4  502    0 -0.10858184362E+02 -0.32481913024E+02  0.10815284870E+02  0.36222026836E+02  0.47000000000E+01 0. -1.
         -5    1    3    3    0  503  0.69244669315E+02 -0.20930744180E+01 -0.41303689412E+02  0.80791645286E+02  0.47000000000E+01 0.  1.
          5    1    3    3  503    0 -0.23858334889E+02 -0.23315227485E+02 -0.61319749508E+01  0.34241949318E+02  0.47000000000E+01 0. -1.
         -5    1    4    4    0  502 -0.34528150064E+02  0.57890214927E+02 -0.22807911489E+02  0.71314521365E+02  0.47000000000E+01 0.  1.
<mgrwt>
<rscale>  0 0.10634497E+03</rscale>
<asrwt>0</asrwt>
<pdfrwt beam="1">  1        4 0.12549373E-01 0.10686574E+03</pdfrwt>
<pdfrwt beam="2">  1       -4 0.21692187E-01 0.10686574E+03</pdfrwt>
<totfact> 0.15588852E+03</totfact>
</mgrwt>
</event>
<event>
 8    1  0.3466492E-004  0.9443641E+02  0.7546771E-02  0.1294487E+00
         -2   -1    0    0    0  501 -0.00000000000E+00  0.00000000000E+00  0.37776454808E+03  0.37776454808E+03  0.00000000000E+00 0.  1.
          2   -1    0    0  501    0  0.00000000000E+00 -0.00000000000E+00 -0.39605973596E+02  0.39605973596E+02  0.00000000000E+00 0. -1.
         23    2    1    2    0    0 -0.27639380803E+01  0.13336190038E+02  0.31059485792E+02  0.96079242127E+02  0.89894581547E+02 0.  0.
         23    2    1    2    0    0  0.27639380803E+01 -0.13336190038E+02  0.30709908869E+03  0.32129127955E+03  0.93449145101E+02 0.  0.
          5    1    4    4  502    0 -0.26578280363E+02 -0.37006008152E+02  0.90988606989E+02  0.10186690448E+03  0.47000000000E+01 0. -1.
         -5    1    4    4    0  502  0.29342218443E+02  0.23669818114E+02  0.21611048170E+03  0.21942437507E+03  0.47000000000E+01 0.  1.
          5    1    3    3  503    0 -0.32640720091E+02  0.74191576643E+01 -0.17884349225E+02  0.38241344848E+02  0.47000000000E+01 0. -1.
         -5    1    3    3    0  503  0.29876782011E+02  0.59170323739E+01  0.48943835018E+02  0.57837897279E+02  0.47000000000E+01 0.  1.
<mgrwt>
<rscale>  0 0.93544878E+02</rscale>
<asrwt>0</asrwt>
<pdfrwt beam="1">  1        2 0.60932270E-02 0.94436413E+02</pdfrwt>
<pdfrwt beam="2">  1       -2 0.58117620E-01 0.94436413E+02</pdfrwt>
<totfact> 0.31837724E+03</totfact>
</mgrwt>
</event>
<event>
 8    1  0.3466492E-004  0.1021710E+03  0.7546771E-02  0.1280218E+00
         -1   -1    0    0    0  501 -0.00000000000E+00  0.00000000000E+00  0.15534570249E+03  0.15534570249E+03  0.00000000000E+00 0.  1.
          1   -1    0    0  501    0  0.00000000000E+00 -0.00000000000E+00 -0.69735054840E+02  0.69735054840E+02  0.00000000000E+00 0. -1.
         23    2    1    2    0    0  0.10782834140E+00 -0.35542064747E+02  0.82178468408E+02  0.13111905112E+03  0.95789638816E+02 0.  0.
         23    2    1    2    0    0 -0.10782834140E+00  0.35542064747E+02  0.34321792446E+01  0.93961706209E+02  0.86912440915E+02 0.  0.
          5    1    3    3  502    0  0.25631867591E+02 -0.49588056159E+02  0.84648268151E+02  0.10150560207E+03  0.47000000000E+01 0. -1.
         -5    1    3    3    0  502 -0.25524039250E+02  0.14045991412E+02 -0.24697997425E+01  0.29613449059E+02  0.47000000000E+01 0.  1.
          5    1    4    4  503    0  0.11718598120E+02  0.16595800157E+02 -0.39880668613E+02  0.45003376026E+02  0.47000000000E+01 0. -1.
         -5    1    4    4    0  503 -0.11826426462E+02  0.18946264590E+02  0.43312847857E+02  0.48958330183E+02  0.47000000000E+01 0.  1.
<mgrwt>
<rscale>  0 0.10003704E+03</rscale>
<asrwt>0</asrwt>
<pdfrwt beam="1">  1        1 0.10728470E-01 0.10217096E+03</pdfrwt>
<pdfrwt beam="2">  1       -1 0.23899339E-01 0.10217096E+03</pdfrwt>
<totfact> 0.80728819E+03</totfact>
</mgrwt>
</event>
<event>
 8    1  0.3466492E-004  0.1113555E+03  0.7546771E-02  0.1261054E+00
          1   -1    0    0  501    0  0.00000000000E+00  0.00000000000E+00  0.53528419367E+03  0.53528419367E+03  0.00000000000E+00 0. -1.
         -1   -1    0    0    0  501 -0.00000000000E+00 -0.00000000000E+00 -0.22088293137E+02  0.22088293137E+02  0.00000000000E+00 0.  1.
         23    2    1    2    0    0 -0.32920583499E+02  0.43687963447E+02  0.27700547425E+03  0.29624805827E+03  0.89657550153E+02 0.  0.
         23    2    1    2    0    0  0.32920583499E+02 -0.43687963447E+02  0.23619042629E+03  0.26112442854E+03  0.96993024184E+02 0.  0.
          5    1    4    4  502    0 -0.21342463001E+02  0.10294306667E+02  0.18817062412E+02  0.30620994669E+02  0.47000000000E+01 0. -1.
         -5    1    4    4    0  502  0.54263046499E+02 -0.53982270115E+02  0.21737336388E+03  0.23050343387E+03  0.47000000000E+01 0.  1.
          5    1    3    3  503    0 -0.41426430397E+02  0.16502093875E+00  0.21977419037E+03  0.22369390050E+03  0.47000000000E+01 0. -1.
         -5    1    3    3    0  503  0.85058468985E+01  0.43522942508E+02  0.57231283874E+02  0.72554157772E+02  0.47000000000E+01 0.  1.
<mgrwt>
<rscale>  0 0.10973876E+03</rscale>
<asrwt>0</asrwt>
<pdfrwt beam="1">  1        1 0.82351404E-01 0.11135551E+03</pdfrwt>
<pdfrwt beam="2">  1       -1 0.33981994E-02 0.11135551E+03</pdfrwt>
<totfact> 0.12081114E+04</totfact>
</mgrwt>
</event>
<event>
 8    1  0.3466492E-004  0.1198814E+03  0.7546771E-02  0.1243866E+00
          4   -1    0    0  501    0  0.00000000000E+00  0.00000000000E+00  0.44310097060E+02  0.44310097060E+02  0.00000000000E+00 0. -1.
         -4   -1    0    0    0  501 -0.00000000000E+00 -0.00000000000E+00 -0.33787857659E+03  0.33787857659E+03  0.00000000000E+00 0.  1.
         23    2    1    2    0    0  0.24631192242E+02  0.68437074034E+02 -0.19077470066E+03  0.22531429047E+03  0.95295405674E+02 0.  0.
         23    2    1    2    0    0 -0.24631192242E+02 -0.68437074034E+02 -0.10279377887E+03  0.15687438318E+03  0.93555771553E+02 0.  0.
          5    1    4    4  502    0  0.28568837363E+02 -0.15118872937E+02 -0.45296825989E+01  0.32975245437E+02  0.47000000000E+01 0. -1.
         -5    1    4    4    0  502 -0.53200029606E+02 -0.53318201096E+02 -0.98264096267E+02  0.12389913774E+03  0.47000000000E+01 0.  1.
          5    1    3    3  503    0  0.42849968334E+02  0.58024489913E+02 -0.63436182105E+02  0.96172763379E+02  0.47000000000E+01 0. -1.
         -5    1    3    3    0  503 -0.18218776092E+02  0.10412584120E+02 -0.12733851856E+03  0.12914152709E+03  0.47000000000E+01 0.  1.
<mgrwt>
<rscale>  0 0.11953534E+03</rscale>
<asrwt>0</asrwt>
<pdfrwt beam="1">  1        4 0.68169380E-02 0.11988137E+03</pdfrwt>
<pdfrwt beam="2">  1       -4 0.51981320E-01 0.11988137E+03</pdfrwt>
<totfact> 0.83048673E+02</totfact>
</mgrwt>
</event>
<event>
 8    1  0.3466492E-004  0.9230288E+02  0.7546771E-02  0.1300149E+00
          1   -1    0    0  501    0  0.00000000000E+00  0.00000000000E+00  0.18566921183E+03  0.18566921183E+03  0.00000000000E+00 0. -1.
         -1   -1    0    0    0  501 -0.00000000000E+00 -0.00000000000E+00 -0.46198458592E+02  0.46198458592E+02  0.00000000000E+00 0.  1.
         23    2    1    2    0    0 -0.27343668615E+00 -0.15693190378E+02  0.40658438398E+02  0.96650452367E+02  0.86266159866E+02 0.  0.
         23    2    1    2    0    0  0.27343668615E+00  0.15693190378E+02  0.98812314845E+02  0.13521721806E+03  0.90958625226E+02 0.  0.
          5    1    3    3  502    0  0.36152564535E+02 -0.30689430933E+02  0.26507647709E+02  0.54530674675E+02  0.47000000000E+01 0. -1.
         -5    1    3    3    0  502 -0.36426001221E+02  0.14996240555E+02  0.14150790688E+02  0.42119777692E+02  0.47000000000E+01 0.  1.
          5    1    4    4  503    0 -0.24578971438E+02 -0.38369952075E+01  0.10008396819E+03  0.10323632625E+03  0.47000000000E+01 0. -1.
         -5    1    4    4    0  503  0.24852408124E+02  0.19530185585E+02 -0.12716533466E+01  0.31980891807E+02  0.47000000000E+01 0.  1.
<mgrwt>
<rscale>  0 0.91125421E+02</rscale>
<asrwt>0</asrwt>
<pdfrwt beam="1">  1        1 0.28564494E-01 0.92302885E+02</pdfrwt>
<pdfrwt beam="2">  1       -1 0.71074553E-02 0.92302885E+02</pdfrwt>
<totfact> 0.14984692E+04</totfact>
</mgrwt>
</event>
<event>
 8    1  0.3466492E-004  0.1051892E+03  0.7546771E-02  0.1279938E+00
         -1   -1    0    0    0  501 -0.00000000000E+00  0.00000000000E+00  0.49284016389E+02  0.49284016389E+02  0.00000000000E+00 0.  1.
          1   -1    0    0  501    0  0.00000000000E+00 -0.00000000000E+00 -0.49544312903E+03  0.49544312903E+03  0.00000000000E+00 0. -1.
         23    2    1    2    0    0 -0.10794779083E+02 -0.10836041111E+02 -0.17530483697E+00  0.86506328162E+02  0.85143214867E+02 0.  0.
         23    2    1    2    0    0  0.10794779083E+02  0.10836041111E+02 -0.44598380781E+03  0.45822081726E+03  0.10407119439E+03 0.  0.
          5    1    4    4  502    0  0.17374885011E+01 -0.37703227060E+02 -0.32851718384E+03  0.33071163009E+03  0.47000000000E+01 0. -1.
         -5    1    3    3    0  503 -0.14116185317E+02 -0.40303799596E+02  0.22857931678E+02  0.48664545516E+02  0.47000000000E+01 0.  1.
          5    1    3    3  503    0  0.33214062335E+01  0.29467758485E+02 -0.23033236515E+02  0.37841782646E+02  0.47000000000E+01 0. -1.
         -5    1    4    4    0  502  0.90572905823E+01  0.48539268171E+02 -0.11746662397E+03  0.12750918717E+03  0.47000000000E+01 0.  1.
<mgrwt>
<rscale>  0 0.10017054E+03</rscale>
<asrwt>0</asrwt>
<pdfrwt beam="1">  1        1 0.76222017E-01 0.10518917E+03</pdfrwt>
<pdfrwt beam="2">  1       -1 0.75821567E-02 0.10518917E+03</pdfrwt>
<totfact> 0.40836915E+03</totfact>
</mgrwt>
</event>
<event>
 7    1  0.3466492E-004  0.2171159E+03  0.7546771E-02  0.1166402E+00
          1   -1    0    0  501    0  0.00000000000E+00  0.00000000000E+00  0.13503027308E+04  0.13503027308E+04  0.00000000000E+00 0. -1.
         -1   -1    0    0    0  501 -0.00000000000E+00 -0.00000000000E+00 -0.19353559056E+02  0.19353559056E+02  0.00000000000E+00 0.  1.
         23    2    1    2    0    0  0.52567063826E+02  0.40710535014E+01  0.46327415590E+03  0.47522951754E+03  0.91871002741E+02 0.  0.
          5    1    1    2  502    0  0.60181144476E+01  0.98156997925E+02  0.35824882155E+03  0.37153105131E+03  0.47000000000E+01 0. -1.
         -5    1    3    3    0  503  0.28785070945E+02 -0.37683167525E+02  0.12964646710E+03  0.13812638363E+03  0.47000000000E+01 0.  1.
          5    1    3    3  503    0  0.23781992881E+02  0.41754221026E+02  0.33362768880E+03  0.33710313391E+03  0.47000000000E+01 0. -1.
         -5    1    1    2    0  502 -0.58585178273E+02 -0.10222805143E+03  0.50942619426E+03  0.52289572097E+03  0.47000000000E+01 0.  1.
<mgrwt>
<rscale>  0 0.18145485E+03</rscale>
<asrwt>0</asrwt>
<pdfrwt beam="1">  1        1 0.20773881E+00 0.21711591E+03</pdfrwt>
<pdfrwt beam="2">  1       -1 0.29774717E-02 0.21711591E+03</pdfrwt>
<totfact> 0.34290921E+03</totfact>
</mgrwt>
</event>
<event>
 8    1  0.3466492E-004  0.1232724E+03  0.7546771E-02  0.1238749E+00
          1   -1    0    0  501    0  0.00000000000E+00  0.00000000000E+00  0.62888475840E+02  0.62888475840E+02  0.00000000000E+00 0. -1.
         -1   -1    0    0    0  501 -0.00000000000E+00 -0.00000000000E+00 -0.23808787995E+03  0.23808787995E+03  0.00000000000E+00 0.  1.
         23    2    1    2    0    0 -0.22400145742E+02  0.78613196867E+02 -0.98596216014E+02  0.15785214330E+03  0.92272878367E+02 0.  0.
         23    2    1    2    0    0  0.22400145742E+02 -0.78613196867E+02 -0.76603188098E+02  0.14312421249E+03  0.89076879844E+02 0.  0.
          5    1    3    3  502    0 -0.43133179937E+02  0.68688321363E+02 -0.32130579310E+02  0.87367161050E+02  0.47000000000E+01 0. -1.
         -5    1    4    4    0  503 -0.30758770081E+02 -0.51590361481E+02 -0.46823818348E+02  0.76303520884E+02  0.47000000000E+01 0.  1.
          5    1    4    4  503    0  0.53158915823E+02 -0.27022835386E+02 -0.29779369749E+02  0.66820691604E+02  0.47000000000E+01 0. -1.
         -5    1    3    3    0  502  0.20733034195E+02  0.99248755040E+01 -0.66465636704E+02  0.70484982253E+02  0.47000000000E+01 0.  1.
<mgrwt>
<rscale>  0 0.12267464E+03</rscale>
<asrwt>0</asrwt>
<pdfrwt beam="1">  1        1 0.96751502E-02 0.12327240E+03</pdfrwt>
<pdfrwt beam="2">  1       -1 0.36628904E-01 0.12327240E+03</pdfrwt>
<totfact> 0.45991622E+03</totfact>
</mgrwt>
</event>
<event>
 8    1  0.3466492E-004  0.2233788E+03  0.7546771E-02  0.1131511E+00
         -2   -1    0    0    0  501 -0.00000000000E+00  0.00000000000E+00  0.26874970430E+02  0.26874970430E+02  0.00000000000E+00 0.  1.
          2   -1    0    0  501    0  0.00000000000E+00 -0.00000000000E+00 -0.27729740456E+04  0.27729740456E+04  0.00000000000E+00 0. -1.
         23    2    1    2    0    0 -0.10993790231E+03  0.17098158410E+03 -0.56725776169E+03  0.60965517974E+03  0.92612232037E+02 0.  0.
         23    2    1    2    0    0  0.10993790231E+03 -0.17098158410E+03 -0.21788413134E+04  0.21901938363E+04  0.90986409506E+02 0.  0.
          5    1    4    4  502    0  0.85673686035E+02 -0.50228433771E+02 -0.95499806385E+03  0.96015950133E+03  0.47000000000E+01 0. -1.
         -5    1    4    4    0  502  0.24264216274E+02 -0.12075315033E+03 -0.12238432496E+04  0.12300343349E+04  0.47000000000E+01 0.  1.
          5    1    3    3  503    0 -0.71608222993E+02  0.31171378140E+02 -0.20725638487E+03  0.22153259689E+03  0.47000000000E+01 0. -1.
         -5    1    3    3    0  503 -0.38329679316E+02  0.13981020596E+03 -0.36000137682E+03  0.38812258285E+03  0.47000000000E+01 0.  1.
<mgrwt>
<rscale>  0 0.22321128E+03</rscale>
<asrwt>0</asrwt>
<pdfrwt beam="1">  1        2 0.42661130E+00 0.22337876E+03</pdfrwt>
<pdfrwt beam="2">  1       -2 0.41346117E-02 0.22337876E+03</pdfrwt>
<totfact> 0.74551332E+02</totfact>
</mgrwt>
</event>
<event>
 8    1  0.3466492E-004  0.1191330E+03  0.7546771E-02  0.1244914E+00
          1   -1    0    0  501    0  0.00000000000E+00  0.00000000000E+00  0.74602528269E+03  0.74602528269E+03  0.00000000000E+00 0. -1.
         -1   -1    0    0    0  501 -0.00000000000E+00 -0.00000000000E+00 -0.18925738807E+02  0.18925738807E+02  0.00000000000E+00 0.  1.
         23    2    1    2    0    0 -0.55568350640E+02 -0.44371102925E+02  0.34604982991E+03  0.36598243833E+03  0.95582550804E+02 0.  0.
         23    2    1    2    0    0  0.55568350640E+02  0.44371102925E+02  0.38104971397E+03  0.39896858317E+03  0.94447919340E+02 0.  0.
          5    1    3    3  502    0  0.12522430724E+02 -0.48931721789E+02  0.14657545269E+03  0.15510505472E+03  0.47000000000E+01 0. -1.
         -5    1    3    3    0  502 -0.68090781364E+02  0.45606188643E+01  0.19947437722E+03  0.21087738361E+03  0.47000000000E+01 0.  1.
          5    1    4    4  503    0  0.35216292354E+02  0.56580716337E+01  0.32838398338E+03  0.33034880288E+03  0.47000000000E+01 0. -1.
         -5    1    4    4    0  503  0.20352058285E+02  0.38713031291E+02  0.52665730595E+02  0.68619780292E+02  0.47000000000E+01 0.  1.
<mgrwt>
<rscale>  0 0.11890520E+03</rscale>
<asrwt>0</asrwt>
<pdfrwt beam="1">  1        1 0.11477310E+00 0.11913295E+03</pdfrwt>
<pdfrwt beam="2">  1       -1 0.29116527E-02 0.11913295E+03</pdfrwt>
<totfact> 0.96191974E+03</totfact>
</mgrwt>
</event>
<event>
 8    1  0.3466492E-004  0.1032806E+03  0.7546771E-02  0.1274076E+00
          1   -1    0    0  501    0  0.00000000000E+00  0.00000000000E+00  0.15874279361E+03  0.15874279361E+03  0.00000000000E+00 0. -1.
         -1   -1    0    0    0  501 -0.00000000000E+00 -0.00000000000E+00 -0.69598946930E+02  0.69598946930E+02  0.00000000000E+00 0.  1.
         23    2    1    2    0    0  0.56066110755E+01  0.46131900461E+02  0.68822430655E+02  0.12411048778E+03  0.92235025279E+02 0.  0.
         23    2    1    2    0    0 -0.56066110755E+01 -0.46131900461E+02  0.20321416028E+02  0.10423125276E+03  0.91058265824E+02 0.  0.
          5    1    3    3  502    0 -0.28082503740E+02 -0.12630818429E+02  0.62342586096E+01  0.31766658164E+02  0.47000000000E+01 0. -1.
         -5    1    3    3    0  502  0.33689114816E+02  0.58762718890E+02  0.62588172045E+02  0.92343829617E+02  0.47000000000E+01 0.  1.
          5    1    4    4  503    0  0.22306804843E+02  0.10889696162E+02 -0.16986704325E+02  0.30443671733E+02  0.47000000000E+01 0.  1.
         -5    1    4    4    0  503 -0.27913415918E+02 -0.57021596623E+02  0.37308120353E+02  0.73787581028E+02  0.47000000000E+01 0. -1.
<mgrwt>
<rscale>  0 0.10301723E+03</rscale>
<asrwt>0</asrwt>
<pdfrwt beam="1">  1        1 0.24421968E-01 0.10328062E+03</pdfrwt>
<pdfrwt beam="2">  1       -1 0.10707530E-01 0.10328062E+03</pdfrwt>
<totfact> 0.99348319E+03</totfact>
</mgrwt>
</event>
<event>
 8    1  0.3466492E-004  0.1533749E+03  0.7546771E-02  0.1197650E+00
         -1   -1    0    0    0  501 -0.00000000000E+00  0.00000000000E+00  0.14690041098E+03  0.14690041098E+03  0.00000000000E+00 0.  1.
          1   -1    0    0  501    0  0.00000000000E+00 -0.00000000000E+00 -0.30470633014E+03  0.30470633014E+03  0.00000000000E+00 0. -1.
         23    2    1    2    0    0  0.82326645352E+02 -0.84546756489E+02 -0.23618525154E+03  0.27936509875E+03  0.91299259523E+02 0.  0.
         23    2    1    2    0    0 -0.82326645352E+02  0.84546756489E+02  0.78379332383E+02  0.17224164237E+03  0.97969551664E+02 0.  0.
          5    1    4    4  502    0 -0.15639267786E+02  0.84261290409E+02  0.35905401524E+02  0.93036764867E+02  0.47000000000E+01 0. -1.
         -5    1    4    4    0  502 -0.66687377566E+02  0.28546608039E+00  0.42473930859E+02  0.79204877502E+02  0.47000000000E+01 0.  1.
          5    1    3    3  503    0  0.33654616732E+02 -0.61349668345E+02 -0.51764694545E+02  0.87167015750E+02  0.47000000000E+01 0.  1.
         -5    1    3    3    0  503  0.48672028620E+02 -0.23197088145E+02 -0.18442055700E+03  0.19219808300E+03  0.47000000000E+01 0. -1.
<mgrwt>
<rscale>  0 0.15232100E+03</rscale>
<asrwt>0</asrwt>
<pdfrwt beam="1">  1        1 0.46877897E-01 0.15337491E+03</pdfrwt>
<pdfrwt beam="2">  1       -1 0.22600063E-01 0.15337491E+03</pdfrwt>
<totfact> 0.13999059E+03</totfact>
</mgrwt>
</event>
<event>
 8    1  0.3466492E-004  0.1062095E+03  0.7546771E-02  0.1273900E+00
          1   -1    0    0  501    0  0.00000000000E+00  0.00000000000E+00  0.10647569482E+04  0.10647569482E+04  0.00000000000E+00 0. -1.
         -1   -1    0    0    0  501 -0.00000000000E+00 -0.00000000000E+00 -0.34778210918E+02  0.34778210918E+02  0.00000000000E+00 0.  1.
         23    2    1    2    0    0  0.30239533525E+01  0.29231666485E+02  0.37685207380E+02  0.10157378681E+03  0.89629374053E+02 0.  0.
         23    2    1    2    0    0 -0.30239533525E+01 -0.29231666485E+02  0.99229352991E+03  0.99796137231E+03  0.10206280668E+03 0.  0.
          5    1    3    3  502    0  0.14333654297E+02 -0.29753152241E+02  0.19527979227E+02  0.38654051359E+02  0.47000000000E+01 0. -1.
         -5    1    4    4    0  503  0.19632496267E+02  0.33478404217E+02  0.33235158170E+03  0.33464294750E+03  0.47000000000E+01 0.  1.
          5    1    4    4  503    0 -0.22656449619E+02 -0.62710070703E+02  0.65994194821E+03  0.66331842481E+03  0.47000000000E+01 0. -1.
         -5    1    3    3    0  502 -0.11309700944E+02  0.58984818726E+02  0.18157228154E+02  0.62919735456E+02  0.47000000000E+01 0.  1.
<mgrwt>
<rscale>  0 0.10310465E+03</rscale>
<asrwt>0</asrwt>
<pdfrwt beam="1">  1        1 0.16380874E+00 0.10620947E+03</pdfrwt>
<pdfrwt beam="2">  1       -1 0.53504948E-02 0.10620947E+03</pdfrwt>
<totfact> 0.22430741E+03</totfact>
</mgrwt>
</event>
<event>
 8    1  0.3466492E-004  0.1032902E+03  0.7546771E-02  0.1274015E+00
         -1   -1    0    0    0  501 -0.00000000000E+00  0.00000000000E+00  0.19534103207E+02  0.19534103207E+02  0.00000000000E+00 0.  1.
          1   -1    0    0  501    0  0.00000000000E+00 -0.00000000000E+00 -0.62290082223E+03  0.62290082223E+03  0.00000000000E+00 0. -1.
         23    2    1    2    0    0  0.39114186549E+02 -0.32008534706E+02 -0.18402186318E+03  0.21055650875E+03  0.88969272026E+02 0.  0.
         23    2    1    2    0    0 -0.39114186549E+02  0.32008534706E+02 -0.41934485584E+03  0.43187841669E+03  0.90079924487E+02 0.  0.
          5    1    4    4  502    0 -0.57963288141E+02 -0.79945132759E+01 -0.24879874837E+03  0.25562973655E+03  0.47000000000E+01 0. -1.
         -5    1    4    4    0  502  0.18849101592E+02  0.40003047982E+02 -0.17054610747E+03  0.17624868014E+03  0.47000000000E+01 0.  1.
          5    1    3    3  503    0 -0.24267165396E+00 -0.53618993534E+02 -0.72927311235E+02  0.90639605477E+02  0.47000000000E+01 0. -1.
         -5    1    3    3    0  503  0.39356858203E+02  0.21610458828E+02 -0.11109455194E+03  0.11991690327E+03  0.47000000000E+01 0.  1.
<mgrwt>
<rscale>  0 0.10304752E+03</rscale>
<asrwt>0</asrwt>
<pdfrwt beam="1">  1        1 0.95830902E-01 0.10329017E+03</pdfrwt>
<pdfrwt beam="2">  1       -1 0.30052464E-02 0.10329017E+03</pdfrwt>
<totfact> 0.11719725E+04</totfact>
</mgrwt>
</event>
<event>
 8    1  0.3466492E-004  0.9643229E+02  0.7546771E-02  0.1289929E+00
          1   -1    0    0  501    0  0.00000000000E+00  0.00000000000E+00  0.33312608348E+02  0.33312608348E+02  0.00000000000E+00 0. -1.
         -1   -1    0    0    0  501 -0.00000000000E+00 -0.00000000000E+00 -0.61665367892E+03  0.61665367892E+03  0.00000000000E+00 0.  1.
         23    2    1    2    0    0  0.55186349744E+01 -0.13438211880E+02 -0.50080001359E+02  0.10866090928E+03  0.95331766995E+02 0.  0.
         23    2    1    2    0    0 -0.55186349744E+01  0.13438211880E+02 -0.53326106921E+03  0.54130537799E+03  0.91831930359E+02 0.  0.
          5    1    3    3  502    0 -0.40398708294E+01  0.34395385396E+02  0.45816728550E+01  0.35248330726E+02  0.47000000000E+01 0. -1.
         -5    1    4    4    0  503 -0.37883350907E+02 -0.17485870981E+02 -0.16310235914E+03  0.16842022894E+03  0.47000000000E+01 0.  1.
          5    1    4    4  503    0  0.32364715933E+02  0.30924082862E+02 -0.37015871007E+03  0.37288514905E+03  0.47000000000E+01 0. -1.
         -5    1    3    3    0  502  0.95585058038E+01 -0.47833597276E+02 -0.54661674214E+02  0.73412578551E+02  0.47000000000E+01 0.  1.
<mgrwt>
<rscale>  0 0.95555813E+02</rscale>
<asrwt>0</asrwt>
<pdfrwt beam="1">  1        1 0.51250170E-02 0.96432291E+02</pdfrwt>
<pdfrwt beam="2">  1       -1 0.94869790E-01 0.96432291E+02</pdfrwt>
<totfact> 0.17446769E+03</totfact>
</mgrwt>
</event>
<event>
 8    1  0.3466492E-004  0.1388098E+03  0.7546771E-02  0.1215825E+00
         -2   -1    0    0    0  501 -0.00000000000E+00  0.00000000000E+00  0.21358349863E+03  0.21358349863E+03  0.00000000000E+00 0.  1.
          2   -1    0    0  501    0  0.00000000000E+00 -0.00000000000E+00 -0.11293085677E+03  0.11293085677E+03  0.00000000000E+00 0. -1.
         23    2    1    2    0    0  0.97357049892E+02 -0.27579958615E+02  0.12581568698E+03  0.18544228130E+03  0.91215148532E+02 0.  0.
         23    2    1    2    0    0 -0.97357049892E+02  0.27579958615E+02 -0.25163045113E+02  0.14107207410E+03  0.95021586872E+02 0.  0.
          5    1    3    3  502    0  0.35122255879E+02 -0.51374353682E+02  0.31605477367E+02  0.69956366929E+02  0.47000000000E+01 0. -1.
         -5    1    4    4    0  503  0.55661799738E+01  0.31419841865E+02  0.71280405778E+01  0.33031617956E+02  0.47000000000E+01 0.  1.
          5    1    4    4  503    0 -0.10292322987E+03 -0.38398832504E+01 -0.32291085691E+02  0.10804045615E+03  0.47000000000E+01 0. -1.
         -5    1    3    3    0  502  0.62234794012E+02  0.23794395067E+02  0.94210209611E+02  0.11548591437E+03  0.47000000000E+01 0.  1.
<mgrwt>
<rscale>  0 0.13816088E+03</rscale>
<asrwt>0</asrwt>
<pdfrwt beam="1">  1        2 0.17373978E-01 0.13880977E+03</pdfrwt>
<pdfrwt beam="2">  1       -2 0.32859000E-01 0.13880977E+03</pdfrwt>
<totfact> 0.27321734E+03</totfact>
</mgrwt>
</event>
<event>
 8    1  0.3466492E-004  0.1000836E+03  0.7546771E-02  0.1282494E+00
         -1   -1    0    0    0  501 -0.00000000000E+00  0.00000000000E+00  0.72764632740E+02  0.72764632740E+02  0.00000000000E+00 0.  1.
          1   -1    0    0  501    0  0.00000000000E+00 -0.00000000000E+00 -0.14481308238E+03  0.14481308238E+03  0.00000000000E+00 0. -1.
         23    2    1    2    0    0 -0.22989164948E+02 -0.15510796191E+02 -0.25044280289E+01  0.95704448345E+02  0.91564091050E+02 0.  0.
         23    2    1    2    0    0  0.22989164948E+02  0.15510796191E+02 -0.69544021614E+02  0.12187326678E+03  0.96164628161E+02 0.  0.
          5    1    4    4  502    0  0.48860045167E+02 -0.21501167975E+02 -0.28629788497E+02  0.60756555428E+02  0.47000000000E+01 0. -1.
         -5    1    3    3    0  503  0.21622419438E+02  0.25769185090E+02 -0.66169937376E+01  0.34604255933E+02  0.47000000000E+01 0.  1.
          5    1    3    3  503    0 -0.44611584387E+02 -0.41279981281E+02  0.41125657087E+01  0.61100192412E+02  0.47000000000E+01 0. -1.
         -5    1    4    4    0  502 -0.25870880219E+02  0.37011964166E+02 -0.40914233117E+02  0.61116711350E+02  0.47000000000E+01 0.  1.
<mgrwt>
<rscale>  0 0.98961884E+02</rscale>
<asrwt>0</asrwt>
<pdfrwt beam="1">  1        1 0.22278936E-01 0.10008358E+03</pdfrwt>
<pdfrwt beam="2">  1       -1 0.11194559E-01 0.10008358E+03</pdfrwt>
<totfact> 0.10383438E+04</totfact>
</mgrwt>
</event>
<event>
 8    1  0.3466492E-004  0.1101218E+03  0.7546771E-02  0.1264798E+00
          2   -1    0    0  501    0  0.00000000000E+00  0.00000000000E+00  0.19290290983E+03  0.19290290983E+03  0.00000000000E+00 0. -1.
         -2   -1    0    0    0  501 -0.00000000000E+00 -0.00000000000E+00 -0.14238258652E+03  0.14238258652E+03  0.00000000000E+00 0.  1.
         23    2    1    2    0    0 -0.40095093196E+02  0.59264488624E+01 -0.10351028900E+03  0.15113301648E+03  0.10239174501E+03 0.  0.
         23    2    1    2    0    0  0.40095093196E+02 -0.59264488624E+01  0.15403061231E+03  0.18415247988E+03  0.92433581679E+02 0.  0.
          5    1    4    4  502    0 -0.11318992093E+02 -0.33821164267E+02  0.91900891951E+02  0.98690702073E+02  0.47000000000E+01 0. -1.
         -5    1    3    3    0  503 -0.30041801927E+02  0.50598343930E+02 -0.35100691993E+02  0.68679333499E+02  0.47000000000E+01 0.  1.
          5    1    3    3  503    0 -0.10053291269E+02 -0.44671895067E+02 -0.68409597009E+02  0.82453682981E+02  0.47000000000E+01 0. -1.
         -5    1    4    4    0  502  0.51414085290E+02  0.27894715404E+02  0.62129720361E+02  0.85461777806E+02  0.47000000000E+01 0.  1.
<mgrwt>
<rscale>  0 0.10774799E+03</rscale>
<asrwt>0</asrwt>
<pdfrwt beam="1">  1        2 0.29677371E-01 0.11012179E+03</pdfrwt>
<pdfrwt beam="2">  1       -2 0.21905013E-01 0.11012179E+03</pdfrwt>
<totfact> 0.30417342E+03</totfact>
</mgrwt>
</event>
<event>
 8    1  0.3466492E-004  0.1102673E+03  0.7546771E-02  0.1263973E+00
         -1   -1    0    0    0  501 -0.00000000000E+00  0.00000000000E+00  0.44210703198E+02  0.44210703198E+02  0.00000000000E+00 0.  1.
          1   -1    0    0  501    0  0.00000000000E+00 -0.00000000000E+00 -0.30220220046E+03  0.30220220046E+03  0.00000000000E+00 0. -1.
         23    2    1    2    0    0 -0.24632826902E+02  0.41751983759E+02 -0.56558477625E+02  0.11677377755E+03  0.89929135560E+02 0.  0.
         23    2    1    2    0    0  0.24632826902E+02 -0.41751983759E+02 -0.20143301963E+03  0.22963912611E+03  0.99039701795E+02 0.  0.
          5    1    3    3  502    0 -0.25460936679E+01 -0.25365425073E+02 -0.33378348603E+02  0.42262176204E+02  0.47000000000E+01 0. -1.
         -5    1    3    3    0  502 -0.22086733234E+02  0.67117408832E+02 -0.23180129023E+02  0.74511601344E+02  0.47000000000E+01 0.  1.
          5    1    4    4  503    0  0.58866834116E+02 -0.42432955692E+02 -0.15952842804E+03  0.17532047582E+03  0.47000000000E+01 0. -1.
         -5    1    4    4    0  503 -0.34234007214E+02  0.68097193288E+00 -0.41904591589E+02  0.54318650287E+02  0.47000000000E+01 0.  1.
<mgrwt>
<rscale>  0 0.10818279E+03</rscale>
<asrwt>0</asrwt>
<pdfrwt beam="1">  1        1 0.46492648E-01 0.11026725E+03</pdfrwt>
<pdfrwt beam="2">  1       -1 0.68016464E-02 0.11026725E+03</pdfrwt>
<totfact> 0.89413705E+03</totfact>
</mgrwt>
</event>
<event>
 8    1  0.3466492E-004  0.1491107E+03  0.7546771E-02  0.1209186E+00
          2   -1    0    0  501    0  0.00000000000E+00  0.00000000000E+00  0.64564588848E+02  0.64564588848E+02  0.00000000000E+00 0. -1.
         -2   -1    0    0    0  501 -0.00000000000E+00 -0.00000000000E+00 -0.29454237563E+03  0.29454237563E+03  0.00000000000E+00 0.  1.
         23    2    1    2    0    0 -0.82250259491E+02  0.24650507115E+02 -0.10020062560E+03  0.16143014352E+03  0.92988027081E+02 0.  0.
         23    2    1    2    0    0  0.82250259491E+02 -0.24650507115E+02 -0.12977716119E+03  0.19767682096E+03  0.12190677295E+03 0.  0.
          5    1    4    4  502    0  0.21155020495E+02 -0.21625169034E+02  0.19490845352E+02  0.36292780004E+02  0.47000000000E+01 0. -1.
         -5    1    4    4    0  502  0.61095238996E+02 -0.30253380812E+01 -0.14926800654E+03  0.16138404095E+03  0.47000000000E+01 0.  1.
          5    1    3    3  503    0  0.70169744619E+00 -0.27303100004E+02 -0.14644008322E+02  0.31344674650E+02  0.47000000000E+01 0. -1.
         -5    1    3    3    0  503 -0.82951956938E+02  0.51953607120E+02 -0.85556617275E+02  0.13008546887E+03  0.47000000000E+01 0.  1.
<mgrwt>
<rscale>  0 0.14312415E+03</rscale>
<asrwt>0</asrwt>
<pdfrwt beam="1">  1        2 0.99330137E-02 0.14911074E+03</pdfrwt>
<pdfrwt beam="2">  1       -2 0.45314212E-01 0.14911074E+03</pdfrwt>
<totfact> 0.29151060E+03</totfact>
</mgrwt>
</event>
<event>
 8    1  0.3466492E-004  0.1008279E+03  0.7546771E-02  0.1283607E+00
         -2   -1    0    0    0  501 -0.00000000000E+00  0.00000000000E+00  0.12965089948E+02  0.12965089948E+02  0.00000000000E+00 0.  1.
          2   -1    0    0  501    0  0.00000000000E+00 -0.00000000000E+00 -0.76397707420E+03  0.76397707420E+03  0.00000000000E+00 0. -1.
         23    2    1    2    0    0 -0.27162367127E+01 -0.37976234412E+02 -0.49142277077E+03  0.50165985311E+03  0.93363249055E+02 0.  0.
         23    2    1    2    0    0  0.27162367127E+01  0.37976234412E+02 -0.25958921349E+03  0.27528231104E+03  0.83331978794E+02 0.  0.
          5    1    3    3  502    0  0.44808309321E+02 -0.16236234112E+02 -0.21054503581E+03  0.21592290751E+03  0.47000000000E+01 0. -1.
         -5    1    4    4    0  503 -0.13340983090E+02  0.57640046159E+02 -0.12674768904E+03  0.13995507647E+03  0.47000000000E+01 0.  1.
          5    1    4    4  503    0  0.16057219802E+02 -0.19663811747E+02 -0.13284152445E+03  0.13532723457E+03  0.47000000000E+01 0. -1.
         -5    1    3    3    0  502 -0.47524546033E+02 -0.21740000301E+02 -0.28087773496E+03  0.28573694560E+03  0.47000000000E+01 0.  1.
<mgrwt>
<rscale>  0 0.98441985E+02</rscale>
<asrwt>0</asrwt>
<pdfrwt beam="1">  1        2 0.11753494E+00 0.10082792E+03</pdfrwt>
<pdfrwt beam="2">  1       -2 0.19946292E-02 0.10082792E+03</pdfrwt>
<totfact> 0.26795384E+04</totfact>
</mgrwt>
</event>
<event>
 8    1  0.3466492E-004  0.1359558E+03  0.7546771E-02  0.1219308E+00
         -3   -1    0    0    0  501 -0.00000000000E+00  0.00000000000E+00  0.29051587284E+03  0.29051587284E+03  0.00000000000E+00 0.  1.
          3   -1    0    0  501    0  0.00000000000E+00 -0.00000000000E+00 -0.69462559521E+02  0.69462559521E+02  0.00000000000E+00 0. -1.
         23    2    1    2    0    0  0.38789356888E+02  0.91342546885E+02  0.16566276088E+03  0.21430849817E+03  0.92929580698E+02 0.  0.
         23    2    1    2    0    0 -0.38789356888E+02 -0.91342546885E+02  0.55390552440E+02  0.14566993419E+03  0.91123769385E+02 0.  0.
          5    1    3    3  502    0  0.93291936686E+00  0.44638465242E+02  0.81258947237E+01  0.45624369396E+02  0.47000000000E+01 0. -1.
         -5    1    3    3    0  502  0.37856437521E+02  0.46704081643E+02  0.15753686615E+03  0.16868412878E+03  0.47000000000E+01 0.  1.
          5    1    4    4  503    0 -0.67858718791E+02 -0.73210574437E+02  0.37528394092E+02  0.10674766643E+03  0.47000000000E+01 0. -1.
         -5    1    4    4    0  503  0.29069361903E+02 -0.18131972448E+02  0.17862158348E+02  0.38922267755E+02  0.47000000000E+01 0.  1.
<mgrwt>
<rscale>  0 0.13564780E+03</rscale>
<asrwt>0</asrwt>
<pdfrwt beam="1">  1        3 0.10686548E-01 0.13595581E+03</pdfrwt>
<pdfrwt beam="2">  1       -3 0.44694749E-01 0.13595581E+03</pdfrwt>
<totfact> 0.76280113E+02</totfact>
</mgrwt>
</event>
<event>
 8    1  0.3466492E-004  0.1019475E+03  0.7546771E-02  0.1280649E+00
          2   -1    0    0  501    0  0.00000000000E+00  0.00000000000E+00  0.77824334267E+03  0.77824334267E+03  0.00000000000E+00 0. -1.
         -2   -1    0    0    0  501 -0.00000000000E+00 -0.00000000000E+00 -0.12889272475E+02  0.12889272475E+02  0.00000000000E+00 0.  1.
         23    2    1    2    0    0 -0.21337399971E+02  0.30064313573E+02  0.31362171067E+03  0.32977549301E+03  0.95048149877E+02 0.  0.
         23    2    1    2    0    0  0.21337399971E+02 -0.30064313573E+02  0.45173235952E+03  0.46135712213E+03  0.86192354177E+02 0.  0.
          5    1    4    4  502    0  0.20475220234E+02  0.28139135415E+02  0.15424780166E+03  0.15819456344E+03  0.47000000000E+01 0. -1.
         -5    1    4    4    0  502  0.86217973700E+00 -0.58203448988E+02  0.29748455786E+03  0.30316255869E+03  0.47000000000E+01 0.  1.
          5    1    3    3  503    0  0.35848545667E+02  0.36683976200E+01  0.15119923767E+03  0.15550522448E+03  0.47000000000E+01 0. -1.
         -5    1    3    3    0  503 -0.57185945638E+02  0.26395915953E+02  0.16242247300E+03  0.17427026853E+03  0.47000000000E+01 0.  1.
<mgrwt>
<rscale>  0 0.99832155E+02</rscale>
<asrwt>0</asrwt>
<pdfrwt beam="1">  1        2 0.11972971E+00 0.10194753E+03</pdfrwt>
<pdfrwt beam="2">  1       -2 0.19829656E-02 0.10194753E+03</pdfrwt>
<totfact> 0.26451941E+04</totfact>
</mgrwt>
</event>
<event>
 7    1  0.3466492E-004  0.2364000E+03  0.7546771E-02  0.1152733E+00
         -1   -1    0    0    0  501 -0.00000000000E+00  0.00000000000E+00  0.15700878779E+03  0.15700878779E+03  0.00000000000E+00 0.  1.
          1   -1    0    0  501    0  0.00000000000E+00 -0.00000000000E+00 -0.59478340239E+03  0.59478340239E+03  0.00000000000E+00 0. -1.
         23    2    1    2    0    0  0.11467793003E+02  0.57903584313E+02 -0.49571586369E+03  0.50839509290E+03  0.96161414401E+02 0.  0.
          5    1    1    2  502    0 -0.11627126935E+03 -0.51827926718E+02  0.53655973505E+02  0.13822516254E+03  0.47000000000E+01 0. -1.
         -5    1    3    3    0  503 -0.22751187837E+02 -0.16094224306E+02 -0.83057159705E+02  0.87733815500E+02  0.47000000000E+01 0.  1.
          5    1    3    3  503    0  0.34218980840E+02  0.73997808619E+02 -0.41265870398E+03  0.42066127740E+03  0.47000000000E+01 0. -1.
         -5    1    1    2    0  502  0.10480347635E+03 -0.60756575948E+01  0.42852755885E+01  0.10517193474E+03  0.47000000000E+01 0.  1.
<mgrwt>
<rscale>  0 0.19649202E+03</rscale>
<asrwt>0</asrwt>
<pdfrwt beam="1">  1        1 0.91505140E-01 0.23640000E+03</pdfrwt>
<pdfrwt beam="2">  1       -1 0.24155198E-01 0.23640000E+03</pdfrwt>
<totfact> 0.52891666E+02</totfact>
</mgrwt>
</event>
<event>
 8    1  0.3466492E-004  0.9541782E+02  0.7546771E-02  0.1290895E+00
         -1   -1    0    0    0  501 -0.00000000000E+00  0.00000000000E+00  0.73546203390E+03  0.73546203390E+03  0.00000000000E+00 0.  1.
          1   -1    0    0  501    0  0.00000000000E+00 -0.00000000000E+00 -0.13136268541E+02  0.13136268541E+02  0.00000000000E+00 0. -1.
         23    2    1    2    0    0  0.24064886740E+02  0.11400262581E+02  0.46161398294E+03  0.47137249558E+03  0.91626827827E+02 0.  0.
         23    2    1    2    0    0 -0.24064886740E+02 -0.11400262581E+02  0.26071178241E+03  0.27722580686E+03  0.90412552997E+02 0.  0.
          5    1    4    4  502    0 -0.37100699823E+02  0.16391047053E+02  0.22983433096E+03  0.23343315540E+03  0.47000000000E+01 0. -1.
         -5    1    3    3    0  503 -0.13868466458E+02  0.43141927508E+02  0.23505526160E+03  0.23942979405E+03  0.47000000000E+01 0.  1.
          5    1    3    3  503    0  0.37933353198E+02 -0.31741664927E+02  0.22655872134E+03  0.23194270153E+03  0.47000000000E+01 0. -1.
         -5    1    4    4    0  502  0.13035813083E+02 -0.27791309635E+02  0.30877451455E+02  0.43792651465E+02  0.47000000000E+01 0.  1.
<mgrwt>
<rscale>  0 0.95125120E+02</rscale>
<asrwt>0</asrwt>
<pdfrwt beam="1">  1        1 0.20209650E-02 0.95417820E+02</pdfrwt>
<pdfrwt beam="2">  1       -1 0.11314797E+00 0.95417820E+02</pdfrwt>
<totfact> 0.42208890E+03</totfact>
</mgrwt>
</event>
<event>
 8    1  0.3466492E-004  0.1642867E+03  0.7546771E-02  0.1185324E+00
          4   -1    0    0  501    0  0.00000000000E+00  0.00000000000E+00  0.26588003186E+02  0.26588003186E+02  0.00000000000E+00 0. -1.
         -4   -1    0    0    0  501 -0.00000000000E+00 -0.00000000000E+00 -0.98529080213E+03  0.98529080213E+03  0.00000000000E+00 0.  1.
         23    2    1    2    0    0  0.91882698192E+02  0.93219943531E+02 -0.45768990237E+03  0.48461793304E+03  0.90786046234E+02 0.  0.
         23    2    1    2    0    0 -0.91882698192E+02 -0.93219943531E+02 -0.50101289657E+03  0.52726087228E+03  0.99286035286E+02 0.  0.
          5    1    3    3  502    0  0.23008204507E+02 -0.98470085442E+01 -0.30250049583E+02  0.39541074235E+02  0.47000000000E+01 0. -1.
         -5    1    3    3    0  502  0.68874493685E+02  0.10306695207E+03 -0.42743985279E+03  0.44507685880E+03  0.47000000000E+01 0.  1.
          5    1    4    4  503    0 -0.95378747053E+02 -0.29651227570E+02 -0.28631965418E+03  0.30327765341E+03  0.47000000000E+01 0. -1.
         -5    1    4    4    0  503  0.34960488605E+01 -0.63568715961E+02 -0.21469324239E+03  0.22398321887E+03  0.47000000000E+01 0.  1.
<mgrwt>
<rscale>  0 0.16302394E+03</rscale>
<asrwt>0</asrwt>
<pdfrwt beam="1">  1        4 0.40904629E-02 0.16428665E+03</pdfrwt>
<pdfrwt beam="2">  1       -4 0.15158317E+00 0.16428665E+03</pdfrwt>
<totfact> 0.17648354E+02</totfact>
</mgrwt>
</event>
<event>
 8    1  0.3466492E-004  0.1122750E+03  0.7546771E-02  0.1256997E+00
          1   -1    0    0  501    0  0.00000000000E+00  0.00000000000E+00  0.17711905109E+03  0.17711905109E+03  0.00000000000E+00 0. -1.
         -1   -1    0    0    0  501 -0.00000000000E+00 -0.00000000000E+00 -0.72648400141E+02  0.72648400141E+02  0.00000000000E+00 0.  1.
         23    2    1    2    0    0 -0.56488785470E+01  0.60151328991E+02  0.74117199849E+02  0.13346179091E+03  0.93105306570E+02 0.  0.
         23    2    1    2    0    0  0.56488785470E+01 -0.60151328991E+02  0.30353451101E+02  0.11630566032E+03  0.94633939053E+02 0.  0.
          5    1    3    3  502    0 -0.44199044408E+02  0.29197245191E+02  0.63228905617E+02  0.82619726209E+02  0.47000000000E+01 0. -1.
         -5    1    4    4    0  503  0.35513637314E+02  0.72851873576E+01  0.38827288147E+00  0.36558626149E+02  0.47000000000E+01 0.  1.
          5    1    4    4  503    0 -0.29864758767E+02 -0.67436516349E+02  0.29965178220E+02  0.79747034172E+02  0.47000000000E+01 0. -1.
         -5    1    3    3    0  502  0.38550165861E+02  0.30954083801E+02  0.10888294232E+02  0.50842064702E+02  0.47000000000E+01 0.  1.
<mgrwt>
<rscale>  0 0.11195226E+03</rscale>
<asrwt>0</asrwt>
<pdfrwt beam="1">  1        1 0.27249085E-01 0.11227500E+03</pdfrwt>
<pdfrwt beam="2">  1       -1 0.11176677E-01 0.11227500E+03</pdfrwt>
<totfact> 0.81771331E+03</totfact>
</mgrwt>
</event>
<event>
 8    1  0.3466492E-004  0.9384819E+02  0.7546771E-02  0.1298883E+00
          2   -1    0    0  501    0  0.00000000000E+00  0.00000000000E+00  0.30772810138E+03  0.30772810138E+03  0.00000000000E+00 0. -1.
         -2   -1    0    0    0  501 -0.00000000000E+00 -0.00000000000E+00 -0.26389982670E+02  0.26389982670E+02  0.00000000000E+00 0.  1.
         23    2    1    2    0    0 -0.85099506851E+01  0.22386134710E+02  0.12975651770E+03  0.16013818209E+03  0.90740978559E+02 0.  0.
         23    2    1    2    0    0  0.85099506851E+01 -0.22386134710E+02  0.15158160101E+03  0.17397990196E+03  0.81966250571E+02 0.  0.
          5    1    3    3  502    0  0.18324137541E+02  0.23147543585E+02  0.12947725649E+03  0.13288353073E+03  0.47000000000E+01 0. -1.
         -5    1    3    3    0  502 -0.26834088226E+02 -0.76140887434E+00  0.27926121656E+00  0.27254651369E+02  0.47000000000E+01 0.  1.
          5    1    4    4  503    0  0.96081943358E+01  0.29067690292E+02  0.79211159961E+02  0.85051430792E+02  0.47000000000E+01 0. -1.
         -5    1    4    4    0  503 -0.10982436507E+01 -0.51453825002E+02  0.72370441046E+02  0.88928471164E+02  0.47000000000E+01 0.  1.
<mgrwt>
<rscale>  0 0.91659072E+02</rscale>
<asrwt>0</asrwt>
<pdfrwt beam="1">  1        2 0.47342782E-01 0.93848194E+02</pdfrwt>
<pdfrwt beam="2">  1       -2 0.40599975E-02 0.93848194E+02</pdfrwt>
<totfact> 0.25576713E+04</totfact>
</mgrwt>
</event>
<event>
 8    1  0.3466492E-004  0.1213741E+03  0.7546771E-02  0.1241558E+00
          2   -1    0    0  501    0  0.00000000000E+00  0.00000000000E+00  0.80172610176E+03  0.80172610176E+03  0.00000000000E+00 0. -1.
         -2   -1    0    0    0  501 -0.00000000000E+00 -0.00000000000E+00 -0.19029438213E+02  0.19029438213E+02  0.00000000000E+00 0.  1.
         23    2    1    2    0    0  0.26858513873E+00  0.78919801727E+02  0.48408205393E+03  0.49906623518E+03  0.92213149383E+02 0.  0.
         23    2    1    2    0    0 -0.26858513873E+00 -0.78919801727E+02  0.29861460962E+03  0.32168930480E+03  0.89916163718E+02 0.  0.
          5    1    4    4  502    0 -0.34697317866E+02 -0.35971679038E+02  0.67833418866E+02  0.84387962856E+02  0.47000000000E+01 0. -1.
         -5    1    3    3    0  503 -0.23623978861E+02 -0.11044167389E+02  0.14537070851E+03  0.14776602757E+03  0.47000000000E+01 0.  1.
          5    1    3    3  503    0  0.23892563999E+02  0.89963969116E+02  0.33871134542E+03  0.35130020761E+03  0.47000000000E+01 0. -1.
         -5    1    4    4    0  502  0.34428732727E+02 -0.42948122689E+02  0.23078119076E+03  0.23730134194E+03  0.47000000000E+01 0.  1.
<mgrwt>
<rscale>  0 0.12093780E+03</rscale>
<asrwt>0</asrwt>
<pdfrwt beam="1">  1        2 0.12334245E+00 0.12137410E+03</pdfrwt>
<pdfrwt beam="2">  1       -2 0.29276065E-02 0.12137410E+03</pdfrwt>
<totfact> 0.14699681E+04</totfact>
</mgrwt>
</event>
<event>
 8    1  0.3466492E-004  0.1022938E+03  0.7546771E-02  0.1276071E+00
         -1   -1    0    0    0  501 -0.00000000000E+00  0.00000000000E+00  0.42640273781E+02  0.42640273781E+02  0.00000000000E+00 0.  1.
          1   -1    0    0  501    0  0.00000000000E+00 -0.00000000000E+00 -0.43968476821E+03  0.43968476821E+03  0.00000000000E+00 0. -1.
         23    2    1    2    0    0  0.37893563763E+02  0.26806524397E+02 -0.37758795846E+02  0.10904011782E+03  0.91156506652E+02 0.  0.
         23    2    1    2    0    0 -0.37893563763E+02 -0.26806524397E+02 -0.35928569859E+03  0.37328492418E+03  0.90005052553E+02 0.  0.
          5    1    4    4  502    0 -0.32897183670E+02  0.12476631353E+02 -0.29839129875E+03  0.30049517166E+03  0.47000000000E+01 0. -1.
         -5    1    3    3    0  503  0.14229090928E+02  0.19304860028E+02  0.28844622627E+02  0.37805381943E+02  0.47000000000E+01 0.  1.
          5    1    3    3  503    0  0.23664472834E+02  0.75016643690E+01 -0.66603418473E+02  0.71234735874E+02  0.47000000000E+01 0. -1.
         -5    1    4    4    0  502 -0.49963800927E+01 -0.39283155750E+02 -0.60894399837E+02  0.72789752516E+02  0.47000000000E+01 0.  1.
<mgrwt>
<rscale>  0 0.10203664E+03</rscale>
<asrwt>0</asrwt>
<pdfrwt beam="1">  1        1 0.67643812E-01 0.10229380E+03</pdfrwt>
<pdfrwt beam="2">  1       -1 0.65600420E-02 0.10229380E+03</pdfrwt>
<totfact> 0.58901037E+03</totfact>
</mgrwt>
</event>
<event>
 8    1  0.3466492E-004  0.1199377E+03  0.7546771E-02  0.1243495E+00
          1   -1    0    0  501    0  0.00000000000E+00  0.00000000000E+00  0.87412796383E+02  0.87412796383E+02  0.00000000000E+00 0. -1.
         -1   -1    0    0    0  501 -0.00000000000E+00 -0.00000000000E+00 -0.16864987074E+03  0.16864987074E+03  0.00000000000E+00 0.  1.
         23    2    1    2    0    0 -0.63884601975E+01 -0.76683907838E+02 -0.62683029214E+02  0.13469833606E+03  0.91067257786E+02 0.  0.
         23    2    1    2    0    0  0.63884601975E+01  0.76683907838E+02 -0.18554045141E+02  0.12136433106E+03  0.91998989767E+02 0.  0.
          5    1    4    4  502    0 -0.35230368454E+02  0.13841267073E+02 -0.24942154031E+02  0.45573683013E+02  0.47000000000E+01 0. -1.
         -5    1    3    3    0  503  0.14373456322E+02 -0.62366982771E+02  0.29375466065E+01  0.64241388268E+02  0.47000000000E+01 0. -1.
          5    1    3    3  503    0 -0.20761916519E+02 -0.14316925067E+02 -0.65620575821E+02  0.70456947791E+02  0.47000000000E+01 0.  1.
         -5    1    4    4    0  502  0.41618828652E+02  0.62842640765E+02  0.63881088897E+01  0.75790648050E+02  0.47000000000E+01 0.  1.
<mgrwt>
<rscale>  0 0.11975899E+03</rscale>
<asrwt>0</asrwt>
<pdfrwt beam="1">  1        1 0.13448123E-01 0.11993768E+03</pdfrwt>
<pdfrwt beam="2">  1       -1 0.25946134E-01 0.11993768E+03</pdfrwt>
<totfact> 0.53232938E+03</totfact>
</mgrwt>
</event>
<event>
 8    1  0.3466492E-004  0.1261025E+03  0.7546771E-02  0.1233890E+00
          3   -1    0    0  501    0  0.00000000000E+00  0.00000000000E+00  0.62869977275E+02  0.62869977275E+02  0.00000000000E+00 0. -1.
         -3   -1    0    0    0  501 -0.00000000000E+00 -0.00000000000E+00 -0.27100595294E+03  0.27100595294E+03  0.00000000000E+00 0.  1.
         23    2    1    2    0    0  0.58912764968E+02 -0.60628443078E+02 -0.15086608618E+03  0.19662760318E+03  0.93569847644E+02 0.  0.
         23    2    1    2    0    0 -0.58912764968E+02  0.60628443078E+02 -0.57269889491E+02  0.13724832704E+03  0.91710092386E+02 0.  0.
          5    1    4    4  502    0 -0.70632672953E+02  0.37589756833E+02 -0.69101466923E+01  0.80447525969E+02  0.47000000000E+01 0. -1.
         -5    1    3    3    0  503  0.27315394706E+02 -0.78720002210E+02 -0.12975844436E+03  0.15427998386E+03  0.47000000000E+01 0.  1.
          5    1    3    3  503    0  0.31597370262E+02  0.18091559132E+02 -0.21107641813E+02  0.42347619321E+02  0.47000000000E+01 0. -1.
         -5    1    4    4    0  502  0.11719907985E+02  0.23038686245E+02 -0.50359742798E+02  0.56800801066E+02  0.47000000000E+01 0.  1.
<mgrwt>
<rscale>  0 0.12575765E+03</rscale>
<asrwt>0</asrwt>
<pdfrwt beam="1">  1        3 0.96723042E-02 0.12610249E+03</pdfrwt>
<pdfrwt beam="2">  1       -3 0.41693224E-01 0.12610249E+03</pdfrwt>
<totfact> 0.10177587E+03</totfact>
</mgrwt>
</event>
<event>
 8    1  0.5348183E-004  0.9154122E+02  0.7546771E-02  0.1299405E+00
         -1   -1    0    0    0  501 -0.00000000000E+00  0.00000000000E+00  0.65035992608E+02  0.65035992608E+02  0.00000000000E+00 0.  1.
          1   -1    0    0  501    0  0.00000000000E+00 -0.00000000000E+00 -0.39926085029E+03  0.39926085029E+03  0.00000000000E+00 0. -1.
         23    2    1    2    0    0  0.24960324699E+01  0.10282505019E+01 -0.35824684383E+03  0.36965620474E+03  0.91091279022E+02 0.  0.
         23    2    1    2    0    0 -0.24960324699E+01 -0.10282505019E+01  0.24021986146E+02  0.94640638157E+02  0.91501404881E+02 0.  0.
          5    1    4    4  502    0 -0.23507452961E+02  0.19772758807E+02 -0.23164257770E+02  0.38758678687E+02  0.47000000000E+01 0. -1.
         -5    1    3    3    0  503 -0.33292575424E+02 -0.28379401687E+02 -0.19482390972E+03  0.19973039783E+03  0.47000000000E+01 0.  1.
          5    1    3    3  503    0  0.35788607894E+02  0.29407652189E+02 -0.16342293411E+03  0.16992580691E+03  0.47000000000E+01 0. -1.
         -5    1    4    4    0  502  0.21011420491E+02 -0.20801009309E+02  0.47186243916E+02  0.55881959470E+02  0.47000000000E+01 0.  1.
<mgrwt>
<rscale>  0 0.91438559E+02</rscale>
<asrwt>0</asrwt>
<pdfrwt beam="1">  1        1 0.61424745E-01 0.91541218E+02</pdfrwt>
<pdfrwt beam="2">  1       -1 0.10005537E-01 0.91541218E+02</pdfrwt>
<totfact> 0.35108771E+03</totfact>
</mgrwt>
</event>
<event>
 8    1  0.3466492E-004  0.1116728E+03  0.7546771E-02  0.1257738E+00
         -1   -1    0    0    0  501 -0.00000000000E+00  0.00000000000E+00  0.34467554508E+02  0.34467554508E+02  0.00000000000E+00 0.  1.
          1   -1    0    0  501    0  0.00000000000E+00 -0.00000000000E+00 -0.36282898159E+03  0.36282898159E+03  0.00000000000E+00 0. -1.
         23    2    1    2    0    0  0.63933926599E+02 -0.16363286783E+02 -0.14746214075E+03  0.18497541247E+03  0.90086159532E+02 0.  0.
         23    2    1    2    0    0 -0.63933926599E+02  0.16363286783E+02 -0.18089928634E+03  0.21232112363E+03  0.89444975366E+02 0.  0.
          5    1    3    3  502    0  0.27593604520E+02  0.18470215981E+02 -0.51239235073E+01  0.33924924184E+02  0.47000000000E+01 0. -1.
         -5    1    4    4    0  503 -0.16722153438E+02  0.41750002270E+02 -0.36148487190E+02  0.57892108541E+02  0.47000000000E+01 0.  1.
          5    1    4    4  503    0 -0.47211773162E+02 -0.25386715487E+02 -0.14475079915E+03  0.15442901509E+03  0.47000000000E+01 0. -1.
         -5    1    3    3    0  502  0.36340322080E+02 -0.34833502765E+02 -0.14233821724E+03  0.15105048828E+03  0.47000000000E+01 0.  1.
<mgrwt>
<rscale>  0 0.11154345E+03</rscale>
<asrwt>0</asrwt>
<pdfrwt beam="1">  1        1 0.55819846E-01 0.11167283E+03</pdfrwt>
<pdfrwt beam="2">  1       -1 0.53027004E-02 0.11167283E+03</pdfrwt>
<totfact> 0.10326667E+04</totfact>
</mgrwt>
</event>
<event>
 8    1  0.3466492E-004  0.1176999E+03  0.7546771E-02  0.1253732E+00
         -1   -1    0    0    0  501 -0.00000000000E+00  0.00000000000E+00  0.19360124720E+02  0.19360124720E+02  0.00000000000E+00 0.  1.
          1   -1    0    0  501    0  0.00000000000E+00 -0.00000000000E+00 -0.65875029707E+03  0.65875029707E+03  0.00000000000E+00 0. -1.
         23    2    1    2    0    0  0.46816594917E+02 -0.88357888007E+01 -0.26685090877E+03  0.29165504623E+03  0.10762617597E+03 0.  0.
         23    2    1    2    0    0 -0.46816594917E+02  0.88357888007E+01 -0.37253926358E+03  0.38645537556E+03  0.91062559107E+02 0.  0.
          5    1    4    4  502    0  0.23963286741E+02  0.17985167282E+02 -0.13592569700E+03  0.13926805254E+03  0.47000000000E+01 0. -1.
         -5    1    4    4    0  502 -0.70779881659E+02 -0.91493784810E+01 -0.23661356658E+03  0.24718732302E+03  0.47000000000E+01 0.  1.
          5    1    3    3  503    0  0.58796988322E+01  0.22356822050E+02 -0.22193031367E+03  0.22318053785E+03  0.47000000000E+01 0. -1.
         -5    1    3    3    0  503  0.40936896085E+02 -0.31192610851E+02 -0.44920595104E+02  0.68474508375E+02  0.47000000000E+01 0.  1.
<mgrwt>
<rscale>  0 0.11377623E+03</rscale>
<asrwt>0</asrwt>
<pdfrwt beam="1">  1        1 0.10134619E+00 0.11769987E+03</pdfrwt>
<pdfrwt beam="2">  1       -1 0.29784809E-02 0.11769987E+03</pdfrwt>
<totfact> 0.11101211E+04</totfact>
</mgrwt>
</event>
<event>
 8    1  0.3466492E-004  0.1087667E+03  0.7546771E-02  0.1263084E+00
         -2   -1    0    0    0  501 -0.00000000000E+00  0.00000000000E+00  0.10281642064E+02  0.10281642064E+02  0.00000000000E+00 0.  1.
          2   -1    0    0  501    0  0.00000000000E+00 -0.00000000000E+00 -0.12898844226E+04  0.12898844226E+04  0.00000000000E+00 0. -1.
         23    2    1    2    0    0 -0.57759385945E+02  0.14977522786E+02 -0.42373904582E+03  0.43747569569E+03  0.90938069633E+02 0.  0.
         23    2    1    2    0    0  0.57759385945E+02 -0.14977522786E+02 -0.85586373471E+03  0.86269036897E+03  0.90396169590E+02 0.  0.
          5    1    4    4  502    0  0.23649317054E+02  0.37717488614E+02 -0.31176870616E+03  0.31496621293E+03  0.47000000000E+01 0. -1.
         -5    1    4    4    0  502  0.34110068890E+02 -0.52695011400E+02 -0.54409502855E+03  0.54772415605E+03  0.47000000000E+01 0.  1.
          5    1    3    3  503    0 -0.19321211431E+01 -0.23924204645E+02 -0.34405884630E+02  0.42213215433E+02  0.47000000000E+01 0. -1.
         -5    1    3    3    0  503 -0.55827264801E+02  0.38901727430E+02 -0.38933316119E+03  0.39526248026E+03  0.47000000000E+01 0.  1.
<mgrwt>
<rscale>  0 0.10865340E+03</rscale>
<asrwt>0</asrwt>
<pdfrwt beam="1">  1        2 0.19844393E+00 0.10876675E+03</pdfrwt>
<pdfrwt beam="2">  1       -2 0.15817897E-02 0.10876675E+03</pdfrwt>
<totfact> 0.18379903E+04</totfact>
</mgrwt>
</event>
<event>
 8    1  0.3466492E-004  0.1050675E+03  0.7546771E-02  0.1270336E+00
         -2   -1    0    0    0  501 -0.00000000000E+00  0.00000000000E+00  0.39173094108E+02  0.39173094108E+02  0.00000000000E+00 0.  1.
          2   -1    0    0  501    0  0.00000000000E+00 -0.00000000000E+00 -0.45220493350E+03  0.45220493350E+03  0.00000000000E+00 0. -1.
         23    2    1    2    0    0 -0.48460599881E+02 -0.20288510712E+02 -0.35860016628E+03  0.37367534721E+03  0.90989738180E+02 0.  0.
         23    2    1    2    0    0  0.48460599881E+02  0.20288510712E+02 -0.54431673117E+02  0.11770268040E+03  0.90172393371E+02 0.  0.
          5    1    4    4  502    0  0.42242359244E+02 -0.19444010837E+02 -0.60827373795E+02  0.76710793730E+02  0.47000000000E+01 0. -1.
         -5    1    4    4    0  502  0.62182406379E+01  0.39732521549E+02  0.63957006777E+01  0.40991886666E+02  0.47000000000E+01 0.  1.
          5    1    3    3  503    0 -0.37931744618E+02 -0.51238032213E+02 -0.29677468615E+03  0.30358105596E+03  0.47000000000E+01 0. -1.
         -5    1    3    3    0  503 -0.10528855263E+02  0.30949521501E+02 -0.61825480125E+02  0.70094291258E+02  0.47000000000E+01 0.  1.
<mgrwt>
<rscale>  0 0.10489032E+03</rscale>
<asrwt>0</asrwt>
<pdfrwt beam="1">  1        2 0.69569986E-01 0.10506753E+03</pdfrwt>
<pdfrwt beam="2">  1       -2 0.60266302E-02 0.10506753E+03</pdfrwt>
<totfact> 0.95652658E+03</totfact>
</mgrwt>
</event>
<event>
 8    1  0.3466492E-004  0.9286698E+02  0.7546771E-02  0.1296485E+00
          1   -1    0    0  501    0  0.00000000000E+00  0.00000000000E+00  0.60209511803E+03  0.60209511803E+03  0.00000000000E+00 0. -1.
         -1   -1    0    0    0  501 -0.00000000000E+00 -0.00000000000E+00 -0.18875431250E+02  0.18875431250E+02  0.00000000000E+00 0.  1.
         23    2    1    2    0    0  0.20244756889E+01 -0.18164711692E+02  0.44509486027E+03  0.45452913486E+03  0.90295318518E+02 0.  0.
         23    2    1    2    0    0 -0.20244756889E+01  0.18164711692E+02  0.13812482651E+03  0.16644141442E+03  0.91050653389E+02 0.  0.
          5    1    3    3  502    0  0.13487373878E+02  0.30946273923E+02  0.27349196901E+03  0.27560756201E+03  0.47000000000E+01 0. -1.
         -5    1    3    3    0  502 -0.11462898189E+02 -0.49110985615E+02  0.17160289126E+03  0.17892157285E+03  0.47000000000E+01 0.  1.
          5    1    4    4  503    0 -0.40829761872E+02  0.31224918377E+02  0.79177977676E+02  0.94516173912E+02  0.47000000000E+01 0. -1.
         -5    1    4    4    0  503  0.38805286183E+02 -0.13060206686E+02  0.58946848835E+02  0.71925240507E+02  0.47000000000E+01 0.  1.
<mgrwt>
<rscale>  0 0.92681318E+02</rscale>
<asrwt>0</asrwt>
<pdfrwt beam="1">  1        1 0.92630004E-01 0.92866984E+02</pdfrwt>
<pdfrwt beam="2">  1       -1 0.29039130E-02 0.92866984E+02</pdfrwt>
<totfact> 0.12781844E+04</totfact>
</mgrwt>
</event>
<event>
 8    1  0.3466492E-004  0.1100151E+03  0.7546771E-02  0.1266240E+00
         -3   -1    0    0    0  501 -0.00000000000E+00  0.00000000000E+00  0.75930017582E+02  0.75930017582E+02  0.00000000000E+00 0.  1.
          3   -1    0    0  501    0  0.00000000000E+00 -0.00000000000E+00 -0.14307300099E+03  0.14307300099E+03  0.00000000000E+00 0. -1.
         23    2    1    2    0    0 -0.36613173162E+02 -0.16699576840E+02 -0.33836807046E+02  0.11510104992E+03  0.10239102434E+03 0.  0.
         23    2    1    2    0    0  0.36613173162E+02  0.16699576840E+02 -0.33306176363E+02  0.10390196866E+03  0.89816019679E+02 0.  0.
          5    1    3    3  502    0  0.27263232026E+02 -0.30017609483E+02 -0.27831940620E+02  0.49406959208E+02  0.47000000000E+01 0. -1.
         -5    1    3    3    0  502 -0.63876405188E+02  0.13318032642E+02 -0.60048664256E+01  0.65694090708E+02  0.47000000000E+01 0.  1.
          5    1    4    4  503    0  0.58136947259E+02 -0.13349486879E+02 -0.28688621738E+02  0.66356917151E+02  0.47000000000E+01 0. -1.
         -5    1    4    4    0  503 -0.21523774097E+02  0.30049063719E+02 -0.46175546248E+01  0.37545051505E+02  0.47000000000E+01 0.  1.
<mgrwt>
<rscale>  0 0.10699391E+03</rscale>
<asrwt>0</asrwt>
<pdfrwt beam="1">  1        3 0.22011231E-01 0.11001510E+03</pdfrwt>
<pdfrwt beam="2">  1       -3 0.11681541E-01 0.11001510E+03</pdfrwt>
<totfact> 0.23675392E+03</totfact>
</mgrwt>
</event>
<event>
 8    1  0.3466492E-004  0.9575738E+02  0.7546771E-02  0.1290913E+00
         -3   -1    0    0    0  501 -0.00000000000E+00  0.00000000000E+00  0.45711513740E+02  0.45711513740E+02  0.00000000000E+00 0.  1.
          3   -1    0    0  501    0  0.00000000000E+00 -0.00000000000E+00 -0.23734030093E+03  0.23734030093E+03  0.00000000000E+00 0. -1.
         23    2    1    2    0    0  0.43666895454E+01 -0.18384742025E+02 -0.35208147973E+02  0.99648180706E+02  0.91285702700E+02 0.  0.
         23    2    1    2    0    0 -0.43666895454E+01  0.18384742025E+02 -0.15642063922E+03  0.18340363396E+03  0.93874436676E+02 0.  0.
          5    1    4    4  502    0 -0.29619703942E+02 -0.20469117891E+02 -0.11660638016E+03  0.12212882355E+03  0.47000000000E+01 0. -1.
         -5    1    4    4    0  502  0.25253014397E+02  0.38853859916E+02 -0.39814259059E+02  0.61274810411E+02  0.47000000000E+01 0.  1.
          5    1    3    3  503    0 -0.14269811926E+02 -0.47554756725E+02 -0.40591875489E+02  0.64302976410E+02  0.47000000000E+01 0. -1.
         -5    1    3    3    0  503  0.18636501471E+02  0.29170014700E+02  0.53837275158E+01  0.35345204295E+02  0.47000000000E+01 0.  1.
<mgrwt>
<rscale>  0 0.95116879E+02</rscale>
<asrwt>0</asrwt>
<pdfrwt beam="1">  1        3 0.36513892E-01 0.95757384E+02</pdfrwt>
<pdfrwt beam="2">  1       -3 0.70325407E-02 0.95757384E+02</pdfrwt>
<totfact> 0.20926797E+03</totfact>
</mgrwt>
</event>
<event>
 8    1  0.3466492E-004  0.1042355E+03  0.7546771E-02  0.1271817E+00
         -3   -1    0    0    0  501 -0.00000000000E+00  0.00000000000E+00  0.42684056145E+03  0.42684056145E+03  0.00000000000E+00 0.  1.
          3   -1    0    0  501    0  0.00000000000E+00 -0.00000000000E+00 -0.26116255917E+02  0.26116255917E+02  0.00000000000E+00 0. -1.
         23    2    1    2    0    0  0.20297092505E+02  0.45146852975E+02  0.16159881961E+03  0.19210047066E+03  0.91313755972E+02 0.  0.
         23    2    1    2    0    0 -0.20297092505E+02 -0.45146852975E+02  0.23912548592E+03  0.26085634671E+03  0.91732356905E+02 0.  0.
          5    1    3    3  502    0  0.59000763361E+01 -0.26855633803E+02  0.27666360103E+02  0.39288082787E+02  0.47000000000E+01 0. -1.
         -5    1    4    4    0  503  0.79520930038E+01  0.21288693773E+02  0.21929365769E+02  0.31928535024E+02  0.47000000000E+01 0.  1.
          5    1    4    4  503    0 -0.28249185509E+02 -0.66435546749E+02  0.21719612015E+03  0.22892781169E+03  0.47000000000E+01 0. -1.
         -5    1    3    3    0  502  0.14397016169E+02  0.72002486779E+02  0.13393245951E+03  0.15281238787E+03  0.47000000000E+01 0.  1.
<mgrwt>
<rscale>  0 0.10414331E+03</rscale>
<asrwt>0</asrwt>
<pdfrwt beam="1">  1        3 0.40178858E-02 0.10423548E+03</pdfrwt>
<pdfrwt beam="2">  1       -3 0.65667774E-01 0.10423548E+03</pdfrwt>
<totfact> 0.16102402E+03</totfact>
</mgrwt>
</event>
<event>
 8    1  0.3466492E-004  0.9474341E+02  0.7546771E-02  0.1292850E+00
         -1   -1    0    0    0  501 -0.00000000000E+00  0.00000000000E+00  0.29158906403E+03  0.29158906403E+03  0.00000000000E+00 0.  1.
          1   -1    0    0  501    0  0.00000000000E+00 -0.00000000000E+00 -0.49187257295E+02  0.49187257295E+02  0.00000000000E+00 0. -1.
         23    2    1    2    0    0 -0.16366994700E+02 -0.22371893064E+02  0.14484077443E+02  0.93950866408E+02  0.88592306013E+02 0.  0.
         23    2    1    2    0    0  0.16366994700E+02  0.22371893064E+02  0.22791772930E+03  0.24682545492E+03  0.90597647622E+02 0.  0.
          5    1    3    3  502    0 -0.46864788311E+02  0.73076102040E+01  0.18099034992E+02  0.50984062392E+02  0.47000000000E+01 0. -1.
         -5    1    4    4    0  503  0.14797868565E+02 -0.13689153431E+02  0.19969782090E+03  0.20076772527E+03  0.47000000000E+01 0.  1.
          5    1    4    4  503    0  0.15691261352E+01  0.36061046495E+02  0.28219908394E+02  0.46057729654E+02  0.47000000000E+01 0. -1.
         -5    1    3    3    0  502  0.30497793611E+02 -0.29679503268E+02 -0.36149575488E+01  0.42966804017E+02  0.47000000000E+01 0.  1.
<mgrwt>
<rscale>  0 0.94260801E+02</rscale>
<asrwt>0</asrwt>
<pdfrwt beam="1">  1        1 0.75672705E-02 0.94743411E+02</pdfrwt>
<pdfrwt beam="2">  1       -1 0.44859855E-01 0.94743411E+02</pdfrwt>
<totfact> 0.43913182E+03</totfact>
</mgrwt>
</event>
<event>
 8    1  0.3466492E-004  0.1878020E+03  0.7546771E-02  0.1160473E+00
         -2   -1    0    0    0  501 -0.00000000000E+00  0.00000000000E+00  0.39708720582E+03  0.39708720582E+03  0.00000000000E+00 0.  1.
          2   -1    0    0  501    0  0.00000000000E+00 -0.00000000000E+00 -0.17329600753E+03  0.17329600753E+03  0.00000000000E+00 0. -1.
         23    2    1    2    0    0  0.16392480054E+03 -0.61030263239E+01  0.31105749980E+03  0.36335433228E+03  0.91438588358E+02 0.  0.
         23    2    1    2    0    0 -0.16392480054E+03  0.61030263239E+01 -0.87266301510E+02  0.20702888107E+03  0.91306971562E+02 0.  0.
          5    1    4    4  502    0 -0.60231504251E+02  0.43249518085E+02 -0.54076049430E+02  0.91894853179E+02  0.47000000000E+01 0. -1.
         -5    1    4    4    0  502 -0.10369329629E+03 -0.37146491761E+02 -0.33190252081E+02  0.11513402789E+03  0.47000000000E+01 0.  1.
          5    1    3    3  503    0  0.14361743271E+03 -0.38257052411E+02  0.25996723033E+03  0.29949060066E+03  0.47000000000E+01 0.  1.
         -5    1    3    3    0  503  0.20307367824E+02  0.32154026087E+02  0.51090269478E+02  0.63863731624E+02  0.47000000000E+01 0. -1.
<mgrwt>
<rscale>  0 0.18778602E+03</rscale>
<asrwt>0</asrwt>
<pdfrwt beam="1">  1        2 0.26660924E-01 0.18780203E+03</pdfrwt>
<pdfrwt beam="2">  1       -2 0.61090339E-01 0.18780203E+03</pdfrwt>
<totfact> 0.50963713E+02</totfact>
</mgrwt>
</event>
<event>
 8    1  0.3466492E-004  0.1560959E+03  0.7546771E-02  0.1193683E+00
         -1   -1    0    0    0  501 -0.00000000000E+00  0.00000000000E+00  0.31604676861E+02  0.31604676861E+02  0.00000000000E+00 0.  1.
          1   -1    0    0  501    0  0.00000000000E+00 -0.00000000000E+00 -0.10358755359E+04  0.10358755359E+04  0.00000000000E+00 0. -1.
         23    2    1    2    0    0  0.11755427168E+03  0.42028199332E+02 -0.22586165365E+03  0.27357416547E+03  0.90796261463E+02 0.  0.
         23    2    1    2    0    0 -0.11755427168E+03 -0.42028199332E+02 -0.77840920538E+03  0.79390604727E+03  0.93704559944E+02 0.  0.
          5    1    4    4  502    0 -0.63951078296E+02 -0.65874790997E+02 -0.36855642722E+03  0.37984886277E+03  0.47000000000E+01 0. -1.
         -5    1    3    3    0  503  0.42923384006E+02  0.51593238033E+02 -0.55279254280E+02  0.87075628387E+02  0.47000000000E+01 0.  1.
          5    1    3    3  503    0  0.74630887674E+02 -0.95650387016E+01 -0.17058239937E+03  0.18649853709E+03  0.47000000000E+01 0. -1.
         -5    1    4    4    0  502 -0.53603193385E+02  0.23846591666E+02 -0.40985277816E+03  0.41405718451E+03  0.47000000000E+01 0.  1.
<mgrwt>
<rscale>  0 0.15566198E+03</rscale>
<asrwt>0</asrwt>
<pdfrwt beam="1">  1        1 0.15936545E+00 0.15609587E+03</pdfrwt>
<pdfrwt beam="2">  1       -1 0.48622584E-02 0.15609587E+03</pdfrwt>
<totfact> 0.27320443E+03</totfact>
</mgrwt>
</event>
<event>
 8    1  0.3466492E-004  0.1062904E+03  0.7546771E-02  0.1267793E+00
         -2   -1    0    0    0  501 -0.00000000000E+00  0.00000000000E+00  0.11068805294E+02  0.11068805294E+02  0.00000000000E+00 0.  1.
          2   -1    0    0  501    0  0.00000000000E+00 -0.00000000000E+00 -0.10189884259E+04  0.10189884259E+04  0.00000000000E+00 0. -1.
         23    2    1    2    0    0  0.50605572039E+02  0.35930274312E+01 -0.48115085339E+03  0.49275124758E+03  0.93401362445E+02 0.  0.
         23    2    1    2    0    0 -0.50605572039E+02 -0.35930274312E+01 -0.52676876726E+03  0.53730598366E+03  0.92943811765E+02 0.  0.
          5    1    3    3  502    0  0.47415350979E+02 -0.26943529725E+02 -0.42560804056E+03  0.42911357878E+03  0.47000000000E+01 0. -1.
         -5    1    4    4    0  503 -0.36756002895E+02  0.37218887220E+02 -0.39765004150E+03  0.40110334681E+03  0.47000000000E+01 0.  1.
          5    1    4    4  503    0 -0.13849569144E+02 -0.40811914652E+02 -0.12911872576E+03  0.13620263685E+03  0.47000000000E+01 0. -1.
         -5    1    3    3    0  502  0.31902210598E+01  0.30536557156E+02 -0.55542812821E+02  0.63637668794E+02  0.47000000000E+01 0.  1.
<mgrwt>
<rscale>  0 0.10618979E+03</rscale>
<asrwt>0</asrwt>
<pdfrwt beam="1">  1        2 0.15676744E+00 0.10629040E+03</pdfrwt>
<pdfrwt beam="2">  1       -2 0.17028932E-02 0.10629040E+03</pdfrwt>
<totfact> 0.23358204E+04</totfact>
</mgrwt>
</event>
<event>
 8    1  0.3466492E-004  0.1242613E+03  0.7546771E-02  0.1236468E+00
          1   -1    0    0  501    0  0.00000000000E+00  0.00000000000E+00  0.21202411690E+03  0.21202411690E+03  0.00000000000E+00 0. -1.
         -1   -1    0    0    0  501 -0.00000000000E+00 -0.00000000000E+00 -0.95015381457E+02  0.95015381457E+02  0.00000000000E+00 0.  1.
         23    2    1    2    0    0 -0.77685746421E+02 -0.28663510547E+02  0.13317510692E+03  0.18173099322E+03  0.91836119028E+02 0.  0.
         23    2    1    2    0    0  0.77685746421E+02  0.28663510547E+02 -0.16166371480E+02  0.12530850514E+03  0.92650946352E+02 0.  0.
          5    1    4    4  502    0  0.59452573272E+02 -0.12591953696E+02 -0.41140082790E+02  0.73537488253E+02  0.47000000000E+01 0.  1.
         -5    1    4    4    0  502  0.18233173149E+02  0.41255464243E+02  0.24973711310E+02  0.51771016888E+02  0.47000000000E+01 0. -1.
          5    1    3    3  503    0 -0.73785118395E+02  0.16009660922E+02  0.10167003452E+03  0.12672584132E+03  0.47000000000E+01 0. -1.
         -5    1    3    3    0  503 -0.39006280257E+01 -0.44673171469E+02  0.31505072407E+02  0.55005151899E+02  0.47000000000E+01 0.  1.
<mgrwt>
<rscale>  0 0.12410943E+03</rscale>
<asrwt>0</asrwt>
<pdfrwt beam="1">  1        1 0.32619095E-01 0.12426130E+03</pdfrwt>
<pdfrwt beam="2">  1       -1 0.14617751E-01 0.12426130E+03</pdfrwt>
<totfact> 0.43535487E+03</totfact>
</mgrwt>
</event>
<event>
 8    1  0.3466492E-004  0.1050263E+03  0.7546771E-02  0.1276384E+00
          2   -1    0    0  501    0  0.00000000000E+00  0.00000000000E+00  0.12090581135E+04  0.12090581135E+04  0.00000000000E+00 0. -1.
         -2   -1    0    0    0  501 -0.00000000000E+00 -0.00000000000E+00 -0.81831180081E+01  0.81831180081E+01  0.00000000000E+00 0.  1.
         23    2    1    2    0    0 -0.36050391234E+01  0.17785049345E+02  0.50657734897E+03  0.51504485191E+03  0.91221075995E+02 0.  0.
         23    2    1    2    0    0  0.36050391234E+01 -0.17785049345E+02  0.69429764656E+03  0.70219637963E+03  0.10344674603E+03 0.  0.
          5    1    3    3  502    0 -0.44101721320E+02 -0.74073975428E+01  0.25823355390E+03  0.26211922807E+03  0.47000000000E+01 0. -1.
         -5    1    4    4    0  503 -0.25007788535E+02  0.35904405300E+02  0.29170893832E+03  0.29500967866E+03  0.47000000000E+01 0.  1.
          5    1    4    4  503    0  0.28612827658E+02 -0.53689454645E+02  0.40258870823E+03  0.40718670097E+03  0.47000000000E+01 0. -1.
         -5    1    3    3    0  502  0.40496682197E+02  0.25192446887E+02  0.24834379507E+03  0.25292562385E+03  0.47000000000E+01 0.  1.
<mgrwt>
<rscale>  0 0.10188363E+03</rscale>
<asrwt>0</asrwt>
<pdfrwt beam="1">  1        2 0.18600880E+00 0.10502635E+03</pdfrwt>
<pdfrwt beam="2">  1       -2 0.12589422E-02 0.10502635E+03</pdfrwt>
<totfact> 0.28099116E+04</totfact>
</mgrwt>
</event>
<event>
 8    1  0.3466492E-004  0.9916260E+02  0.7546771E-02  0.1282595E+00
         -3   -1    0    0    0  501 -0.00000000000E+00  0.00000000000E+00  0.15755907449E+03  0.15755907449E+03  0.00000000000E+00 0.  1.
          3   -1    0    0  501    0  0.00000000000E+00 -0.00000000000E+00 -0.94262772436E+02  0.94262772436E+02  0.00000000000E+00 0. -1.
         23    2    1    2    0    0 -0.20967956717E+02 -0.31411235890E+02 -0.42149793731E+02  0.10774890016E+03  0.91689145620E+02 0.  0.
         23    2    1    2    0    0  0.20967956717E+02  0.31411235890E+02  0.10544609579E+03  0.14407294677E+03  0.90619059393E+02 0.  0.
          5    1    3    3  502    0 -0.61439615154E+01 -0.57508080009E+02 -0.49750089359E+02  0.76433558864E+02  0.47000000000E+01 0. -1.
         -5    1    3    3    0  502 -0.14823995202E+02  0.26096844119E+02  0.76002956279E+01  0.31315341294E+02  0.47000000000E+01 0.  1.
          5    1    4    4  503    0  0.19113405283E+02 -0.29851367460E+02  0.29413536153E+02  0.46299811121E+02  0.47000000000E+01 0. -1.
         -5    1    4    4    0  503  0.18545514336E+01  0.61262603350E+02  0.76032559636E+02  0.97773135651E+02  0.47000000000E+01 0.  1.
<mgrwt>
<rscale>  0 0.98914518E+02</rscale>
<asrwt>0</asrwt>
<pdfrwt beam="1">  1        3 0.14501965E-01 0.99162596E+02</pdfrwt>
<pdfrwt beam="2">  1       -3 0.24239858E-01 0.99162596E+02</pdfrwt>
<totfact> 0.13599321E+03</totfact>
</mgrwt>
</event>
<event>
 8    1  0.3466492E-004  0.1030235E+03  0.7546771E-02  0.1275310E+00
          3   -1    0    0  501    0  0.00000000000E+00  0.00000000000E+00  0.19764824712E+03  0.19764824712E+03  0.00000000000E+00 0. -1.
         -3   -1    0    0    0  501 -0.00000000000E+00 -0.00000000000E+00 -0.53155050578E+02  0.53155050578E+02  0.00000000000E+00 0.  1.
         23    2    1    2    0    0 -0.16014542244E+02 -0.42005389864E+02  0.85954276575E+02  0.13231005341E+03  0.89982744079E+02 0.  0.
         23    2    1    2    0    0  0.16014542244E+02  0.42005389864E+02  0.58538919965E+02  0.11849324428E+03  0.92698033683E+02 0.  0.
          5    1    4    4  502    0 -0.23550250901E+02 -0.64964568529E+01  0.49067806925E+02  0.55014161319E+02  0.47000000000E+01 0. -1.
         -5    1    3    3    0  503 -0.26817185504E+02  0.12382838845E+02  0.67250048882E+02  0.73601326149E+02  0.47000000000E+01 0.  1.
          5    1    3    3  503    0  0.10802643261E+02 -0.54388228709E+02  0.18704227693E+02  0.58708727265E+02  0.47000000000E+01 0. -1.
         -5    1    4    4    0  502  0.39564793145E+02  0.48501846717E+02  0.94711130399E+01  0.63479082962E+02  0.47000000000E+01 0.  1.
<mgrwt>
<rscale>  0 0.10240899E+03</rscale>
<asrwt>0</asrwt>
<pdfrwt beam="1">  1        3 0.30407422E-01 0.10302351E+03</pdfrwt>
<pdfrwt beam="2">  1       -3 0.81777002E-02 0.10302351E+03</pdfrwt>
<totfact> 0.23418626E+03</totfact>
</mgrwt>
</event>
<event>
 8    1  0.3466492E-004  0.9271393E+02  0.7546771E-02  0.1297416E+00
         -2   -1    0    0    0  501 -0.00000000000E+00  0.00000000000E+00  0.35353181048E+02  0.35353181048E+02  0.00000000000E+00 0.  1.
          2   -1    0    0  501    0  0.00000000000E+00 -0.00000000000E+00 -0.35210975195E+03  0.35210975195E+03  0.00000000000E+00 0. -1.
         23    2    1    2    0    0  0.11022043439E+02 -0.96405419764E+01 -0.26733506300E+03  0.28239934494E+03  0.89816082209E+02 0.  0.
         23    2    1    2    0    0 -0.11022043439E+02  0.96405419764E+01 -0.49421507897E+02  0.10506358805E+03  0.91550240853E+02 0.  0.
          5    1    3    3  502    0 -0.37633692480E+02  0.83190929375E+01 -0.10777318219E+03  0.11455413967E+03  0.47000000000E+01 0. -1.
         -5    1    4    4    0  503  0.75054437441E+01  0.48254522995E+02 -0.32085293439E+02  0.58620702233E+02  0.47000000000E+01 0.  1.
          5    1    4    4  503    0 -0.18527487183E+02 -0.38613981018E+02 -0.17336214459E+02  0.46442885818E+02  0.47000000000E+01 0. -1.
         -5    1    3    3    0  502  0.48655735918E+02 -0.17959634914E+02 -0.15956188081E+03  0.16784520527E+03  0.47000000000E+01 0.  1.
<mgrwt>
<rscale>  0 0.92282935E+02</rscale>
<asrwt>0</asrwt>
<pdfrwt beam="1">  1        2 0.54170734E-01 0.92713926E+02</pdfrwt>
<pdfrwt beam="2">  1       -2 0.54389507E-02 0.92713926E+02</pdfrwt>
<totfact> 0.14382319E+04</totfact>
</mgrwt>
</event>
<event>
 8    1  0.3466492E-004  0.9832592E+02  0.7546771E-02  0.1292456E+00
          1   -1    0    0  501    0  0.00000000000E+00  0.00000000000E+00  0.59909344141E+02  0.59909344141E+02  0.00000000000E+00 0. -1.
         -1   -1    0    0    0  501 -0.00000000000E+00 -0.00000000000E+00 -0.23568247526E+03  0.23568247526E+03  0.00000000000E+00 0.  1.
         23    2    1    2    0    0 -0.48780380526E+02  0.14597412841E+02 -0.17860288325E+03  0.19722519190E+03  0.66379036072E+02 0.  0.
         23    2    1    2    0    0  0.48780380526E+02 -0.14597412841E+02  0.28297521311E+01  0.98366627497E+02  0.84115253802E+02 0.  0.
          5    1    4    4  502    0  0.26901063707E+02 -0.47404998072E+02 -0.11939796982E+02  0.55995980416E+02  0.47000000000E+01 0. -1.
         -5    1    3    3    0  503 -0.29894482853E+02  0.38973496011E+02 -0.13401211932E+03  0.14280739344E+03  0.47000000000E+01 0.  1.
          5    1    3    3  503    0 -0.18885897673E+02 -0.24376083170E+02 -0.44590763926E+02  0.54417798459E+02  0.47000000000E+01 0. -1.
         -5    1    4    4    0  502  0.21879316819E+02  0.32807585231E+02  0.14769549113E+02  0.42370647082E+02  0.47000000000E+01 0.  1.
<mgrwt>
<rscale>  0 0.94434100E+02</rscale>
<asrwt>0</asrwt>
<pdfrwt beam="1">  1        1 0.92168222E-02 0.98325917E+02</pdfrwt>
<pdfrwt beam="2">  1       -1 0.36258842E-01 0.98325917E+02</pdfrwt>
<totfact> 0.49113145E+03</totfact>
</mgrwt>
</event>
<event>
 8    1  0.3466492E-004  0.9563294E+02  0.7546771E-02  0.1290879E+00
         -2   -1    0    0    0  501 -0.00000000000E+00  0.00000000000E+00  0.32095174045E+03  0.32095174045E+03  0.00000000000E+00 0.  1.
          2   -1    0    0  501    0  0.00000000000E+00 -0.00000000000E+00 -0.32060441031E+02  0.32060441031E+02  0.00000000000E+00 0. -1.
         23    2    1    2    0    0 -0.24146731017E+02  0.94688736329E+01  0.20930160950E+03  0.23011480523E+03  0.92048550573E+02 0.  0.
         23    2    1    2    0    0  0.24146731017E+02 -0.94688736329E+01  0.79589689919E+02  0.12289737624E+03  0.89980676590E+02 0.  0.
          5    1    4    4  502    0 -0.16667186527E+02 -0.39185967703E+02  0.33661443357E+02  0.54484107228E+02  0.47000000000E+01 0. -1.
         -5    1    4    4    0  502  0.40813917545E+02  0.29717094070E+02  0.45928246561E+02  0.68413269016E+02  0.47000000000E+01 0.  1.
          5    1    3    3  503    0  0.27467932063E+02 -0.48449759557E+01  0.23762972809E+02  0.36942251698E+02  0.47000000000E+01 0. -1.
         -5    1    3    3    0  503 -0.51614663080E+02  0.14313849589E+02  0.18553863669E+03  0.19317255353E+03  0.47000000000E+01 0.  1.
<mgrwt>
<rscale>  0 0.95131846E+02</rscale>
<asrwt>0</asrwt>
<pdfrwt beam="1">  1        2 0.49323758E-02 0.95632943E+02</pdfrwt>
<pdfrwt beam="2">  1       -2 0.49377189E-01 0.95632943E+02</pdfrwt>
<totfact> 0.57828608E+03</totfact>
</mgrwt>
</event>
<event>
 8    1  0.3466492E-004  0.1086482E+03  0.7546771E-02  0.1264784E+00
         -2   -1    0    0    0  501 -0.00000000000E+00  0.00000000000E+00  0.46864960111E+02  0.46864960111E+02  0.00000000000E+00 0.  1.
          2   -1    0    0  501    0  0.00000000000E+00 -0.00000000000E+00 -0.25119118238E+03  0.25119118238E+03  0.00000000000E+00 0. -1.
         23    2    1    2    0    0 -0.25838469691E+02  0.47062918796E+02 -0.12614084130E+03  0.16420029801E+03  0.90375224376E+02 0.  0.
         23    2    1    2    0    0  0.25838469691E+02 -0.47062918796E+02 -0.78185380973E+02  0.13385584448E+03  0.94455748704E+02 0.  0.
          5    1    3    3  502    0 -0.35864258869E+02  0.17914098536E+02 -0.68993627808E+01  0.40949373589E+02  0.47000000000E+01 0. -1.
         -5    1    4    4    0  503 -0.13932176327E+02 -0.37042277737E+02  0.57993726546E+01  0.40273547153E+02  0.47000000000E+01 0.  1.
          5    1    4    4  503    0  0.39770646018E+02 -0.10020641059E+02 -0.83984753628E+02  0.93582297331E+02  0.47000000000E+01 0. -1.
         -5    1    3    3    0  502  0.10025789177E+02  0.29148820260E+02 -0.11924147852E+03  0.12325092442E+03  0.47000000000E+01 0.  1.
<mgrwt>
<rscale>  0 0.10775522E+03</rscale>
<asrwt>0</asrwt>
<pdfrwt beam="1">  1        2 0.38644798E-01 0.10864821E+03</pdfrwt>
<pdfrwt beam="2">  1       -2 0.72099938E-02 0.10864821E+03</pdfrwt>
<totfact> 0.13598637E+04</totfact>
</mgrwt>
</event>
<event>
 8    1  0.3466492E-004  0.1009119E+03  0.7546771E-02  0.1278587E+00
          3   -1    0    0  501    0  0.00000000000E+00  0.00000000000E+00  0.26107804467E+03  0.26107804467E+03  0.00000000000E+00 0. -1.
         -3   -1    0    0    0  501 -0.00000000000E+00 -0.00000000000E+00 -0.45683009000E+02  0.45683009000E+02  0.00000000000E+00 0.  1.
         23    2    1    2    0    0 -0.43961448578E+02 -0.96785635973E+00  0.48585673320E+02  0.11199905549E+03  0.90827721930E+02 0.  0.
         23    2    1    2    0    0  0.43961448578E+02  0.96785635973E+00  0.16680936235E+03  0.19476199818E+03  0.90406453647E+02 0.  0.
          5    1    4    4  502    0  0.49551311296E+02  0.37044583004E+02  0.86840988034E+02  0.10672900629E+03  0.47000000000E+01 0. -1.
         -5    1    4    4    0  502 -0.55898627176E+01 -0.36076726644E+02  0.79968374316E+02  0.88032991891E+02  0.47000000000E+01 0.  1.
          5    1    3    3  503    0  0.28186892175E+02  0.77447440227E+00  0.13366318591E+02  0.31557078029E+02  0.47000000000E+01 0. -1.
         -5    1    3    3    0  503 -0.72148340753E+02 -0.17423307620E+01  0.35219354728E+02  0.80441977458E+02  0.47000000000E+01 0.  1.
<mgrwt>
<rscale>  0 0.10081706E+03</rscale>
<asrwt>0</asrwt>
<pdfrwt beam="1">  1        3 0.40165852E-01 0.10091195E+03</pdfrwt>
<pdfrwt beam="2">  1       -3 0.70281554E-02 0.10091195E+03</pdfrwt>
<totfact> 0.17658152E+03</totfact>
</mgrwt>
</event>
<event>
 8    1  0.3466492E-004  0.9885384E+02  0.7546771E-02  0.1282845E+00
         -1   -1    0    0    0  501 -0.00000000000E+00  0.00000000000E+00  0.50001251558E+02  0.50001251558E+02  0.00000000000E+00 0.  1.
          1   -1    0    0  501    0  0.00000000000E+00 -0.00000000000E+00 -0.59839750123E+03  0.59839750123E+03  0.00000000000E+00 0. -1.
         23    2    1    2    0    0 -0.38919003953E+02 -0.55075282304E+01 -0.79092598945E+01  0.98946053531E+02  0.90458517462E+02 0.  0.
         23    2    1    2    0    0  0.38919003953E+02  0.55075282304E+01 -0.54048698978E+03  0.54945269925E+03  0.90703146940E+02 0.  0.
          5    1    3    3  502    0  0.14151745333E+02 -0.34463139824E+02 -0.75716865099E+01  0.38306661811E+02  0.47000000000E+01 0. -1.
         -5    1    3    3    0  502 -0.53070749286E+02  0.28955611593E+02 -0.33757338460E+00  0.60639391721E+02  0.47000000000E+01 0.  1.
          5    1    4    4  503    0  0.64330296315E+02  0.12223650227E+02 -0.45978815503E+03  0.46445133453E+03  0.47000000000E+01 0. -1.
         -5    1    4    4    0  503 -0.25411292362E+02 -0.67161219967E+01 -0.80698834749E+02  0.85001364719E+02  0.47000000000E+01 0.  1.
<mgrwt>
<rscale>  0 0.98797694E+02</rscale>
<asrwt>0</asrwt>
<pdfrwt beam="1">  1        1 0.92061152E-01 0.98853845E+02</pdfrwt>
<pdfrwt beam="2">  1       -1 0.76925004E-02 0.98853845E+02</pdfrwt>
<totfact> 0.31086663E+03</totfact>
</mgrwt>
</event>
<event>
 8    1  0.3466492E-004  0.9355660E+02  0.7546771E-02  0.1295380E+00
         -1   -1    0    0    0  501 -0.00000000000E+00  0.00000000000E+00  0.25197943843E+02  0.25197943843E+02  0.00000000000E+00 0.  1.
          1   -1    0    0  501    0  0.00000000000E+00 -0.00000000000E+00 -0.35018884951E+03  0.35018884951E+03  0.00000000000E+00 0. -1.
         23    2    1    2    0    0  0.59038944089E+01  0.13036047038E+02 -0.19070106338E+03  0.21172067077E+03  0.90851265069E+02 0.  0.
         23    2    1    2    0    0 -0.59038944089E+01 -0.13036047038E+02 -0.13428984229E+03  0.16366612258E+03  0.92455629622E+02 0.  0.
          5    1    4    4  502    0 -0.43615404989E+02 -0.22934236633E+02 -0.48432663699E+02  0.69253849534E+02  0.47000000000E+01 0. -1.
         -5    1    3    3    0  503 -0.22852008771E+02  0.20133388318E+02 -0.16497540636E+02  0.34954634558E+02  0.47000000000E+01 0.  1.
          5    1    3    3  503    0  0.28755903180E+02 -0.70973412798E+01 -0.17420352275E+03  0.17676603621E+03  0.47000000000E+01 0. -1.
         -5    1    4    4    0  502  0.37711510580E+02  0.98981895943E+01 -0.85857178587E+02  0.94412273050E+02  0.47000000000E+01 0.  1.
<mgrwt>
<rscale>  0 0.93157771E+02</rscale>
<asrwt>0</asrwt>
<pdfrwt beam="1">  1        1 0.53875207E-01 0.93556603E+02</pdfrwt>
<pdfrwt beam="2">  1       -1 0.38766068E-02 0.93556603E+02</pdfrwt>
<totfact> 0.16795201E+04</totfact>
</mgrwt>
</event>
<event>
 8    1  0.3466492E-004  0.2597006E+03  0.7546771E-02  0.1107471E+00
          2   -1    0    0  501    0  0.00000000000E+00  0.00000000000E+00  0.11111395724E+04  0.11111395724E+04  0.00000000000E+00 0. -1.
         -2   -1    0    0    0  501 -0.00000000000E+00 -0.00000000000E+00 -0.60500691354E+02  0.60500691354E+02  0.00000000000E+00 0.  1.
         23    2    1    2    0    0  0.20742765673E+03 -0.12489973732E+03  0.51111095283E+03  0.57286251825E+03  0.91164036510E+02 0.  0.
         23    2    1    2    0    0 -0.20742765673E+03  0.12489973732E+03  0.53952792822E+03  0.59877774551E+03  0.93905409996E+02 0.  0.
          5    1    3    3  502    0  0.67108344780E+01 -0.27293576209E+02  0.11190947464E+03  0.11548071318E+03  0.47000000000E+01 0. -1.
         -5    1    4    4    0  503 -0.13826964896E+03  0.11743145087E+03  0.31340754711E+03  0.36215331293E+03  0.47000000000E+01 0.  1.
          5    1    4    4  503    0 -0.69158007772E+02  0.74682864464E+01  0.22612038111E+03  0.23662443258E+03  0.47000000000E+01 0. -1.
         -5    1    3    3    0  502  0.20071682226E+03 -0.97606161111E+02  0.39920147819E+03  0.45738180508E+03  0.47000000000E+01 0.  1.
<mgrwt>
<rscale>  0 0.25945560E+03</rscale>
<asrwt>0</asrwt>
<pdfrwt beam="1">  1        2 0.17094453E+00 0.25970060E+03</pdfrwt>
<pdfrwt beam="2">  1       -2 0.93077995E-02 0.25970060E+03</pdfrwt>
<totfact> 0.16745065E+03</totfact>
</mgrwt>
</event>
<event>
 8    1  0.3466492E-004  0.9603689E+02  0.7546771E-02  0.1290982E+00
         -1   -1    0    0    0  501 -0.00000000000E+00  0.00000000000E+00  0.49478546840E+02  0.49478546840E+02  0.00000000000E+00 0.  1.
          1   -1    0    0  501    0  0.00000000000E+00 -0.00000000000E+00 -0.18045302305E+03  0.18045302305E+03  0.00000000000E+00 0. -1.
         23    2    1    2    0    0  0.24107904676E+02 -0.76455631750E+01 -0.76340919713E+02  0.12268260175E+03  0.92646851245E+02 0.  0.
         23    2    1    2    0    0 -0.24107904676E+02  0.76455631750E+01 -0.54633556497E+02  0.10724896814E+03  0.88757365707E+02 0.  0.
          5    1    4    4  502    0 -0.25723249806E+02  0.46376810728E+02 -0.31300437118E+02  0.61760031717E+02  0.47000000000E+01 0. -1.
         -5    1    3    3    0  503  0.32888682093E+02 -0.43146206168E+02 -0.26161585038E+02  0.60413401230E+02  0.47000000000E+01 0.  1.
          5    1    3    3  503    0 -0.87807774168E+01  0.35500642994E+02 -0.50179334675E+02  0.62269200520E+02  0.47000000000E+01 0. -1.
         -5    1    4    4    0  502  0.16153451294E+01 -0.38731247553E+02 -0.23333119379E+02  0.45488936422E+02  0.47000000000E+01 0.  1.
<mgrwt>
<rscale>  0 0.95086244E+02</rscale>
<asrwt>0</asrwt>
<pdfrwt beam="1">  1        1 0.27762003E-01 0.96036893E+02</pdfrwt>
<pdfrwt beam="2">  1       -1 0.76120842E-02 0.96036893E+02</pdfrwt>
<totfact> 0.14069330E+04</totfact>
</mgrwt>
</event>
<event>
 8    1  0.3466492E-004  0.1014757E+03  0.7546771E-02  0.1278047E+00
         -2   -1    0    0    0  501 -0.00000000000E+00  0.00000000000E+00  0.89114025559E+03  0.89114025559E+03  0.00000000000E+00 0.  1.
          2   -1    0    0  501    0  0.00000000000E+00 -0.00000000000E+00 -0.17590726517E+02  0.17590726517E+02  0.00000000000E+00 0. -1.
         23    2    1    2    0    0 -0.47028071865E+02  0.13014250661E+01  0.70907023862E+03  0.71629457127E+03  0.89910935282E+02 0.  0.
         23    2    1    2    0    0  0.47028071865E+02 -0.13014250661E+01  0.16447929045E+03  0.19243641084E+03  0.88119248620E+02 0.  0.
          5    1    3    3  502    0  0.24305064375E+02 -0.12651933966E+02  0.23964460587E+03  0.24125180768E+03  0.47000000000E+01 0. -1.
         -5    1    3    3    0  502 -0.71333136240E+02  0.13953359032E+02  0.46942563275E+03  0.47504276359E+03  0.47000000000E+01 0.  1.
          5    1    4    4  503    0  0.67127050124E+02  0.15281245515E+02  0.14128877035E+03  0.15723919343E+03  0.47000000000E+01 0. -1.
         -5    1    4    4    0  503 -0.20098978258E+02 -0.16582670581E+02  0.23190520099E+02  0.35197217406E+02  0.47000000000E+01 0.  1.
<mgrwt>
<rscale>  0 0.10107731E+03</rscale>
<asrwt>0</asrwt>
<pdfrwt beam="1">  1        2 0.27062663E-02 0.10147566E+03</pdfrwt>
<pdfrwt beam="2">  1       -2 0.13709847E+00 0.10147566E+03</pdfrwt>
<totfact> 0.13601878E+03</totfact>
</mgrwt>
</event>
<event>
 7    1  0.3466492E-004  0.1455283E+03  0.7546771E-02  0.1222719E+00
          1   -1    0    0  501    0  0.00000000000E+00  0.00000000000E+00  0.77544936236E+02  0.77544936236E+02  0.00000000000E+00 0. -1.
         -1   -1    0    0    0  501 -0.00000000000E+00 -0.00000000000E+00 -0.20361551137E+03  0.20361551137E+03  0.00000000000E+00 0.  1.
         23    2    1    2    0    0  0.42573908250E+02  0.14927226809E+02 -0.75406646941E+02  0.12706526717E+03  0.91782677861E+02 0.  0.
          5    1    1    2  502    0  0.10105027140E+02 -0.31124028937E+02  0.37515600080E+02  0.50003269894E+02  0.47000000000E+01 0. -1.
         -5    1    3    3    0  503  0.34882453651E+02 -0.24959765661E+02 -0.21924168030E+01  0.43205001632E+02  0.47000000000E+01 0.  1.
          5    1    3    3  503    0  0.76914545989E+01  0.39886992470E+02 -0.73214230138E+02  0.83860265543E+02  0.47000000000E+01 0. -1.
         -5    1    1    2    0  502 -0.52678935390E+02  0.16196802127E+02 -0.88179528273E+02  0.10409191054E+03  0.47000000000E+01 0.  1.
<mgrwt>
<rscale>  0 0.13324443E+03</rscale>
<asrwt>0</asrwt>
<pdfrwt beam="1">  1        1 0.11929990E-01 0.14552832E+03</pdfrwt>
<pdfrwt beam="2">  1       -1 0.31325463E-01 0.14552832E+03</pdfrwt>
<totfact> 0.46042444E+03</totfact>
</mgrwt>
</event>
<event>
 8    1  0.3466492E-004  0.1121540E+03  0.7546771E-02  0.1259672E+00
          1   -1    0    0  501    0  0.00000000000E+00  0.00000000000E+00  0.53026307066E+03  0.53026307066E+03  0.00000000000E+00 0. -1.
         -1   -1    0    0    0  501 -0.00000000000E+00 -0.00000000000E+00 -0.34215688481E+02  0.34215688481E+02  0.00000000000E+00 0.  1.
         23    2    1    2    0    0  0.20615241513E+02  0.49050955927E+02  0.77091534412E+02  0.13077088366E+03  0.91252040389E+02 0.  0.
         23    2    1    2    0    0 -0.20615241513E+02 -0.49050955927E+02  0.41895584776E+03  0.43370787548E+03  0.98729602530E+02 0.  0.
          5    1    4    4  502    0 -0.42862152894E+01 -0.68884462449E+02  0.38339947254E+03  0.38959040844E+03  0.47000000000E+01 0. -1.
         -5    1    4    4    0  502 -0.16329026223E+02  0.19833506522E+02  0.35556375229E+02  0.44117467038E+02  0.47000000000E+01 0.  1.
          5    1    3    3  503    0  0.31240322773E+02 -0.90230015664E+01  0.61183352319E+02  0.69446849642E+02  0.47000000000E+01 0. -1.
         -5    1    3    3    0  503 -0.10625081260E+02  0.58073957493E+02  0.15908182093E+02  0.61324034018E+02  0.47000000000E+01 0.  1.
<mgrwt>
<rscale>  0 0.11048644E+03</rscale>
<asrwt>0</asrwt>
<pdfrwt beam="1">  1        1 0.81578928E-01 0.11215400E+03</pdfrwt>
<pdfrwt beam="2">  1       -1 0.52639525E-02 0.11215400E+03</pdfrwt>
<totfact> 0.64495510E+03</totfact>
</mgrwt>
</event>
<event>
 8    1  0.3466492E-004  0.1538814E+03  0.7546771E-02  0.1196009E+00
         -1   -1    0    0    0  501 -0.00000000000E+00  0.00000000000E+00  0.20746984725E+03  0.20746984725E+03  0.00000000000E+00 0.  1.
          1   -1    0    0  501    0  0.00000000000E+00 -0.00000000000E+00 -0.49915396120E+03  0.49915396120E+03  0.00000000000E+00 0. -1.
         23    2    1    2    0    0 -0.34538193705E+02  0.11816365173E+03  0.16476638350E+03  0.22493248054E+03  0.91055610802E+02 0.  0.
         23    2    1    2    0    0  0.34538193705E+02 -0.11816365173E+03 -0.45645049744E+03  0.48169132790E+03  0.92325204277E+02 0.  0.
          5    1    4    4  502    0  0.41120453600E+01 -0.86236793018E+02 -0.15932674197E+03  0.18127546467E+03  0.47000000000E+01 0. -1.
         -5    1    3    3    0  503 -0.50919093294E+02  0.24652698782E+02  0.76142234585E+02  0.94974941467E+02  0.47000000000E+01 0.  1.
          5    1    3    3  503    0  0.16380899588E+02  0.93510952949E+02  0.88624148910E+02  0.12995753908E+03  0.47000000000E+01 0. -1.
         -5    1    4    4    0  502  0.30426148345E+02 -0.31926858713E+02 -0.29712375548E+03  0.30041586323E+03  0.47000000000E+01 0.  1.
<mgrwt>
<rscale>  0 0.15369144E+03</rscale>
<asrwt>0</asrwt>
<pdfrwt beam="1">  1        1 0.76792916E-01 0.15388138E+03</pdfrwt>
<pdfrwt beam="2">  1       -1 0.31918438E-01 0.15388138E+03</pdfrwt>
<totfact> 0.42180778E+02</totfact>
</mgrwt>
</event>
<event>
 8    1  0.3466492E-004  0.1011166E+03  0.7546771E-02  0.1280446E+00
          1   -1    0    0  501    0  0.00000000000E+00  0.00000000000E+00  0.19272210443E+03  0.19272210443E+03  0.00000000000E+00 0. -1.
         -1   -1    0    0    0  501 -0.00000000000E+00 -0.00000000000E+00 -0.18856610396E+03  0.18856610396E+03  0.00000000000E+00 0.  1.
         23    2    1    2    0    0  0.17049137744E+02  0.21168432379E+02 -0.16097542009E+03  0.18765721493E+03  0.92538472070E+02 0.  0.
         23    2    1    2    0    0 -0.17049137744E+02 -0.21168432379E+02  0.16513142056E+03  0.19363099346E+03  0.97395071475E+02 0.  0.
          5    1    4    4  502    0 -0.15247630469E+02  0.34016260460E+02  0.10660824794E+03  0.11303541365E+03  0.47000000000E+01 0. -1.
         -5    1    4    4    0  502 -0.18015072754E+01 -0.55184692839E+02  0.58523172618E+02  0.80595579813E+02  0.47000000000E+01 0.  1.
          5    1    3    3  503    0 -0.18076588178E+02 -0.22270711298E+02 -0.18260450070E+02  0.34326107537E+02  0.47000000000E+01 0. -1.
         -5    1    3    3    0  503  0.35125725922E+02  0.43439143677E+02 -0.14271497002E+03  0.15333110739E+03  0.47000000000E+01 0.  1.
<mgrwt>
<rscale>  0 0.99928615E+02</rscale>
<asrwt>0</asrwt>
<pdfrwt beam="1">  1        1 0.29649554E-01 0.10111664E+03</pdfrwt>
<pdfrwt beam="2">  1       -1 0.29010170E-01 0.10111664E+03</pdfrwt>
<totfact> 0.16147097E+03</totfact>
</mgrwt>
</event>
<event>
 8    1  0.3466492E-004  0.1053232E+03  0.7546771E-02  0.1270590E+00
          2   -1    0    0  501    0  0.00000000000E+00  0.00000000000E+00  0.31885924312E+03  0.31885924312E+03  0.00000000000E+00 0. -1.
         -2   -1    0    0    0  501 -0.00000000000E+00 -0.00000000000E+00 -0.34409273858E+02  0.34409273858E+02  0.00000000000E+00 0.  1.
         23    2    1    2    0    0 -0.37995621287E+02  0.30521411543E+02  0.15858825854E+03  0.18915222914E+03  0.90846608314E+02 0.  0.
         23    2    1    2    0    0  0.37995621287E+02 -0.30521411543E+02  0.12586171072E+03  0.16411628784E+03  0.93368955807E+02 0.  0.
          5    1    3    3  502    0 -0.63592178062E+02  0.39492399958E+02  0.10685999875E+03  0.13055559773E+03  0.47000000000E+01 0. -1.
         -5    1    4    4    0  503  0.58935237246E+02  0.65161980497E+01  0.91923311819E+02  0.10948885004E+03  0.47000000000E+01 0.  1.
          5    1    4    4  503    0 -0.20939615959E+02 -0.37037609592E+02  0.33938398900E+02  0.54627437801E+02  0.47000000000E+01 0. -1.
         -5    1    3    3    0  502  0.25596556776E+02 -0.89709884148E+01  0.51728259791E+02  0.58596631413E+02  0.47000000000E+01 0.  1.
<mgrwt>
<rscale>  0 0.10476140E+03</rscale>
<asrwt>0</asrwt>
<pdfrwt beam="1">  1        2 0.49055266E-01 0.10532324E+03</pdfrwt>
<pdfrwt beam="2">  1       -2 0.52937347E-02 0.10532324E+03</pdfrwt>
<totfact> 0.16818942E+04</totfact>
</mgrwt>
</event>
<event>
 8    1  0.3466492E-004  0.1067816E+03  0.7546771E-02  0.1266819E+00
         -1   -1    0    0    0  501 -0.00000000000E+00  0.00000000000E+00  0.15812726156E+02  0.15812726156E+02  0.00000000000E+00 0.  1.
          1   -1    0    0  501    0  0.00000000000E+00 -0.00000000000E+00 -0.74496754049E+03  0.74496754049E+03  0.00000000000E+00 0. -1.
         23    2    1    2    0    0 -0.44723566622E+02 -0.29097410683E+02 -0.43658530328E+03  0.44945414484E+03  0.92495646123E+02 0.  0.
         23    2    1    2    0    0  0.44723566622E+02  0.29097410683E+02 -0.29256951105E+03  0.31132612180E+03  0.92087885209E+02 0.  0.
          5    1    3    3  502    0  0.17494751224E+02 -0.27413432618E+02 -0.26187978156E+03  0.26393308356E+03  0.47000000000E+01 0. -1.
         -5    1    4    4    0  503 -0.14509970567E+02  0.40209222957E+02 -0.86929553996E+02  0.96985350515E+02  0.47000000000E+01 0.  1.
          5    1    4    4  503    0  0.59233537188E+02 -0.11111812274E+02 -0.20563995705E+03  0.21434077129E+03  0.47000000000E+01 0. -1.
         -5    1    3    3    0  502 -0.62218317845E+02 -0.16839780648E+01 -0.17470552172E+03  0.18552106128E+03  0.47000000000E+01 0.  1.
<mgrwt>
<rscale>  0 0.10669320E+03</rscale>
<asrwt>0</asrwt>
<pdfrwt beam="1">  1        1 0.11461038E+00 0.10678156E+03</pdfrwt>
<pdfrwt beam="2">  1       -1 0.24327273E-02 0.10678156E+03</pdfrwt>
<totfact> 0.12399715E+04</totfact>
</mgrwt>
</event>
<event>
 8    1  0.3466492E-004  0.9398899E+02  0.7546771E-02  0.1293863E+00
         -2   -1    0    0    0  501 -0.00000000000E+00  0.00000000000E+00  0.11853732425E+02  0.11853732425E+02  0.00000000000E+00 0.  1.
          2   -1    0    0  501    0  0.00000000000E+00 -0.00000000000E+00 -0.75832437283E+03  0.75832437283E+03  0.00000000000E+00 0. -1.
         23    2    1    2    0    0  0.84672243957E+01  0.26950630452E+02 -0.31172454215E+03  0.32538815399E+03  0.88922607966E+02 0.  0.
         23    2    1    2    0    0 -0.84672243957E+01 -0.26950630452E+02 -0.43474609825E+03  0.44478995126E+03  0.89643183947E+02 0.  0.
          5    1    3    3  502    0 -0.39395983268E+02  0.14502188986E+02 -0.17142356073E+03  0.17655164728E+03  0.47000000000E+01 0. -1.
         -5    1    4    4    0  503  0.21011380638E+02  0.24632253501E+02 -0.11624895911E+03  0.12076479836E+03  0.47000000000E+01 0.  1.
          5    1    4    4  503    0 -0.29478605034E+02 -0.51582883953E+02 -0.31849713915E+03  0.32402515291E+03  0.47000000000E+01 0. -1.
         -5    1    3    3    0  502  0.47863207664E+02  0.12448441465E+02 -0.14030098142E+03  0.14883650671E+03  0.47000000000E+01 0.  1.
<mgrwt>
<rscale>  0 0.93816768E+02</rscale>
<asrwt>0</asrwt>
<pdfrwt beam="1">  1        2 0.11666534E+00 0.93988993E+02</pdfrwt>
<pdfrwt beam="2">  1       -2 0.18236504E-02 0.93988993E+02</pdfrwt>
<totfact> 0.30539516E+04</totfact>
</mgrwt>
</event>
<event>
 8    1  0.3895698E-004  0.9158910E+02  0.7546771E-02  0.1301111E+00
         -1   -1    0    0    0  501 -0.00000000000E+00  0.00000000000E+00  0.22304519483E+03  0.22304519483E+03  0.00000000000E+00 0.  1.
          1   -1    0    0  501    0  0.00000000000E+00 -0.00000000000E+00 -0.71729944502E+02  0.71729944502E+02  0.00000000000E+00 0. -1.
         23    2    1    2    0    0  0.23697276564E+01 -0.81793506994E+01 -0.28762210632E+02  0.92744313971E+02  0.87759475992E+02 0.  0.
         23    2    1    2    0    0 -0.23697276564E+01  0.81793506994E+01  0.18007746096E+03  0.20203082536E+03  0.91192352000E+02 0.  0.
          5    1    3    3  502    0 -0.20811410003E+02 -0.39150155528E+02 -0.30025913095E+02  0.53754022374E+02  0.47000000000E+01 0. -1.
         -5    1    4    4    0  503  0.33409551529E+02  0.33022776837E+02  0.82138513814E+02  0.94739259945E+02  0.47000000000E+01 0.  1.
          5    1    4    4  503    0 -0.35779279186E+02 -0.24843426138E+02  0.97938947148E+02  0.10729156542E+03  0.47000000000E+01 0. -1.
         -5    1    3    3    0  502  0.23181137660E+02  0.30970804828E+02  0.12637024630E+01  0.38990291597E+02  0.47000000000E+01 0.  1.
<mgrwt>
<rscale>  0 0.90722517E+02</rscale>
<asrwt>0</asrwt>
<pdfrwt beam="1">  1        1 0.11035376E-01 0.91589096E+02</pdfrwt>
<pdfrwt beam="2">  1       -1 0.34314645E-01 0.91589096E+02</pdfrwt>
<totfact> 0.42383524E+03</totfact>
</mgrwt>
</event>
<event>
 7    1  0.3466492E-004  0.1313971E+03  0.7546771E-02  0.1240779E+00
         -1   -1    0    0    0  501 -0.00000000000E+00  0.00000000000E+00  0.94590603585E+02  0.94590603585E+02  0.00000000000E+00 0.  1.
          1   -1    0    0  501    0  0.00000000000E+00 -0.00000000000E+00 -0.21148477504E+03  0.21148477504E+03  0.00000000000E+00 0. -1.
         23    2    1    2    0    0  0.15075122301E+02 -0.24240474094E+02 -0.14298869502E+03  0.17211224764E+03  0.91443966382E+02 0.  0.
          5    1    1    2  502    0 -0.51148322237E+02  0.23057795635E+02  0.61365028447E+02  0.83280066784E+02  0.47000000000E+01 0. -1.
         -5    1    3    3    0  503  0.46211671826E+02 -0.32511798091E+02 -0.58035865937E+02  0.81134378430E+02  0.47000000000E+01 0.  1.
          5    1    3    3  503    0 -0.31136549525E+02  0.82713239970E+01 -0.84952829083E+02  0.90977869211E+02  0.47000000000E+01 0. -1.
         -5    1    1    2    0  502  0.36073199936E+02  0.11826784592E+01 -0.35270504879E+02  0.50683064197E+02  0.47000000000E+01 0.  1.
<mgrwt>
<rscale>  0 0.12141604E+03</rscale>
<asrwt>0</asrwt>
<pdfrwt beam="1">  1        1 0.32536119E-01 0.13139709E+03</pdfrwt>
<pdfrwt beam="2">  1       -1 0.14552401E-01 0.13139709E+03</pdfrwt>
<totfact> 0.44124831E+03</totfact>
</mgrwt>
</event>
<event>
 8    1  0.3466492E-004  0.1224553E+03  0.7546771E-02  0.1245570E+00
          2   -1    0    0  501    0  0.00000000000E+00  0.00000000000E+00  0.13131339707E+03  0.13131339707E+03  0.00000000000E+00 0. -1.
         -2   -1    0    0    0  501 -0.00000000000E+00 -0.00000000000E+00 -0.10492701344E+03  0.10492701344E+03  0.00000000000E+00 0.  1.
         23    2    1    2    0    0  0.37901964348E+02  0.71309418184E+02 -0.11528049645E+02  0.10804992889E+03  0.70854069614E+02 0.  0.
         23    2    1    2    0    0 -0.37901964348E+02 -0.71309418184E+02  0.37914433274E+02  0.12819048163E+03  0.92052720258E+02 0.  0.
          5    1    3    3  502    0  0.39711992731E+02  0.48643029946E+02 -0.37437451674E+02  0.73258716319E+02  0.47000000000E+01 0.  1.
         -5    1    4    4    0  503 -0.40584256965E+02  0.43458107567E+01  0.32063794136E+02  0.52116646851E+02  0.47000000000E+01 0.  1.
          5    1    4    4  503    0  0.26822926166E+01 -0.75655228941E+02  0.58506391380E+01  0.76073834779E+02  0.47000000000E+01 0. -1.
         -5    1    3    3    0  502 -0.18100283826E+01  0.22666388238E+02  0.25909402028E+02  0.34791212568E+02  0.47000000000E+01 0. -1.
<mgrwt>
<rscale>  0 0.11851348E+03</rscale>
<asrwt>0</asrwt>
<pdfrwt beam="1">  1        2 0.20202061E-01 0.12245528E+03</pdfrwt>
<pdfrwt beam="2">  1       -2 0.16142618E-01 0.12245528E+03</pdfrwt>
<totfact> 0.77932987E+03</totfact>
</mgrwt>
</event>
<event>
 8    1  0.3466492E-004  0.1918977E+03  0.7546771E-02  0.1156842E+00
         -2   -1    0    0    0  501 -0.00000000000E+00  0.00000000000E+00  0.26677745757E+03  0.26677745757E+03  0.00000000000E+00 0.  1.
          2   -1    0    0  501    0  0.00000000000E+00 -0.00000000000E+00 -0.34673402245E+03  0.34673402245E+03  0.00000000000E+00 0. -1.
         23    2    1    2    0    0  0.74735318010E+01  0.16849872985E+03 -0.27813032120E+03  0.33790709446E+03  0.91526243685E+02 0.  0.
         23    2    1    2    0    0 -0.74735318010E+01 -0.16849872985E+03  0.19817375631E+03  0.27560438556E+03  0.90759374232E+02 0.  0.
          5    1    4    4  502    0  0.23982646615E+02 -0.24503985969E+02  0.90269815272E+01  0.35765752648E+02  0.47000000000E+01 0. -1.
         -5    1    4    4    0  502 -0.31456178416E+02 -0.14399474388E+03  0.18914677478E+03  0.23983863291E+03  0.47000000000E+01 0.  1.
          5    1    3    3  503    0  0.38328699669E+02  0.13289538061E+03 -0.16554966638E+03  0.21577546998E+03  0.47000000000E+01 0. -1.
         -5    1    3    3    0  503 -0.30855167868E+02  0.35603349241E+02 -0.11258065482E+03  0.12213162449E+03  0.47000000000E+01 0.  1.
<mgrwt>
<rscale>  0 0.19180650E+03</rscale>
<asrwt>0</asrwt>
<pdfrwt beam="1">  1        2 0.53343696E-01 0.19189770E+03</pdfrwt>
<pdfrwt beam="2">  1       -2 0.41042686E-01 0.19189770E+03</pdfrwt>
<totfact> 0.53171820E+02</totfact>
</mgrwt>
</event>
<event>
 8    1  0.3466492E-004  0.1053570E+03  0.7546771E-02  0.1270123E+00
         -1   -1    0    0    0  501 -0.00000000000E+00  0.00000000000E+00  0.66168964862E+03  0.66168964862E+03  0.00000000000E+00 0.  1.
          1   -1    0    0  501    0  0.00000000000E+00 -0.00000000000E+00 -0.16934262177E+02  0.16934262177E+02  0.00000000000E+00 0. -1.
         23    2    1    2    0    0 -0.12751767822E+02 -0.49084887995E+02  0.26904120996E+03  0.28841726003E+03  0.90716092365E+02 0.  0.
         23    2    1    2    0    0  0.12751767822E+02  0.49084887995E+02  0.37571417648E+03  0.39020665076E+03  0.92348005291E+02 0.  0.
          5    1    4    4  502    0 -0.37039546065E+02  0.34536282653E+02  0.22721806659E+03  0.23284076657E+03  0.47000000000E+01 0. -1.
         -5    1    4    4    0  502  0.49791313887E+02  0.14548605341E+02  0.14849610989E+03  0.15736588419E+03  0.47000000000E+01 0.  1.
          5    1    3    3  503    0 -0.38633025564E+02 -0.15479625742E+02  0.49846441441E+02  0.65106736991E+02  0.47000000000E+01 0. -1.
         -5    1    3    3    0  503  0.25881257742E+02 -0.33605262252E+02  0.21919476852E+03  0.22331052304E+03  0.47000000000E+01 0.  1.
<mgrwt>
<rscale>  0 0.10499827E+03</rscale>
<asrwt>0</asrwt>
<pdfrwt beam="1">  1        1 0.26052716E-02 0.10535695E+03</pdfrwt>
<pdfrwt beam="2">  1       -1 0.10179839E+00 0.10535695E+03</pdfrwt>
<totfact> 0.37956264E+03</totfact>
</mgrwt>
</event>
<event>
 8    1  0.3466492E-004  0.1699371E+03  0.7546771E-02  0.1178265E+00
         -2   -1    0    0    0  501 -0.00000000000E+00  0.00000000000E+00  0.30526547234E+03  0.30526547234E+03  0.00000000000E+00 0.  1.
          2   -1    0    0  501    0  0.00000000000E+00 -0.00000000000E+00 -0.24239349808E+03  0.24239349808E+03  0.00000000000E+00 0. -1.
         23    2    1    2    0    0  0.13648966812E+03 -0.37186328957E+02 -0.18287243932E+03  0.24964161156E+03  0.94161311560E+02 0.  0.
         23    2    1    2    0    0 -0.13648966812E+03  0.37186328957E+02  0.24574441359E+03  0.29801735885E+03  0.91715739131E+02 0.  0.
          5    1    4    4  502    0 -0.56139195082E+02  0.59766526876E+02  0.14918471118E+03  0.17029919263E+03  0.47000000000E+01 0. -1.
         -5    1    3    3    0  503  0.91507238331E+02 -0.63983653343E+02 -0.92414379039E+02  0.14501720593E+03  0.47000000000E+01 0.  1.
          5    1    3    3  503    0  0.44982429791E+02  0.26797324386E+02 -0.90458060282E+02  0.10462440563E+03  0.47000000000E+01 0. -1.
         -5    1    4    4    0  502 -0.80350473041E+02 -0.22580197919E+02  0.96559702405E+02  0.12771816623E+03  0.47000000000E+01 0.  1.
<mgrwt>
<rscale>  0 0.16960037E+03</rscale>
<asrwt>0</asrwt>
<pdfrwt beam="1">  1        2 0.37291307E-01 0.16993706E+03</pdfrwt>
<pdfrwt beam="2">  1       -2 0.46963919E-01 0.16993706E+03</pdfrwt>
<totfact> 0.60045060E+02</totfact>
</mgrwt>
</event>
<event>
 7    1  0.3466492E-004  0.2241565E+03  0.7546771E-02  0.1135088E+00
          3   -1    0    0  501    0  0.00000000000E+00  0.00000000000E+00  0.35315632224E+03  0.35315632224E+03  0.00000000000E+00 0. -1.
         -3   -1    0    0    0  501 -0.00000000000E+00 -0.00000000000E+00 -0.12900755014E+03  0.12900755014E+03  0.00000000000E+00 0.  1.
         23    2    1    2    0    0  0.14693981141E+03  0.10304139737E+03  0.12070308511E+03  0.23528907684E+03  0.92643818870E+02 0.  0.
          5    1    1    2  502    0 -0.12156287464E+03 -0.12654935781E+03  0.11528502175E+03  0.21001190131E+03  0.47000000000E+01 0. -1.
         -5    1    3    3    0  503  0.47707006858E+02  0.81896185105E+02  0.85677042660E+02  0.12784987007E+03  0.47000000000E+01 0.  1.
          5    1    3    3  503    0  0.99232804551E+02  0.21145212263E+02  0.35026042449E+02  0.10743920676E+03  0.47000000000E+01 0. -1.
         -5    1    1    2    0  502 -0.25376936770E+02  0.23507960438E+02 -0.11839334763E+02  0.36862894236E+02  0.47000000000E+01 0.  1.
<mgrwt>
<rscale>  0 0.21839116E+03</rscale>
<asrwt>0</asrwt>
<pdfrwt beam="1">  1        3 0.54331742E-01 0.22415654E+03</pdfrwt>
<pdfrwt beam="2">  1       -3 0.19847316E-01 0.22415654E+03</pdfrwt>
<totfact> 0.18981698E+02</totfact>
</mgrwt>
</event>
<event>
 8    1  0.3466492E-004  0.1126952E+03  0.7546771E-02  0.1258379E+00
          2   -1    0    0  501    0  0.00000000000E+00  0.00000000000E+00  0.58985281338E+03  0.58985281338E+03  0.00000000000E+00 0. -1.
         -2   -1    0    0    0  501 -0.00000000000E+00 -0.00000000000E+00 -0.25578054648E+02  0.25578054648E+02  0.00000000000E+00 0.  1.
         23    2    1    2    0    0 -0.13573747109E+02  0.60641423611E+02  0.13793536505E+03  0.17444845945E+03  0.86858915507E+02 0.  0.
         23    2    1    2    0    0  0.13573747109E+02 -0.60641423611E+02  0.42633939368E+03  0.44098240858E+03  0.94013707546E+02 0.  0.
          5    1    4    4  502    0  0.41836285908E+02 -0.53629499344E+00  0.11162071607E+03  0.11929726186E+03  0.47000000000E+01 0. -1.
         -5    1    3    3    0  503  0.33528736428E+02  0.31129014963E+02  0.36615267266E+02  0.58787409673E+02  0.47000000000E+01 0.  1.
          5    1    3    3  503    0 -0.47102483536E+02  0.29512408647E+02  0.10132009779E+03  0.11566104977E+03  0.47000000000E+01 0. -1.
         -5    1    4    4    0  502 -0.28262538800E+02 -0.60105128617E+02  0.31471867761E+03  0.32168514672E+03  0.47000000000E+01 0.  1.
<mgrwt>
<rscale>  0 0.11119140E+03</rscale>
<asrwt>0</asrwt>
<pdfrwt beam="1">  1        2 0.90746576E-01 0.11269519E+03</pdfrwt>
<pdfrwt beam="2">  1       -2 0.39350858E-02 0.11269519E+03</pdfrwt>
<totfact> 0.13573897E+04</totfact>
</mgrwt>
</event>
<event>
 8    1  0.3466492E-004  0.1007604E+03  0.7546771E-02  0.1281349E+00
          1   -1    0    0  501    0  0.00000000000E+00  0.00000000000E+00  0.88583538653E+02  0.88583538653E+02  0.00000000000E+00 0. -1.
         -1   -1    0    0    0  501 -0.00000000000E+00 -0.00000000000E+00 -0.13583854516E+03  0.13583854516E+03  0.00000000000E+00 0.  1.
         23    2    1    2    0    0 -0.27197770303E+01  0.31777673891E+02  0.25708029746E+02  0.10398827506E+03  0.95579499951E+02 0.  0.
         23    2    1    2    0    0  0.27197770303E+01 -0.31777673891E+02 -0.72963036257E+02  0.12043380876E+03  0.90351977774E+02 0.  0.
          5    1    3    3  502    0  0.34117716639E+02 -0.15117100630E+01  0.39319448771E+02  0.52291614123E+02  0.47000000000E+01 0. -1.
         -5    1    3    3    0  502 -0.36837493669E+02  0.33289383954E+02 -0.13611419024E+02  0.51696660934E+02  0.47000000000E+01 0.  1.
          5    1    4    4  503    0  0.43749201284E+02 -0.29807703428E+02 -0.31011338926E+02  0.61532795635E+02  0.47000000000E+01 0. -1.
         -5    1    4    4    0  503 -0.41029424254E+02 -0.19699704627E+01 -0.41951697331E+02  0.58901013126E+02  0.47000000000E+01 0.  1.
<mgrwt>
<rscale>  0 0.99500870E+02</rscale>
<asrwt>0</asrwt>
<pdfrwt beam="1">  1        1 0.13628237E-01 0.10076040E+03</pdfrwt>
<pdfrwt beam="2">  1       -1 0.20898237E-01 0.10076040E+03</pdfrwt>
<totfact> 0.73334932E+03</totfact>
</mgrwt>
</event>
<event>
 8    1  0.3466492E-004  0.1161124E+03  0.7546771E-02  0.1256580E+00
          1   -1    0    0  501    0  0.00000000000E+00  0.00000000000E+00  0.11054561353E+04  0.11054561353E+04  0.00000000000E+00 0. -1.
         -1   -1    0    0    0  501 -0.00000000000E+00 -0.00000000000E+00 -0.12585493542E+02  0.12585493542E+02  0.00000000000E+00 0.  1.
         23    2    1    2    0    0 -0.38306981276E+02 -0.27501029205E+02  0.29733142680E+03  0.31407351138E+03  0.89512355376E+02 0.  0.
         23    2    1    2    0    0  0.38306981276E+02  0.27501029205E+02  0.79553921492E+03  0.80396811742E+03  0.10610541899E+03 0.  0.
          5    1    4    4  502    0 -0.15833767664E+02 -0.30184801315E+02  0.17159401129E+03  0.17500978584E+03  0.47000000000E+01 0.  1.
         -5    1    3    3    0  503 -0.67491207073E+02 -0.17134812015E+02  0.20023360641E+03  0.21204775865E+03  0.47000000000E+01 0.  1.
          5    1    3    3  503    0  0.29184225797E+02 -0.10366217190E+02  0.97097820389E+02  0.10202575272E+03  0.47000000000E+01 0. -1.
         -5    1    4    4    0  502  0.54140748940E+02  0.57685830521E+02  0.62394520362E+03  0.62895833158E+03  0.47000000000E+01 0. -1.
<mgrwt>
<rscale>  0 0.11218280E+03</rscale>
<asrwt>0</asrwt>
<pdfrwt beam="1">  1        1 0.17007010E+00 0.11611241E+03</pdfrwt>
<pdfrwt beam="2">  1       -1 0.19362306E-02 0.11611241E+03</pdfrwt>
<totfact> 0.92225687E+03</totfact>
</mgrwt>
</event>
<event>
 8    1  0.3466492E-004  0.1224236E+03  0.7546771E-02  0.1243319E+00
          1   -1    0    0  501    0  0.00000000000E+00  0.00000000000E+00  0.29377234587E+03  0.29377234587E+03  0.00000000000E+00 0. -1.
         -1   -1    0    0    0  501 -0.00000000000E+00 -0.00000000000E+00 -0.97319540103E+02  0.97319540103E+02  0.00000000000E+00 0.  1.
         23    2    1    2    0    0 -0.80760916726E+02  0.70238831948E+01 -0.44367874451E+02  0.12093984274E+03  0.78014592695E+02 0.  0.
         23    2    1    2    0    0  0.80760916726E+02 -0.70238831948E+01  0.24082068022E+03  0.27015204324E+03  0.91738028303E+02 0.  0.
          5    1    4    4  502    0  0.93357559579E+02  0.16799036625E+02  0.19130517209E+03  0.21358277185E+03  0.47000000000E+01 0. -1.
         -5    1    4    4    0  502 -0.12596642852E+02 -0.23822919819E+02  0.49515508135E+02  0.56569271391E+02  0.47000000000E+01 0.  1.
          5    1    3    3  503    0 -0.70221546538E+02 -0.26406640512E+02 -0.19352359939E+02  0.77620745271E+02  0.47000000000E+01 0. -1.
         -5    1    3    3    0  503 -0.10539370189E+02  0.33430523707E+02 -0.25015514512E+02  0.43319097470E+02  0.47000000000E+01 0.  1.
<mgrwt>
<rscale>  0 0.11986547E+03</rscale>
<asrwt>0</asrwt>
<pdfrwt beam="1">  1        1 0.45195745E-01 0.12242355E+03</pdfrwt>
<pdfrwt beam="2">  1       -1 0.14972237E-01 0.12242355E+03</pdfrwt>
<totfact> 0.28027759E+03</totfact>
</mgrwt>
</event>
<event>
 8    1  0.3466492E-004  0.1073523E+03  0.7546771E-02  0.1270767E+00
         -3   -1    0    0    0  501 -0.00000000000E+00  0.00000000000E+00  0.30526407098E+03  0.30526407098E+03  0.00000000000E+00 0.  1.
          3   -1    0    0  501    0  0.00000000000E+00 -0.00000000000E+00 -0.16314395285E+03  0.16314395285E+03  0.00000000000E+00 0. -1.
         23    2    1    2    0    0 -0.23334269875E+02 -0.27047894821E+02  0.27845830079E+03  0.29487814067E+03  0.90210951654E+02 0.  0.
         23    2    1    2    0    0  0.23334269875E+02  0.27047894821E+02 -0.13633818266E+03  0.17352988316E+03  0.10123459652E+03 0.  0.
          5    1    4    4  502    0  0.45527743315E+02  0.27098823643E+02 -0.14070907082E+03  0.15042690672E+03  0.47000000000E+01 0. -1.
         -5    1    3    3    0  503 -0.18994240166E+02  0.27127558585E+02  0.17237690147E+03  0.17559206062E+03  0.47000000000E+01 0.  1.
          5    1    3    3  503    0 -0.43400297087E+01 -0.54175453406E+02  0.10608139933E+03  0.11928608004E+03  0.47000000000E+01 0. -1.
         -5    1    4    4    0  502 -0.22193473440E+02 -0.50928821910E-01  0.43708881601E+01  0.23102976440E+02  0.47000000000E+01 0.  1.
<mgrwt>
<rscale>  0 0.10467209E+03</rscale>
<asrwt>0</asrwt>
<pdfrwt beam="1">  1        3 0.25099070E-01 0.10735232E+03</pdfrwt>
<pdfrwt beam="2">  1       -3 0.46963703E-01 0.10735232E+03</pdfrwt>
<totfact> 0.15373346E+02</totfact>
</mgrwt>
</event>
<event>
 8    1  0.4956459E-004  0.1160931E+03  0.7546771E-02  0.1254590E+00
          1   -1    0    0  501    0  0.00000000000E+00  0.00000000000E+00  0.72180412788E+02  0.72180412788E+02  0.00000000000E+00 0. -1.
         -1   -1    0    0    0  501 -0.00000000000E+00 -0.00000000000E+00 -0.34835117091E+03  0.34835117091E+03  0.00000000000E+00 0.  1.
         23    2    1    2    0    0 -0.14507150390E+02  0.46761471940E+02  0.91003868517E+01  0.11644919098E+03  0.10526397469E+03 0.  0.
         23    2    1    2    0    0  0.14507150390E+02 -0.46761471940E+02 -0.28527114497E+03  0.30408239272E+03  0.93216858663E+02 0.  0.
          5    1    3    3  502    0 -0.14923653525E+02  0.78922086492E+02 -0.58509881133E+01  0.80670535096E+02  0.47000000000E+01 0. -1.
         -5    1    3    3    0  502  0.41650313544E+00 -0.32160614552E+02  0.14951374965E+02  0.35778655880E+02  0.47000000000E+01 0.  1.
          5    1    4    4  503    0  0.61729212199E+01  0.27035979271E+02 -0.11257548908E+03  0.11603611452E+03  0.47000000000E+01 0. -1.
         -5    1    4    4    0  503  0.83342291701E+01 -0.73797451210E+02 -0.17269565589E+03  0.18804627820E+03  0.47000000000E+01 0.  1.
<mgrwt>
<rscale>  0 0.11329320E+03</rscale>
<asrwt>0</asrwt>
<pdfrwt beam="1">  1        1 0.11104679E-01 0.11609305E+03</pdfrwt>
<pdfrwt beam="2">  1       -1 0.53592487E-01 0.11609305E+03</pdfrwt>
<totfact> 0.19413791E+03</totfact>
</mgrwt>
</event>
<event>
 8    1  0.3466492E-004  0.1034518E+03  0.7546771E-02  0.1277858E+00
          1   -1    0    0  501    0  0.00000000000E+00  0.00000000000E+00  0.38703562149E+02  0.38703562149E+02  0.00000000000E+00 0. -1.
         -1   -1    0    0    0  501 -0.00000000000E+00 -0.00000000000E+00 -0.32177635814E+03  0.32177635814E+03  0.00000000000E+00 0.  1.
         23    2    1    2    0    0 -0.13132723149E+02 -0.14844353943E+01 -0.21958168093E+03  0.23909871031E+03  0.93687815127E+02 0.  0.
         23    2    1    2    0    0  0.13132723149E+02  0.14844353943E+01 -0.63491115052E+02  0.12138120998E+03  0.10260411531E+03 0.  0.
          5    1    3    3  502    0  0.35382828648E+02  0.32863220571E+01 -0.43671712936E+02  0.56498256492E+02  0.47000000000E+01 0. -1.
         -5    1    3    3    0  502 -0.48515551797E+02 -0.47707574514E+01 -0.17590996800E+03  0.18260045382E+03  0.47000000000E+01 0.  1.
          5    1    4    4  503    0  0.13171256551E+02 -0.29875199475E+02  0.15364197889E+02  0.36388983492E+02  0.47000000000E+01 0. -1.
         -5    1    4    4    0  503 -0.38533402884E-01  0.31359634869E+02 -0.78855312941E+02  0.84992226485E+02  0.47000000000E+01 0.  1.
<mgrwt>
<rscale>  0 0.10116821E+03</rscale>
<asrwt>0</asrwt>
<pdfrwt beam="1">  1        1 0.59543944E-02 0.10345181E+03</pdfrwt>
<pdfrwt beam="2">  1       -1 0.49504053E-01 0.10345181E+03</pdfrwt>
<totfact> 0.51080259E+03</totfact>
</mgrwt>
</event>
<event>
 8    1  0.3466492E-004  0.1031643E+03  0.7546771E-02  0.1274428E+00
          1   -1    0    0  501    0  0.00000000000E+00  0.00000000000E+00  0.53690739015E+02  0.53690739015E+02  0.00000000000E+00 0. -1.
         -1   -1    0    0    0  501 -0.00000000000E+00 -0.00000000000E+00 -0.19692732670E+03  0.19692732670E+03  0.00000000000E+00 0.  1.
         23    2    1    2    0    0 -0.30874351725E+02  0.37626081834E+02 -0.62493603189E+02  0.12061641457E+03  0.90961098248E+02 0.  0.
         23    2    1    2    0    0  0.30874351725E+02 -0.37626081834E+02 -0.80742984497E+02  0.13000165115E+03  0.89510067186E+02 0.  0.
          5    1    4    4  502    0 -0.16412180768E+02 -0.16482949204E+02  0.97270200622E+01  0.25646680317E+02  0.47000000000E+01 0. -1.
         -5    1    4    4    0  502  0.47286532493E+02 -0.21143132629E+02 -0.90470004559E+02  0.10435497083E+03  0.47000000000E+01 0.  1.
          5    1    3    3  503    0  0.63668693647E+01  0.58222277490E+02 -0.46423936180E+02  0.74884193740E+02  0.47000000000E+01 0. -1.
         -5    1    3    3    0  503 -0.37241221090E+02 -0.20596195657E+02 -0.16069667009E+02  0.45732220825E+02  0.47000000000E+01 0.  1.
<mgrwt>
<rscale>  0 0.10284352E+03</rscale>
<asrwt>0</asrwt>
<pdfrwt beam="1">  1        1 0.82601136E-02 0.10316428E+03</pdfrwt>
<pdfrwt beam="2">  1       -1 0.30296512E-01 0.10316428E+03</pdfrwt>
<totfact> 0.77212256E+03</totfact>
</mgrwt>
</event>
<event>
 8    1  0.3466492E-004  0.9890087E+02  0.7546771E-02  0.1284576E+00
         -1   -1    0    0    0  501 -0.00000000000E+00  0.00000000000E+00  0.71110929442E+03  0.71110929442E+03  0.00000000000E+00 0.  1.
          1   -1    0    0  501    0  0.00000000000E+00 -0.00000000000E+00 -0.13404880904E+02  0.13404880904E+02  0.00000000000E+00 0. -1.
         23    2    1    2    0    0 -0.21438103602E+02  0.23911967993E+02  0.30494235080E+03  0.31949143602E+03  0.89741661916E+02 0.  0.
         23    2    1    2    0    0  0.21438103602E+02 -0.23911967993E+02  0.39276206272E+03  0.40502273930E+03  0.93541471764E+02 0.  0.
          5    1    3    3  502    0  0.22100664032E+02  0.41926203490E+02  0.13951309603E+03  0.14741858721E+03  0.47000000000E+01 0.  1.
         -5    1    3    3    0  502 -0.43538767634E+02 -0.18014235497E+02  0.16542925476E+03  0.17207284881E+03  0.47000000000E+01 0. -1.
          5    1    4    4  503    0  0.25060626945E+02 -0.55577396562E+02  0.18672283186E+03  0.19647999381E+03  0.47000000000E+01 0. -1.
         -5    1    4    4    0  503 -0.36225233428E+01  0.31665428569E+02  0.20603923087E+03  0.20854274549E+03  0.47000000000E+01 0.  1.
<mgrwt>
<rscale>  0 0.97991935E+02</rscale>
<asrwt>0</asrwt>
<pdfrwt beam="1">  1        1 0.20622899E-02 0.98900867E+02</pdfrwt>
<pdfrwt beam="2">  1       -1 0.10940140E+00 0.98900867E+02</pdfrwt>
<totfact> 0.44423228E+03</totfact>
</mgrwt>
</event>
<event>
 7    1  0.8224562E-004  0.1751291E+03  0.7546771E-02  0.1200212E+00
          1   -1    0    0  501    0  0.00000000000E+00  0.00000000000E+00  0.48533765866E+03  0.48533765866E+03  0.00000000000E+00 0. -1.
         -1   -1    0    0    0  501 -0.00000000000E+00 -0.00000000000E+00 -0.59538528596E+02  0.59538528596E+02  0.00000000000E+00 0.  1.
         23    2    1    2    0    0 -0.27470635049E+02 -0.11352729115E+02  0.33391218432E+03  0.34710508794E+03  0.90005971955E+02 0.  0.
          5    1    3    3  502    0 -0.20118458974E+02  0.38477347819E+02  0.13664148572E+03  0.14345119137E+03  0.47000000000E+01 0. -1.
         -5    1    1    2    0  503  0.22741392845E+02 -0.71594398551E+02  0.20198150996E+01  0.75293416083E+02  0.47000000000E+01 0.  1.
          5    1    1    2  503    0  0.47292422040E+01  0.82947127666E+02  0.89867130642E+02  0.12247768323E+03  0.47000000000E+01 0. -1.
         -5    1    3    3    0  502 -0.73521760752E+01 -0.49830076934E+02  0.19727069860E+03  0.20365389657E+03  0.47000000000E+01 0.  1.
<mgrwt>
<rscale>  0 0.15021248E+03</rscale>
<asrwt>0</asrwt>
<pdfrwt beam="1">  1        1 0.74667329E-01 0.17512909E+03</pdfrwt>
<pdfrwt beam="2">  1       -1 0.91597740E-02 0.17512909E+03</pdfrwt>
<totfact> 0.32238057E+03</totfact>
</mgrwt>
</event>
<event>
 8    1  0.3466492E-004  0.9530756E+02  0.7546771E-02  0.1290923E+00
          2   -1    0    0  501    0  0.00000000000E+00  0.00000000000E+00  0.13523505577E+03  0.13523505577E+03  0.00000000000E+00 0. -1.
         -2   -1    0    0    0  501 -0.00000000000E+00 -0.00000000000E+00 -0.12324612974E+03  0.12324612974E+03  0.00000000000E+00 0.  1.
         23    2    1    2    0    0  0.26948800356E+02 -0.72135859399E+00 -0.81594293096E+02  0.12546378162E+03  0.91415390579E+02 0.  0.
         23    2    1    2    0    0 -0.26948800356E+02  0.72135859399E+00  0.93583219131E+02  0.13301740388E+03  0.90603822404E+02 0.  0.
          5    1    4    4  502    0  0.41116743785E+01 -0.40834442635E+02  0.51688683764E+02  0.66167723255E+02  0.47000000000E+01 0. -1.
         -5    1    3    3    0  503 -0.23095760870E+02  0.26351810185E+02 -0.46625098220E+02  0.58513433109E+02  0.47000000000E+01 0.  1.
          5    1    3    3  503    0  0.50044561226E+02 -0.27073168779E+02 -0.34969194875E+02  0.66950348515E+02  0.47000000000E+01 0. -1.
         -5    1    4    4    0  502 -0.31060474734E+02  0.41555801229E+02  0.41894535368E+02  0.66849680629E+02  0.47000000000E+01 0.  1.
<mgrwt>
<rscale>  0 0.95112429E+02</rscale>
<asrwt>0</asrwt>
<pdfrwt beam="1">  1        2 0.20805393E-01 0.95307564E+02</pdfrwt>
<pdfrwt beam="2">  1       -2 0.18960943E-01 0.95307564E+02</pdfrwt>
<totfact> 0.56683774E+03</totfact>
</mgrwt>
</event>
<event>
 8    1  0.3466492E-004  0.9483320E+02  0.7546771E-02  0.1292101E+00
          2   -1    0    0  501    0  0.00000000000E+00  0.00000000000E+00  0.21323449923E+03  0.21323449923E+03  0.00000000000E+00 0. -1.
         -2   -1    0    0    0  501 -0.00000000000E+00 -0.00000000000E+00 -0.44645651860E+02  0.44645651860E+02  0.00000000000E+00 0.  1.
         23    2    1    2    0    0  0.12826632603E+02  0.19654092892E+02  0.51842497971E+02  0.10807858856E+03  0.91883245687E+02 0.  0.
         23    2    1    2    0    0 -0.12826632603E+02 -0.19654092892E+02  0.11674634940E+03  0.14980156253E+03  0.90884499048E+02 0.  0.
          5    1    4    4  502    0 -0.51596866432E+02 -0.55891325778E+01  0.70324534093E+02  0.87527739168E+02  0.47000000000E+01 0. -1.
         -5    1    4    4    0  502  0.38770233829E+02 -0.14064960314E+02  0.46421815312E+02  0.62273823366E+02  0.47000000000E+01 0.  1.
          5    1    3    3  503    0 -0.20569876244E+02  0.39434398408E+02  0.52509181573E+02  0.68974602108E+02  0.47000000000E+01 0. -1.
         -5    1    3    3    0  503  0.33396508847E+02 -0.19780305515E+02 -0.66668360188E+00  0.39103986452E+02  0.47000000000E+01 0.  1.
<mgrwt>
<rscale>  0 0.94590436E+02</rscale>
<asrwt>0</asrwt>
<pdfrwt beam="1">  1        2 0.32805307E-01 0.94833205E+02</pdfrwt>
<pdfrwt beam="2">  1       -2 0.68685619E-02 0.94833205E+02</pdfrwt>
<totfact> 0.17188699E+04</totfact>
</mgrwt>
</event>
<event>
 8    1  0.3466492E-004  0.1022482E+03  0.7546771E-02  0.1275698E+00
         -2   -1    0    0    0  501 -0.00000000000E+00  0.00000000000E+00  0.14035864206E+03  0.14035864206E+03  0.00000000000E+00 0.  1.
          2   -1    0    0  501    0  0.00000000000E+00 -0.00000000000E+00 -0.13084318731E+03  0.13084318731E+03  0.00000000000E+00 0. -1.
         23    2    1    2    0    0  0.44054793232E+02  0.13941472293E+02 -0.84305683584E+02  0.13243187349E+03  0.91079983387E+02 0.  0.
         23    2    1    2    0    0 -0.44054793232E+02 -0.13941472293E+02  0.93821138335E+02  0.13876995589E+03  0.91211321680E+02 0.  0.
          5    1    3    3  502    0  0.40674294554E+02  0.48979618302E+02 -0.38788332694E+02  0.74699571616E+02  0.47000000000E+01 0. -1.
         -5    1    4    4    0  503 -0.52697339405E+02 -0.41271166642E+02  0.41413023868E+02  0.78850791514E+02  0.47000000000E+01 0.  1.
          5    1    4    4  503    0  0.86425461725E+01  0.27329694350E+02  0.52408114466E+02  0.59919164376E+02  0.47000000000E+01 0. -1.
         -5    1    3    3    0  502  0.33804986785E+01 -0.35038146009E+02 -0.45517350890E+02  0.57732301869E+02  0.47000000000E+01 0.  1.
<mgrwt>
<rscale>  0 0.10221890E+03</rscale>
<asrwt>0</asrwt>
<pdfrwt beam="1">  1        2 0.20129721E-01 0.10224820E+03</pdfrwt>
<pdfrwt beam="2">  1       -2 0.21593637E-01 0.10224820E+03</pdfrwt>
<totfact> 0.47501206E+03</totfact>
</mgrwt>
</event>
<event>
 8    1  0.3466492E-004  0.9142170E+02  0.7546771E-02  0.1299638E+00
          1   -1    0    0  501    0  0.00000000000E+00  0.00000000000E+00  0.10053625014E+03  0.10053625014E+03  0.00000000000E+00 0. -1.
         -1   -1    0    0    0  501 -0.00000000000E+00 -0.00000000000E+00 -0.10220007503E+03  0.10220007503E+03  0.00000000000E+00 0.  1.
         23    2    1    2    0    0 -0.14815840198E+01  0.78853793547E+01  0.43290753019E+02  0.10085972441E+03  0.90742605273E+02 0.  0.
         23    2    1    2    0    0  0.14815840198E+01 -0.78853793547E+01 -0.44954577905E+02  0.10187660076E+03  0.91068948653E+02 0.  0.
          5    1    3    3  502    0  0.20585053541E+02 -0.32708045910E+02  0.24395881039E+01  0.39007720859E+02  0.47000000000E+01 0. -1.
         -5    1    4    4    0  503 -0.28066377102E+02  0.27132267449E+02 -0.27654563276E+01  0.39415976574E+02  0.47000000000E+01 0.  1.
          5    1    4    4  503    0  0.29547961122E+02 -0.35017646804E+02 -0.42189121578E+02  0.62460624185E+02  0.47000000000E+01 0. -1.
         -5    1    3    3    0  502 -0.22066637561E+02  0.40593425265E+02  0.40851164915E+02  0.61852003548E+02  0.47000000000E+01 0.  1.
<mgrwt>
<rscale>  0 0.91340324E+02</rscale>
<asrwt>0</asrwt>
<pdfrwt beam="1">  1        1 0.15467115E-01 0.91421703E+02</pdfrwt>
<pdfrwt beam="2">  1       -1 0.15723088E-01 0.91421703E+02</pdfrwt>
<totfact> 0.96824041E+03</totfact>
</mgrwt>
</event>
<event>
 8    1  0.3466492E-004  0.1267909E+03  0.7546771E-02  0.1237260E+00
          1   -1    0    0  501    0  0.00000000000E+00  0.00000000000E+00  0.10457075718E+04  0.10457075718E+04  0.00000000000E+00 0. -1.
         -1   -1    0    0    0  501 -0.00000000000E+00 -0.00000000000E+00 -0.14647122978E+02  0.14647122978E+02  0.00000000000E+00 0.  1.
         23    2    1    2    0    0  0.54490579364E+02 -0.68221921933E+02  0.37288636749E+03  0.39007932873E+03  0.74122774995E+02 0.  0.
         23    2    1    2    0    0 -0.54490579364E+02  0.68221921933E+02  0.65817408134E+03  0.67027536605E+03  0.91937430447E+02 0.  0.
          5    1    3    3  502    0  0.65062315778E+02 -0.38071956807E+02  0.19179345292E+03  0.20612956462E+03  0.47000000000E+01 0. -1.
         -5    1    4    4    0  503 -0.75663053627E+02  0.59767739087E+02  0.59825714905E+03  0.60599569859E+03  0.47000000000E+01 0.  1.
          5    1    4    4  503    0  0.21172474263E+02  0.84541828459E+01  0.59916932284E+02  0.64279667457E+02  0.47000000000E+01 0. -1.
         -5    1    3    3    0  502 -0.10571736413E+02 -0.30149965126E+02  0.18109291457E+03  0.18394976411E+03  0.47000000000E+01 0.  1.
<mgrwt>
<rscale>  0 0.12360845E+03</rscale>
<asrwt>0</asrwt>
<pdfrwt beam="1">  1        1 0.16087803E+00 0.12679095E+03</pdfrwt>
<pdfrwt beam="2">  1       -1 0.22534044E-02 0.12679095E+03</pdfrwt>
<totfact> 0.82108962E+03</totfact>
</mgrwt>
</event>
<event>
 8    1  0.3466492E-004  0.1098185E+03  0.7546771E-02  0.1261385E+00
         -2   -1    0    0    0  501 -0.00000000000E+00  0.00000000000E+00  0.53818520011E+02  0.53818520011E+02  0.00000000000E+00 0.  1.
          2   -1    0    0  501    0  0.00000000000E+00 -0.00000000000E+00 -0.22530461339E+03  0.22530461339E+03  0.00000000000E+00 0. -1.
         23    2    1    2    0    0  0.50878405864E+02 -0.33097594186E+02 -0.68438868904E+02  0.12852820748E+03  0.90285981281E+02 0.  0.
         23    2    1    2    0    0 -0.50878405864E+02  0.33097594186E+02 -0.10304722447E+03  0.15059492592E+03  0.91520698851E+02 0.  0.
          5    1    3    3  502    0 -0.19432357130E+02  0.96266967170E+01 -0.30726239056E+02  0.37900944050E+02  0.47000000000E+01 0. -1.
         -5    1    4    4    0  503 -0.25089801268E+02  0.58403087630E+02 -0.93097555715E+02  0.11282581111E+03  0.47000000000E+01 0. -1.
          5    1    4    4  503    0 -0.25788604595E+02 -0.25305493444E+02 -0.99496687563E+01  0.37769114813E+02  0.47000000000E+01 0.  1.
         -5    1    3    3    0  502  0.70310762994E+02 -0.42724290903E+02 -0.37712629848E+02  0.90627263425E+02  0.47000000000E+01 0.  1.
<mgrwt>
<rscale>  0 0.10956087E+03</rscale>
<asrwt>0</asrwt>
<pdfrwt beam="1">  1        2 0.34662248E-01 0.10981849E+03</pdfrwt>
<pdfrwt beam="2">  1       -2 0.82797724E-02 0.10981849E+03</pdfrwt>
<totfact> 0.12359004E+04</totfact>
</mgrwt>
</event>
<event>
 8    1  0.3636173E-004  0.1123951E+03  0.7546771E-02  0.1256410E+00
          1   -1    0    0  501    0  0.00000000000E+00  0.00000000000E+00  0.12104399348E+03  0.12104399348E+03  0.00000000000E+00 0. -1.
         -1   -1    0    0    0  501 -0.00000000000E+00 -0.00000000000E+00 -0.22143017254E+03  0.22143017254E+03  0.00000000000E+00 0.  1.
         23    2    1    2    0    0 -0.56316419149E+02  0.34858157905E+02  0.74496313251E+02  0.13484199869E+03  0.90807674145E+02 0.  0.
         23    2    1    2    0    0  0.56316419149E+02 -0.34858157905E+02 -0.17488249232E+03  0.20763216733E+03  0.90225276688E+02 0.  0.
          5    1    4    4  502    0  0.10374803461E+02  0.27030673372E+02 -0.80547917714E+02  0.85722522699E+02  0.47000000000E+01 0. -1.
         -5    1    3    3    0  503  0.16175253511E+02 -0.13891004271E+02  0.33695257235E+01  0.22091684621E+02  0.47000000000E+01 0.  1.
          5    1    3    3  503    0 -0.72491672660E+02  0.48749162176E+02  0.71126787528E+02  0.11275031407E+03  0.47000000000E+01 0. -1.
         -5    1    4    4    0  502  0.45941615688E+02 -0.61888831277E+02 -0.94334574605E+02  0.12190964463E+03  0.47000000000E+01 0.  1.
<mgrwt>
<rscale>  0 0.11227744E+03</rscale>
<asrwt>0</asrwt>
<pdfrwt beam="1">  1        1 0.18622153E-01 0.11239512E+03</pdfrwt>
<pdfrwt beam="2">  1       -1 0.34066180E-01 0.11239512E+03</pdfrwt>
<totfact> 0.22150392E+03</totfact>
</mgrwt>
</event>
<event>
 8    1  0.3466492E-004  0.1113450E+03  0.7546771E-02  0.1266496E+00
         -1   -1    0    0    0  501 -0.00000000000E+00  0.00000000000E+00  0.47524110700E+02  0.47524110700E+02  0.00000000000E+00 0.  1.
          1   -1    0    0  501    0  0.00000000000E+00 -0.00000000000E+00 -0.80205293905E+03  0.80205293905E+03  0.00000000000E+00 0. -1.
         23    2    1    2    0    0 -0.20512508791E+00 -0.11332630215E+02 -0.25206241064E+02  0.11416240269E+03  0.11076655188E+03 0.  0.
         23    2    1    2    0    0  0.20512508791E+00  0.11332630215E+02 -0.72932258729E+03  0.73541464706E+03  0.93780574743E+02 0.  0.
          5    1    3    3  502    0  0.24473802634E+02  0.10186398689E+02 -0.60238355820E+02  0.65980900612E+02  0.47000000000E+01 0. -1.
         -5    1    4    4    0  503 -0.15354092328E+02 -0.37123635600E+02 -0.23484332623E+03  0.23830104982E+03  0.47000000000E+01 0.  1.
          5    1    4    4  503    0  0.15559217416E+02  0.48456265815E+02 -0.49447926106E+03  0.49711359724E+03  0.47000000000E+01 0. -1.
         -5    1    3    3    0  502 -0.24678927722E+02 -0.21519028903E+02  0.35032114755E+02  0.48181502080E+02  0.47000000000E+01 0.  1.
<mgrwt>
<rscale>  0 0.10686079E+03</rscale>
<asrwt>0</asrwt>
<pdfrwt beam="1">  1        1 0.12339275E+00 0.11134496E+03</pdfrwt>
<pdfrwt beam="2">  1       -1 0.73114021E-02 0.11134496E+03</pdfrwt>
<totfact> 0.22264753E+03</totfact>
</mgrwt>
</event>
<event>
 8    1  0.3466492E-004  0.1155283E+03  0.7546771E-02  0.1252384E+00
          1   -1    0    0  501    0  0.00000000000E+00  0.00000000000E+00  0.14872711127E+03  0.14872711127E+03  0.00000000000E+00 0. -1.
         -1   -1    0    0    0  501 -0.00000000000E+00 -0.00000000000E+00 -0.13214829911E+03  0.13214829911E+03  0.00000000000E+00 0.  1.
         23    2    1    2    0    0 -0.61792290513E+02  0.24085111201E+02 -0.73934403500E+02  0.13716082057E+03  0.94596061915E+02 0.  0.
         23    2    1    2    0    0  0.61792290513E+02 -0.24085111201E+02  0.90513215668E+02  0.14371458981E+03  0.89793437207E+02 0.  0.
          5    1    4    4  502    0  0.73204826367E+02  0.14120403397E+01  0.89005175805E+02  0.11534709264E+03  0.47000000000E+01 0. -1.
         -5    1    3    3    0  503 -0.85928512803E+02  0.23956831205E+02 -0.66841339176E+02  0.11156833644E+03  0.47000000000E+01 0.  1.
          5    1    3    3  503    0  0.24136222290E+02  0.12827999546E+00 -0.70930643233E+01  0.25592484125E+02  0.47000000000E+01 0. -1.
         -5    1    4    4    0  502 -0.11412535854E+02 -0.25497151540E+02  0.15080398630E+01  0.28367497167E+02  0.47000000000E+01 0.  1.
<mgrwt>
<rscale>  0 0.11454115E+03</rscale>
<asrwt>0</asrwt>
<pdfrwt beam="1">  1        1 0.22881094E-01 0.11552833E+03</pdfrwt>
<pdfrwt beam="2">  1       -1 0.20330508E-01 0.11552833E+03</pdfrwt>
<totfact> 0.40027256E+03</totfact>
</mgrwt>
</event>
<event>
 8    1  0.3466492E-004  0.9916639E+02  0.7546771E-02  0.1282375E+00
          1   -1    0    0  501    0  0.00000000000E+00  0.00000000000E+00  0.56741046495E+03  0.56741046495E+03  0.00000000000E+00 0. -1.
         -1   -1    0    0    0  501 -0.00000000000E+00 -0.00000000000E+00 -0.19857725731E+02  0.19857725731E+02  0.00000000000E+00 0.  1.
         23    2    1    2    0    0 -0.20357592875E+02 -0.32730262938E+02  0.16763033202E+03  0.19476627394E+03  0.91368876273E+02 0.  0.
         23    2    1    2    0    0  0.20357592875E+02  0.32730262938E+02  0.37992240720E+03  0.39250191674E+03  0.90724954971E+02 0.  0.
          5    1    3    3  502    0 -0.15690149687E+02  0.30349256844E+02  0.44903975281E+02  0.56619035529E+02  0.47000000000E+01 0. -1.
         -5    1    4    4    0  503 -0.25936918972E+02 -0.23582558214E+01  0.42373515862E+02  0.49958882922E+02  0.47000000000E+01 0.  1.
          5    1    4    4  503    0  0.46294511847E+02  0.35088518760E+02  0.33754889134E+03  0.34254303382E+03  0.47000000000E+01 0. -1.
         -5    1    3    3    0  502 -0.46674431881E+01 -0.63079519783E+02  0.12272635674E+03  0.13814723841E+03  0.47000000000E+01 0.  1.
<mgrwt>
<rscale>  0 0.99017815E+02</rscale>
<asrwt>0</asrwt>
<pdfrwt beam="1">  1        1 0.87293905E-01 0.99166392E+02</pdfrwt>
<pdfrwt beam="2">  1       -1 0.30550352E-02 0.99166392E+02</pdfrwt>
<totfact> 0.12929174E+04</totfact>
</mgrwt>
</event>
<event>
 8    1  0.3466492E-004  0.1261222E+03  0.7546771E-02  0.1233412E+00
          1   -1    0    0  501    0  0.00000000000E+00  0.00000000000E+00  0.34725228893E+03  0.34725228893E+03  0.00000000000E+00 0. -1.
         -1   -1    0    0    0  501 -0.00000000000E+00 -0.00000000000E+00 -0.46205356459E+02  0.46205356459E+02  0.00000000000E+00 0.  1.
         23    2    1    2    0    0 -0.57907524697E+02 -0.64337318927E+02  0.17067932447E+03  0.21222217123E+03  0.91729200036E+02 0.  0.
         23    2    1    2    0    0  0.57907524697E+02  0.64337318927E+02  0.13036760801E+03  0.18123547416E+03  0.91422162806E+02 0.  0.
          5    1    4    4  502    0 -0.14154608922E+02  0.46371169170E+02  0.70679735182E+02  0.85839112585E+02  0.47000000000E+01 0. -1.
         -5    1    4    4    0  502  0.72062133619E+02  0.17966149757E+02  0.59687872823E+02  0.95396361571E+02  0.47000000000E+01 0.  1.
          5    1    3    3  503    0 -0.18284939748E+02 -0.72019174886E+02  0.14804025339E+03  0.16570789720E+03  0.47000000000E+01 0. -1.
         -5    1    3    3    0  503 -0.39622584949E+02  0.76818559593E+01  0.22639071078E+02  0.46514274028E+02  0.47000000000E+01 0.  1.
<mgrwt>
<rscale>  0 0.12606641E+03</rscale>
<asrwt>0</asrwt>
<pdfrwt beam="1">  1        1 0.53423427E-01 0.12612224E+03</pdfrwt>
<pdfrwt beam="2">  1       -1 0.71085166E-02 0.12612224E+03</pdfrwt>
<totfact> 0.71185735E+03</totfact>
</mgrwt>
</event>
<event>
 8    1  0.3466492E-004  0.9063830E+02  0.7546771E-02  0.1301326E+00
         -1   -1    0    0    0  501 -0.00000000000E+00  0.00000000000E+00  0.46057016625E+02  0.46057016625E+02  0.00000000000E+00 0.  1.
          1   -1    0    0  501    0  0.00000000000E+00 -0.00000000000E+00 -0.19451669290E+03  0.19451669290E+03  0.00000000000E+00 0. -1.
         23    2    1    2    0    0  0.15248587801E+01  0.29086556072E+01 -0.39523927872E+02  0.98861680045E+02  0.90557746411E+02 0.  0.
         23    2    1    2    0    0 -0.15248587801E+01 -0.29086556072E+01 -0.10893574840E+03  0.14171202948E+03  0.90578786412E+02 0.  0.
          5    1    3    3  502    0  0.32902512177E+02  0.28540010988E+02 -0.26689974659E+01  0.43889874484E+02  0.47000000000E+01 0. -1.
         -5    1    3    3    0  502 -0.31377653397E+02 -0.25631355380E+02 -0.36854930407E+02  0.54971805561E+02  0.47000000000E+01 0.  1.
          5    1    4    4  503    0  0.22709506412E+02  0.15984199550E+02 -0.10691249532E+03  0.11056033634E+03  0.47000000000E+01 0. -1.
         -5    1    4    4    0  503 -0.24234365192E+02 -0.18892855157E+02 -0.20232530810E+01  0.31151693137E+02  0.47000000000E+01 0.  1.
<mgrwt>
<rscale>  0 0.90633046E+02</rscale>
<asrwt>0</asrwt>
<pdfrwt beam="1">  1        1 0.29925645E-01 0.90638303E+02</pdfrwt>
<pdfrwt beam="2">  1       -1 0.70856948E-02 0.90638303E+02</pdfrwt>
<totfact> 0.14189881E+04</totfact>
</mgrwt>
</event>
<event>
 8    1  0.3466492E-004  0.1118976E+03  0.7546771E-02  0.1258446E+00
         -2   -1    0    0    0  501 -0.00000000000E+00  0.00000000000E+00  0.20566834176E+03  0.20566834176E+03  0.00000000000E+00 0.  1.
          2   -1    0    0  501    0  0.00000000000E+00 -0.00000000000E+00 -0.61897083708E+02  0.61897083708E+02  0.00000000000E+00 0. -1.
         23    2    1    2    0    0  0.50966075875E+02 -0.31215631820E+02  0.45350283039E+02  0.12073823366E+03  0.94599769219E+02 0.  0.
         23    2    1    2    0    0 -0.50966075875E+02  0.31215631820E+02  0.98420975011E+02  0.14682719180E+03  0.91102027258E+02 0.  0.
          5    1    4    4  502    0 -0.19999028093E+02  0.40649062488E+02  0.10409904340E+03  0.11362661766E+03  0.47000000000E+01 0. -1.
         -5    1    3    3    0  503 -0.24733098460E+02  0.81261224487E+01  0.10452467203E+02  0.28444755160E+02  0.47000000000E+01 0.  1.
          5    1    3    3  503    0  0.75699174336E+02 -0.39341754269E+02  0.34897815836E+02  0.92293478503E+02  0.47000000000E+01 0. -1.
         -5    1    4    4    0  502 -0.30967047782E+02 -0.94334306675E+01 -0.56780683861E+01  0.33200574138E+02  0.47000000000E+01 0.  1.
<mgrwt>
<rscale>  0 0.11115498E+03</rscale>
<asrwt>0</asrwt>
<pdfrwt beam="1">  1        2 0.95226284E-02 0.11189760E+03</pdfrwt>
<pdfrwt beam="2">  1       -2 0.31641283E-01 0.11189760E+03</pdfrwt>
<totfact> 0.58981676E+03</totfact>
</mgrwt>
</event>
<event>
 8    1  0.3466492E-004  0.1545126E+03  0.7546771E-02  0.1195187E+00
         -2   -1    0    0    0  501 -0.00000000000E+00  0.00000000000E+00  0.37391389883E+02  0.37391389883E+02  0.00000000000E+00 0.  1.
          2   -1    0    0  501    0  0.00000000000E+00 -0.00000000000E+00 -0.71122948779E+03  0.71122948779E+03  0.00000000000E+00 0. -1.
         23    2    1    2    0    0  0.21560692302E+02 -0.12078153964E+03 -0.45884800560E+03  0.48416487408E+03  0.93920654167E+02 0.  0.
         23    2    1    2    0    0 -0.21560692302E+02  0.12078153964E+03 -0.21499009231E+03  0.26445600359E+03  0.93076282018E+02 0.  0.
          5    1    3    3  502    0 -0.30550188971E+02 -0.85924779909E+02 -0.28705262591E+03  0.30122696077E+03  0.47000000000E+01 0. -1.
         -5    1    4    4    0  503  0.90030237775E+01  0.11683407820E+03 -0.19460015527E+03  0.22720600057E+03  0.47000000000E+01 0.  1.
          5    1    4    4  503    0 -0.30563716079E+02  0.39474614424E+01 -0.20389937040E+02  0.37250003019E+02  0.47000000000E+01 0. -1.
         -5    1    3    3    0  502  0.52110881273E+02 -0.34856759734E+02 -0.17179537969E+03  0.18293791332E+03  0.47000000000E+01 0.  1.
<mgrwt>
<rscale>  0 0.15438446E+03</rscale>
<asrwt>0</asrwt>
<pdfrwt beam="1">  1        2 0.10941991E+00 0.15451257E+03</pdfrwt>
<pdfrwt beam="2">  1       -2 0.57525222E-02 0.15451257E+03</pdfrwt>
<totfact> 0.63135473E+03</totfact>
</mgrwt>
</event>
<event>
 8    1  0.3466492E-004  0.1625716E+03  0.7546771E-02  0.1186050E+00
         -2   -1    0    0    0  501 -0.00000000000E+00  0.00000000000E+00  0.30502799389E+02  0.30502799389E+02  0.00000000000E+00 0.  1.
          2   -1    0    0  501    0  0.00000000000E+00 -0.00000000000E+00 -0.88174332398E+03  0.88174332398E+03  0.00000000000E+00 0. -1.
         23    2    1    2    0    0 -0.98597020404E+02 -0.90441964163E+02 -0.49263505940E+03  0.51851093163E+03  0.90901942501E+02 0.  0.
         23    2    1    2    0    0  0.98597020404E+02  0.90441964163E+02 -0.35860546519E+03  0.39373519174E+03  0.92349338052E+02 0.  0.
          5    1    4    4  502    0  0.96242052243E+02  0.28746365778E+02 -0.21521184056E+03  0.23754391696E+03  0.47000000000E+01 0. -1.
         -5    1    4    4    0  502  0.23549681602E+01  0.61695598385E+02 -0.14339362463E+03  0.15619127479E+03  0.47000000000E+01 0.  1.
          5    1    3    3  503    0 -0.75673287750E+01 -0.64631326455E+02 -0.23957693377E+03  0.24830157072E+03  0.47000000000E+01 0. -1.
         -5    1    3    3    0  503 -0.91029691629E+02 -0.25810637708E+02 -0.25305812563E+03  0.27020936091E+03  0.47000000000E+01 0.  1.
<mgrwt>
<rscale>  0 0.16236675E+03</rscale>
<asrwt>0</asrwt>
<pdfrwt beam="1">  1        2 0.13565281E+00 0.16257159E+03</pdfrwt>
<pdfrwt beam="2">  1       -2 0.46927388E-02 0.16257159E+03</pdfrwt>
<totfact> 0.65813451E+03</totfact>
</mgrwt>
</event>
<event>
 8    1  0.3466492E-004  0.1371530E+03  0.7546771E-02  0.1217680E+00
          2   -1    0    0  501    0  0.00000000000E+00  0.00000000000E+00  0.26142115197E+03  0.26142115197E+03  0.00000000000E+00 0. -1.
         -2   -1    0    0    0  501 -0.00000000000E+00 -0.00000000000E+00 -0.77399074471E+02  0.77399074471E+02  0.00000000000E+00 0.  1.
         23    2    1    2    0    0  0.32175142711E+02  0.97548972778E+02  0.13933814839E+03  0.19457184995E+03  0.88837172964E+02 0.  0.
         23    2    1    2    0    0 -0.32175142711E+02 -0.97548972778E+02  0.44683929110E+02  0.14424837649E+03  0.90883984835E+02 0.  0.
          5    1    3    3  502    0 -0.38815353052E+01  0.96422822108E+02  0.11757913585E+03  0.15218202958E+03  0.47000000000E+01 0. -1.
         -5    1    3    3    0  502  0.36056678016E+02  0.11261506699E+01  0.21759012539E+02  0.42389820377E+02  0.47000000000E+01 0.  1.
          5    1    4    4  503    0  0.12512104834E+02 -0.39364452835E+02 -0.20177977340E+02  0.46209887296E+02  0.47000000000E+01 0.  1.
         -5    1    4    4    0  503 -0.44687247545E+02 -0.58184519943E+02  0.64861906451E+02  0.98038489189E+02  0.47000000000E+01 0. -1.
<mgrwt>
<rscale>  0 0.13681482E+03</rscale>
<asrwt>0</asrwt>
<pdfrwt beam="1">  1        2 0.40218638E-01 0.13715298E+03</pdfrwt>
<pdfrwt beam="2">  1       -2 0.11907550E-01 0.13715298E+03</pdfrwt>
<totfact> 0.60716757E+03</totfact>
</mgrwt>
</event>
<event>
 8    1  0.3466492E-004  0.9328125E+02  0.7546771E-02  0.1295678E+00
          1   -1    0    0  501    0  0.00000000000E+00  0.00000000000E+00  0.71852307887E+02  0.71852307887E+02  0.00000000000E+00 0. -1.
         -1   -1    0    0    0  501 -0.00000000000E+00 -0.00000000000E+00 -0.13090393892E+03  0.13090393892E+03  0.00000000000E+00 0.  1.
         23    2    1    2    0    0  0.14577108515E+02  0.45838419508E+01 -0.59198423798E+02  0.11048006823E+03  0.92021130162E+02 0.  0.
         23    2    1    2    0    0 -0.14577108515E+02 -0.45838419508E+01  0.14679276837E+00  0.92276178573E+02  0.91002021320E+02 0.  0.
          5    1    3    3  502    0  0.13284274043E+02 -0.31937286147E+02  0.61642514910E+01  0.35447851553E+02  0.47000000000E+01 0. -1.
         -5    1    3    3    0  502  0.12928344725E+01  0.36521128098E+02 -0.65362675289E+02  0.75032216677E+02  0.47000000000E+01 0.  1.
          5    1    4    4  503    0 -0.52057392141E+02 -0.87795174081E+01 -0.74377035560E+01  0.53520663641E+02  0.47000000000E+01 0. -1.
         -5    1    4    4    0  503  0.37480283625E+02  0.41956754572E+01  0.75844963244E+01  0.38755514932E+02  0.47000000000E+01 0.  1.
<mgrwt>
<rscale>  0 0.93028933E+02</rscale>
<asrwt>0</asrwt>
<pdfrwt beam="1">  1        1 0.11054201E-01 0.93281253E+02</pdfrwt>
<pdfrwt beam="2">  1       -1 0.20139068E-01 0.93281253E+02</pdfrwt>
<totfact> 0.10137209E+04</totfact>
</mgrwt>
</event>
<event>
 8    1  0.3466492E-004  0.9535376E+02  0.7546771E-02  0.1290620E+00
         -2   -1    0    0    0  501 -0.00000000000E+00  0.00000000000E+00  0.71221071417E+02  0.71221071417E+02  0.00000000000E+00 0.  1.
          2   -1    0    0  501    0  0.00000000000E+00 -0.00000000000E+00 -0.14124011875E+03  0.14124011875E+03  0.00000000000E+00 0. -1.
         23    2    1    2    0    0 -0.22710827131E+02 -0.11008521546E+02 -0.13220727475E+01  0.94938371300E+02  0.91512716347E+02 0.  0.
         23    2    1    2    0    0  0.22710827131E+02  0.11008521546E+02 -0.68696974586E+02  0.11752281887E+03  0.91953082719E+02 0.  0.
          5    1    3    3  502    0 -0.55299769690E+02  0.90030390669E+01 -0.36075398741E+01  0.56340248350E+02  0.47000000000E+01 0. -1.
         -5    1    4    4    0  503  0.15707994237E+02 -0.24635720295E+02  0.95757031733E+01  0.31103760040E+02  0.47000000000E+01 0.  1.
          5    1    4    4  503    0  0.70028328942E+01  0.35644241841E+02 -0.78272677759E+02  0.86419058827E+02  0.47000000000E+01 0. -1.
         -5    1    3    3    0  502  0.32588942559E+02 -0.20011560613E+02  0.22854671265E+01  0.38598122950E+02  0.47000000000E+01 0.  1.
<mgrwt>
<rscale>  0 0.95247430E+02</rscale>
<asrwt>0</asrwt>
<pdfrwt beam="1">  1        2 0.21729249E-01 0.95353755E+02</pdfrwt>
<pdfrwt beam="2">  1       -2 0.10957088E-01 0.95353755E+02</pdfrwt>
<totfact> 0.13091216E+04</totfact>
</mgrwt>
</event>
<event>
 8    1  0.3466492E-004  0.1074449E+03  0.7546771E-02  0.1265526E+00
          1   -1    0    0  501    0  0.00000000000E+00  0.00000000000E+00  0.84870558185E+03  0.84870558185E+03  0.00000000000E+00 0. -1.
         -1   -1    0    0    0  501 -0.00000000000E+00 -0.00000000000E+00 -0.14350811562E+02  0.14350811562E+02  0.00000000000E+00 0.  1.
         23    2    1    2    0    0 -0.35914322512E+02  0.44835167312E+02  0.51887836907E+03  0.52988599536E+03  0.90798542960E+02 0.  0.
         23    2    1    2    0    0  0.35914322512E+02 -0.44835167312E+02  0.31547640122E+03  0.33317039805E+03  0.90427449488E+02 0.  0.
          5    1    3    3  502    0  0.18442379447E+02  0.42596688560E+02  0.32969406677E+03  0.33297877845E+03  0.47000000000E+01 0. -1.
         -5    1    3    3    0  502 -0.54356701959E+02  0.22384787525E+01  0.18918430230E+03  0.19690721691E+03  0.47000000000E+01 0.  1.
          5    1    4    4  503    0  0.17596685511E+02 -0.71847201688E+02  0.22238246440E+03  0.23440928779E+03  0.47000000000E+01 0. -1.
         -5    1    4    4    0  503  0.18317637001E+02  0.27012034376E+02  0.93093936822E+02  0.98761110258E+02  0.47000000000E+01 0.  1.
<mgrwt>
<rscale>  0 0.10736646E+03</rscale>
<asrwt>0</asrwt>
<pdfrwt beam="1">  1        1 0.13057005E+00 0.10744490E+03</pdfrwt>
<pdfrwt beam="2">  1       -1 0.22078178E-02 0.10744490E+03</pdfrwt>
<totfact> 0.11745311E+04</totfact>
</mgrwt>
</event>
<event>
 8    1  0.3466492E-004  0.9709850E+02  0.7546771E-02  0.1286653E+00
          2   -1    0    0  501    0  0.00000000000E+00  0.00000000000E+00  0.27779004851E+03  0.27779004851E+03  0.00000000000E+00 0. -1.
         -2   -1    0    0    0  501 -0.00000000000E+00 -0.00000000000E+00 -0.35585296526E+02  0.35585296526E+02  0.00000000000E+00 0.  1.
         23    2    1    2    0    0 -0.12496010252E+02 -0.30784259419E+02  0.15580851774E+03  0.18358761774E+03  0.91237592513E+02 0.  0.
         23    2    1    2    0    0  0.12496010252E+02  0.30784259419E+02  0.86396234247E+02  0.12978772730E+03  0.90976502268E+02 0.  0.
          5    1    3    3  502    0 -0.22197410472E+02  0.13580846875E+02  0.12672643021E+03  0.12945594829E+03  0.47000000000E+01 0. -1.
         -5    1    3    3    0  502  0.97014002204E+01 -0.44365106294E+02  0.29082087530E+02  0.54131669453E+02  0.47000000000E+01 0.  1.
          5    1    4    4  503    0  0.32348776021E+02  0.41542155191E+02  0.91952390990E+02  0.10606378353E+03  0.47000000000E+01 0. -1.
         -5    1    4    4    0  503 -0.19852765770E+02 -0.10757895773E+02 -0.55561567428E+01  0.23723943768E+02  0.47000000000E+01 0.  1.
<mgrwt>
<rscale>  0 0.97037122E+02</rscale>
<asrwt>0</asrwt>
<pdfrwt beam="1">  1        2 0.42736929E-01 0.97098502E+02</pdfrwt>
<pdfrwt beam="2">  1       -2 0.54746612E-02 0.97098502E+02</pdfrwt>
<totfact> 0.18336434E+04</totfact>
</mgrwt>
</event>
<event>
 8    1  0.3466492E-004  0.1009817E+03  0.7546771E-02  0.1278692E+00
         -1   -1    0    0    0  501 -0.00000000000E+00  0.00000000000E+00  0.42040260358E+02  0.42040260358E+02  0.00000000000E+00 0.  1.
          1   -1    0    0  501    0  0.00000000000E+00 -0.00000000000E+00 -0.36227434609E+03  0.36227434609E+03  0.00000000000E+00 0. -1.
         23    2    1    2    0    0 -0.32686919812E+02  0.22609924524E+02 -0.27777305185E+03  0.29555908044E+03  0.92831343202E+02 0.  0.
         23    2    1    2    0    0  0.32686919812E+02 -0.22609924524E+02 -0.42461033884E+02  0.10875552601E+03  0.91897669319E+02 0.  0.
          5    1    3    3  502    0  0.11298504897E+02  0.44986359982E+02 -0.17996151438E+03  0.18590230083E+03  0.47000000000E+01 0. -1.
         -5    1    3    3    0  502 -0.43985424709E+02 -0.22376435459E+02 -0.97811537472E+02  0.10965677961E+03  0.47000000000E+01 0.  1.
          5    1    4    4  503    0  0.34806119903E+02  0.24887478549E+02 -0.43183846335E+02  0.60973659522E+02  0.47000000000E+01 0. -1.
         -5    1    4    4    0  503 -0.21192000908E+01 -0.47497403072E+02  0.72281245042E+00  0.47781866492E+02  0.47000000000E+01 0.  1.
<mgrwt>
<rscale>  0 0.10076659E+03</rscale>
<asrwt>0</asrwt>
<pdfrwt beam="1">  1        1 0.55734513E-01 0.10098169E+03</pdfrwt>
<pdfrwt beam="2">  1       -1 0.64677326E-02 0.10098169E+03</pdfrwt>
<totfact> 0.76533927E+03</totfact>
</mgrwt>
</event>
<event>
 8    1  0.3466492E-004  0.1239978E+03  0.7546771E-02  0.1237445E+00
         -1   -1    0    0    0  501 -0.00000000000E+00  0.00000000000E+00  0.74716626266E+02  0.74716626266E+02  0.00000000000E+00 0.  1.
          1   -1    0    0  501    0  0.00000000000E+00 -0.00000000000E+00 -0.22675459597E+03  0.22675459597E+03  0.00000000000E+00 0. -1.
         23    2    1    2    0    0 -0.73313556859E+02  0.42736238421E+02 -0.27236049567E+02  0.12695372264E+03  0.90411180733E+02 0.  0.
         23    2    1    2    0    0  0.73313556859E+02 -0.42736238421E+02 -0.12480192013E+03  0.17451749960E+03  0.87633182659E+02 0.  0.
          5    1    4    4  502    0  0.21719329324E+02  0.12606797462E+01 -0.99552195689E+02  0.10201003993E+03  0.47000000000E+01 0. -1.
         -5    1    3    3    0  503 -0.71196929820E+02  0.53016296018E+01  0.11923231873E+02  0.72535257292E+02  0.47000000000E+01 0.  1.
          5    1    3    3  503    0 -0.21166270394E+01  0.37434608820E+02 -0.39159281440E+02  0.54418465344E+02  0.47000000000E+01 0. -1.
         -5    1    4    4    0  502  0.51594227535E+02 -0.43996918168E+02 -0.25249724446E+02  0.72507459670E+02  0.47000000000E+01 0.  1.
<mgrwt>
<rscale>  0 0.12349200E+03</rscale>
<asrwt>0</asrwt>
<pdfrwt beam="1">  1        1 0.34885322E-01 0.12399776E+03</pdfrwt>
<pdfrwt beam="2">  1       -1 0.11494866E-01 0.12399776E+03</pdfrwt>
<totfact> 0.58108850E+03</totfact>
</mgrwt>
</event>
<event>
 8    1  0.3466492E-004  0.1363213E+03  0.7546771E-02  0.1221964E+00
         -1   -1    0    0    0  501 -0.00000000000E+00  0.00000000000E+00  0.22089742230E+02  0.22089742230E+02  0.00000000000E+00 0.  1.
          1   -1    0    0  501    0  0.00000000000E+00 -0.00000000000E+00 -0.79771956752E+03  0.79771956752E+03  0.00000000000E+00 0. -1.
         23    2    1    2    0    0 -0.51019138462E+02 -0.69750531059E+02 -0.43244198599E+03  0.45053786725E+03  0.92250796761E+02 0.  0.
         23    2    1    2    0    0  0.51019138462E+02  0.69750531059E+02 -0.34318783930E+03  0.36927144250E+03  0.10542967387E+03 0.  0.
          5    1    4    4  502    0  0.65963046020E+02  0.34382668000E+01 -0.20044116821E+03  0.21109641644E+03  0.47000000000E+01 0. -1.
         -5    1    3    3    0  503 -0.53541629051E+02 -0.21037167538E+02 -0.10837254720E+03  0.12278423126E+03  0.47000000000E+01 0.  1.
          5    1    3    3  503    0  0.25224905885E+01 -0.48713363521E+02 -0.32406943879E+03  0.32775363599E+03  0.47000000000E+01 0. -1.
         -5    1    4    4    0  502 -0.14943907558E+02  0.66312264259E+02 -0.14274667109E+03  0.15817502606E+03  0.47000000000E+01 0.  1.
<mgrwt>
<rscale>  0 0.13377168E+03</rscale>
<asrwt>0</asrwt>
<pdfrwt beam="1">  1        1 0.12272607E+00 0.13632133E+03</pdfrwt>
<pdfrwt beam="2">  1       -1 0.33984223E-02 0.13632133E+03</pdfrwt>
<totfact> 0.70118791E+03</totfact>
</mgrwt>
</event>
<event>
 8    1  0.3466492E-004  0.1090460E+03  0.7546771E-02  0.1262995E+00
          2   -1    0    0  501    0  0.00000000000E+00  0.00000000000E+00  0.19412669627E+03  0.19412669627E+03  0.00000000000E+00 0. -1.
         -2   -1    0    0    0  501 -0.00000000000E+00 -0.00000000000E+00 -0.12411589162E+03  0.12411589162E+03  0.00000000000E+00 0.  1.
         23    2    1    2    0    0  0.56769619768E+02 -0.18021961452E+02  0.14882964120E+03  0.18369353701E+03  0.89696558554E+02 0.  0.
         23    2    1    2    0    0 -0.56769619768E+02  0.18021961452E+02 -0.78818836551E+02  0.13454905087E+03  0.91342527181E+02 0.  0.
          5    1    4    4  502    0  0.15941844876E+02 -0.14251356712E+02  0.78904151054E+00  0.21907902060E+02  0.47000000000E+01 0. -1.
         -5    1    3    3    0  503 -0.20265037227E+01 -0.25294152070E+02  0.27079727166E+01  0.25948486710E+02  0.47000000000E+01 0.  1.
          5    1    3    3  503    0  0.58796123491E+02  0.72721906180E+01  0.14612166849E+03  0.15774505030E+03  0.47000000000E+01 0. -1.
         -5    1    4    4    0  502 -0.72711464643E+02  0.32273318164E+02 -0.79607878062E+02  0.11264114881E+03  0.47000000000E+01 0.  1.
<mgrwt>
<rscale>  0 0.10870065E+03</rscale>
<asrwt>0</asrwt>
<pdfrwt beam="1">  1        2 0.29865646E-01 0.10904604E+03</pdfrwt>
<pdfrwt beam="2">  1       -2 0.19094753E-01 0.10904604E+03</pdfrwt>
<totfact> 0.38074122E+03</totfact>
</mgrwt>
</event>
<event>
 8    1  0.3466492E-004  0.1011872E+03  0.7546771E-02  0.1283285E+00
         -1   -1    0    0    0  501 -0.00000000000E+00  0.00000000000E+00  0.23057437932E+02  0.23057437932E+02  0.00000000000E+00 0.  1.
          1   -1    0    0  501    0  0.00000000000E+00 -0.00000000000E+00 -0.40287257347E+03  0.40287257347E+03  0.00000000000E+00 0. -1.
         23    2    1    2    0    0  0.31594331036E+02  0.30897280983E+02 -0.16683344581E+03  0.19013337108E+03  0.79777543412E+02 0.  0.
         23    2    1    2    0    0 -0.31594331036E+02 -0.30897280983E+02 -0.21298168973E+03  0.23579664032E+03  0.91027532650E+02 0.  0.
          5    1    3    3  502    0  0.52260999559E+01  0.52987993441E+02 -0.12376056733E+03  0.13481026517E+03  0.47000000000E+01 0. -1.
         -5    1    3    3    0  502  0.26368231080E+02 -0.22090712458E+02 -0.43072878482E+02  0.55323105913E+02  0.47000000000E+01 0.  1.
          5    1    4    4  503    0 -0.48620535736E+02 -0.20023682445E+02 -0.54183200140E+02  0.75649279781E+02  0.47000000000E+01 0. -1.
         -5    1    4    4    0  503  0.17026204700E+02 -0.10873598538E+02 -0.15879848959E+03  0.16014736054E+03  0.47000000000E+01 0.  1.
<mgrwt>
<rscale>  0 0.98592091E+02</rscale>
<asrwt>0</asrwt>
<pdfrwt beam="1">  1        1 0.61980400E-01 0.10118723E+03</pdfrwt>
<pdfrwt beam="2">  1       -1 0.35472979E-02 0.10118723E+03</pdfrwt>
<totfact> 0.16180960E+04</totfact>
</mgrwt>
</event>
<event>
 8    1  0.3466492E-004  0.9900861E+02  0.7546771E-02  0.1283637E+00
         -2   -1    0    0    0  501 -0.00000000000E+00  0.00000000000E+00  0.15061674260E+02  0.15061674260E+02  0.00000000000E+00 0.  1.
          2   -1    0    0  501    0  0.00000000000E+00 -0.00000000000E+00 -0.72029184278E+03  0.72029184278E+03  0.00000000000E+00 0. -1.
         23    2    1    2    0    0 -0.12383742349E+02  0.25001875047E+02 -0.23035063720E+03  0.25072718271E+03  0.94996069706E+02 0.  0.
         23    2    1    2    0    0  0.12383742349E+02 -0.25001875047E+02 -0.47487953132E+03  0.48462633433E+03  0.92594080972E+02 0.  0.
          5    1    3    3  502    0 -0.54352714500E+01 -0.35842526758E+02 -0.69070207238E+02  0.78147376335E+02  0.47000000000E+01 0. -1.
         -5    1    4    4    0  503 -0.36946860677E+02 -0.10760504264E+02 -0.12231845343E+03  0.12831505374E+03  0.47000000000E+01 0.  1.
          5    1    4    4  503    0  0.49330603027E+02 -0.14241370783E+02 -0.35256107788E+03  0.35631128059E+03  0.47000000000E+01 0. -1.
         -5    1    3    3    0  502 -0.69484708993E+01  0.60844401805E+02 -0.16128042996E+03  0.17257980637E+03  0.47000000000E+01 0.  1.
<mgrwt>
<rscale>  0 0.98427949E+02</rscale>
<asrwt>0</asrwt>
<pdfrwt beam="1">  1        2 0.11081413E+00 0.99008606E+02</pdfrwt>
<pdfrwt beam="2">  1       -2 0.23171806E-02 0.99008606E+02</pdfrwt>
<totfact> 0.23115583E+04</totfact>
</mgrwt>
</event>
<event>
 8    1  0.3466492E-004  0.1578591E+03  0.7546771E-02  0.1195167E+00
          2   -1    0    0  501    0  0.00000000000E+00  0.00000000000E+00  0.98605300826E+03  0.98605300826E+03  0.00000000000E+00 0. -1.
         -2   -1    0    0    0  501 -0.00000000000E+00 -0.00000000000E+00 -0.69528255390E+02  0.69528255390E+02  0.00000000000E+00 0.  1.
         23    2    1    2    0    0 -0.10574634131E+03  0.39849446902E+02  0.34219066354E+02  0.16152531739E+03  0.11022348450E+03 0.  0.
         23    2    1    2    0    0  0.10574634131E+03 -0.39849446902E+02  0.88230568651E+03  0.89405594626E+03  0.90013573784E+02 0.  0.
          5    1    4    4  502    0  0.10013498234E+03 -0.16015006792E+02  0.82917042602E+03  0.83536170640E+03  0.47000000000E+01 0. -1.
         -5    1    4    4    0  502  0.56113589780E+01 -0.23834440111E+02  0.53135260489E+02  0.58694239855E+02  0.47000000000E+01 0.  1.
          5    1    3    3  503    0 -0.92107500312E+02 -0.16616809723E+02  0.42063792313E+02  0.10271982575E+03  0.47000000000E+01 0. -1.
         -5    1    3    3    0  503 -0.13638841001E+02  0.56466256625E+02 -0.78447259592E+01  0.58805491635E+02  0.47000000000E+01 0.  1.
<mgrwt>
<rscale>  0 0.15440078E+03</rscale>
<asrwt>0</asrwt>
<pdfrwt beam="1">  1        2 0.15170045E+00 0.15785906E+03</pdfrwt>
<pdfrwt beam="2">  1       -2 0.10696655E-01 0.15785906E+03</pdfrwt>
<totfact> 0.15917289E+03</totfact>
</mgrwt>
</event>
<event>
 6    1  0.3466492E-004  0.1808437E+03  0.7546771E-02  0.1190129E+00
         -1   -1    0    0    0  501 -0.00000000000E+00  0.00000000000E+00  0.28228991481E+03  0.28228991481E+03  0.00000000000E+00 0.  1.
          1   -1    0    0  501    0  0.00000000000E+00 -0.00000000000E+00 -0.10202373343E+03  0.10202373343E+03  0.00000000000E+00 0. -1.
          5    1    1    2  502    0  0.18649979329E+02  0.56807075005E+02 -0.49046087956E+02  0.77475636451E+02  0.47000000000E+01 0. -1.
         -5    1    1    2    0  503  0.30862606318E+02 -0.61894508281E+02  0.10886057654E+03  0.12905869110E+03  0.47000000000E+01 0.  1.
          5    1    1    2  503    0  0.34718748629E+02 -0.14691168792E+02  0.63796035186E+02  0.74251236032E+02  0.47000000000E+01 0. -1.
         -5    1    1    2    0  502 -0.84231334276E+02  0.19778602068E+02  0.56655657602E+02  0.10352808465E+03  0.47000000000E+01 0.  1.
<mgrwt>
<rscale>  0 0.15873798E+03</rscale>
<asrwt>0</asrwt>
<pdfrwt beam="1">  1        1 0.15695959E-01 0.18084369E+03</pdfrwt>
<pdfrwt beam="2">  1       -1 0.43429217E-01 0.18084369E+03</pdfrwt>
<totfact> 0.18407922E+03</totfact>
</mgrwt>
</event>
<event>
 8    1  0.3466492E-004  0.1129173E+03  0.7546771E-02  0.1261066E+00
         -1   -1    0    0    0  501 -0.00000000000E+00  0.00000000000E+00  0.17234001691E+03  0.17234001691E+03  0.00000000000E+00 0.  1.
          1   -1    0    0  501    0  0.00000000000E+00 -0.00000000000E+00 -0.66427988983E+02  0.66427988983E+02  0.00000000000E+00 0. -1.
         23    2    1    2    0    0 -0.14057165020E+01 -0.48090982544E+02  0.62969744348E+02  0.12928846880E+03  0.10215478853E+03 0.  0.
         23    2    1    2    0    0  0.14057165020E+01  0.48090982544E+02  0.42942283579E+02  0.10947953709E+03  0.88470394385E+02 0.  0.
          5    1    4    4  502    0  0.18444869977E+02 -0.14081435947E+02 -0.10220902031E+02  0.25788697236E+02  0.47000000000E+01 0. -1.
         -5    1    4    4    0  502 -0.17039153475E+02  0.62172418491E+02  0.53163185610E+02  0.83690839859E+02  0.47000000000E+01 0.  1.
          5    1    3    3  503    0  0.43932740570E+02 -0.47040028603E+02  0.50708830933E+02  0.82075121198E+02  0.47000000000E+01 0. -1.
         -5    1    3    3    0  503 -0.45338457072E+02 -0.10509539404E+01  0.12260913414E+02  0.47213347600E+02  0.47000000000E+01 0.  1.
<mgrwt>
<rscale>  0 0.10973228E+03</rscale>
<asrwt>0</asrwt>
<pdfrwt beam="1">  1        1 0.10219691E-01 0.11291731E+03</pdfrwt>
<pdfrwt beam="2">  1       -1 0.26513849E-01 0.11291731E+03</pdfrwt>
<totfact> 0.73233124E+03</totfact>
</mgrwt>
</event>
<event>
 8    1  0.3466492E-004  0.2708123E+03  0.7546771E-02  0.1100822E+00
         -1   -1    0    0    0  501 -0.00000000000E+00  0.00000000000E+00  0.14121451358E+03  0.14121451358E+03  0.00000000000E+00 0.  1.
          1   -1    0    0  501    0  0.00000000000E+00 -0.00000000000E+00 -0.75546693155E+03  0.75546693155E+03  0.00000000000E+00 0. -1.
         23    2    1    2    0    0  0.30392078781E+02 -0.25311904101E+03 -0.56446358851E+02  0.27663243092E+03  0.91358541126E+02 0.  0.
         23    2    1    2    0    0 -0.30392078781E+02  0.25311904101E+03 -0.55780605912E+03  0.62004901421E+03  0.91215421140E+02 0.  0.
          5    1    4    4  502    0  0.27879741239E+01  0.20099922651E+03 -0.48119408705E+03  0.52151538929E+03  0.47000000000E+01 0. -1.
         -5    1    3    3    0  503 -0.16807677131E+02 -0.17423029077E+03 -0.15192269483E+02  0.17576002755E+03  0.47000000000E+01 0.  1.
          5    1    3    3  503    0  0.47199755912E+02 -0.78888750234E+02 -0.41254089368E+02  0.10087240337E+03  0.47000000000E+01 0. -1.
         -5    1    4    4    0  502 -0.33180052905E+02  0.52119814498E+02 -0.76611972068E+02  0.98533624912E+02  0.47000000000E+01 0.  1.
<mgrwt>
<rscale>  0 0.27080025E+03</rscale>
<asrwt>0</asrwt>
<pdfrwt beam="1">  1        1 0.11622568E+00 0.27081232E+03</pdfrwt>
<pdfrwt beam="2">  1       -1 0.21725310E-01 0.27081232E+03</pdfrwt>
<totfact> 0.44527767E+02</totfact>
</mgrwt>
</event>
<event>
 8    1  0.3466492E-004  0.1324850E+03  0.7546771E-02  0.1224198E+00
         -1   -1    0    0    0  501 -0.00000000000E+00  0.00000000000E+00  0.10875108603E+03  0.10875108603E+03  0.00000000000E+00 0.  1.
          1   -1    0    0  501    0  0.00000000000E+00 -0.00000000000E+00 -0.16902753818E+03  0.16902753818E+03  0.00000000000E+00 0. -1.
         23    2    1    2    0    0  0.29729515957E+02 -0.91362112112E+02  0.18667090559E+01  0.13144323752E+03  0.89682553705E+02 0.  0.
         23    2    1    2    0    0 -0.29729515957E+02  0.91362112112E+02 -0.62143161208E+02  0.14633538669E+03  0.91221671024E+02 0.  0.
          5    1    3    3  502    0 -0.26164316313E+02 -0.57845537143E+02  0.13491553068E+02  0.65075261195E+02  0.47000000000E+01 0. -1.
         -5    1    3    3    0  502  0.55893832270E+02 -0.33516574969E+02 -0.11624844012E+02  0.66367976327E+02  0.47000000000E+01 0.  1.
          5    1    4    4  503    0  0.75570680843E-02  0.99785707659E+02 -0.38174015232E+02  0.10694172689E+03  0.47000000000E+01 0. -1.
         -5    1    4    4    0  503 -0.29737073025E+02 -0.84235955476E+01 -0.23969145976E+02  0.39393659805E+02  0.47000000000E+01 0.  1.
<mgrwt>
<rscale>  0 0.13222045E+03</rscale>
<asrwt>0</asrwt>
<pdfrwt beam="1">  1        1 0.26004236E-01 0.13248499E+03</pdfrwt>
<pdfrwt beam="2">  1       -1 0.16730936E-01 0.13248499E+03</pdfrwt>
<totfact> 0.46867736E+03</totfact>
</mgrwt>
</event>
<event>
 8    1  0.3466492E-004  0.1062356E+03  0.7546771E-02  0.1267705E+00
          2   -1    0    0  501    0  0.00000000000E+00  0.00000000000E+00  0.36078559559E+03  0.36078559559E+03  0.00000000000E+00 0. -1.
         -2   -1    0    0    0  501 -0.00000000000E+00 -0.00000000000E+00 -0.32491072907E+02  0.32491072907E+02  0.00000000000E+00 0.  1.
         23    2    1    2    0    0  0.53119780505E+02 -0.13021990911E+02  0.20208696875E+03  0.22830894317E+03  0.91074405095E+02 0.  0.
         23    2    1    2    0    0 -0.53119780505E+02  0.13021990911E+02  0.12620755393E+03  0.16496772533E+03  0.91075355628E+02 0.  0.
          5    1    4    4  502    0 -0.20955242627E+02 -0.19576354445E+02  0.11356996924E+03  0.11722876678E+03  0.47000000000E+01 0. -1.
         -5    1    4    4    0  502 -0.32164537878E+02  0.32598345356E+02  0.12637584692E+02  0.47738958553E+02  0.47000000000E+01 0.  1.
          5    1    3    3  503    0  0.42303450131E+02  0.30357179104E+02  0.61546239495E+02  0.80753760359E+02  0.47000000000E+01 0. -1.
         -5    1    3    3    0  503  0.10816330373E+02 -0.43379170015E+02  0.14054072926E+03  0.14755518281E+03  0.47000000000E+01 0.  1.
<mgrwt>
<rscale>  0 0.10623540E+03</rscale>
<asrwt>0</asrwt>
<pdfrwt beam="1">  1        2 0.55505473E-01 0.10623560E+03</pdfrwt>
<pdfrwt beam="2">  1       -2 0.49986269E-02 0.10623560E+03</pdfrwt>
<totfact> 0.16103377E+04</totfact>
</mgrwt>
</event>
<event>
 8    1  0.3466492E-004  0.9584447E+02  0.7546771E-02  0.1289627E+00
          1   -1    0    0  501    0  0.00000000000E+00  0.00000000000E+00  0.37006342885E+03  0.37006342885E+03  0.00000000000E+00 0. -1.
         -1   -1    0    0    0  501 -0.00000000000E+00 -0.00000000000E+00 -0.87288258517E+02  0.87288258517E+02  0.00000000000E+00 0.  1.
         23    2    1    2    0    0 -0.31980585061E+02 -0.32814542490E+01 -0.52175389070E+02  0.10912577085E+03  0.90291953550E+02 0.  0.
         23    2    1    2    0    0  0.31980585061E+02  0.32814542490E+01  0.33495055940E+03  0.34822591651E+03  0.89643103064E+02 0.  0.
          5    1    3    3  502    0 -0.18750816587E+02  0.26414598515E+02  0.13724338662E+02  0.35493261461E+02  0.47000000000E+01 0. -1.
         -5    1    3    3    0  502 -0.13229768474E+02 -0.29696052764E+02 -0.65899727733E+02  0.73632509389E+02  0.47000000000E+01 0.  1.
          5    1    4    4  503    0  0.90156780182E+01  0.39211178534E+02  0.24779551563E+03  0.25108466011E+03  0.47000000000E+01 0. -1.
         -5    1    4    4    0  503  0.22964907043E+02 -0.35929724285E+02  0.87155043765E+02  0.97141256407E+02  0.47000000000E+01 0.  1.
<mgrwt>
<rscale>  0 0.95691351E+02</rscale>
<asrwt>0</asrwt>
<pdfrwt beam="1">  1        1 0.56932834E-01 0.95844471E+02</pdfrwt>
<pdfrwt beam="2">  1       -1 0.13428963E-01 0.95844471E+02</pdfrwt>
<totfact> 0.24683442E+03</totfact>
</mgrwt>
</event>
<event>
 8    1  0.3466492E-004  0.9231793E+02  0.7546771E-02  0.1298062E+00
         -2   -1    0    0    0  501 -0.00000000000E+00  0.00000000000E+00  0.37727966926E+03  0.37727966926E+03  0.00000000000E+00 0.  1.
          2   -1    0    0  501    0  0.00000000000E+00 -0.00000000000E+00 -0.70332772763E+02  0.70332772763E+02  0.00000000000E+00 0. -1.
         23    2    1    2    0    0  0.10113527548E+02  0.78199405034E+01  0.33877523056E+03  0.35112854667E+03  0.91428466807E+02 0.  0.
         23    2    1    2    0    0 -0.10113527548E+02 -0.78199405034E+01 -0.31828334058E+02  0.96483895350E+02  0.90181285775E+02 0.  0.
          5    1    3    3  502    0 -0.33899086319E+02  0.26004466481E+02  0.19189372159E+03  0.19664859704E+03  0.47000000000E+01 0. -1.
         -5    1    4    4    0  503 -0.42797757870E+00 -0.32134498168E+02  0.20062865999E+02  0.38176140840E+02  0.47000000000E+01 0.  1.
          5    1    4    4  503    0 -0.96855499697E+01  0.24314557665E+02 -0.51891200057E+02  0.58307754510E+02  0.47000000000E+01 0. -1.
         -5    1    3    3    0  502  0.44012613868E+02 -0.18184525977E+02  0.14688150896E+03  0.15447994964E+03  0.47000000000E+01 0.  1.
<mgrwt>
<rscale>  0 0.92007615E+02</rscale>
<asrwt>0</asrwt>
<pdfrwt beam="1">  1        2 0.10820427E-01 0.92317926E+02</pdfrwt>
<pdfrwt beam="2">  1       -2 0.58043024E-01 0.92317926E+02</pdfrwt>
<totfact> 0.15651684E+03</totfact>
</mgrwt>
</event>
<event>
 8    1  0.3466492E-004  0.1113869E+03  0.7546771E-02  0.1260643E+00
         -1   -1    0    0    0  501 -0.00000000000E+00  0.00000000000E+00  0.33017722781E+02  0.33017722781E+02  0.00000000000E+00 0.  1.
          1   -1    0    0  501    0  0.00000000000E+00 -0.00000000000E+00 -0.36922995233E+03  0.36922995233E+03  0.00000000000E+00 0. -1.
         23    2    1    2    0    0  0.14392152001E+02  0.49097956222E+02 -0.20032079645E+03  0.22653902273E+03  0.92594621770E+02 0.  0.
         23    2    1    2    0    0 -0.14392152001E+02 -0.49097956222E+02 -0.13589143310E+03  0.17570865239E+03  0.98940919696E+02 0.  0.
          5    1    4    4  502    0 -0.27703443003E+02  0.16048097516E+02 -0.87629929108E+02  0.93413685634E+02  0.47000000000E+01 0. -1.
         -5    1    4    4    0  502  0.13311291002E+02 -0.65146053739E+02 -0.48261503990E+02  0.82294966755E+02  0.47000000000E+01 0.  1.
          5    1    3    3  503    0 -0.26079600343E+02  0.50787145955E+02 -0.72675003717E+02  0.92537699958E+02  0.47000000000E+01 0. -1.
         -5    1    3    3    0  503  0.40471752344E+02 -0.16891897326E+01 -0.12764579274E+03  0.13400132277E+03  0.47000000000E+01 0.  1.
<mgrwt>
<rscale>  0 0.10996051E+03</rscale>
<asrwt>0</asrwt>
<pdfrwt beam="1">  1        1 0.56804609E-01 0.11138693E+03</pdfrwt>
<pdfrwt beam="2">  1       -1 0.50796496E-02 0.11138693E+03</pdfrwt>
<totfact> 0.10762973E+04</totfact>
</mgrwt>
</event>
<event>
 8    1  0.4225168E-004  0.9604421E+02  0.7546771E-02  0.1289067E+00
         -1   -1    0    0    0  501 -0.00000000000E+00  0.00000000000E+00  0.39997646802E+02  0.39997646802E+02  0.00000000000E+00 0.  1.
          1   -1    0    0  501    0  0.00000000000E+00 -0.00000000000E+00 -0.57094553830E+03  0.57094553830E+03  0.00000000000E+00 0. -1.
         23    2    1    2    0    0 -0.20489773834E+02  0.16766711925E+02 -0.50187739210E+03  0.51098474301E+03  0.92323005941E+02 0.  0.
         23    2    1    2    0    0  0.20489773834E+02 -0.16766711925E+02 -0.29070499401E+02  0.99958442097E+02  0.91900178185E+02 0.  0.
          5    1    3    3  502    0  0.29817778663E+02  0.30192012659E+02 -0.18831751665E+03  0.19309643868E+03  0.47000000000E+01 0. -1.
         -5    1    4    4    0  503 -0.15549569962E+02 -0.31566215231E+02  0.17066267454E+02  0.39389878838E+02  0.47000000000E+01 0.  1.
          5    1    4    4  503    0  0.36039343796E+02  0.14799503307E+02 -0.46136766855E+02  0.60568563259E+02  0.47000000000E+01 0. -1.
         -5    1    3    3    0  502 -0.50307552498E+02 -0.13425300735E+02 -0.31355987545E+03  0.31788830433E+03  0.47000000000E+01 0.  1.
<mgrwt>
<rscale>  0 0.95942458E+02</rscale>
<asrwt>0</asrwt>
<pdfrwt beam="1">  1        1 0.87837778E-01 0.96044213E+02</pdfrwt>
<pdfrwt beam="2">  1       -1 0.61534840E-02 0.96044213E+02</pdfrwt>
<totfact> 0.46040212E+03</totfact>
</mgrwt>
</event>
<event>
 8    1  0.3466492E-004  0.9165964E+02  0.7546771E-02  0.1299690E+00
          4   -1    0    0  501    0  0.00000000000E+00  0.00000000000E+00  0.10751252050E+03  0.10751252050E+03  0.00000000000E+00 0. -1.
         -4   -1    0    0    0  501 -0.00000000000E+00 -0.00000000000E+00 -0.86184772904E+02  0.86184772904E+02  0.00000000000E+00 0.  1.
         23    2    1    2    0    0 -0.12933916819E+02  0.68394198965E+01  0.42222534020E+02  0.99686220152E+02  0.89109686568E+02 0.  0.
         23    2    1    2    0    0  0.12933916819E+02 -0.68394198965E+01 -0.20894786426E+02  0.94011073249E+02  0.90484396029E+02 0.  0.
          5    1    3    3  502    0  0.29623355469E+02  0.24309995463E+01  0.47594751562E+02  0.56309886559E+02  0.47000000000E+01 0. -1.
         -5    1    3    3    0  502 -0.42557272289E+02  0.44084203501E+01 -0.53722175421E+01  0.43376333593E+02  0.47000000000E+01 0.  1.
          5    1    4    4  503    0  0.38139236131E+02 -0.29256791201E+02  0.84788275353E+01  0.49036126279E+02  0.47000000000E+01 0. -1.
         -5    1    4    4    0  503 -0.25205319312E+02  0.22417371305E+02 -0.29373613962E+02  0.44974946970E+02  0.47000000000E+01 0.  1.
<mgrwt>
<rscale>  0 0.91318538E+02</rscale>
<asrwt>0</asrwt>
<pdfrwt beam="1">  1        4 0.16540388E-01 0.91659641E+02</pdfrwt>
<pdfrwt beam="2">  1       -4 0.13259196E-01 0.91659641E+02</pdfrwt>
<totfact> 0.22098721E+03</totfact>
</mgrwt>
</event>
<event>
 8    1  0.3466492E-004  0.1025861E+03  0.7546771E-02  0.1274958E+00
          2   -1    0    0  501    0  0.00000000000E+00  0.00000000000E+00  0.26136088274E+03  0.26136088274E+03  0.00000000000E+00 0. -1.
         -2   -1    0    0    0  501 -0.00000000000E+00 -0.00000000000E+00 -0.47760878464E+02  0.47760878464E+02  0.00000000000E+00 0.  1.
         23    2    1    2    0    0 -0.39978087818E+02 -0.23273559923E+02  0.45552125507E+02  0.11224481635E+03  0.91564166360E+02 0.  0.
         23    2    1    2    0    0  0.39978087818E+02  0.23273559923E+02  0.16804787877E+03  0.19687694486E+03  0.91545266189E+02 0.  0.
          5    1    3    3  502    0 -0.14071831772E+02  0.34422162985E+02  0.73156388306E+01  0.38190448092E+02  0.47000000000E+01 0. -1.
         -5    1    4    4    0  503  0.19242849097E+01  0.41823913031E+02  0.28229065638E+02  0.50714028833E+02  0.47000000000E+01 0.  1.
          5    1    4    4  503    0  0.38053802908E+02 -0.18550353109E+02  0.13981881313E+03  0.14616291603E+03  0.47000000000E+01 0. -1.
         -5    1    3    3    0  502 -0.25906256045E+02 -0.57695722907E+02  0.38236486677E+02  0.74054368254E+02  0.47000000000E+01 0.  1.
<mgrwt>
<rscale>  0 0.10258186E+03</rscale>
<asrwt>0</asrwt>
<pdfrwt beam="1">  1        2 0.40209366E-01 0.10258607E+03</pdfrwt>
<pdfrwt beam="2">  1       -2 0.73478276E-02 0.10258607E+03</pdfrwt>
<totfact> 0.12603708E+04</totfact>
</mgrwt>
</event>
<event>
 8    1  0.3466492E-004  0.9653871E+02  0.7546771E-02  0.1291112E+00
          3   -1    0    0  501    0  0.00000000000E+00  0.00000000000E+00  0.15326283931E+03  0.15326283931E+03  0.00000000000E+00 0. -1.
         -3   -1    0    0    0  501 -0.00000000000E+00 -0.00000000000E+00 -0.57323172035E+02  0.57323172035E+02  0.00000000000E+00 0.  1.
         23    2    1    2    0    0  0.80386977208E+01 -0.28506874991E+02  0.40664766651E+02  0.99342868089E+02  0.85662825138E+02 0.  0.
         23    2    1    2    0    0 -0.80386977208E+01  0.28506874991E+02  0.55274900622E+02  0.11124314325E+03  0.91882858571E+02 0.  0.
          5    1    3    3  502    0  0.40743625506E+02 -0.16655460078E+02  0.45997334188E+02  0.63838014711E+02  0.47000000000E+01 0. -1.
         -5    1    3    3    0  502 -0.32704927785E+02 -0.11851414913E+02 -0.53325675376E+01  0.35504853378E+02  0.47000000000E+01 0.  1.
          5    1    4    4  503    0  0.23043930100E+02  0.33482971813E+01  0.65522341294E+02  0.69695774744E+02  0.47000000000E+01 0. -1.
         -5    1    4    4    0  503 -0.31082627821E+02  0.25158577810E+02 -0.10247440673E+02  0.41547368509E+02  0.47000000000E+01 0.  1.
<mgrwt>
<rscale>  0 0.95028656E+02</rscale>
<asrwt>0</asrwt>
<pdfrwt beam="1">  1        3 0.23578898E-01 0.96538709E+02</pdfrwt>
<pdfrwt beam="2">  1       -3 0.88189496E-02 0.96538709E+02</pdfrwt>
<totfact> 0.32399514E+03</totfact>
</mgrwt>
</event>
<event>
 8    1  0.3466492E-004  0.9082910E+02  0.7546771E-02  0.1300920E+00
         -1   -1    0    0    0  501 -0.00000000000E+00  0.00000000000E+00  0.27160207493E+02  0.27160207493E+02  0.00000000000E+00 0.  1.
          1   -1    0    0  501    0  0.00000000000E+00 -0.00000000000E+00 -0.30698671852E+03  0.30698671852E+03  0.00000000000E+00 0. -1.
         23    2    1    2    0    0 -0.85360472752E-01  0.68506135338E+01 -0.12175481285E+03  0.15183788472E+03  0.90463089668E+02 0.  0.
         23    2    1    2    0    0  0.85360472752E-01 -0.68506135338E+01 -0.15807169818E+03  0.18230904129E+03  0.90570340512E+02 0.  0.
          5    1    3    3  502    0  0.36227876807E+02 -0.97139739521E+01 -0.98271956921E+02  0.10529144251E+03  0.47000000000E+01 0. -1.
         -5    1    4    4    0  503 -0.12406544215E+02 -0.38402796398E+02 -0.32153209723E+02  0.51813280209E+02  0.47000000000E+01 0.  1.
          5    1    4    4  503    0  0.12491904688E+02  0.31552182864E+02 -0.12591848846E+03  0.13049576108E+03  0.47000000000E+01 0. -1.
         -5    1    3    3    0  502 -0.36313237280E+02  0.16564587486E+02 -0.23482855929E+02  0.46546442215E+02  0.47000000000E+01 0.  1.
<mgrwt>
<rscale>  0 0.90802348E+02</rscale>
<asrwt>0</asrwt>
<pdfrwt beam="1">  1        1 0.47228721E-01 0.90829097E+02</pdfrwt>
<pdfrwt beam="2">  1       -1 0.41784939E-02 0.90829097E+02</pdfrwt>
<totfact> 0.17648272E+04</totfact>
</mgrwt>
</event>
<event>
 8    1  0.3533078E-004  0.1272688E+03  0.7546771E-02  0.1232487E+00
         -2   -1    0    0    0  501 -0.00000000000E+00  0.00000000000E+00  0.54270282806E+02  0.54270282806E+02  0.00000000000E+00 0.  1.
          2   -1    0    0  501    0  0.00000000000E+00 -0.00000000000E+00 -0.64025879178E+03  0.64025879178E+03  0.00000000000E+00 0. -1.
         23    2    1    2    0    0 -0.31027288553E+02  0.79312626795E+02 -0.54750945921E+03  0.56157048600E+03  0.91332455442E+02 0.  0.
         23    2    1    2    0    0  0.31027288553E+02 -0.79312626795E+02 -0.38479049769E+02  0.13295858859E+03  0.94573588307E+02 0.  0.
          5    1    3    3  502    0 -0.61004794514E+02  0.63681244788E+02 -0.34050247661E+03  0.35176826529E+03  0.47000000000E+01 0. -1.
         -5    1    4    4    0  503  0.50551351369E+02 -0.84864024069E+02 -0.48147983352E+02  0.10998936315E+03  0.47000000000E+01 0.  1.
          5    1    4    4  503    0 -0.19524062817E+02  0.55513972740E+01  0.96689335826E+01  0.22969225437E+02  0.47000000000E+01 0. -1.
         -5    1    3    3    0  502  0.29977505961E+02  0.15631382006E+02 -0.20700698260E+03  0.20980222071E+03  0.47000000000E+01 0.  1.
<mgrwt>
<rscale>  0 0.12666714E+03</rscale>
<asrwt>0</asrwt>
<pdfrwt beam="1">  1        2 0.98501359E-01 0.12726881E+03</pdfrwt>
<pdfrwt beam="2">  1       -2 0.83492737E-02 0.12726881E+03</pdfrwt>
<totfact> 0.40028063E+03</totfact>
</mgrwt>
</event>
<event>
 8    1  0.3466492E-004  0.9722181E+02  0.7546771E-02  0.1286689E+00
         -1   -1    0    0    0  501 -0.00000000000E+00  0.00000000000E+00  0.97825332005E+02  0.97825332005E+02  0.00000000000E+00 0.  1.
          1   -1    0    0  501    0  0.00000000000E+00 -0.00000000000E+00 -0.11166045283E+03  0.11166045283E+03  0.00000000000E+00 0. -1.
         23    2    1    2    0    0  0.28324308940E+02  0.54214475271E+01 -0.46336610396E+02  0.10697516607E+03  0.92005141821E+02 0.  0.
         23    2    1    2    0    0 -0.28324308940E+02 -0.54214475271E+01  0.32501489573E+02  0.10251061877E+03  0.92846225369E+02 0.  0.
          5    1    3    3  502    0  0.58508413022E+02 -0.74528121170E+01 -0.14293581058E+02  0.60870150831E+02  0.47000000000E+01 0. -1.
         -5    1    3    3    0  502 -0.30184104082E+02  0.12874259644E+02 -0.32043029338E+02  0.46105015234E+02  0.47000000000E+01 0.  1.
          5    1    4    4  503    0  0.19576021629E+01 -0.32845509140E+02  0.48151944866E+02  0.58509481892E+02  0.47000000000E+01 0. -1.
         -5    1    4    4    0  503 -0.30281911103E+02  0.27424061612E+02 -0.15650455294E+02  0.44001136875E+02  0.47000000000E+01 0.  1.
<mgrwt>
<rscale>  0 0.97020458E+02</rscale>
<asrwt>0</asrwt>
<pdfrwt beam="1">  1        1 0.17178531E-01 0.97221809E+02</pdfrwt>
<pdfrwt beam="2">  1       -1 0.15050051E-01 0.97221809E+02</pdfrwt>
<totfact> 0.91172688E+03</totfact>
</mgrwt>
</event>
<event>
 8    1  0.3466492E-004  0.9327329E+02  0.7546771E-02  0.1297039E+00
          1   -1    0    0  501    0  0.00000000000E+00  0.00000000000E+00  0.14903007399E+02  0.14903007399E+02  0.00000000000E+00 0. -1.
         -1   -1    0    0    0  501 -0.00000000000E+00 -0.00000000000E+00 -0.56430261941E+03  0.56430261941E+03  0.00000000000E+00 0.  1.
         23    2    1    2    0    0  0.23464466514E+02  0.11761288382E+02 -0.28101163662E+03  0.29507183301E+03  0.86086802883E+02 0.  0.
         23    2    1    2    0    0 -0.23464466514E+02 -0.11761288382E+02 -0.26838797539E+03  0.28413379380E+03  0.89504180613E+02 0.  0.
          5    1    3    3  502    0 -0.72647116931E+01 -0.22304648350E+02 -0.23756026843E+02  0.33715162544E+02  0.47000000000E+01 0. -1.
         -5    1    4    4    0  503  0.84301715376E+01  0.19605696273E+02 -0.20635657841E+03  0.20751043003E+03  0.47000000000E+01 0.  1.
          5    1    4    4  503    0 -0.31894638052E+02 -0.31366984655E+02 -0.62031396984E+02  0.76623363764E+02  0.47000000000E+01 0. -1.
         -5    1    3    3    0  502  0.30729178207E+02  0.34065936733E+02 -0.25725560977E+03  0.26135667047E+03  0.47000000000E+01 0.  1.
<mgrwt>
<rscale>  0 0.92443757E+02</rscale>
<asrwt>0</asrwt>
<pdfrwt beam="1">  1        1 0.22927702E-02 0.93273294E+02</pdfrwt>
<pdfrwt beam="2">  1       -1 0.86815794E-01 0.93273294E+02</pdfrwt>
<totfact> 0.62970237E+03</totfact>
</mgrwt>
</event>
<event>
 8    1  0.3466492E-004  0.9038644E+02  0.7546771E-02  0.1302302E+00
         -2   -1    0    0    0  501 -0.00000000000E+00  0.00000000000E+00  0.46075010765E+02  0.46075010765E+02  0.00000000000E+00 0. -1.
          2   -1    0    0  501    0  0.00000000000E+00 -0.00000000000E+00 -0.20715874833E+03  0.20715874833E+03  0.00000000000E+00 0.  1.
         23    2    1    2    0    0 -0.60018083692E+01  0.10010119986E+02 -0.31252678505E+02  0.95038271928E+02  0.88990555743E+02 0.  0.
         23    2    1    2    0    0  0.60018083692E+01 -0.10010119986E+02 -0.12983105907E+03  0.15819548717E+03  0.89629705218E+02 0.  0.
          5    1    3    3  502    0 -0.51142716106E+01 -0.39450419169E+02 -0.14404977026E+02  0.42568588300E+02  0.47000000000E+01 0. -1.
         -5    1    3    3    0  502 -0.88753675861E+00  0.49460539155E+02 -0.16847701479E+02  0.52469683628E+02  0.47000000000E+01 0.  1.
          5    1    4    4  503    0 -0.14537138646E+02  0.31878642084E+02 -0.24826756487E+02  0.43197616355E+02  0.47000000000E+01 0. -1.
         -5    1    4    4    0  503  0.20538947015E+02 -0.41888762070E+02 -0.10500430258E+03  0.11499787082E+03  0.47000000000E+01 0.  1.
<mgrwt>
<rscale>  0 0.90227580E+02</rscale>
<asrwt>0</asrwt>
<pdfrwt beam="1">  1        2 0.31870577E-01 0.90386438E+02</pdfrwt>
<pdfrwt beam="2">  1       -2 0.70884631E-02 0.90386438E+02</pdfrwt>
<totfact> 0.16816692E+04</totfact>
</mgrwt>
</event>
<event>
 8    1  0.6074670E-004  0.9706451E+02  0.7546771E-02  0.1288527E+00
         -1   -1    0    0    0  501 -0.00000000000E+00  0.00000000000E+00  0.72701035203E+02  0.72701035203E+02  0.00000000000E+00 0.  1.
          1   -1    0    0  501    0  0.00000000000E+00 -0.00000000000E+00 -0.26986016855E+03  0.26986016855E+03  0.00000000000E+00 0. -1.
         23    2    1    2    0    0 -0.16199997386E+02  0.11060809380E+02 -0.22322815697E+03  0.24205690894E+03  0.91520247366E+02 0.  0.
         23    2    1    2    0    0  0.16199997386E+02 -0.11060809380E+02  0.26069023629E+02  0.10050429482E+03  0.95061758158E+02 0.  0.
          5    1    3    3  502    0 -0.44486104910E+02 -0.14488004577E+02 -0.17024173791E+03  0.17661612365E+03  0.47000000000E+01 0. -1.
         -5    1    3    3    0  502  0.28286107524E+02  0.25548813957E+02 -0.52986419065E+02  0.65440785286E+02  0.47000000000E+01 0.  1.
          5    1    4    4  503    0 -0.39677221333E+02 -0.31952017243E+01  0.15075258573E+02  0.42823412146E+02  0.47000000000E+01 0. -1.
         -5    1    4    4    0  503  0.55877218719E+02 -0.78656076555E+01  0.10993765055E+02  0.57680882670E+02  0.47000000000E+01 0.  1.
<mgrwt>
<rscale>  0 0.96186237E+02</rscale>
<asrwt>0</asrwt>
<pdfrwt beam="1">  1        1 0.41516949E-01 0.97064511E+02</pdfrwt>
<pdfrwt beam="2">  1       -1 0.11184775E-01 0.97064511E+02</pdfrwt>
<totfact> 0.48148924E+03</totfact>
</mgrwt>
</event>
<event>
 8    1  0.3466492E-004  0.1398738E+03  0.7546771E-02  0.1215313E+00
          1   -1    0    0  501    0  0.00000000000E+00  0.00000000000E+00  0.84999579380E+03  0.84999579380E+03  0.00000000000E+00 0. -1.
         -1   -1    0    0    0  501 -0.00000000000E+00 -0.00000000000E+00 -0.30153550002E+02  0.30153550002E+02  0.00000000000E+00 0.  1.
         23    2    1    2    0    0  0.84709753877E+02 -0.61033116478E+02  0.64229691371E+03  0.65735074019E+03  0.93080000789E+02 0.  0.
         23    2    1    2    0    0 -0.84709753877E+02  0.61033116478E+02  0.17754533008E+03  0.22279860361E+03  0.84947571064E+02 0.  0.
          5    1    4    4  502    0 -0.36351882764E+02  0.74037516519E+02  0.92743716593E+02  0.12420346292E+03  0.47000000000E+01 0. -1.
         -5    1    4    4    0  502 -0.48357871113E+02 -0.13004400041E+02  0.84801613488E+02  0.98595140698E+02  0.47000000000E+01 0.  1.
          5    1    3    3  503    0  0.85267599776E+02 -0.16020344234E+02  0.51428509677E+03  0.52157306848E+03  0.47000000000E+01 0. -1.
         -5    1    3    3    0  503 -0.55784589879E+00 -0.45012772244E+02  0.12801181694E+03  0.13577767170E+03  0.47000000000E+01 0.  1.
<mgrwt>
<rscale>  0 0.13853599E+03</rscale>
<asrwt>0</asrwt>
<pdfrwt beam="1">  1        1 0.13076857E+00 0.13987377E+03</pdfrwt>
<pdfrwt beam="2">  1       -1 0.46390083E-02 0.13987377E+03</pdfrwt>
<totfact> 0.40340406E+03</totfact>
</mgrwt>
</event>
<event>
 8    1  0.3466492E-004  0.9341847E+02  0.7546771E-02  0.1295956E+00
         -3   -1    0    0    0  501 -0.00000000000E+00  0.00000000000E+00  0.20206911689E+03  0.20206911689E+03  0.00000000000E+00 0.  1.
          3   -1    0    0  501    0  0.00000000000E+00 -0.00000000000E+00 -0.47547927541E+02  0.47547927541E+02  0.00000000000E+00 0. -1.
         23    2    1    2    0    0  0.36687892766E+01 -0.17028146433E+02  0.34885486339E+02  0.97828664006E+02  0.89721973665E+02 0.  0.
         23    2    1    2    0    0 -0.36687892766E+01  0.17028146433E+02  0.11963570301E+03  0.15178838043E+03  0.91780135169E+02 0.  0.
          5    1    3    3  502    0  0.20922332740E+02  0.32255784198E+02  0.18309420438E+02  0.42842788172E+02  0.47000000000E+01 0. -1.
         -5    1    3    3    0  502 -0.17253543464E+02 -0.49283930631E+02  0.16576065900E+02  0.54985875834E+02  0.47000000000E+01 0.  1.
          5    1    4    4  503    0 -0.83288258604E+01  0.44341646403E+02  0.22434442605E+02  0.50605781892E+02  0.47000000000E+01 0. -1.
         -5    1    4    4    0  503  0.46600365838E+01 -0.27313499970E+02  0.97201260405E+02  0.10118259853E+03  0.47000000000E+01 0.  1.
<mgrwt>
<rscale>  0 0.92909005E+02</rscale>
<asrwt>0</asrwt>
<pdfrwt beam="1">  1        3 0.73150658E-02 0.93418472E+02</pdfrwt>
<pdfrwt beam="2">  1       -3 0.31087556E-01 0.93418472E+02</pdfrwt>
<totfact> 0.26378995E+03</totfact>
</mgrwt>
</event>
<event>
 8    1  0.3466492E-004  0.1033594E+03  0.7546771E-02  0.1274896E+00
         -1   -1    0    0    0  501 -0.00000000000E+00  0.00000000000E+00  0.10707175698E+03  0.10707175698E+03  0.00000000000E+00 0.  1.
          1   -1    0    0  501    0  0.00000000000E+00 -0.00000000000E+00 -0.97207382419E+02  0.97207382419E+02  0.00000000000E+00 0. -1.
         23    2    1    2    0    0  0.19896633339E+02 -0.33268535600E+02  0.10180006420E+02  0.10091926460E+03  0.92619619720E+02 0.  0.
         23    2    1    2    0    0 -0.19896633339E+02  0.33268535600E+02 -0.31563185848E+00  0.10335987480E+03  0.95814887239E+02 0.  0.
          5    1    3    3  502    0 -0.31412404029E+01 -0.24925600539E+02 -0.38504083741E+02  0.46214796529E+02  0.47000000000E+01 0. -1.
         -5    1    3    3    0  502  0.23037873741E+02 -0.83429350606E+01  0.48684090160E+02  0.54704468069E+02  0.47000000000E+01 0.  1.
          5    1    4    4  503    0  0.12716239151E+02  0.59601324834E+02 -0.18621560294E+01  0.61152091422E+02  0.47000000000E+01 0. -1.
         -5    1    4    4    0  503 -0.32612872490E+02 -0.26332789235E+02  0.15465241709E+01  0.42207783381E+02  0.47000000000E+01 0.  1.
<mgrwt>
<rscale>  0 0.10261262E+03</rscale>
<asrwt>0</asrwt>
<pdfrwt beam="1">  1        1 0.14954982E-01 0.10335939E+03</pdfrwt>
<pdfrwt beam="2">  1       -1 0.16472578E-01 0.10335939E+03</pdfrwt>
<totfact> 0.95041231E+03</totfact>
</mgrwt>
</event>
<event>
 8    1  0.3466492E-004  0.1006121E+03  0.7546771E-02  0.1279565E+00
          1   -1    0    0  501    0  0.00000000000E+00  0.00000000000E+00  0.93120962657E+03  0.93120962657E+03  0.00000000000E+00 0. -1.
         -1   -1    0    0    0  501 -0.00000000000E+00 -0.00000000000E+00 -0.10861916947E+02  0.10861916947E+02  0.00000000000E+00 0.  1.
         23    2    1    2    0    0  0.98072426176E+01  0.38360821872E+02  0.41634024620E+03  0.42832462648E+03  0.92493515355E+02 0.  0.
         23    2    1    2    0    0 -0.98072426176E+01 -0.38360821872E+02  0.50400746343E+03  0.51374691704E+03  0.91348984198E+02 0.  0.
          5    1    3    3  502    0 -0.16468777109E+01 -0.27811865957E+02  0.19304861794E+03  0.19510528179E+03  0.47000000000E+01 0. -1.
         -5    1    4    4    0  503  0.23199467530E+02  0.20748098157E+02  0.17603214476E+03  0.17882422895E+03  0.47000000000E+01 0.  1.
          5    1    4    4  503    0 -0.33006710147E+02 -0.59108920029E+02  0.32797531866E+03  0.33492268809E+03  0.47000000000E+01 0. -1.
         -5    1    3    3    0  502  0.11454120328E+02  0.66172687830E+02  0.22329162826E+03  0.23321934469E+03  0.47000000000E+01 0.  1.
<mgrwt>
<rscale>  0 0.10034823E+03</rscale>
<asrwt>0</asrwt>
<pdfrwt beam="1">  1        1 0.14326296E+00 0.10061205E+03</pdfrwt>
<pdfrwt beam="2">  1       -1 0.16710649E-02 0.10061205E+03</pdfrwt>
<totfact> 0.15056918E+04</totfact>
</mgrwt>
</event>
<event>
 8    1  0.3466492E-004  0.1118086E+03  0.7546771E-02  0.1257903E+00
          2   -1    0    0  501    0  0.00000000000E+00  0.00000000000E+00  0.81112658115E+03  0.81112658115E+03  0.00000000000E+00 0. -1.
         -2   -1    0    0    0  501 -0.00000000000E+00 -0.00000000000E+00 -0.19072870214E+02  0.19072870214E+02  0.00000000000E+00 0.  1.
         23    2    1    2    0    0 -0.40384803266E+02  0.48214558983E+02  0.20738184911E+03  0.23493284036E+03  0.90722831231E+02 0.  0.
         23    2    1    2    0    0  0.40384803266E+02 -0.48214558983E+02  0.58467186183E+03  0.59526661101E+03  0.92442285417E+02 0.  0.
          5    1    3    3  502    0  0.17535429474E+02 -0.13324680388E+02  0.23725714298E+02  0.32711433983E+02  0.47000000000E+01 0. -1.
         -5    1    3    3    0  502 -0.57920232740E+02  0.61539239371E+02  0.18365613481E+03  0.20222140637E+03  0.47000000000E+01 0.  1.
          5    1    4    4  503    0  0.55867614286E+02 -0.64965305971E+02  0.50581686093E+03  0.51304431398E+03  0.47000000000E+01 0. -1.
         -5    1    4    4    0  503 -0.15482811020E+02  0.16750746988E+02  0.78855000898E+02  0.82222297027E+02  0.47000000000E+01 0.  1.
<mgrwt>
<rscale>  0 0.11145251E+03</rscale>
<asrwt>0</asrwt>
<pdfrwt beam="1">  1        2 0.12478868E+00 0.11180855E+03</pdfrwt>
<pdfrwt beam="2">  1       -2 0.29342884E-02 0.11180855E+03</pdfrwt>
<totfact> 0.14353651E+04</totfact>
</mgrwt>
</event>
<event>
 8    1  0.3466492E-004  0.9010749E+02  0.7546771E-02  0.1303011E+00
          2   -1    0    0  501    0  0.00000000000E+00  0.00000000000E+00  0.27493275644E+03  0.27493275644E+03  0.00000000000E+00 0. -1.
         -2   -1    0    0    0  501 -0.00000000000E+00 -0.00000000000E+00 -0.41797185446E+02  0.41797185446E+02  0.00000000000E+00 0.  1.
         23    2    1    2    0    0 -0.93778003512E+01  0.14564881128E+02  0.29679666631E+02  0.94213278770E+02  0.87722177262E+02 0.  0.
         23    2    1    2    0    0  0.93778003512E+01 -0.14564881128E+02  0.20345590436E+03  0.22251666311E+03  0.88426700955E+02 0.  0.
          5    1    4    4  502    0 -0.87644136176E+00 -0.40651636832E+02  0.18294305041E+03  0.18746619274E+03  0.47000000000E+01 0. -1.
         -5    1    4    4    0  502  0.10254241713E+02  0.26086755704E+02  0.20512853951E+02  0.35050470374E+02  0.47000000000E+01 0.  1.
          5    1    3    3  503    0  0.15595759056E+02 -0.18239573440E+02  0.43980943133E+02  0.50322192904E+02  0.47000000000E+01 0. -1.
         -5    1    3    3    0  503 -0.24973559408E+02  0.32804454568E+02 -0.14301276501E+02  0.43891085866E+02  0.47000000000E+01 0.  1.
<mgrwt>
<rscale>  0 0.89934174E+02</rscale>
<asrwt>0</asrwt>
<pdfrwt beam="1">  1        2 0.42297346E-01 0.90107493E+02</pdfrwt>
<pdfrwt beam="2">  1       -2 0.64303364E-02 0.90107493E+02</pdfrwt>
<totfact> 0.14453581E+04</totfact>
</mgrwt>
</event>
<event>
 8    1  0.3466492E-004  0.1196130E+03  0.7546771E-02  0.1256440E+00
         -1   -1    0    0    0  501 -0.00000000000E+00  0.00000000000E+00  0.44871415962E+02  0.44871415962E+02  0.00000000000E+00 0.  1.
          1   -1    0    0  501    0  0.00000000000E+00 -0.00000000000E+00 -0.35450933413E+03  0.35450933413E+03  0.00000000000E+00 0. -1.
         23    2    1    2    0    0  0.97971150743E+01 -0.16330949795E+02 -0.61587489139E+02  0.13453735690E+03  0.11808724825E+03 0.  0.
         23    2    1    2    0    0 -0.97971150743E+01  0.16330949795E+02 -0.24805042903E+03  0.26484339319E+03  0.90831295216E+02 0.  0.
          5    1    3    3  502    0  0.13915264267E+02 -0.42175362074E+02 -0.86977311344E+02  0.97772892124E+02  0.47000000000E+01 0. -1.
         -5    1    3    3    0  502 -0.41181491925E+01  0.25844412279E+02  0.25389822204E+02  0.36764464778E+02  0.47000000000E+01 0.  1.
          5    1    4    4  503    0  0.21319941922E+02 -0.25353835481E+02 -0.51054131817E+02  0.61040734536E+02  0.47000000000E+01 0. -1.
         -5    1    4    4    0  503 -0.31117056997E+02  0.41684785275E+02 -0.19699629721E+03  0.20380265866E+03  0.47000000000E+01 0.  1.
<mgrwt>
<rscale>  0 0.11226084E+03</rscale>
<asrwt>0</asrwt>
<pdfrwt beam="1">  1        1 0.54539897E-01 0.11961305E+03</pdfrwt>
<pdfrwt beam="2">  1       -1 0.69032948E-02 0.11961305E+03</pdfrwt>
<totfact> 0.72223778E+03</totfact>
</mgrwt>
</event>
<event>
 8    1  0.3466492E-004  0.9895658E+02  0.7546771E-02  0.1284930E+00
          1   -1    0    0  501    0  0.00000000000E+00  0.00000000000E+00  0.64378216833E+03  0.64378216833E+03  0.00000000000E+00 0. -1.
         -1   -1    0    0    0  501 -0.00000000000E+00 -0.00000000000E+00 -0.15891758950E+02  0.15891758950E+02  0.00000000000E+00 0.  1.
         23    2    1    2    0    0  0.24039157066E+02  0.13318513159E+02  0.40365978550E+03  0.41457848319E+03  0.90436897524E+02 0.  0.
         23    2    1    2    0    0 -0.24039157066E+02 -0.13318513159E+02  0.22423062388E+03  0.24509544408E+03  0.95063874107E+02 0.  0.
          5    1    3    3  502    0 -0.10630366906E+02  0.45366816700E+02  0.18570135144E+03  0.19151562517E+03  0.47000000000E+01 0. -1.
         -5    1    4    4    0  503  0.32697266585E+02  0.12552174072E+02  0.99046839118E+02  0.10516194490E+03  0.47000000000E+01 0.  1.
          5    1    4    4  503    0 -0.56736423651E+02 -0.25870687232E+02  0.12518378476E+03  0.13993349918E+03  0.47000000000E+01 0. -1.
         -5    1    3    3    0  502  0.34669523972E+02 -0.32048303540E+02  0.21795843406E+03  0.22306285803E+03  0.47000000000E+01 0.  1.
<mgrwt>
<rscale>  0 0.97828372E+02</rscale>
<asrwt>0</asrwt>
<pdfrwt beam="1">  1        1 0.99043390E-01 0.98956576E+02</pdfrwt>
<pdfrwt beam="2">  1       -1 0.24448865E-02 0.98956576E+02</pdfrwt>
<totfact> 0.15029473E+04</totfact>
</mgrwt>
</event>
<event>
 8    1  0.3466492E-004  0.1183228E+03  0.7546771E-02  0.1246252E+00
         -2   -1    0    0    0  501 -0.00000000000E+00  0.00000000000E+00  0.60527226502E+03  0.60527226502E+03  0.00000000000E+00 0.  1.
          2   -1    0    0  501    0  0.00000000000E+00 -0.00000000000E+00 -0.28201138599E+02  0.28201138599E+02  0.00000000000E+00 0. -1.
         23    2    1    2    0    0  0.39254971232E+02 -0.63250337274E+02  0.42418682111E+03  0.44015012143E+03  0.90863151274E+02 0.  0.
         23    2    1    2    0    0 -0.39254971232E+02  0.63250337274E+02  0.15288430532E+03  0.19332328220E+03  0.91971314523E+02 0.  0.
          5    1    3    3  502    0  0.24475208636E+02  0.96491356535E+01  0.35791310911E+02  0.44668216814E+02  0.47000000000E+01 0. -1.
         -5    1    4    4    0  503 -0.19169878611E+02 -0.15147422332E+02  0.81818100900E+02  0.85517368318E+02  0.47000000000E+01 0.  1.
          5    1    4    4  503    0 -0.20085092621E+02  0.78397759606E+02  0.71066204419E+02  0.10780591388E+03  0.47000000000E+01 0. -1.
         -5    1    3    3    0  502  0.14779762596E+02 -0.72899472928E+02  0.38839551020E+03  0.39548190461E+03  0.47000000000E+01 0.  1.
<mgrwt>
<rscale>  0 0.11810737E+03</rscale>
<asrwt>0</asrwt>
<pdfrwt beam="1">  1        2 0.43386372E-02 0.11832278E+03</pdfrwt>
<pdfrwt beam="2">  1       -2 0.93118800E-01 0.11832278E+03</pdfrwt>
<totfact> 0.18315455E+03</totfact>
</mgrwt>
</event>
<event>
 8    1  0.3466492E-004  0.9491899E+02  0.7546771E-02  0.1292505E+00
          1   -1    0    0  501    0  0.00000000000E+00  0.00000000000E+00  0.27299030085E+03  0.27299030085E+03  0.00000000000E+00 0. -1.
         -1   -1    0    0    0  501 -0.00000000000E+00 -0.00000000000E+00 -0.34959235402E+02  0.34959235402E+02  0.00000000000E+00 0.  1.
         23    2    1    2    0    0  0.10594434570E+01 -0.15019579308E+02  0.16023705833E+03  0.18522414655E+03  0.91680747277E+02 0.  0.
         23    2    1    2    0    0 -0.10594434570E+01  0.15019579308E+02  0.77794007117E+02  0.12272538970E+03  0.93717146510E+02 0.  0.
          5    1    4    4  502    0  0.20548577875E+02  0.81213777207E+01  0.92545708088E+02  0.95262788717E+02  0.47000000000E+01 0. -1.
         -5    1    4    4    0  502 -0.21608021332E+02  0.68982015877E+01 -0.14751700971E+02  0.27462600980E+02  0.47000000000E+01 0.  1.
          5    1    3    3  503    0  0.37253172779E+02 -0.11721835772E+02  0.13528985753E+03  0.14089228462E+03  0.47000000000E+01 0. -1.
         -5    1    3    3    0  503 -0.36193729322E+02 -0.32977435364E+01  0.24947200806E+02  0.44331861936E+02  0.47000000000E+01 0.  1.
<mgrwt>
<rscale>  0 0.94412431E+02</rscale>
<asrwt>0</asrwt>
<pdfrwt beam="1">  1        1 0.41998507E-01 0.94918985E+02</pdfrwt>
<pdfrwt beam="2">  1       -1 0.53783441E-02 0.94918985E+02</pdfrwt>
<totfact> 0.14144758E+04</totfact>
</mgrwt>
</event>
<event>
 8    1  0.3466492E-004  0.1238419E+03  0.7546771E-02  0.1240538E+00
         -3   -1    0    0    0  501 -0.00000000000E+00  0.00000000000E+00  0.62358518166E+02  0.62358518166E+02  0.00000000000E+00 0.  1.
          3   -1    0    0  501    0  0.00000000000E+00 -0.00000000000E+00 -0.23721125830E+03  0.23721125830E+03  0.00000000000E+00 0. -1.
         23    2    1    2    0    0  0.54157227750E+02  0.65391467082E+02 -0.55886127827E+02  0.12784359074E+03  0.77534992915E+02 0.  0.
         23    2    1    2    0    0 -0.54157227750E+02 -0.65391467082E+02 -0.11896661231E+03  0.17172618572E+03  0.90154194212E+02 0.  0.
          5    1    4    4  502    0 -0.52476868269E+02 -0.86623794080E+02 -0.90814344417E+02  0.13611332983E+03  0.47000000000E+01 0. -1.
         -5    1    4    4    0  502 -0.16803594802E+01  0.21232326998E+02 -0.28152267893E+02  0.35612855899E+02  0.47000000000E+01 0.  1.
          5    1    3    3  503    0  0.43824119775E+02  0.38155215099E+02 -0.73242313887E+02  0.93610365115E+02  0.47000000000E+01 0. -1.
         -5    1    3    3    0  503  0.10333107974E+02  0.27236251983E+02  0.17356186060E+02  0.34233225630E+02  0.47000000000E+01 0.  1.
<mgrwt>
<rscale>  0 0.12156477E+03</rscale>
<asrwt>0</asrwt>
<pdfrwt beam="1">  1        3 0.36494040E-01 0.12384195E+03</pdfrwt>
<pdfrwt beam="2">  1       -3 0.95936180E-02 0.12384195E+03</pdfrwt>
<totfact> 0.13276303E+03</totfact>
</mgrwt>
</event>
<event>
 8    1  0.3466492E-004  0.1028594E+03  0.7546771E-02  0.1275655E+00
          1   -1    0    0  501    0  0.00000000000E+00  0.00000000000E+00  0.31695356665E+02  0.31695356665E+02  0.00000000000E+00 0. -1.
         -1   -1    0    0    0  501 -0.00000000000E+00 -0.00000000000E+00 -0.36506135617E+03  0.36506135617E+03  0.00000000000E+00 0.  1.
         23    2    1    2    0    0  0.13945672312E+02  0.39131251736E+02 -0.22987091534E+03  0.25084138276E+03  0.91405825562E+02 0.  0.
         23    2    1    2    0    0 -0.13945672312E+02 -0.39131251736E+02 -0.10349508417E+03  0.14591533008E+03  0.94097366947E+02 0.  0.
          5    1    4    4  502    0 -0.47663335281E+01 -0.68295236574E+02 -0.87164877546E+02  0.11093585152E+03  0.47000000000E+01 0. -1.
         -5    1    4    4    0  502 -0.91793387835E+01  0.29163984838E+02 -0.16330206620E+02  0.34979478561E+02  0.47000000000E+01 0.  1.
          5    1    3    3  503    0  0.44444153294E+02  0.58040391035E+01 -0.16891937647E+03  0.17482795937E+03  0.47000000000E+01 0. -1.
         -5    1    3    3    0  503 -0.30498480982E+02  0.33327212633E+02 -0.60951538869E+02  0.76013423384E+02  0.47000000000E+01 0.  1.
<mgrwt>
<rscale>  0 0.10223970E+03</rscale>
<asrwt>0</asrwt>
<pdfrwt beam="1">  1        1 0.48762091E-02 0.10285938E+03</pdfrwt>
<pdfrwt beam="2">  1       -1 0.56163281E-01 0.10285938E+03</pdfrwt>
<totfact> 0.53080904E+03</totfact>
</mgrwt>
</event>
<event>
 8    1  0.3466492E-004  0.9521490E+02  0.7546771E-02  0.1292326E+00
          4   -1    0    0  501    0  0.00000000000E+00  0.00000000000E+00  0.21987129586E+03  0.21987129586E+03  0.00000000000E+00 0. -1.
         -4   -1    0    0    0  501 -0.00000000000E+00 -0.00000000000E+00 -0.48535158121E+02  0.48535158121E+02  0.00000000000E+00 0.  1.
         23    2    1    2    0    0  0.20057230063E+02  0.73514582710E+01  0.14300949171E+03  0.17180684438E+03  0.92787610389E+02 0.  0.
         23    2    1    2    0    0 -0.20057230063E+02 -0.73514582710E+01  0.28326646033E+02  0.96599609599E+02  0.89848479579E+02 0.  0.
          5    1    3    3  502    0  0.13533843336E+02 -0.37927820060E+02  0.10357267696E+03  0.11122532923E+03  0.47000000000E+01 0. -1.
         -5    1    4    4    0  503 -0.28991037524E+02  0.35892259160E+02  0.23325761616E+02  0.51912577275E+02  0.47000000000E+01 0.  1.
          5    1    4    4  503    0  0.89338074602E+01 -0.43243717431E+02  0.50008844170E+01  0.44687032325E+02  0.47000000000E+01 0. -1.
         -5    1    3    3    0  502  0.65233867270E+01  0.45279278331E+02  0.39436814749E+02  0.60581515152E+02  0.47000000000E+01 0.  1.
<mgrwt>
<rscale>  0 0.94491228E+02</rscale>
<asrwt>0</asrwt>
<pdfrwt beam="1">  1        4 0.33826353E-01 0.95214899E+02</pdfrwt>
<pdfrwt beam="2">  1       -4 0.74669475E-02 0.95214899E+02</pdfrwt>
<totfact> 0.15825585E+03</totfact>
</mgrwt>
</event>
<event>
 8    1  0.3466492E-004  0.1079300E+03  0.7546771E-02  0.1265397E+00
          1   -1    0    0  501    0  0.00000000000E+00  0.00000000000E+00  0.50547376339E+03  0.50547376339E+03  0.00000000000E+00 0. -1.
         -1   -1    0    0    0  501 -0.00000000000E+00 -0.00000000000E+00 -0.48955830924E+02  0.48955830924E+02  0.00000000000E+00 0.  1.
         23    2    1    2    0    0 -0.34405995840E+02 -0.43206200169E+02  0.23992668053E+02  0.10864153390E+03  0.90425585351E+02 0.  0.
         23    2    1    2    0    0  0.34405995840E+02  0.43206200169E+02  0.43252526442E+03  0.44578806041E+03  0.92727246078E+02 0.  0.
          5    1    3    3  502    0 -0.19741769710E+02  0.12892938036E+02  0.41437975392E+02  0.47907839933E+02  0.47000000000E+01 0. -1.
         -5    1    3    3    0  502 -0.14664226129E+02 -0.56099138205E+02 -0.17445307338E+02  0.60733693972E+02  0.47000000000E+01 0.  1.
          5    1    4    4  503    0  0.44283729493E+02  0.15884378295E+02  0.39631921344E+03  0.39912951672E+03  0.47000000000E+01 0. -1.
         -5    1    4    4    0  503 -0.98777336529E+01  0.27321821874E+02  0.36206050975E+02  0.46658543696E+02  0.47000000000E+01 0.  1.
<mgrwt>
<rscale>  0 0.10743389E+03</rscale>
<asrwt>0</asrwt>
<pdfrwt beam="1">  1        1 0.77765191E-01 0.10793003E+03</pdfrwt>
<pdfrwt beam="2">  1       -1 0.75316667E-02 0.10793003E+03</pdfrwt>
<totfact> 0.40246668E+03</totfact>
</mgrwt>
</event>
<event>
 8    1  0.3466492E-004  0.1204408E+03  0.7546771E-02  0.1243684E+00
          1   -1    0    0  501    0  0.00000000000E+00  0.00000000000E+00  0.46506032452E+03  0.46506032452E+03  0.00000000000E+00 0. -1.
         -1   -1    0    0    0  501 -0.00000000000E+00 -0.00000000000E+00 -0.31029322431E+02  0.31029322431E+02  0.00000000000E+00 0.  1.
         23    2    1    2    0    0  0.68997320166E+02 -0.22697660867E+02  0.17834333616E+03  0.21345529665E+03  0.92092367294E+02 0.  0.
         23    2    1    2    0    0 -0.68997320166E+02  0.22697660867E+02  0.25568766592E+03  0.28263435030E+03  0.96073823002E+02 0.  0.
          5    1    4    4  502    0 -0.40868522569E+02  0.60368500171E+02  0.16185191779E+03  0.17757456249E+03  0.47000000000E+01 0. -1.
         -5    1    4    4    0  502 -0.28128797597E+02 -0.37670839304E+02  0.93835748132E+02  0.10505978781E+03  0.47000000000E+01 0.  1.
          5    1    3    3  503    0  0.20489893686E+02 -0.48666312015E+02  0.12873551914E+03  0.13922345189E+03  0.47000000000E+01 0.  1.
         -5    1    3    3    0  503  0.48507426480E+02  0.25968651148E+02  0.49607817028E+02  0.74231844760E+02  0.47000000000E+01 0. -1.
<mgrwt>
<rscale>  0 0.11964514E+03</rscale>
<asrwt>0</asrwt>
<pdfrwt beam="1">  1        1 0.71547737E-01 0.12044083E+03</pdfrwt>
<pdfrwt beam="2">  1       -1 0.47737423E-02 0.12044083E+03</pdfrwt>
<totfact> 0.88703599E+03</totfact>
</mgrwt>
</event>
<event>
 8    1  0.3466492E-004  0.9380314E+02  0.7546771E-02  0.1294223E+00
          1   -1    0    0  501    0  0.00000000000E+00  0.00000000000E+00  0.12849360768E+03  0.12849360768E+03  0.00000000000E+00 0. -1.
         -1   -1    0    0    0  501 -0.00000000000E+00 -0.00000000000E+00 -0.34858896531E+03  0.34858896531E+03  0.00000000000E+00 0.  1.
         23    2    1    2    0    0  0.11281387762E+02 -0.14757894450E+02 -0.32397217016E+03  0.33712036132E+03  0.91362496812E+02 0.  0.
         23    2    1    2    0    0 -0.11281387762E+02  0.14757894450E+02  0.10387681253E+03  0.13996221167E+03  0.91945436837E+02 0.  0.
          5    1    4    4  502    0 -0.37553289129E+02  0.41281505752E+02  0.57947743979E+02  0.80588108762E+02  0.47000000000E+01 0. -1.
         -5    1    3    3    0  503  0.35184390355E+02 -0.13204341755E+02 -0.30172660157E+03  0.30409427496E+03  0.47000000000E+01 0.  1.
          5    1    3    3  503    0 -0.23903002592E+02 -0.15535526951E+01 -0.22245568584E+02  0.33026086364E+02  0.47000000000E+01 0. -1.
         -5    1    4    4    0  502  0.26271901366E+02 -0.26523611302E+02  0.45929068553E+02  0.59374102907E+02  0.47000000000E+01 0.  1.
<mgrwt>
<rscale>  0 0.93659979E+02</rscale>
<asrwt>0</asrwt>
<pdfrwt beam="1">  1        1 0.19768247E-01 0.93803137E+02</pdfrwt>
<pdfrwt beam="2">  1       -1 0.53629072E-01 0.93803137E+02</pdfrwt>
<totfact> 0.91713944E+02</totfact>
</mgrwt>
</event>
<event>
 8    1  0.3466492E-004  0.1260234E+03  0.7546771E-02  0.1240321E+00
         -1   -1    0    0    0  501 -0.00000000000E+00  0.00000000000E+00  0.68792000352E+02  0.68792000352E+02  0.00000000000E+00 0.  1.
          1   -1    0    0  501    0  0.00000000000E+00 -0.00000000000E+00 -0.35284154983E+03  0.35284154983E+03  0.00000000000E+00 0. -1.
         23    2    1    2    0    0  0.45164322910E+02 -0.40705288302E+02 -0.27412378524E+03  0.29521988322E+03  0.91182198138E+02 0.  0.
         23    2    1    2    0    0 -0.45164322910E+02  0.40705288302E+02 -0.99257642432E+01  0.12641366696E+03  0.11038640242E+03 0.  0.
          5    1    4    4  502    0  0.59918357877E+01 -0.28843326090E+02 -0.24658105487E+02  0.38703381277E+02  0.47000000000E+01 0. -1.
         -5    1    3    3    0  503  0.64472559898E+02 -0.96986130798E+01 -0.11886599710E+03  0.13565393227E+03  0.47000000000E+01 0.  1.
          5    1    3    3  503    0 -0.19308236988E+02 -0.31006675222E+02 -0.15525778814E+03  0.15956595095E+03  0.47000000000E+01 0. -1.
         -5    1    4    4    0  502 -0.51156158698E+02  0.69548614392E+02  0.14732341244E+02  0.87710285686E+02  0.47000000000E+01 0.  1.
<mgrwt>
<rscale>  0 0.12169856E+03</rscale>
<asrwt>0</asrwt>
<pdfrwt beam="1">  1        1 0.54283314E-01 0.12602339E+03</pdfrwt>
<pdfrwt beam="2">  1       -1 0.10583385E-01 0.12602339E+03</pdfrwt>
<totfact> 0.38228784E+03</totfact>
</mgrwt>
</event>
<event>
 8    1  0.3466492E-004  0.1043041E+03  0.7546771E-02  0.1271573E+00
          2   -1    0    0  501    0  0.00000000000E+00  0.00000000000E+00  0.53459529699E+02  0.53459529699E+02  0.00000000000E+00 0. -1.
         -2   -1    0    0    0  501 -0.00000000000E+00 -0.00000000000E+00 -0.20723159068E+03  0.20723159068E+03  0.00000000000E+00 0.  1.
         23    2    1    2    0    0 -0.36969942362E+02  0.32143159275E+02 -0.58777516993E+02  0.11972528825E+03  0.92083596892E+02 0.  0.
         23    2    1    2    0    0  0.36969942362E+02 -0.32143159275E+02 -0.94994543992E+02  0.14096583213E+03  0.91909972875E+02 0.  0.
          5    1    3    3  502    0 -0.62260648879E+02 -0.56247204585E+00 -0.31152080557E+02  0.69779989228E+02  0.47000000000E+01 0. -1.
         -5    1    3    3    0  502  0.25290706517E+02  0.32705631321E+02 -0.27625436437E+02  0.49945299023E+02  0.47000000000E+01 0.  1.
          5    1    4    4  503    0 -0.19794153133E+02 -0.41473340561E+02 -0.46995848956E+02  0.65897999171E+02  0.47000000000E+01 0. -1.
         -5    1    4    4    0  503  0.56764095496E+02  0.93301812867E+01 -0.47998695036E+02  0.75067832961E+02  0.47000000000E+01 0.  1.
<mgrwt>
<rscale>  0 0.10426578E+03</rscale>
<asrwt>0</asrwt>
<pdfrwt beam="1">  1        2 0.82245432E-02 0.10430411E+03</pdfrwt>
<pdfrwt beam="2">  1       -2 0.31881783E-01 0.10430411E+03</pdfrwt>
<totfact> 0.69304869E+03</totfact>
</mgrwt>
</event>
<event>
 8    1  0.3466492E-004  0.9967312E+02  0.7546771E-02  0.1280991E+00
         -1   -1    0    0    0  501 -0.00000000000E+00  0.00000000000E+00  0.81845801416E+02  0.81845801416E+02  0.00000000000E+00 0.  1.
          1   -1    0    0  501    0  0.00000000000E+00 -0.00000000000E+00 -0.12240002120E+03  0.12240002120E+03  0.00000000000E+00 0. -1.
         23    2    1    2    0    0 -0.39574723869E+02  0.39720679928E+01 -0.10903011124E+02  0.10025579912E+03  0.91380597022E+02 0.  0.
         23    2    1    2    0    0  0.39574723869E+02 -0.39720679928E+01 -0.29651208663E+02  0.10399002350E+03  0.91393625153E+02 0.  0.
          5    1    3    3  502    0  0.21290185270E+02 -0.21519267288E+02 -0.14728346239E+02  0.33990661017E+02  0.47000000000E+01 0. -1.
         -5    1    3    3    0  502 -0.60864909140E+02  0.25491335281E+02  0.38253351146E+01  0.66265138102E+02  0.47000000000E+01 0.  1.
          5    1    4    4  503    0  0.34809807969E+02  0.39751271320E+02 -0.27387100474E+02  0.59699493924E+02  0.47000000000E+01 0. -1.
         -5    1    4    4    0  503  0.47649159002E+01 -0.43723339313E+02 -0.22641081891E+01  0.44290529575E+02  0.47000000000E+01 0.  1.
<mgrwt>
<rscale>  0 0.99670133E+02</rscale>
<asrwt>0</asrwt>
<pdfrwt beam="1">  1        1 0.18830772E-01 0.99673120E+02</pdfrwt>
<pdfrwt beam="2">  1       -1 0.12591662E-01 0.99673120E+02</pdfrwt>
<totfact> 0.10712495E+04</totfact>
</mgrwt>
</event>
<event>
 8    1  0.3466492E-004  0.1149240E+03  0.7546771E-02  0.1252704E+00
          1   -1    0    0  501    0  0.00000000000E+00  0.00000000000E+00  0.70806375540E+02  0.70806375540E+02  0.00000000000E+00 0. -1.
         -1   -1    0    0    0  501 -0.00000000000E+00 -0.00000000000E+00 -0.18306984902E+03  0.18306984902E+03  0.00000000000E+00 0.  1.
         23    2    1    2    0    0 -0.10408544547E+02  0.66400552244E+02 -0.52915986415E+02  0.12652125988E+03  0.93221008601E+02 0.  0.
         23    2    1    2    0    0  0.10408544547E+02 -0.66400552244E+02 -0.59347487062E+02  0.12735496468E+03  0.90442200715E+02 0.  0.
          5    1    3    3  502    0 -0.89405596805E+01 -0.20572022720E+02  0.28411195045E+01  0.23093368880E+02  0.47000000000E+01 0. -1.
         -5    1    4    4    0  503  0.46157797344E+02 -0.13333990920E+02 -0.29696536691E+02  0.56677260528E+02  0.47000000000E+01 0.  1.
          5    1    4    4  503    0 -0.35749252797E+02 -0.53066561324E+02 -0.29650950371E+02  0.70677704152E+02  0.47000000000E+01 0. -1.
         -5    1    3    3    0  502 -0.14679848666E+01  0.86972574964E+02 -0.55757105920E+02  0.10342789100E+03  0.47000000000E+01 0.  1.
<mgrwt>
<rscale>  0 0.11435928E+03</rscale>
<asrwt>0</asrwt>
<pdfrwt beam="1">  1        1 0.10893288E-01 0.11492401E+03</pdfrwt>
<pdfrwt beam="2">  1       -1 0.28164592E-01 0.11492401E+03</pdfrwt>
<totfact> 0.61022641E+03</totfact>
</mgrwt>
</event>
<event>
 8    1  0.3466492E-004  0.9145116E+02  0.7546771E-02  0.1300676E+00
          2   -1    0    0  501    0  0.00000000000E+00  0.00000000000E+00  0.51068992581E+03  0.51068992581E+03  0.00000000000E+00 0. -1.
         -2   -1    0    0    0  501 -0.00000000000E+00 -0.00000000000E+00 -0.15996190667E+02  0.15996190667E+02  0.00000000000E+00 0.  1.
         23    2    1    2    0    0  0.29290598959E+01 -0.10228775663E+02  0.24920265324E+03  0.26471438796E+03  0.88648392908E+02 0.  0.
         23    2    1    2    0    0 -0.29290598959E+01  0.10228775663E+02  0.24549108190E+03  0.26197172852E+03  0.90830105182E+02 0.  0.
          5    1    4    4  502    0 -0.25420838922E+02 -0.33197702212E+02  0.12284242986E+03  0.12984860053E+03  0.47000000000E+01 0. -1.
         -5    1    3    3    0  503  0.43211831014E+02 -0.91279691386E+01  0.89169704273E+02  0.99618815092E+02  0.47000000000E+01 0.  1.
          5    1    3    3  503    0 -0.40282771118E+02 -0.11008065248E+01  0.16003294897E+03  0.16509557287E+03  0.47000000000E+01 0. -1.
         -5    1    4    4    0  502  0.22491779027E+02  0.43426477875E+02  0.12264865204E+03  0.13212312800E+03  0.47000000000E+01 0.  1.
<mgrwt>
<rscale>  0 0.90904650E+02</rscale>
<asrwt>0</asrwt>
<pdfrwt beam="1">  1        2 0.78567668E-01 0.91451163E+02</pdfrwt>
<pdfrwt beam="2">  1       -2 0.24609528E-02 0.91451163E+02</pdfrwt>
<totfact> 0.30969980E+04</totfact>
</mgrwt>
</event>
<event>
 8    1  0.3466492E-004  0.9834331E+02  0.7546771E-02  0.1285806E+00
         -3   -1    0    0    0  501 -0.00000000000E+00  0.00000000000E+00  0.14712476877E+03  0.14712476877E+03  0.00000000000E+00 0.  1.
          3   -1    0    0  501    0  0.00000000000E+00 -0.00000000000E+00 -0.68347694027E+02  0.68347694027E+02  0.00000000000E+00 0. -1.
         23    2    1    2    0    0  0.25689241865E+02  0.15344000724E+02  0.69240498233E+02  0.12027324465E+03  0.93680474368E+02 0.  0.
         23    2    1    2    0    0 -0.25689241865E+02 -0.15344000724E+02  0.95365765111E+01  0.95199218145E+02  0.89869735384E+02 0.  0.
          5    1    4    4  502    0 -0.30369440038E+02  0.25515756780E+02 -0.19684288872E+02  0.44529966996E+02  0.47000000000E+01 0. -1.
         -5    1    4    4    0  502  0.46801981725E+01 -0.40859757505E+02  0.29220865383E+02  0.50669251149E+02  0.47000000000E+01 0.  1.
          5    1    3    3  503    0  0.28799588261E+01  0.31237108875E+02  0.83033200953E+02  0.88885620852E+02  0.47000000000E+01 0. -1.
         -5    1    3    3    0  503  0.22809283039E+02 -0.15893108151E+02 -0.13792702720E+02  0.31387623800E+02  0.47000000000E+01 0.  1.
<mgrwt>
<rscale>  0 0.97424782E+02</rscale>
<asrwt>0</asrwt>
<pdfrwt beam="1">  1        3 0.10515030E-01 0.98343311E+02</pdfrwt>
<pdfrwt beam="2">  1       -3 0.22634580E-01 0.98343311E+02</pdfrwt>
<totfact> 0.26226859E+03</totfact>
</mgrwt>
</event>
<event>
 7    1  0.3466492E-004  0.1384054E+03  0.7546771E-02  0.1238666E+00
         -2   -1    0    0    0  501 -0.00000000000E+00  0.00000000000E+00  0.45563714644E+02  0.45563714644E+02  0.00000000000E+00 0.  1.
          2   -1    0    0  501    0  0.00000000000E+00 -0.00000000000E+00 -0.38345247196E+03  0.38345247196E+03  0.00000000000E+00 0. -1.
         23    2    1    2    0    0 -0.39659603075E+01 -0.48358585940E+02 -0.28675818335E+02  0.90240889480E+02  0.70475768189E+02 0.  0.
          5    1    1    2  502    0 -0.35651529881E+01 -0.44530953971E+02 -0.92692442285E+02  0.10300337390E+03  0.47000000000E+01 0. -1.
         -5    1    1    2    0  502  0.75311132957E+01  0.92889539911E+02 -0.21652049670E+03  0.23577192323E+03  0.47000000000E+01 0.  1.
          5    1    3    3  503    0  0.29226589435E+02 -0.25458945128E+02  0.23946794653E+01  0.39117462939E+02  0.47000000000E+01 0. -1.
         -5    1    3    3    0  503 -0.33192549743E+02 -0.22899640811E+02 -0.31070497800E+02  0.51123426541E+02  0.47000000000E+01 0.  1.
<mgrwt>
<rscale>  0 0.12272611E+03</rscale>
<asrwt>0</asrwt>
<pdfrwt beam="1">  1        2 0.58992688E-01 0.13840542E+03</pdfrwt>
<pdfrwt beam="2">  1       -2 0.70098023E-02 0.13840542E+03</pdfrwt>
<totfact> 0.92519421E+03</totfact>
</mgrwt>
</event>
<event>
 8    1  0.3466492E-004  0.1126239E+03  0.7546771E-02  0.1256036E+00
         -2   -1    0    0    0  501 -0.00000000000E+00  0.00000000000E+00  0.10737679600E+03  0.10737679600E+03  0.00000000000E+00 0.  1.
          2   -1    0    0  501    0  0.00000000000E+00 -0.00000000000E+00 -0.25966689311E+03  0.25966689311E+03  0.00000000000E+00 0. -1.
         23    2    1    2    0    0  0.46578741126E+02 -0.46208692258E+02  0.59710694144E+02  0.12698438164E+03  0.90856171063E+02 0.  0.
         23    2    1    2    0    0 -0.46578741126E+02  0.46208692258E+02 -0.21200079126E+03  0.24005930747E+03  0.91538588835E+02 0.  0.
          5    1    3    3  502    0  0.46066117478E+02  0.36329199945E+01 -0.32304012249E+01  0.46559754931E+02  0.47000000000E+01 0. -1.
         -5    1    4    4    0  503 -0.13215029217E+02 -0.27480484090E+02 -0.46755871501E+02  0.56017992849E+02  0.47000000000E+01 0.  1.
          5    1    4    4  503    0 -0.33363711909E+02  0.73689176349E+02 -0.16524491975E+03  0.18404131462E+03  0.47000000000E+01 0. -1.
         -5    1    3    3    0  502  0.51262364758E+00 -0.49841612253E+02  0.62941095369E+02  0.80424626709E+02  0.47000000000E+01 0.  1.
<mgrwt>
<rscale>  0 0.11248512E+03</rscale>
<asrwt>0</asrwt>
<pdfrwt beam="1">  1        2 0.39948753E-01 0.11262387E+03</pdfrwt>
<pdfrwt beam="2">  1       -2 0.16519507E-01 0.11262387E+03</pdfrwt>
<totfact> 0.35575047E+03</totfact>
</mgrwt>
</event>
<event>
 8    1  0.3466492E-004  0.1015563E+03  0.7546771E-02  0.1278479E+00
         -1   -1    0    0    0  501 -0.00000000000E+00  0.00000000000E+00  0.15006722070E+03  0.15006722070E+03  0.00000000000E+00 0.  1.
          1   -1    0    0  501    0  0.00000000000E+00 -0.00000000000E+00 -0.66899209654E+02  0.66899209654E+02  0.00000000000E+00 0. -1.
         23    2    1    2    0    0  0.36506345020E+02  0.15815690964E+01  0.42640461772E+02  0.11014489366E+03  0.94754810075E+02 0.  0.
         23    2    1    2    0    0 -0.36506345020E+02 -0.15815690964E+01  0.40527549272E+02  0.10682153669E+03  0.91832150488E+02 0.  0.
          5    1    4    4  502    0  0.29213093513E+02  0.11146535531E+02  0.15357094016E+02  0.35150823939E+02  0.47000000000E+01 0. -1.
         -5    1    4    4    0  502 -0.65719438533E+02 -0.12728104627E+02  0.25170455256E+02  0.71670712751E+02  0.47000000000E+01 0.  1.
          5    1    3    3  503    0  0.31690625189E+02  0.31538277174E+02 -0.12824002336E+02  0.46749370989E+02  0.47000000000E+01 0. -1.
         -5    1    3    3    0  503  0.48157198308E+01 -0.29956708077E+02  0.55464464108E+02  0.63395522674E+02  0.47000000000E+01 0.  1.
<mgrwt>
<rscale>  0 0.10086906E+03</rscale>
<asrwt>0</asrwt>
<pdfrwt beam="1">  1        1 0.10292186E-01 0.10155633E+03</pdfrwt>
<pdfrwt beam="2">  1       -1 0.23087265E-01 0.10155633E+03</pdfrwt>
<totfact> 0.90103786E+03</totfact>
</mgrwt>
</event>
<event>
 8    1  0.3466492E-004  0.1005997E+03  0.7546771E-02  0.1280226E+00
         -1   -1    0    0    0  501 -0.00000000000E+00  0.00000000000E+00  0.74500467883E+02  0.74500467883E+02  0.00000000000E+00 0.  1.
          1   -1    0    0  501    0  0.00000000000E+00 -0.00000000000E+00 -0.36481681480E+03  0.36481681480E+03  0.00000000000E+00 0. -1.
         23    2    1    2    0    0 -0.21618315663E+02  0.35980824832E+02  0.30599182328E+02  0.10300333636E+03  0.88946084869E+02 0.  0.
         23    2    1    2    0    0  0.21618315663E+02 -0.35980824832E+02 -0.32091552924E+03  0.33631394632E+03  0.91423860429E+02 0.  0.
          5    1    3    3  502    0 -0.17990509804E+02 -0.10614587230E+02 -0.23209416418E+02  0.31576809774E+02  0.47000000000E+01 0. -1.
         -5    1    4    4    0  503 -0.31939258463E+02 -0.54512001007E+00 -0.15530708193E+03  0.15862784461E+03  0.47000000000E+01 0.  1.
          5    1    4    4  503    0  0.53557574125E+02 -0.35435704822E+02 -0.16560844731E+03  0.17768610172E+03  0.47000000000E+01 0. -1.
         -5    1    3    3    0  502 -0.36278058585E+01  0.46595412062E+02  0.53808598745E+02  0.71426526582E+02  0.47000000000E+01 0.  1.
<mgrwt>
<rscale>  0 0.10003332E+03</rscale>
<asrwt>0</asrwt>
<pdfrwt beam="1">  1        1 0.56125663E-01 0.10059967E+03</pdfrwt>
<pdfrwt beam="2">  1       -1 0.11461611E-01 0.10059967E+03</pdfrwt>
<totfact> 0.32102978E+03</totfact>
</mgrwt>
</event>
<event>
 8    1  0.3466492E-004  0.1234236E+03  0.7546771E-02  0.1238401E+00
         -1   -1    0    0    0  501 -0.00000000000E+00  0.00000000000E+00  0.21524031888E+02  0.21524031888E+02  0.00000000000E+00 0.  1.
          1   -1    0    0  501    0  0.00000000000E+00 -0.00000000000E+00 -0.80561650679E+03  0.80561650679E+03  0.00000000000E+00 0. -1.
         23    2    1    2    0    0  0.63724735501E+02 -0.53314072595E+02 -0.54189826876E+03  0.55531078014E+03  0.88391722516E+02 0.  0.
         23    2    1    2    0    0 -0.63724735501E+02  0.53314072595E+02 -0.24219420614E+03  0.27182975853E+03  0.91269665734E+02 0.  0.
          5    1    4    4  502    0 -0.84765648252E+02  0.46218213613E+02 -0.21897160062E+03  0.23935745293E+03  0.47000000000E+01 0. -1.
         -5    1    3    3    0  503  0.84746462770E+02 -0.41022333073E+02 -0.37970898422E+03  0.39123624252E+03  0.47000000000E+01 0. -1.
          5    1    3    3  503    0 -0.21021727269E+02 -0.12291739523E+02 -0.16218928454E+03  0.16407453763E+03  0.47000000000E+01 0.  1.
         -5    1    4    4    0  502  0.21040912751E+02  0.70958589826E+01 -0.23222605521E+02  0.32472305605E+02  0.47000000000E+01 0.  1.
<mgrwt>
<rscale>  0 0.12289199E+03</rscale>
<asrwt>0</asrwt>
<pdfrwt beam="1">  1        1 0.12394100E+00 0.12342360E+03</pdfrwt>
<pdfrwt beam="2">  1       -1 0.33113895E-02 0.12342360E+03</pdfrwt>
<totfact> 0.71363529E+03</totfact>
</mgrwt>
</event>
<event>
 8    1  0.3466492E-004  0.9568501E+02  0.7546771E-02  0.1292562E+00
         -1   -1    0    0    0  501 -0.00000000000E+00  0.00000000000E+00  0.14301697985E+02  0.14301697985E+02  0.00000000000E+00 0.  1.
          1   -1    0    0  501    0  0.00000000000E+00 -0.00000000000E+00 -0.81479783395E+03  0.81479783395E+03  0.00000000000E+00 0. -1.
         23    2    1    2    0    0  0.69646884293E+01 -0.52635257744E+01 -0.18262041533E+03  0.20385875642E+03  0.90177407861E+02 0.  0.
         23    2    1    2    0    0 -0.69646884293E+01  0.52635257744E+01 -0.61787572064E+03  0.62524077552E+03  0.95285936091E+02 0.  0.
          5    1    4    4  502    0  0.37601255425E+02 -0.16674258513E+02 -0.18953227812E+03  0.19400118493E+03  0.47000000000E+01 0. -1.
         -5    1    3    3    0  503  0.39449125186E+02  0.23781700802E+02 -0.83445897803E+02  0.95431182698E+02  0.47000000000E+01 0.  1.
          5    1    3    3  503    0 -0.32484436756E+02 -0.29045226577E+02 -0.99174517523E+02  0.10842757373E+03  0.47000000000E+01 0. -1.
         -5    1    4    4    0  502 -0.44565943854E+02  0.21937784288E+02 -0.42834344253E+03  0.43123959058E+03  0.47000000000E+01 0.  1.
<mgrwt>
<rscale>  0 0.94387344E+02</rscale>
<asrwt>0</asrwt>
<pdfrwt beam="1">  1        1 0.12535352E+00 0.95685010E+02</pdfrwt>
<pdfrwt beam="2">  1       -1 0.22002612E-02 0.95685010E+02</pdfrwt>
<totfact> 0.12447003E+04</totfact>
</mgrwt>
</event>
<event>
 8    1  0.3466492E-004  0.9253700E+02  0.7546771E-02  0.1298387E+00
          2   -1    0    0  501    0  0.00000000000E+00  0.00000000000E+00  0.42200019143E+02  0.42200019143E+02  0.00000000000E+00 0. -1.
         -2   -1    0    0    0  501 -0.00000000000E+00 -0.00000000000E+00 -0.21655869710E+03  0.21655869710E+03  0.00000000000E+00 0.  1.
         23    2    1    2    0    0 -0.15758162127E+02 -0.10778837215E+02 -0.47314047125E+02  0.10158545124E+03  0.87843507692E+02 0.  0.
         23    2    1    2    0    0  0.15758162127E+02  0.10778837215E+02 -0.12704463083E+03  0.15717326500E+03  0.90546087721E+02 0.  0.
          5    1    3    3  502    0  0.32970115705E+02  0.90652461156E+01 -0.30748977150E+02  0.46225499591E+02  0.47000000000E+01 0. -1.
         -5    1    3    3    0  502 -0.48728277832E+02 -0.19844083330E+02 -0.16565069974E+02  0.55359951652E+02  0.47000000000E+01 0.  1.
          5    1    4    4  503    0  0.36200474716E+02  0.19166011333E+01 -0.99492764170E+01  0.37884374494E+02  0.47000000000E+01 0. -1.
         -5    1    4    4    0  503 -0.20442312589E+02  0.88622360814E+01 -0.11709535441E+03  0.11928889050E+03  0.47000000000E+01 0.  1.
<mgrwt>
<rscale>  0 0.91869131E+02</rscale>
<asrwt>0</asrwt>
<pdfrwt beam="1">  1        2 0.64923108E-02 0.92537003E+02</pdfrwt>
<pdfrwt beam="2">  1       -2 0.33316722E-01 0.92537003E+02</pdfrwt>
<totfact> 0.85136147E+03</totfact>
</mgrwt>
</event>
<event>
 8    1  0.3466492E-004  0.9426459E+02  0.7546771E-02  0.1295988E+00
         -1   -1    0    0    0  501 -0.00000000000E+00  0.00000000000E+00  0.27967747507E+02  0.27967747507E+02  0.00000000000E+00 0.  1.
          1   -1    0    0  501    0  0.00000000000E+00 -0.00000000000E+00 -0.30610659189E+03  0.30610659189E+03  0.00000000000E+00 0. -1.
         23    2    1    2    0    0 -0.97020764025E+00  0.13727327031E+02 -0.11930137486E+03  0.15204812169E+03  0.93254664520E+02 0.  0.
         23    2    1    2    0    0  0.97020764025E+00 -0.13727327031E+02 -0.15883746952E+03  0.18202621771E+03  0.87834056034E+02 0.  0.
          5    1    3    3  502    0 -0.17911645128E+02  0.48188839127E+02 -0.89072693124E+02  0.10295157069E+03  0.47000000000E+01 0. -1.
         -5    1    4    4    0  503  0.71109581856E+01 -0.43030639570E+02 -0.13911524298E+03  0.14586755121E+03  0.47000000000E+01 0.  1.
          5    1    4    4  503    0 -0.61407505453E+01  0.29303312539E+02 -0.19722226544E+02  0.36158666497E+02  0.47000000000E+01 0. -1.
         -5    1    3    3    0  502  0.16941437488E+02 -0.34461512096E+02 -0.30228681739E+02  0.49096550997E+02  0.47000000000E+01 0.  1.
<mgrwt>
<rscale>  0 0.92895291E+02</rscale>
<asrwt>0</asrwt>
<pdfrwt beam="1">  1        1 0.47093322E-01 0.94264592E+02</pdfrwt>
<pdfrwt beam="2">  1       -1 0.43027304E-02 0.94264592E+02</pdfrwt>
<totfact> 0.17034197E+04</totfact>
</mgrwt>
</event>
<event>
 8    1  0.3466492E-004  0.9840110E+02  0.7546771E-02  0.1284823E+00
         -1   -1    0    0    0  501 -0.00000000000E+00  0.00000000000E+00  0.84753870841E+02  0.84753870841E+02  0.00000000000E+00 0.  1.
          1   -1    0    0  501    0  0.00000000000E+00 -0.00000000000E+00 -0.54806526657E+03  0.54806526657E+03  0.00000000000E+00 0. -1.
         23    2    1    2    0    0  0.19490862278E+02  0.22752103952E+02  0.51128512364E+02  0.10905278110E+03  0.91546886038E+02 0.  0.
         23    2    1    2    0    0 -0.19490862278E+02 -0.22752103952E+02 -0.51443990809E+03  0.52376635630E+03  0.93729531174E+02 0.  0.
          5    1    3    3  502    0  0.19061721300E+02 -0.26857968031E+02 -0.53894651065E+01  0.33702166100E+02  0.47000000000E+01 0. -1.
         -5    1    3    3    0  502  0.42914097868E+00  0.49610071983E+02  0.56517977471E+02  0.75350615004E+02  0.47000000000E+01 0.  1.
          5    1    4    4  503    0  0.16953840115E+02 -0.48125229559E+02 -0.33258317797E+03  0.33650725205E+03  0.47000000000E+01 0. -1.
         -5    1    4    4    0  503 -0.36444702393E+02  0.25373125607E+02 -0.18185673012E+03  0.18725910425E+03  0.47000000000E+01 0.  1.
<mgrwt>
<rscale>  0 0.97877759E+02</rscale>
<asrwt>0</asrwt>
<pdfrwt beam="1">  1        1 0.84317733E-01 0.98401102E+02</pdfrwt>
<pdfrwt beam="2">  1       -1 0.13039057E-01 0.98401102E+02</pdfrwt>
<totfact> 0.15710608E+03</totfact>
</mgrwt>
</event>
<event>
 8    1  0.3466492E-004  0.9299527E+02  0.7546771E-02  0.1304107E+00
         -2   -1    0    0    0  501 -0.00000000000E+00  0.00000000000E+00  0.13865671769E+03  0.13865671769E+03  0.00000000000E+00 0.  1.
          2   -1    0    0  501    0  0.00000000000E+00 -0.00000000000E+00 -0.55286049978E+02  0.55286049978E+02  0.00000000000E+00 0. -1.
         23    2    1    2    0    0  0.29751386883E+01  0.13946798931E+02  0.22650925138E+02  0.82879689784E+02  0.78438599672E+02 0.  0.
         23    2    1    2    0    0 -0.29751386883E+01 -0.13946798931E+02  0.60719742571E+02  0.11106307788E+03  0.91895350698E+02 0.  0.
          5    1    3    3  502    0  0.37238134701E+02 -0.56855781090E+01  0.20285183820E+02  0.43041644451E+02  0.47000000000E+01 0. -1.
         -5    1    4    4    0  503 -0.14261488016E+02 -0.30511153977E+02  0.77416395710E+02  0.84555951192E+02  0.47000000000E+01 0.  1.
          5    1    4    4  503    0  0.11286349328E+02  0.16564355046E+02 -0.16696653139E+02  0.26507126688E+02  0.47000000000E+01 0. -1.
         -5    1    3    3    0  502 -0.34262996012E+02  0.19632377040E+02  0.23657413173E+01  0.39838045333E+02  0.47000000000E+01 0.  1.
<mgrwt>
<rscale>  0 0.89483600E+02</rscale>
<asrwt>0</asrwt>
<pdfrwt beam="1">  1        2 0.85055462E-02 0.92995269E+02</pdfrwt>
<pdfrwt beam="2">  1       -2 0.21331803E-01 0.92995269E+02</pdfrwt>
<totfact> 0.13264810E+04</totfact>
</mgrwt>
</event>
<event>
 8    1  0.3466492E-004  0.9617714E+02  0.7546771E-02  0.1289134E+00
          1   -1    0    0  501    0  0.00000000000E+00  0.00000000000E+00  0.14786265249E+03  0.14786265249E+03  0.00000000000E+00 0. -1.
         -1   -1    0    0    0  501 -0.00000000000E+00 -0.00000000000E+00 -0.24941571705E+03  0.24941571705E+03  0.00000000000E+00 0.  1.
         23    2    1    2    0    0  0.85472576145E+01  0.25416356035E+02 -0.22309213321E+03  0.24294061275E+03  0.92363383761E+02 0.  0.
         23    2    1    2    0    0 -0.85472576145E+01 -0.25416356035E+02  0.12153906864E+03  0.15433775679E+03  0.91265279260E+02 0.  0.
          5    1    3    3  502    0 -0.29279674725E+02  0.41742147183E+02 -0.90091787359E+02  0.10362589615E+03  0.47000000000E+01 0. -1.
         -5    1    4    4    0  503  0.95722972843E+01  0.31975715221E+02  0.32957801646E+02  0.47142145990E+02  0.47000000000E+01 0.  1.
          5    1    4    4  503    0 -0.18119554899E+02 -0.57392071255E+02  0.88581266995E+02  0.10719561080E+03  0.47000000000E+01 0. -1.
         -5    1    3    3    0  502  0.37826932339E+02 -0.16325791148E+02 -0.13300034585E+03  0.13931471660E+03  0.47000000000E+01 0.  1.
<mgrwt>
<rscale>  0 0.95912529E+02</rscale>
<asrwt>0</asrwt>
<pdfrwt beam="1">  1        1 0.22748101E-01 0.96177136E+02</pdfrwt>
<pdfrwt beam="2">  1       -1 0.38371648E-01 0.96177136E+02</pdfrwt>
<totfact> 0.13953387E+03</totfact>
</mgrwt>
</event>
<event>
 8    1  0.3466492E-004  0.1037569E+03  0.7546771E-02  0.1272844E+00
         -2   -1    0    0    0  501 -0.00000000000E+00  0.00000000000E+00  0.11593579549E+03  0.11593579549E+03  0.00000000000E+00 0.  1.
          2   -1    0    0  501    0  0.00000000000E+00 -0.00000000000E+00 -0.20244202932E+03  0.20244202932E+03  0.00000000000E+00 0. -1.
         23    2    1    2    0    0 -0.48270701793E+02 -0.43887520665E+01  0.74159888406E+02  0.12712121313E+03  0.91163545256E+02 0.  0.
         23    2    1    2    0    0  0.48270701793E+02  0.43887520665E+01 -0.16066612223E+03  0.19125661168E+03  0.91739669083E+02 0.  0.
          5    1    3    3  502    0 -0.69276412000E+02 -0.12842981405E+02  0.28906051380E+02  0.76300807580E+02  0.47000000000E+01 0. -1.
         -5    1    3    3    0  502  0.21005710207E+02  0.84542293386E+01  0.45253837025E+02  0.50820405553E+02  0.47000000000E+01 0.  1.
          5    1    4    4  503    0  0.74598449021E+02  0.11638962179E+02 -0.10986119800E+03  0.13338653179E+03  0.47000000000E+01 0. -1.
         -5    1    4    4    0  503 -0.26327747228E+02 -0.72502101121E+01 -0.50804924228E+02  0.57870079891E+02  0.47000000000E+01 0.  1.
<mgrwt>
<rscale>  0 0.10362938E+03</rscale>
<asrwt>0</asrwt>
<pdfrwt beam="1">  1        2 0.31144927E-01 0.10375687E+03</pdfrwt>
<pdfrwt beam="2">  1       -2 0.17836276E-01 0.10375687E+03</pdfrwt>
<totfact> 0.40645879E+03</totfact>
</mgrwt>
</event>
<event>
 8    1  0.3466492E-004  0.9260570E+02  0.7546771E-02  0.1296919E+00
          2   -1    0    0  501    0  0.00000000000E+00  0.00000000000E+00  0.71679618340E+02  0.71679618340E+02  0.00000000000E+00 0. -1.
         -2   -1    0    0    0  501 -0.00000000000E+00 -0.00000000000E+00 -0.14185886673E+03  0.14185886673E+03  0.00000000000E+00 0.  1.
         23    2    1    2    0    0 -0.28833083569E+01  0.12022433508E+02  0.77731102438E+01  0.92491444424E+02  0.91331230552E+02 0.  0.
         23    2    1    2    0    0  0.28833083569E+01 -0.12022433508E+02 -0.77952358630E+02  0.12104704064E+03  0.91776704330E+02 0.  0.
          5    1    4    4  502    0 -0.14071221727E+02  0.32511178524E+02 -0.85759437145E+01  0.36750684626E+02  0.47000000000E+01 0. -1.
         -5    1    3    3    0  503  0.40361089274E+02 -0.11180444301E+02  0.93381603197E+01  0.43166087387E+02  0.47000000000E+01 0.  1.
          5    1    3    3  503    0 -0.43244397631E+02  0.23202877809E+02 -0.15650500759E+01  0.49325357037E+02  0.47000000000E+01 0. -1.
         -5    1    4    4    0  502  0.16954530084E+02 -0.44533612032E+02 -0.69376414915E+02  0.84296356016E+02  0.47000000000E+01 0.  1.
<mgrwt>
<rscale>  0 0.92495136E+02</rscale>
<asrwt>0</asrwt>
<pdfrwt beam="1">  1        2 0.11027634E-01 0.92605701E+02</pdfrwt>
<pdfrwt beam="2">  1       -2 0.21824441E-01 0.92605701E+02</pdfrwt>
<totfact> 0.93003011E+03</totfact>
</mgrwt>
</event>
<event>
 8    1  0.3466492E-004  0.9495771E+02  0.7546771E-02  0.1292612E+00
         -1   -1    0    0    0  501 -0.00000000000E+00  0.00000000000E+00  0.68872002335E+02  0.68872002335E+02  0.00000000000E+00 0.  1.
          1   -1    0    0  501    0  0.00000000000E+00 -0.00000000000E+00 -0.22500367965E+03  0.22500367965E+03  0.00000000000E+00 0. -1.
         23    2    1    2    0    0  0.18630448281E+02  0.12263559847E+02 -0.17413139008E+03  0.19722705463E+03  0.89884823868E+02 0.  0.
         23    2    1    2    0    0 -0.18630448281E+02 -0.12263559847E+02  0.17999712769E+02  0.96648627355E+02  0.92301023866E+02 0.  0.
          5    1    3    3  502    0 -0.27621020796E+02  0.28146557229E+02 -0.50875896079E+02  0.64541430690E+02  0.47000000000E+01 0. -1.
         -5    1    4    4    0  503 -0.30509981063E+02 -0.47293004141E+02  0.18280372486E+02  0.59361175893E+02  0.47000000000E+01 0.  1.
          5    1    4    4  503    0  0.11879532782E+02  0.35029444295E+02 -0.28065971679E+00  0.37287451463E+02  0.47000000000E+01 0. -1.
         -5    1    3    3    0  502  0.46251469077E+02 -0.15882997382E+02 -0.12325549400E+03  0.13268562394E+03  0.47000000000E+01 0.  1.
<mgrwt>
<rscale>  0 0.94365481E+02</rscale>
<asrwt>0</asrwt>
<pdfrwt beam="1">  1        1 0.34615950E-01 0.94957714E+02</pdfrwt>
<pdfrwt beam="2">  1       -1 0.10595693E-01 0.94957714E+02</pdfrwt>
<totfact> 0.65189405E+03</totfact>
</mgrwt>
</event>
<event>
 8    1  0.3466492E-004  0.9390264E+02  0.7546771E-02  0.1304019E+00
          1   -1    0    0  501    0  0.00000000000E+00  0.00000000000E+00  0.10384179078E+03  0.10384179078E+03  0.00000000000E+00 0. -1.
         -1   -1    0    0    0  501 -0.00000000000E+00 -0.00000000000E+00 -0.86557092315E+02  0.86557092315E+02  0.00000000000E+00 0.  1.
         23    2    1    2    0    0  0.17337303010E+00 -0.20382413019E+02 -0.32524593733E+02  0.84103674223E+02  0.74833855985E+02 0.  0.
         23    2    1    2    0    0 -0.17337303010E+00  0.20382413019E+02  0.49809292194E+02  0.10629520887E+03  0.91663695217E+02 0.  0.
          5    1    3    3  502    0 -0.23744954811E+02 -0.39663656028E+02 -0.18698465352E+02  0.50087434502E+02  0.47000000000E+01 0. -1.
         -5    1    3    3    0  502  0.23918327841E+02  0.19281243009E+02 -0.13826128381E+02  0.34016239720E+02  0.47000000000E+01 0.  1.
          5    1    4    4  503    0  0.23174387833E+02 -0.28987653934E+02  0.10537789689E+02  0.38864782819E+02  0.47000000000E+01 0. -1.
         -5    1    4    4    0  503 -0.23347760863E+02  0.49370066953E+02  0.39271502506E+02  0.67430426050E+02  0.47000000000E+01 0.  1.
<mgrwt>
<rscale>  0 0.89519579E+02</rscale>
<asrwt>0</asrwt>
<pdfrwt beam="1">  1        1 0.15975660E-01 0.93902640E+02</pdfrwt>
<pdfrwt beam="2">  1       -1 0.13316476E-01 0.93902640E+02</pdfrwt>
<totfact> 0.12043903E+04</totfact>
</mgrwt>
</event>
<event>
 8    1  0.3466492E-004  0.1146106E+03  0.7546771E-02  0.1253394E+00
          1   -1    0    0  501    0  0.00000000000E+00  0.00000000000E+00  0.26973577331E+03  0.26973577331E+03  0.00000000000E+00 0. -1.
         -1   -1    0    0    0  501 -0.00000000000E+00 -0.00000000000E+00 -0.99146526094E+02  0.99146526094E+02  0.00000000000E+00 0.  1.
         23    2    1    2    0    0  0.67874454405E+02 -0.10504850056E+02 -0.48126579093E+02  0.12195679893E+03  0.88543773093E+02 0.  0.
         23    2    1    2    0    0 -0.67874454405E+02  0.10504850056E+02  0.21871582631E+03  0.24692550048E+03  0.91751276141E+02 0.  0.
          5    1    3    3  502    0  0.38218192308E+02  0.26296376057E+02  0.91823980135E+01  0.47524057595E+02  0.47000000000E+01 0. -1.
         -5    1    3    3    0  502  0.29656262097E+02 -0.36801226113E+02 -0.57308977106E+02  0.74432741331E+02  0.47000000000E+01 0.  1.
          5    1    4    4  503    0 -0.64358044827E+02  0.44002697633E+02  0.12685295530E+03  0.14896965329E+03  0.47000000000E+01 0. -1.
         -5    1    4    4    0  503 -0.35164095781E+01 -0.33497847577E+02  0.91862871014E+02  0.97955847194E+02  0.47000000000E+01 0.  1.
<mgrwt>
<rscale>  0 0.11396739E+03</rscale>
<asrwt>0</asrwt>
<pdfrwt beam="1">  1        1 0.41497811E-01 0.11461060E+03</pdfrwt>
<pdfrwt beam="2">  1       -1 0.15253312E-01 0.11461060E+03</pdfrwt>
<totfact> 0.30147818E+03</totfact>
</mgrwt>
</event>
<event>
 8    1  0.3466492E-004  0.1076701E+03  0.7546771E-02  0.1266615E+00
         -1   -1    0    0    0  501 -0.00000000000E+00  0.00000000000E+00  0.59787643051E+02  0.59787643051E+02  0.00000000000E+00 0.  1.
          1   -1    0    0  501    0  0.00000000000E+00 -0.00000000000E+00 -0.19434787668E+03  0.19434787668E+03  0.00000000000E+00 0. -1.
         23    2    1    2    0    0 -0.26825517890E+02 -0.47361941671E+02 -0.42819885161E+02  0.11268180936E+03  0.88886926296E+02 0.  0.
         23    2    1    2    0    0  0.26825517890E+02  0.47361941671E+02 -0.91740348468E+02  0.14145371037E+03  0.92898324593E+02 0.  0.
          5    1    3    3  502    0 -0.36899652812E+02  0.83294984628E+01 -0.40828012788E+02  0.55856795025E+02  0.47000000000E+01 0. -1.
         -5    1    3    3    0  502  0.10074134922E+02 -0.55691440133E+02 -0.19918723732E+01  0.56825014334E+02  0.47000000000E+01 0.  1.
          5    1    4    4  503    0 -0.37438933034E+01  0.67108705602E+02 -0.75884318100E+02  0.10147962770E+03  0.47000000000E+01 0. -1.
         -5    1    4    4    0  503  0.30569411194E+02 -0.19746763931E+02 -0.15856030368E+02  0.39974082672E+02  0.47000000000E+01 0.  1.
<mgrwt>
<rscale>  0 0.10679931E+03</rscale>
<asrwt>0</asrwt>
<pdfrwt beam="1">  1        1 0.29899674E-01 0.10767015E+03</pdfrwt>
<pdfrwt beam="2">  1       -1 0.91980989E-02 0.10767015E+03</pdfrwt>
<totfact> 0.97664099E+03</totfact>
</mgrwt>
</event>
<event>
 8    1  0.3466492E-004  0.9946084E+02  0.7546771E-02  0.1285080E+00
         -2   -1    0    0    0  501 -0.00000000000E+00  0.00000000000E+00  0.30057652700E+03  0.30057652700E+03  0.00000000000E+00 0.  1.
          2   -1    0    0  501    0  0.00000000000E+00 -0.00000000000E+00 -0.35824108095E+02  0.35824108095E+02  0.00000000000E+00 0. -1.
         23    2    1    2    0    0 -0.37480149038E+01  0.18237687517E+02  0.19954696293E+03  0.22296064364E+03  0.97702596372E+02 0.  0.
         23    2    1    2    0    0  0.37480149038E+01 -0.18237687517E+02  0.65205455975E+02  0.11343999145E+03  0.90940746148E+02 0.  0.
          5    1    4    4  502    0 -0.13255806198E+02  0.20835677420E+02 -0.98535132858E+01  0.27000436581E+02  0.47000000000E+01 0. -1.
         -5    1    3    3    0  503  0.30181715895E+02  0.37524856368E+02  0.55424310805E+02  0.73573059254E+02  0.47000000000E+01 0.  1.
          5    1    3    3  503    0 -0.33929730799E+02 -0.19287168851E+02  0.14412265212E+03  0.14938758439E+03  0.47000000000E+01 0. -1.
         -5    1    4    4    0  502  0.17003821102E+02 -0.39073364938E+02  0.75058969261E+02  0.86439554870E+02  0.47000000000E+01 0.  1.
<mgrwt>
<rscale>  0 0.97759245E+02</rscale>
<asrwt>0</asrwt>
<pdfrwt beam="1">  1        2 0.55114014E-02 0.99460838E+02</pdfrwt>
<pdfrwt beam="2">  1       -2 0.46242541E-01 0.99460838E+02</pdfrwt>
<totfact> 0.57149021E+03</totfact>
</mgrwt>
</event>
<event>
 8    1  0.3466492E-004  0.9394041E+02  0.7546771E-02  0.1294065E+00
          1   -1    0    0  501    0  0.00000000000E+00  0.00000000000E+00  0.16877275341E+02  0.16877275341E+02  0.00000000000E+00 0. -1.
         -1   -1    0    0    0  501 -0.00000000000E+00 -0.00000000000E+00 -0.53304219782E+03  0.53304219782E+03  0.00000000000E+00 0.  1.
         23    2    1    2    0    0 -0.62997482290E+01  0.17417459107E+02 -0.30283632333E+03  0.31682315801E+03  0.91236067519E+02 0.  0.
         23    2    1    2    0    0  0.62997482290E+01 -0.17417459107E+02 -0.21332859915E+03  0.23309631515E+03  0.92096396297E+02 0.  0.
          5    1    4    4  502    0 -0.33110438089E+02 -0.28912159471E+02 -0.15783279934E+03  0.16390697552E+03  0.47000000000E+01 0. -1.
         -5    1    4    4    0  502  0.39410186318E+02  0.11494700363E+02 -0.55495799809E+02  0.69189339630E+02  0.47000000000E+01 0.  1.
          5    1    3    3  503    0 -0.46091110490E+02  0.72908186467E+01 -0.10953900858E+03  0.11915716891E+03  0.47000000000E+01 0. -1.
         -5    1    3    3    0  503  0.39791362261E+02  0.10126640461E+02 -0.19329731475E+03  0.19766598910E+03  0.47000000000E+01 0.  1.
<mgrwt>
<rscale>  0 0.93728877E+02</rscale>
<asrwt>0</asrwt>
<pdfrwt beam="1">  1        1 0.25965040E-02 0.93940412E+02</pdfrwt>
<pdfrwt beam="2">  1       -1 0.82006487E-01 0.93940412E+02</pdfrwt>
<totfact> 0.59714990E+03</totfact>
</mgrwt>
</event>
<event>
 8    1  0.3466492E-004  0.2120922E+03  0.7546771E-02  0.1140152E+00
          1   -1    0    0  501    0  0.00000000000E+00  0.00000000000E+00  0.53217557383E+02  0.53217557383E+02  0.00000000000E+00 0. -1.
         -1   -1    0    0    0  501 -0.00000000000E+00 -0.00000000000E+00 -0.88538405825E+03  0.88538405825E+03  0.00000000000E+00 0.  1.
         23    2    1    2    0    0  0.53536587556E+02 -0.18407086436E+03 -0.30937780579E+03  0.37442865841E+03  0.87942846280E+02 0.  0.
         23    2    1    2    0    0 -0.53536587556E+02  0.18407086436E+03 -0.52278869508E+03  0.56417295722E+03  0.90746110926E+02 0.  0.
          5    1    4    4  502    0 -0.45946050132E+01  0.12251114094E+03 -0.39902907757E+03  0.41746423176E+03  0.47000000000E+01 0. -1.
         -5    1    3    3    0  503  0.46093320083E+02 -0.79030447813E+02 -0.21190648395E+03  0.23086111361E+03  0.47000000000E+01 0.  1.
          5    1    3    3  503    0  0.74432674729E+01 -0.10504041654E+03 -0.97471321837E+02  0.14356754480E+03  0.47000000000E+01 0. -1.
         -5    1    4    4    0  502 -0.48941982543E+02  0.61559723415E+02 -0.12375961751E+03  0.14670872547E+03  0.47000000000E+01 0.  1.
<mgrwt>
<rscale>  0 0.21179554E+03</rscale>
<asrwt>0</asrwt>
<pdfrwt beam="1">  1        1 0.81873164E-02 0.21209221E+03</pdfrwt>
<pdfrwt beam="2">  1       -1 0.13621293E+00 0.21209221E+03</pdfrwt>
<totfact> 0.40868622E+02</totfact>
</mgrwt>
</event>
<event>
 8    1  0.3466492E-004  0.9633477E+02  0.7546771E-02  0.1288263E+00
         -2   -1    0    0    0  501 -0.00000000000E+00  0.00000000000E+00  0.65755376787E+03  0.65755376787E+03  0.00000000000E+00 0.  1.
          2   -1    0    0  501    0  0.00000000000E+00 -0.00000000000E+00 -0.14156837014E+02  0.14156837014E+02  0.00000000000E+00 0. -1.
         23    2    1    2    0    0 -0.22341901521E+02 -0.24820810106E+02  0.34347183342E+03  0.35669401511E+03  0.90235729513E+02 0.  0.
         23    2    1    2    0    0  0.22341901521E+02  0.24820810106E+02  0.29992509743E+03  0.31501658978E+03  0.90361244937E+02 0.  0.
          5    1    4    4  502    0 -0.21804295065E+02 -0.27258856863E+01  0.19458870229E+02  0.29725332070E+02  0.47000000000E+01 0. -1.
         -5    1    4    4    0  502  0.44146196587E+02  0.27546695792E+02  0.28046622721E+03  0.28529125771E+03  0.47000000000E+01 0.  1.
          5    1    3    3  503    0 -0.14441979617E+02  0.33627230682E+02  0.12228045383E+03  0.12772611639E+03  0.47000000000E+01 0.  1.
         -5    1    3    3    0  503 -0.78999219043E+01 -0.58448040787E+02  0.22119137959E+03  0.22896789872E+03  0.47000000000E+01 0. -1.
<mgrwt>
<rscale>  0 0.96305325E+02</rscale>
<asrwt>0</asrwt>
<pdfrwt beam="1">  1        2 0.21779754E-02 0.96334769E+02</pdfrwt>
<pdfrwt beam="2">  1       -2 0.10116209E+00 0.96334769E+02</pdfrwt>
<totfact> 0.37357219E+03</totfact>
</mgrwt>
</event>
<event>
 8    1  0.3466492E-004  0.9770543E+02  0.7546771E-02  0.1285721E+00
          3   -1    0    0  501    0  0.00000000000E+00  0.00000000000E+00  0.28308086717E+03  0.28308086717E+03  0.00000000000E+00 0. -1.
         -3   -1    0    0    0  501 -0.00000000000E+00 -0.00000000000E+00 -0.37356559381E+02  0.37356559381E+02  0.00000000000E+00 0.  1.
         23    2    1    2    0    0  0.36746158292E+02 -0.12322034656E+02  0.70125582379E+02  0.11948652884E+03  0.88641528541E+02 0.  0.
         23    2    1    2    0    0 -0.36746158292E+02  0.12322034656E+02  0.17559872541E+03  0.20095089772E+03  0.89689677441E+02 0.  0.
          5    1    4    4  502    0 -0.47947177070E+02  0.40909499247E+02  0.14062540797E+03  0.15417559562E+03  0.47000000000E+01 0. -1.
         -5    1    3    3    0  503  0.44692110960E+02 -0.36353324306E+02  0.16674048647E+02  0.60158647496E+02  0.47000000000E+01 0.  1.
          5    1    3    3  503    0 -0.79459526683E+01  0.24031289650E+02  0.53451533733E+02  0.59327881341E+02  0.47000000000E+01 0. -1.
         -5    1    4    4    0  502  0.11201018778E+02 -0.28587464591E+02  0.34973317441E+02  0.46775302097E+02  0.47000000000E+01 0.  1.
<mgrwt>
<rscale>  0 0.97464221E+02</rscale>
<asrwt>0</asrwt>
<pdfrwt beam="1">  1        3 0.43550901E-01 0.97705429E+02</pdfrwt>
<pdfrwt beam="2">  1       -3 0.57471632E-02 0.97705429E+02</pdfrwt>
<totfact> 0.20685237E+03</totfact>
</mgrwt>
</event>
<event>
 7    1  0.3466492E-004  0.2051599E+03  0.7546771E-02  0.1167647E+00
          2   -1    0    0  501    0  0.00000000000E+00  0.00000000000E+00  0.30622004385E+03  0.30622004385E+03  0.00000000000E+00 0. -1.
         -2   -1    0    0    0  501 -0.00000000000E+00 -0.00000000000E+00 -0.13935635218E+03  0.13935635218E+03  0.00000000000E+00 0.  1.
         23    2    1    2    0    0 -0.80786836120E+02  0.32219572831E+01 -0.63135576207E+02  0.13737153474E+03  0.91367082010E+02 0.  0.
          5    1    3    3  502    0 -0.21125413655E+02 -0.41714652875E+02 -0.20845035259E+02  0.51410124115E+02  0.47000000000E+01 0. -1.
         -5    1    1    2    0  503  0.87757350549E+02  0.49325346346E+02  0.35963085528E+02  0.10700362558E+03  0.47000000000E+01 0.  1.
          5    1    1    2  503    0 -0.69705144289E+01 -0.52547303629E+02  0.19403618235E+03  0.20120123571E+03  0.47000000000E+01 0. -1.
         -5    1    3    3    0  502 -0.59661422465E+02  0.44936610158E+02 -0.42290540948E+02  0.85961410625E+02  0.47000000000E+01 0.  1.
<mgrwt>
<rscale>  0 0.18016164E+03</rscale>
<asrwt>0</asrwt>
<pdfrwt beam="1">  1        2 0.47110776E-01 0.20515987E+03</pdfrwt>
<pdfrwt beam="2">  1       -2 0.21439439E-01 0.20515987E+03</pdfrwt>
<totfact> 0.19728795E+03</totfact>
</mgrwt>
</event>
<event>
 8    1  0.3466492E-004  0.1785792E+03  0.7546771E-02  0.1169282E+00
         -3   -1    0    0    0  501 -0.00000000000E+00  0.00000000000E+00  0.12272858223E+04  0.12272858223E+04  0.00000000000E+00 0.  1.
          3   -1    0    0  501    0  0.00000000000E+00 -0.00000000000E+00 -0.27200942689E+02  0.27200942689E+02  0.00000000000E+00 0. -1.
         23    2    1    2    0    0  0.14445646182E+03  0.47786105182E+02  0.46494636505E+03  0.49806189266E+03  0.93484465786E+02 0.  0.
         23    2    1    2    0    0 -0.14445646182E+03 -0.47786105182E+02  0.73513851461E+03  0.75642487237E+03  0.92729556626E+02 0.  0.
          5    1    4    4  502    0 -0.12270861475E+03 -0.11482853208E+02  0.64563335607E+03  0.65730797996E+03  0.47000000000E+01 0. -1.
         -5    1    3    3    0  503  0.98371280845E+02  0.65296741298E+02  0.23731611051E+03  0.26510677024E+03  0.47000000000E+01 0.  1.
          5    1    3    3  503    0  0.46085180971E+02 -0.17510636117E+02  0.22763025454E+03  0.23295512243E+03  0.47000000000E+01 0. -1.
         -5    1    4    4    0  502 -0.21747847063E+02 -0.36303251973E+02  0.89505158539E+02  0.99116892409E+02  0.47000000000E+01 0.  1.
<mgrwt>
<rscale>  0 0.17848060E+03</rscale>
<asrwt>0</asrwt>
<pdfrwt beam="1">  1        3 0.41847614E-02 0.17857919E+03</pdfrwt>
<pdfrwt beam="2">  1       -3 0.18881316E+00 0.17857919E+03</pdfrwt>
<totfact> 0.13725322E+02</totfact>
</mgrwt>
</event>
<event>
 8    1  0.3466492E-004  0.1709399E+03  0.7546771E-02  0.1177041E+00
         -2   -1    0    0    0  501 -0.00000000000E+00  0.00000000000E+00  0.41633927852E+03  0.41633927852E+03  0.00000000000E+00 0.  1.
          2   -1    0    0  501    0  0.00000000000E+00 -0.00000000000E+00 -0.83975875242E+02  0.83975875242E+02  0.00000000000E+00 0. -1.
         23    2    1    2    0    0 -0.14356263300E+03  0.26310397802E+02  0.26881025031E+03  0.31855829946E+03  0.88982991980E+02 0.  0.
         23    2    1    2    0    0  0.14356263300E+03 -0.26310397802E+02  0.63553152974E+02  0.18175685430E+03  0.87715929037E+02 0.  0.
          5    1    4    4  502    0  0.54387599793E+02  0.40087552898E+01 -0.17436463520E+02  0.57447379316E+02  0.47000000000E+01 0. -1.
         -5    1    3    3    0  503 -0.10445761994E+03  0.48792978717E+02  0.23562785898E+03  0.26236373046E+03  0.47000000000E+01 0.  1.
          5    1    3    3  503    0 -0.39105013060E+02 -0.22482580914E+02  0.33182391326E+02  0.56194569000E+02  0.47000000000E+01 0. -1.
         -5    1    4    4    0  502  0.89175033205E+02 -0.30319153092E+02  0.80989616494E+02  0.12430947499E+03  0.47000000000E+01 0.  1.
<mgrwt>
<rscale>  0 0.17077560E+03</rscale>
<asrwt>0</asrwt>
<pdfrwt beam="1">  1        2 0.12919366E-01 0.17093987E+03</pdfrwt>
<pdfrwt beam="2">  1       -2 0.64052195E-01 0.17093987E+03</pdfrwt>
<totfact> 0.10609233E+03</totfact>
</mgrwt>
</event>
<event>
 7    1  0.3466492E-004  0.2335572E+03  0.7546771E-02  0.1128424E+00
          1   -1    0    0  501    0  0.00000000000E+00  0.00000000000E+00  0.83346657087E+03  0.83346657087E+03  0.00000000000E+00 0. -1.
         -1   -1    0    0    0  501 -0.00000000000E+00 -0.00000000000E+00 -0.68687825915E+02  0.68687825915E+02  0.00000000000E+00 0.  1.
         23    2    1    2    0    0  0.86770086425E+02 -0.16850865253E+03  0.53371475400E+03  0.57361285585E+03  0.90862841043E+02 0.  0.
          5    1    3    3  502    0  0.10549473722E+03 -0.13811283703E+03  0.42955927858E+03  0.46340863085E+03  0.47000000000E+01 0. -1.
         -5    1    1    2    0  503 -0.12171231142E+03  0.12424664980E+03  0.19547014243E+03  0.26169024307E+03  0.47000000000E+01 0.  1.
          5    1    1    2  503    0  0.34942224999E+02  0.44262002723E+02  0.35593848527E+02  0.66851297863E+02  0.47000000000E+01 0. -1.
         -5    1    3    3    0  502 -0.18724650795E+02 -0.30395815492E+02  0.10415547542E+03  0.11020422500E+03  0.47000000000E+01 0.  1.
<mgrwt>
<rscale>  0 0.22748278E+03</rscale>
<asrwt>0</asrwt>
<pdfrwt beam="1">  1        1 0.12822562E+00 0.23355722E+03</pdfrwt>
<pdfrwt beam="2">  1       -1 0.10567358E-01 0.23355722E+03</pdfrwt>
<totfact> 0.12097258E+03</totfact>
</mgrwt>
</event>
<event>
 8    1  0.3466492E-004  0.1145195E+03  0.7546771E-02  0.1252646E+00
         -2   -1    0    0    0  501 -0.00000000000E+00  0.00000000000E+00  0.18983574706E+03  0.18983574706E+03  0.00000000000E+00 0.  1.
          2   -1    0    0  501    0  0.00000000000E+00 -0.00000000000E+00 -0.69310753686E+02  0.69310753686E+02  0.00000000000E+00 0. -1.
         23    2    1    2    0    0 -0.46112155424E+02  0.48132254906E+02  0.48766135401E+02  0.12400198820E+03  0.92494931084E+02 0.  0.
         23    2    1    2    0    0  0.46112155424E+02 -0.48132254906E+02  0.71758857977E+02  0.13514451255E+03  0.93121752201E+02 0.  0.
          5    1    3    3  502    0 -0.53071114240E+02 -0.10715210808E+02  0.27150458252E+02  0.60750278128E+02  0.47000000000E+01 0. -1.
         -5    1    4    4    0  503  0.24319295778E+02 -0.71187670467E+02  0.70253837285E+02  0.10303787763E+03  0.47000000000E+01 0.  1.
          5    1    4    4  503    0  0.21792859645E+02  0.23055415561E+02  0.15050206915E+01  0.32106634914E+02  0.47000000000E+01 0. -1.
         -5    1    3    3    0  502  0.69589588163E+01  0.58847465714E+02  0.21615677149E+02  0.63251710075E+02  0.47000000000E+01 0.  1.
<mgrwt>
<rscale>  0 0.11439196E+03</rscale>
<asrwt>0</asrwt>
<pdfrwt beam="1">  1        2 0.10663193E-01 0.11451945E+03</pdfrwt>
<pdfrwt beam="2">  1       -2 0.29205499E-01 0.11451945E+03</pdfrwt>
<totfact> 0.59435720E+03</totfact>
</mgrwt>
</event>
<event>
 8    1  0.3466492E-004  0.1209526E+03  0.7546771E-02  0.1243194E+00
         -1   -1    0    0    0  501 -0.00000000000E+00  0.00000000000E+00  0.35581854952E+02  0.35581854952E+02  0.00000000000E+00 0.  1.
          1   -1    0    0  501    0  0.00000000000E+00 -0.00000000000E+00 -0.40894736841E+03  0.40894736841E+03  0.00000000000E+00 0. -1.
         23    2    1    2    0    0 -0.34957760347E+02 -0.67113846141E+02 -0.22051958402E+03  0.24961539624E+03  0.89177607895E+02 0.  0.
         23    2    1    2    0    0  0.34957760347E+02  0.67113846141E+02 -0.15284592943E+03  0.19491382712E+03  0.94356814839E+02 0.  0.
          5    1    3    3  502    0 -0.42750287907E+01 -0.21379681335E+02 -0.17925659283E+03  0.18063881841E+03  0.47000000000E+01 0. -1.
         -5    1    3    3    0  502 -0.30682731556E+02 -0.45734164806E+02 -0.41262991192E+02  0.68976577824E+02  0.47000000000E+01 0.  1.
          5    1    4    4  503    0 -0.25174043167E+02  0.44514628531E+02 -0.96597727912E+02  0.10940061993E+03  0.47000000000E+01 0. -1.
         -5    1    4    4    0  503  0.60131803513E+02  0.22599217610E+02 -0.56248201523E+02  0.85513207196E+02  0.47000000000E+01 0.  1.
<mgrwt>
<rscale>  0 0.11994107E+03</rscale>
<asrwt>0</asrwt>
<pdfrwt beam="1">  1        1 0.62914983E-01 0.12095256E+03</pdfrwt>
<pdfrwt beam="2">  1       -1 0.54741312E-02 0.12095256E+03</pdfrwt>
<totfact> 0.85350919E+03</totfact>
</mgrwt>
</event>
<event>
 8    1  0.3466492E-004  0.9343185E+02  0.7546771E-02  0.1295215E+00
          2   -1    0    0  501    0  0.00000000000E+00  0.00000000000E+00  0.21144819643E+03  0.21144819643E+03  0.00000000000E+00 0. -1.
         -2   -1    0    0    0  501 -0.00000000000E+00 -0.00000000000E+00 -0.56413224391E+02  0.56413224391E+02  0.00000000000E+00 0.  1.
         23    2    1    2    0    0  0.21620767750E+02 -0.11259941488E+02  0.71044343544E+01  0.92895840342E+02  0.89358381168E+02 0.  0.
         23    2    1    2    0    0 -0.21620767750E+02  0.11259941488E+02  0.14793053768E+03  0.17496558047E+03  0.90195712158E+02 0.  0.
          5    1    4    4  502    0  0.23151874399E+02  0.15526363450E+02  0.11653545868E+03  0.11991530503E+03  0.47000000000E+01 0. -1.
         -5    1    4    4    0  502 -0.44772642149E+02 -0.42664219617E+01  0.31395079004E+02  0.55050275449E+02  0.47000000000E+01 0.  1.
          5    1    3    3  503    0 -0.26333605033E+02  0.21102757140E+02  0.73330876554E+01  0.34851818998E+02  0.47000000000E+01 0. -1.
         -5    1    3    3    0  503  0.47954372783E+02 -0.32362698628E+02 -0.22865330100E+00  0.58044021344E+02  0.47000000000E+01 0.  1.
<mgrwt>
<rscale>  0 0.93229172E+02</rscale>
<asrwt>0</asrwt>
<pdfrwt beam="1">  1        2 0.32530491E-01 0.93431849E+02</pdfrwt>
<pdfrwt beam="2">  1       -2 0.86789577E-02 0.93431849E+02</pdfrwt>
<totfact> 0.12118493E+04</totfact>
</mgrwt>
</event>
<event>
 8    1  0.3466492E-004  0.9485460E+02  0.7546771E-02  0.1293503E+00
          3   -1    0    0  501    0  0.00000000000E+00  0.00000000000E+00  0.51416712246E+03  0.51416712246E+03  0.00000000000E+00 0. -1.
         -3   -1    0    0    0  501 -0.00000000000E+00 -0.00000000000E+00 -0.60789564028E+02  0.60789564028E+02  0.00000000000E+00 0.  1.
         23    2    1    2    0    0  0.16132168710E+02 -0.16987845151E+02 -0.16496924774E+02  0.96278467447E+02  0.91916054184E+02 0.  0.
         23    2    1    2    0    0 -0.16132168710E+02  0.16987845151E+02  0.46987448321E+03  0.47867821904E+03  0.88328781646E+02 0.  0.
          5    1    4    4  502    0  0.27886848833E+02  0.30615716047E+02  0.28790257006E+03  0.29090372677E+03  0.47000000000E+01 0. -1.
         -5    1    4    4    0  502 -0.44019017544E+02 -0.13627870895E+02  0.18197191315E+03  0.18777449227E+03  0.47000000000E+01 0.  1.
          5    1    3    3  503    0 -0.23361716578E+02  0.22588342081E+02  0.98672370485E+01  0.34284914560E+02  0.47000000000E+01 0. -1.
         -5    1    3    3    0  503  0.39493885288E+02 -0.39576187232E+02 -0.26364161822E+02  0.61993552887E+02  0.47000000000E+01 0.  1.
<mgrwt>
<rscale>  0 0.93974462E+02</rscale>
<asrwt>0</asrwt>
<pdfrwt beam="1">  1        3 0.79102632E-01 0.94854598E+02</pdfrwt>
<pdfrwt beam="2">  1       -3 0.93522409E-02 0.94854598E+02</pdfrwt>
<totfact> 0.27941739E+02</totfact>
</mgrwt>
</event>
<event>
 8    1  0.3466492E-004  0.9642572E+02  0.7546771E-02  0.1288791E+00
         -1   -1    0    0    0  501 -0.00000000000E+00  0.00000000000E+00  0.68892872872E+02  0.68892872872E+02  0.00000000000E+00 0.  1.
          1   -1    0    0  501    0  0.00000000000E+00 -0.00000000000E+00 -0.26326461631E+03  0.26326461631E+03  0.00000000000E+00 0. -1.
         23    2    1    2    0    0  0.90794438286E+01 -0.24353253429E+02  0.19283124905E+02  0.98334929589E+02  0.92856891065E+02 0.  0.
         23    2    1    2    0    0 -0.90794438286E+01  0.24353253429E+02 -0.21365486834E+03  0.23382255959E+03  0.91373242008E+02 0.  0.
          5    1    4    4  502    0 -0.48630545433E+02  0.16727735552E+01 -0.10131990453E+03  0.11249684962E+03  0.47000000000E+01 0. -1.
         -5    1    4    4    0  502  0.39551101605E+02  0.22680479874E+02 -0.11233496381E+03  0.12132570997E+03  0.47000000000E+01 0.  1.
          5    1    3    3  503    0  0.17356315514E+01  0.28245658244E+02 -0.17461264314E+02  0.33582962614E+02  0.47000000000E+01 0. -1.
         -5    1    3    3    0  503  0.73438122772E+01 -0.52598911673E+02  0.36744389219E+02  0.64751966974E+02  0.47000000000E+01 0.  1.
<mgrwt>
<rscale>  0 0.96066746E+02</rscale>
<asrwt>0</asrwt>
<pdfrwt beam="1">  1        1 0.40502249E-01 0.96425720E+02</pdfrwt>
<pdfrwt beam="2">  1       -1 0.10598904E-01 0.96425720E+02</pdfrwt>
<totfact> 0.53831392E+03</totfact>
</mgrwt>
</event>
<event>
 8    1  0.3466492E-004  0.1030294E+03  0.7546771E-02  0.1276870E+00
          1   -1    0    0  501    0  0.00000000000E+00  0.00000000000E+00  0.73615771802E+03  0.73615771802E+03  0.00000000000E+00 0. -1.
         -1   -1    0    0    0  501 -0.00000000000E+00 -0.00000000000E+00 -0.37193644998E+02  0.37193644998E+02  0.00000000000E+00 0.  1.
         23    2    1    2    0    0 -0.31728183703E+02  0.97818094497E+01  0.66041815944E+03  0.66840647216E+03  0.97533098331E+02 0.  0.
         23    2    1    2    0    0  0.31728183703E+02 -0.97818094497E+01  0.38545913575E+02  0.10494489085E+03  0.91789330671E+02 0.  0.
          5    1    4    4  502    0  0.85352614289E+01  0.30161192884E+02  0.48043056381E+02  0.57556698222E+02  0.47000000000E+01 0. -1.
         -5    1    3    3    0  503 -0.32372635206E+02  0.44938549295E+02  0.54051355583E+03  0.54336401680E+03  0.47000000000E+01 0.  1.
          5    1    3    3  503    0  0.64445150344E+00 -0.35156739845E+02  0.11990460362E+03  0.12504245536E+03  0.47000000000E+01 0. -1.
         -5    1    4    4    0  502  0.23192922274E+02 -0.39943002333E+02 -0.94971428064E+01  0.47388192627E+02  0.47000000000E+01 0.  1.
<mgrwt>
<rscale>  0 0.10164692E+03</rscale>
<asrwt>0</asrwt>
<pdfrwt beam="1">  1        1 0.11325502E+00 0.10302945E+03</pdfrwt>
<pdfrwt beam="2">  1       -1 0.57220998E-02 0.10302945E+03</pdfrwt>
<totfact> 0.36235022E+03</totfact>
</mgrwt>
</event>
<event>
 8    1  0.3466492E-004  0.9866349E+02  0.7546771E-02  0.1288912E+00
         -1   -1    0    0    0  501 -0.00000000000E+00  0.00000000000E+00  0.46780737663E+03  0.46780737663E+03  0.00000000000E+00 0.  1.
          1   -1    0    0  501    0  0.00000000000E+00 -0.00000000000E+00 -0.19384351930E+02  0.19384351930E+02  0.00000000000E+00 0. -1.
         23    2    1    2    0    0 -0.42169774490E+01 -0.23774599279E+02  0.25758937897E+03  0.27236164550E+03  0.85120874693E+02 0.  0.
         23    2    1    2    0    0  0.42169774490E+01  0.23774599279E+02  0.19083364573E+03  0.21483008307E+03  0.95663314693E+02 0.  0.
          5    1    3    3  502    0  0.23378883648E+02 -0.21662725314E+02  0.33342436669E+02  0.46364360792E+02  0.47000000000E+01 0. -1.
         -5    1    3    3    0  502 -0.27595861097E+02 -0.21118739652E+01  0.22424694231E+03  0.22599728471E+03  0.47000000000E+01 0.  1.
          5    1    4    4  503    0 -0.38490862660E+02  0.16568171294E+02  0.14739610928E+03  0.15330934036E+03  0.47000000000E+01 0. -1.
         -5    1    4    4    0  503  0.42707840109E+02  0.72064279854E+01  0.43437536445E+02  0.61520742709E+02  0.47000000000E+01 0.  1.
<mgrwt>
<rscale>  0 0.96012486E+02</rscale>
<asrwt>0</asrwt>
<pdfrwt beam="1">  1        1 0.29822083E-02 0.98663490E+02</pdfrwt>
<pdfrwt beam="2">  1       -1 0.71970357E-01 0.98663490E+02</pdfrwt>
<totfact> 0.64425174E+03</totfact>
</mgrwt>
</event>
<event>
 8    1  0.3466492E-004  0.1189311E+03  0.7546771E-02  0.1246482E+00
          1   -1    0    0  501    0  0.00000000000E+00  0.00000000000E+00  0.58497122669E+03  0.58497122669E+03  0.00000000000E+00 0. -1.
         -1   -1    0    0    0  501 -0.00000000000E+00 -0.00000000000E+00 -0.24294765645E+02  0.24294765645E+02  0.00000000000E+00 0.  1.
         23    2    1    2    0    0 -0.71855517903E+02  0.26055098576E+01  0.33393068087E+03  0.35322252931E+03  0.89924698803E+02 0.  0.
         23    2    1    2    0    0  0.71855517903E+02 -0.26055098576E+01  0.22674578018E+03  0.25604346302E+03  0.94734375984E+02 0.  0.
          5    1    4    4  502    0  0.56958529661E+02 -0.18067533322E+02  0.22625363858E+03  0.23405877218E+03  0.47000000000E+01 0. -1.
         -5    1    3    3    0  503 -0.84638392552E+02 -0.21177513005E+02  0.24181265165E+03  0.25711396899E+03  0.47000000000E+01 0.  1.
          5    1    3    3  503    0  0.12782874649E+02  0.23783022862E+02  0.92118029219E+02  0.96108560326E+02  0.47000000000E+01 0. -1.
         -5    1    4    4    0  502  0.14896988241E+02  0.15462023464E+02  0.49214159782E+00  0.21984690847E+02  0.47000000000E+01 0.  1.
<mgrwt>
<rscale>  0 0.11797093E+03</rscale>
<asrwt>0</asrwt>
<pdfrwt beam="1">  1        1 0.89995563E-01 0.11893110E+03</pdfrwt>
<pdfrwt beam="2">  1       -1 0.37376567E-02 0.11893110E+03</pdfrwt>
<totfact> 0.93920830E+03</totfact>
</mgrwt>
</event>
<event>
 8    1  0.3466492E-004  0.9538110E+02  0.7546771E-02  0.1293299E+00
         -2   -1    0    0    0  501 -0.00000000000E+00  0.00000000000E+00  0.26893772917E+03  0.26893772917E+03  0.00000000000E+00 0.  1.
          2   -1    0    0  501    0  0.00000000000E+00 -0.00000000000E+00 -0.32086116786E+02  0.32086116786E+02  0.00000000000E+00 0. -1.
         23    2    1    2    0    0  0.15786841478E+02  0.65352876310E+01  0.12843051438E+03  0.15997484459E+03  0.93838262605E+02 0.  0.
         23    2    1    2    0    0 -0.15786841478E+02 -0.65352876310E+01  0.10842109800E+03  0.14104900137E+03  0.88587538325E+02 0.  0.
          5    1    4    4  502    0 -0.11713731062E+02 -0.45996031481E+02  0.42062793550E+02  0.63594142880E+02  0.47000000000E+01 0. -1.
         -5    1    4    4    0  502 -0.40731104159E+01  0.39460743850E+02  0.66358304450E+02  0.77454858486E+02  0.47000000000E+01 0.  1.
          5    1    3    3  503    0 -0.33750491859E+02  0.24594803065E+02  0.64355898297E+02  0.76862030185E+02  0.47000000000E+01 0. -1.
         -5    1    3    3    0  503  0.49537333337E+02 -0.18059515434E+02  0.64074616085E+02  0.83112814404E+02  0.47000000000E+01 0.  1.
<mgrwt>
<rscale>  0 0.94063838E+02</rscale>
<asrwt>0</asrwt>
<pdfrwt beam="1">  1        2 0.49363259E-02 0.95381098E+02</pdfrwt>
<pdfrwt beam="2">  1       -2 0.41375034E-01 0.95381098E+02</pdfrwt>
<totfact> 0.81160334E+03</totfact>
</mgrwt>
</event>
<event>
 7    1  0.3466492E-004  0.1366174E+03  0.7546771E-02  0.1237006E+00
          2   -1    0    0  501    0  0.00000000000E+00  0.00000000000E+00  0.46589924919E+03  0.46589924919E+03  0.00000000000E+00 0. -1.
         -2   -1    0    0    0  501 -0.00000000000E+00 -0.00000000000E+00 -0.32918743074E+02  0.32918743074E+02  0.00000000000E+00 0.  1.
         23    2    1    2    0    0  0.13768036177E+02  0.18287294744E+01  0.86189273473E+02  0.12608688747E+03  0.90974772642E+02 0.  0.
          5    1    1    2  502    0  0.21929826162E+02 -0.57955146319E+02  0.22996481008E+03  0.23821339201E+03  0.47000000000E+01 0. -1.
         -5    1    3    3    0  503 -0.30552668766E+02  0.61786123989E+01  0.72823845434E+02  0.79353911584E+02  0.47000000000E+01 0.  1.
          5    1    3    3  503    0  0.44320704943E+02 -0.43498829246E+01  0.13365428039E+02  0.46732975882E+02  0.47000000000E+01 0. -1.
         -5    1    1    2    0  502 -0.35697862340E+02  0.56126416845E+02  0.11682642256E+03  0.13451771278E+03  0.47000000000E+01 0.  1.
<mgrwt>
<rscale>  0 0.12376862E+03</rscale>
<asrwt>0</asrwt>
<pdfrwt beam="1">  1        2 0.71676803E-01 0.13661741E+03</pdfrwt>
<pdfrwt beam="2">  1       -2 0.50644223E-02 0.13661741E+03</pdfrwt>
<totfact> 0.12273378E+04</totfact>
</mgrwt>
</event>
<event>
 8    1  0.3466492E-004  0.1342208E+03  0.7546771E-02  0.1222873E+00
          1   -1    0    0  501    0  0.00000000000E+00  0.00000000000E+00  0.32200152222E+03  0.32200152222E+03  0.00000000000E+00 0. -1.
         -1   -1    0    0    0  501 -0.00000000000E+00 -0.00000000000E+00 -0.54866666274E+02  0.54866666274E+02  0.00000000000E+00 0.  1.
         23    2    1    2    0    0 -0.79518879527E+02 -0.47833311266E+02  0.11458871038E+03  0.17648171454E+03  0.96973940583E+02 0.  0.
         23    2    1    2    0    0  0.79518879527E+02  0.47833311266E+02  0.15254614557E+03  0.20038647396E+03  0.90956772971E+02 0.  0.
          5    1    3    3  502    0 -0.33958158668E+02  0.28513450333E+02  0.46264750073E+02  0.64254886891E+02  0.47000000000E+01 0. -1.
         -5    1    3    3    0  502 -0.45560720859E+02 -0.76346761599E+02  0.68323960304E+02  0.11222682765E+03  0.47000000000E+01 0.  1.
          5    1    4    4  503    0  0.26267544518E+02  0.53588698614E+02  0.12794626311E+03  0.14125887143E+03  0.47000000000E+01 0.  1.
         -5    1    4    4    0  503  0.53251335009E+02 -0.57553873482E+01  0.24599882463E+02  0.59127602530E+02  0.47000000000E+01 0. -1.
<mgrwt>
<rscale>  0 0.13313757E+03</rscale>
<asrwt>0</asrwt>
<pdfrwt beam="1">  1        1 0.49538695E-01 0.13422080E+03</pdfrwt>
<pdfrwt beam="2">  1       -1 0.84410258E-02 0.13422080E+03</pdfrwt>
<totfact> 0.60619858E+03</totfact>
</mgrwt>
</event>
<event>
 8    1  0.3466492E-004  0.9720223E+02  0.7546771E-02  0.1289702E+00
          1   -1    0    0  501    0  0.00000000000E+00  0.00000000000E+00  0.24910730701E+03  0.24910730701E+03  0.00000000000E+00 0. -1.
         -1   -1    0    0    0  501 -0.00000000000E+00 -0.00000000000E+00 -0.43016193728E+02  0.43016193728E+02  0.00000000000E+00 0.  1.
         23    2    1    2    0    0  0.10473515674E+02 -0.29947712937E+02  0.16635538184E+03  0.19267170882E+03  0.91878802074E+02 0.  0.
         23    2    1    2    0    0 -0.10473515674E+02  0.29947712937E+02  0.39735731449E+02  0.99451791927E+02  0.85470290294E+02 0.  0.
          5    1    3    3  502    0  0.28588483765E+02  0.14321896353E+02  0.12548813889E+03  0.12958310507E+03  0.47000000000E+01 0. -1.
         -5    1    3    3    0  502 -0.18114968091E+02 -0.44269609290E+02  0.40867242950E+02  0.63088603741E+02  0.47000000000E+01 0.  1.
          5    1    4    4  503    0  0.26751817130E+02 -0.16207836342E+02  0.15469319456E+02  0.35209991807E+02  0.47000000000E+01 0. -1.
         -5    1    4    4    0  503 -0.37225332804E+02  0.46155549279E+02  0.24266411993E+02  0.64241800120E+02  0.47000000000E+01 0.  1.
<mgrwt>
<rscale>  0 0.95657410E+02</rscale>
<asrwt>0</asrwt>
<pdfrwt beam="1">  1        1 0.38324200E-01 0.97202234E+02</pdfrwt>
<pdfrwt beam="2">  1       -1 0.66178761E-02 0.97202234E+02</pdfrwt>
<totfact> 0.11674274E+04</totfact>
</mgrwt>
</event>
<event>
 8    1  0.3466492E-004  0.9425193E+02  0.7546771E-02  0.1293875E+00
          2   -1    0    0  501    0  0.00000000000E+00  0.00000000000E+00  0.45418232536E+03  0.45418232536E+03  0.00000000000E+00 0. -1.
         -2   -1    0    0    0  501 -0.00000000000E+00 -0.00000000000E+00 -0.19308566174E+02  0.19308566174E+02  0.00000000000E+00 0.  1.
         23    2    1    2    0    0 -0.15736236869E+02 -0.18438216377E+02  0.23331940056E+03  0.25098788878E+03  0.89271387711E+02 0.  0.
         23    2    1    2    0    0  0.15736236869E+02  0.18438216377E+02  0.20155435863E+03  0.22250300275E+03  0.91081445853E+02 0.  0.
          5    1    4    4  502    0  0.32057789451E+02 -0.29224196511E+02  0.91014836855E+02  0.10093337433E+03  0.47000000000E+01 0. -1.
         -5    1    4    4    0  502 -0.16321552582E+02  0.47662412888E+02  0.11053952177E+03  0.12156962842E+03  0.47000000000E+01 0.  1.
          5    1    3    3  503    0 -0.20937749277E+02 -0.50585371346E+02  0.18123020981E+03  0.18937726392E+03  0.47000000000E+01 0. -1.
         -5    1    3    3    0  503  0.52015124087E+01  0.32147154968E+02  0.52089190745E+02  0.61610624866E+02  0.47000000000E+01 0.  1.
<mgrwt>
<rscale>  0 0.93811860E+02</rscale>
<asrwt>0</asrwt>
<pdfrwt beam="1">  1        2 0.69874196E-01 0.94251932E+02</pdfrwt>
<pdfrwt beam="2">  1       -2 0.29705490E-02 0.94251932E+02</pdfrwt>
<totfact> 0.26831440E+04</totfact>
</mgrwt>
</event>
<event>
 8    1  0.3466492E-004  0.1863263E+03  0.7546771E-02  0.1162091E+00
          2   -1    0    0  501    0  0.00000000000E+00  0.00000000000E+00  0.14498869443E+04  0.14498869443E+04  0.00000000000E+00 0. -1.
         -2   -1    0    0    0  501 -0.00000000000E+00 -0.00000000000E+00 -0.39498170459E+02  0.39498170459E+02  0.00000000000E+00 0.  1.
         23    2    1    2    0    0  0.38438606525E+02 -0.15721593987E+03  0.23427502192E+03  0.29860342590E+03  0.89915748582E+02 0.  0.
         23    2    1    2    0    0 -0.38438606525E+02  0.15721593987E+03  0.11761137519E+04  0.11907816888E+04  0.92320608918E+02 0.  0.
          5    1    4    4  502    0  0.20021670814E+01  0.14163898433E+03  0.84365370571E+03  0.85547605210E+03  0.47000000000E+01 0. -1.
         -5    1    4    4    0  502 -0.40440773607E+02  0.15576955543E+02  0.33246004618E+03  0.33530563672E+03  0.47000000000E+01 0.  1.
          5    1    3    3  503    0 -0.12936413773E+02 -0.37679027770E+02  0.11587839971E+03  0.12262525619E+03  0.47000000000E+01 0. -1.
         -5    1    3    3    0  503  0.51375020299E+02 -0.11953691210E+03  0.11839662220E+03  0.17597816971E+03  0.47000000000E+01 0.  1.
<mgrwt>
<rscale>  0 0.18603061E+03</rscale>
<asrwt>0</asrwt>
<pdfrwt beam="1">  1        2 0.22305949E+00 0.18632625E+03</pdfrwt>
<pdfrwt beam="2">  1       -2 0.60766427E-02 0.18632625E+03</pdfrwt>
<totfact> 0.21093577E+03</totfact>
</mgrwt>
</event>
<event>
 8    1  0.3466492E-004  0.9229946E+02  0.7546771E-02  0.1297764E+00
         -1   -1    0    0    0  501 -0.00000000000E+00  0.00000000000E+00  0.11468651054E+03  0.11468651054E+03  0.00000000000E+00 0.  1.
          1   -1    0    0  501    0  0.00000000000E+00 -0.00000000000E+00 -0.95804450621E+02  0.95804450621E+02  0.00000000000E+00 0. -1.
         23    2    1    2    0    0  0.84149912396E+01 -0.13940300073E+02  0.59907246447E+02  0.10948474355E+03  0.90182519641E+02 0.  0.
         23    2    1    2    0    0 -0.84149912396E+01  0.13940300073E+02 -0.41025186532E+02  0.10100621761E+03  0.90851780512E+02 0.  0.
          5    1    4    4  502    0  0.22441015730E+02  0.42836064735E+02 -0.29870093409E+02  0.57033675221E+02  0.47000000000E+01 0. -1.
         -5    1    4    4    0  502 -0.30856006969E+02 -0.28895764662E+02 -0.11155093123E+02  0.43972542389E+02  0.47000000000E+01 0.  1.
          5    1    3    3  503    0  0.24582359661E+01 -0.44707985381E+02  0.39718287790E+01  0.45196374907E+02  0.47000000000E+01 0. -1.
         -5    1    3    3    0  503  0.59567552735E+01  0.30767685308E+02  0.55935417668E+02  0.64288368639E+02  0.47000000000E+01 0.  1.
<mgrwt>
<rscale>  0 0.92134344E+02</rscale>
<asrwt>0</asrwt>
<pdfrwt beam="1">  1        1 0.14739146E-01 0.92299459E+02</pdfrwt>
<pdfrwt beam="2">  1       -1 0.17644079E-01 0.92299459E+02</pdfrwt>
<totfact> 0.86069336E+03</totfact>
</mgrwt>
</event>
<event>
 8    1  0.3466492E-004  0.1140985E+03  0.7546771E-02  0.1263789E+00
         -2   -1    0    0    0  501 -0.00000000000E+00  0.00000000000E+00  0.37083340424E+03  0.37083340424E+03  0.00000000000E+00 0.  1.
          2   -1    0    0  501    0  0.00000000000E+00 -0.00000000000E+00 -0.34828486412E+02  0.34828486412E+02  0.00000000000E+00 0. -1.
         23    2    1    2    0    0 -0.12855314929E+02  0.15822946453E+02  0.98392307098E+02  0.15066361301E+03  0.11226243109E+03 0.  0.
         23    2    1    2    0    0  0.12855314929E+02 -0.15822946453E+02  0.23761261073E+03  0.25499827764E+03  0.90270394173E+02 0.  0.
          5    1    3    3  502    0  0.28171109940E+02  0.30016053061E+02 -0.16933809610E+01  0.41467245094E+02  0.47000000000E+01 0. -1.
         -5    1    3    3    0  502 -0.41026424868E+02 -0.14193106608E+02  0.10008568806E+03  0.10919636792E+03  0.47000000000E+01 0.  1.
          5    1    4    4  503    0  0.13368987003E+02 -0.51670372702E+02  0.17110188569E+03  0.17929445757E+03  0.47000000000E+01 0. -1.
         -5    1    4    4    0  503 -0.51367207423E+00  0.35847426249E+02  0.66510725049E+02  0.75703820077E+02  0.47000000000E+01 0.  1.
<mgrwt>
<rscale>  0 0.10827969E+03</rscale>
<asrwt>0</asrwt>
<pdfrwt beam="1">  1        2 0.53582289E-02 0.11409855E+03</pdfrwt>
<pdfrwt beam="2">  1       -2 0.57051290E-01 0.11409855E+03</pdfrwt>
<totfact> 0.39554223E+03</totfact>
</mgrwt>
</event>
<event>
 8    1  0.3466492E-004  0.1403900E+03  0.7546771E-02  0.1214430E+00
          1   -1    0    0  501    0  0.00000000000E+00  0.00000000000E+00  0.10266016776E+03  0.10266016776E+03  0.00000000000E+00 0. -1.
         -1   -1    0    0    0  501 -0.00000000000E+00 -0.00000000000E+00 -0.24175762483E+03  0.24175762483E+03  0.00000000000E+00 0.  1.
         23    2    1    2    0    0  0.10341835023E+02  0.99716850177E+02  0.14408944164E+02  0.13639481407E+03  0.91353838845E+02 0.  0.
         23    2    1    2    0    0 -0.10341835023E+02 -0.99716850177E+02 -0.15350640123E+03  0.20802297852E+03  0.98279909517E+02 0.  0.
          5    1    4    4  502    0  0.38109038104E+02 -0.20464852540E+02 -0.73138163326E+02  0.85102232106E+02  0.47000000000E+01 0. -1.
         -5    1    3    3    0  503 -0.23732536378E+02  0.69307892851E+02  0.40240828430E+02  0.83715181222E+02  0.47000000000E+01 0.  1.
          5    1    3    3  503    0  0.34074371400E+02  0.30408957326E+02 -0.25831884266E+02  0.52679632845E+02  0.47000000000E+01 0. -1.
         -5    1    4    4    0  502 -0.48450873127E+02 -0.79251997637E+02 -0.80368237903E+02  0.12292074642E+03  0.47000000000E+01 0.  1.
<mgrwt>
<rscale>  0 0.13918495E+03</rscale>
<asrwt>0</asrwt>
<pdfrwt beam="1">  1        1 0.15793872E-01 0.14038997E+03</pdfrwt>
<pdfrwt beam="2">  1       -1 0.37193481E-01 0.14038997E+03</pdfrwt>
<totfact> 0.23760182E+03</totfact>
</mgrwt>
</event>
<event>
 8    1  0.3466492E-004  0.1108971E+03  0.7546771E-02  0.1261983E+00
         -1   -1    0    0    0  501 -0.00000000000E+00  0.00000000000E+00  0.36025715050E+03  0.36025715050E+03  0.00000000000E+00 0.  1.
          1   -1    0    0  501    0  0.00000000000E+00 -0.00000000000E+00 -0.34581956592E+02  0.34581956592E+02  0.00000000000E+00 0. -1.
         23    2    1    2    0    0  0.66946450455E+01  0.54034838500E+02  0.10618164964E+03  0.14892128861E+03  0.89097841938E+02 0.  0.
         23    2    1    2    0    0 -0.66946450455E+01 -0.54034838500E+02  0.21949354427E+03  0.24591781848E+03  0.96610431247E+02 0.  0.
          5    1    4    4  502    0 -0.46348826046E+02 -0.38720469098E+01  0.89556691970E+02  0.10102325227E+03  0.47000000000E+01 0. -1.
         -5    1    3    3    0  503  0.39929952658E+02  0.16903050573E+02  0.17311190128E+02  0.46924210613E+02  0.47000000000E+01 0.  1.
          5    1    3    3  503    0 -0.33235307613E+02  0.37131787926E+02  0.88870459513E+02  0.10199707800E+03  0.47000000000E+01 0. -1.
         -5    1    4    4    0  502  0.39654181000E+02 -0.50162791590E+02  0.12993685230E+03  0.14489456620E+03  0.47000000000E+01 0.  1.
<mgrwt>
<rscale>  0 0.10924041E+03</rscale>
<asrwt>0</asrwt>
<pdfrwt beam="1">  1        1 0.53203013E-02 0.11089706E+03</pdfrwt>
<pdfrwt beam="2">  1       -1 0.55424174E-01 0.11089706E+03</pdfrwt>
<totfact> 0.48616829E+03</totfact>
</mgrwt>
</event>
<event>
 8    1  0.3466492E-004  0.2695981E+03  0.7546771E-02  0.1101527E+00
         -2   -1    0    0    0  501 -0.00000000000E+00  0.00000000000E+00  0.50842934067E+02  0.50842934067E+02  0.00000000000E+00 0.  1.
          2   -1    0    0  501    0  0.00000000000E+00 -0.00000000000E+00 -0.15925547705E+04  0.15925547705E+04  0.00000000000E+00 0. -1.
         23    2    1    2    0    0  0.15816925784E+03 -0.19768039685E+03 -0.50732567681E+03  0.57445529385E+03  0.92328158533E+02 0.  0.
         23    2    1    2    0    0 -0.15816925784E+03  0.19768039685E+03 -0.10343861596E+04  0.10689424107E+04  0.92671984896E+02 0.  0.
          5    1    4    4  502    0 -0.51830874542E+02  0.13338779737E+03 -0.61889737491E+03  0.63524388601E+03  0.47000000000E+01 0. -1.
         -5    1    4    4    0  502 -0.10633838330E+03  0.64292599482E+02 -0.41548878473E+03  0.43369852473E+03  0.47000000000E+01 0.  1.
          5    1    3    3  503    0  0.35409281263E+02 -0.33751583886E+02 -0.19383288632E+03  0.19996565814E+03  0.47000000000E+01 0. -1.
         -5    1    3    3    0  503  0.12275997658E+03 -0.16392881296E+03 -0.31349279049E+03  0.37448963571E+03  0.47000000000E+01 0.  1.
<mgrwt>
<rscale>  0 0.26956862E+03</rscale>
<asrwt>0</asrwt>
<pdfrwt beam="1">  1        2 0.24500839E+00 0.26959813E+03</pdfrwt>
<pdfrwt beam="2">  1       -2 0.78219911E-02 0.26959813E+03</pdfrwt>
<totfact> 0.11940799E+03</totfact>
</mgrwt>
</event>
<event>
 8    1  0.3466492E-004  0.9617868E+02  0.7546771E-02  0.1288630E+00
         -4   -1    0    0    0  501 -0.00000000000E+00  0.00000000000E+00  0.11442621511E+04  0.11442621511E+04  0.00000000000E+00 0.  1.
          4   -1    0    0  501    0  0.00000000000E+00 -0.00000000000E+00 -0.82261852548E+01  0.82261852548E+01  0.00000000000E+00 0. -1.
         23    2    1    2    0    0  0.32495221466E+02 -0.65709121611E+01  0.64762678126E+03  0.65472955267E+03  0.90284123919E+02 0.  0.
         23    2    1    2    0    0 -0.32495221466E+02  0.65709121611E+01  0.48840918457E+03  0.49775878366E+03  0.90117472453E+02 0.  0.
          5    1    4    4  502    0 -0.31100349628E+02 -0.38744042294E+02  0.28144166999E+03  0.28583183197E+03  0.47000000000E+01 0. -1.
         -5    1    4    4    0  502 -0.13948718378E+01  0.45314954455E+02  0.20696751457E+03  0.21192695169E+03  0.47000000000E+01 0.  1.
          5    1    3    3  503    0  0.48194499865E+00 -0.43123570804E+02  0.21321533221E+03  0.21758387468E+03  0.47000000000E+01 0. -1.
         -5    1    3    3    0  503  0.32013276467E+02  0.36552658643E+02  0.43441144905E+03  0.43714567800E+03  0.47000000000E+01 0.  1.
<mgrwt>
<rscale>  0 0.96139555E+02</rscale>
<asrwt>0</asrwt>
<pdfrwt beam="1">  1        4 0.12655679E-02 0.96178684E+02</pdfrwt>
<pdfrwt beam="2">  1       -4 0.17604020E+00 0.96178684E+02</pdfrwt>
<totfact> 0.66464709E+02</totfact>
</mgrwt>
</event>
<event>
 8    1  0.3466492E-004  0.1396391E+03  0.7546771E-02  0.1217858E+00
         -2   -1    0    0    0  501 -0.00000000000E+00  0.00000000000E+00  0.27623522572E+03  0.27623522572E+03  0.00000000000E+00 0.  1.
          2   -1    0    0  501    0  0.00000000000E+00 -0.00000000000E+00 -0.13545024349E+03  0.13545024349E+03  0.00000000000E+00 0. -1.
         23    2    1    2    0    0 -0.83238838033E+02  0.36195854446E+02  0.21741917023E+03  0.25239993549E+03  0.90530590488E+02 0.  0.
         23    2    1    2    0    0  0.83238838033E+02 -0.36195854446E+02 -0.76634187997E+02  0.15928553373E+03  0.10611427071E+03 0.  0.
          5    1    3    3  502    0 -0.82016461421E+02 -0.70527231871E+01  0.11885141219E+03  0.14465195825E+03  0.47000000000E+01 0. -1.
         -5    1    3    3    0  502 -0.12223766127E+01  0.43248577633E+02  0.98567758042E+02  0.10774797723E+03  0.47000000000E+01 0.  1.
          5    1    4    4  503    0 -0.25014866475E+01 -0.34988320362E+02 -0.63100971188E+02  0.72348203586E+02  0.47000000000E+01 0. -1.
         -5    1    4    4    0  503  0.85740324681E+02 -0.12075340841E+01 -0.13533216809E+02  0.86937330142E+02  0.47000000000E+01 0.  1.
<mgrwt>
<rscale>  0 0.13668640E+03</rscale>
<asrwt>0</asrwt>
<pdfrwt beam="1">  1        2 0.20838499E-01 0.13963912E+03</pdfrwt>
<pdfrwt beam="2">  1       -2 0.42497727E-01 0.13963912E+03</pdfrwt>
<totfact> 0.13734942E+03</totfact>
</mgrwt>
</event>
<event>
 8    1  0.3466492E-004  0.1111229E+03  0.7546771E-02  0.1258621E+00
          1   -1    0    0  501    0  0.00000000000E+00  0.00000000000E+00  0.59802819098E+03  0.59802819098E+03  0.00000000000E+00 0. -1.
         -1   -1    0    0    0  501 -0.00000000000E+00 -0.00000000000E+00 -0.25209523035E+02  0.25209523035E+02  0.00000000000E+00 0.  1.
         23    2    1    2    0    0  0.48382414947E+02 -0.44063950932E+02  0.41991015021E+03  0.43436485566E+03  0.89809819812E+02 0.  0.
         23    2    1    2    0    0 -0.48382414947E+02  0.44063950932E+02  0.15290851774E+03  0.18887285836E+03  0.89495541675E+02 0.  0.
          5    1    4    4  502    0 -0.32458143261E+02  0.15157811667E+01  0.13641939475E+03  0.14031453923E+03  0.47000000000E+01 0. -1.
         -5    1    3    3    0  503  0.72548213147E+01 -0.62584883335E+02  0.28890469454E+03  0.29573216359E+03  0.47000000000E+01 0.  1.
          5    1    3    3  503    0  0.41127593633E+02  0.18520932403E+02  0.13100545567E+03  0.13863269207E+03  0.47000000000E+01 0. -1.
         -5    1    4    4    0  502 -0.15924271686E+02  0.42548169765E+02  0.16489122985E+02  0.48558319121E+02  0.47000000000E+01 0.  1.
<mgrwt>
<rscale>  0 0.11105936E+03</rscale>
<asrwt>0</asrwt>
<pdfrwt beam="1">  1        1 0.92004327E-01 0.11112288E+03</pdfrwt>
<pdfrwt beam="2">  1       -1 0.38783886E-02 0.11112288E+03</pdfrwt>
<totfact> 0.85979993E+03</totfact>
</mgrwt>
</event>
<event>
 8    1  0.3466492E-004  0.1071397E+03  0.7546771E-02  0.1267033E+00
          3   -1    0    0  501    0  0.00000000000E+00  0.00000000000E+00  0.54238074768E+02  0.54238074768E+02  0.00000000000E+00 0. -1.
         -3   -1    0    0    0  501 -0.00000000000E+00 -0.00000000000E+00 -0.31288084836E+03  0.31288084836E+03  0.00000000000E+00 0.  1.
         23    2    1    2    0    0 -0.20938655178E+02  0.47763080347E+02 -0.23584899890E+02  0.10970488136E+03  0.93590460873E+02 0.  0.
         23    2    1    2    0    0  0.20938655178E+02 -0.47763080347E+02 -0.23505787370E+03  0.25741404177E+03  0.91049688554E+02 0.  0.
          5    1    3    3  502    0 -0.11479891380E+02 -0.21772348202E+02  0.15278621293E+02  0.29348753312E+02  0.47000000000E+01 0. -1.
         -5    1    4    4    0  503  0.49416769805E+00 -0.53178053116E+02 -0.57208615622E+02  0.78250017484E+02  0.47000000000E+01 0.  1.
          5    1    4    4  503    0  0.20444487480E+02  0.54149727686E+01 -0.17784925808E+03  0.17916402428E+03  0.47000000000E+01 0. -1.
         -5    1    3    3    0  502 -0.94587637978E+01  0.69535428550E+02 -0.38863521183E+02  0.80356128048E+02  0.47000000000E+01 0.  1.
<mgrwt>
<rscale>  0 0.10658231E+03</rscale>
<asrwt>0</asrwt>
<pdfrwt beam="1">  1        3 0.83443194E-02 0.10713969E+03</pdfrwt>
<pdfrwt beam="2">  1       -3 0.48135514E-01 0.10713969E+03</pdfrwt>
<totfact> 0.95205259E+02</totfact>
</mgrwt>
</event>
<event>
 8    1  0.3466492E-004  0.2228308E+03  0.7546771E-02  0.1131961E+00
         -1   -1    0    0    0  501 -0.00000000000E+00  0.00000000000E+00  0.20908000757E+03  0.20908000757E+03  0.00000000000E+00 0.  1.
          1   -1    0    0  501    0  0.00000000000E+00 -0.00000000000E+00 -0.24281755383E+03  0.24281755383E+03  0.00000000000E+00 0. -1.
         23    2    1    2    0    0 -0.18146864082E+03 -0.91829043087E+02 -0.53293677205E+02  0.22821022313E+03  0.88748234669E+02 0.  0.
         23    2    1    2    0    0  0.18146864082E+03  0.91829043087E+02  0.19556130937E+02  0.22368733827E+03  0.91050218500E+02 0.  0.
          5    1    3    3  502    0 -0.43502180183E+02  0.15804595914E+02 -0.16305899962E+02  0.49297031415E+02  0.47000000000E+01 0. -1.
         -5    1    3    3    0  502 -0.13796646064E+03 -0.10763363900E+03 -0.36987777243E+02  0.17891319172E+03  0.47000000000E+01 0.  1.
          5    1    4    4  503    0  0.15653045264E+03  0.35161034920E+02  0.94328281492E+01  0.16077670611E+03  0.47000000000E+01 0. -1.
         -5    1    4    4    0  503  0.24938188180E+02  0.56668008167E+02  0.10123302788E+02  0.62910632160E+02  0.47000000000E+01 0.  1.
<mgrwt>
<rscale>  0 0.22259781E+03</rscale>
<asrwt>0</asrwt>
<pdfrwt beam="1">  1        1 0.37356547E-01 0.22283084E+03</pdfrwt>
<pdfrwt beam="2">  1       -1 0.32166155E-01 0.22283084E+03</pdfrwt>
<totfact> 0.10370780E+03</totfact>
</mgrwt>
</event>
<event>
 8    1  0.3466492E-004  0.1004509E+03  0.7546771E-02  0.1281358E+00
          2   -1    0    0  501    0  0.00000000000E+00  0.00000000000E+00  0.82726598825E+02  0.82726598825E+02  0.00000000000E+00 0. -1.
         -2   -1    0    0    0  501 -0.00000000000E+00 -0.00000000000E+00 -0.24081175311E+03  0.24081175311E+03  0.00000000000E+00 0.  1.
         23    2    1    2    0    0  0.36760007422E+02  0.10994861796E+02  0.37468294358E+02  0.10369398848E+03  0.88749000183E+02 0.  0.
         23    2    1    2    0    0 -0.36760007422E+02 -0.10994861796E+02 -0.19555344864E+03  0.21984436346E+03  0.92834302577E+02 0.  0.
          5    1    4    4  502    0 -0.35225917024E+02  0.17737141296E+02 -0.18440063168E+03  0.18862967523E+03  0.47000000000E+01 0.  1.
         -5    1    3    3    0  503  0.21837819322E+01  0.22408417952E+02 -0.23272379621E+02  0.32720020658E+02  0.47000000000E+01 0.  1.
          5    1    3    3  503    0  0.34576225490E+02 -0.11413556156E+02  0.60740673979E+02  0.70973967824E+02  0.47000000000E+01 0. -1.
         -5    1    4    4    0  502 -0.15340903975E+01 -0.28732003092E+02 -0.11152816963E+02  0.31214688229E+02  0.47000000000E+01 0. -1.
<mgrwt>
<rscale>  0 0.99496700E+02</rscale>
<asrwt>0</asrwt>
<pdfrwt beam="1">  1        2 0.12727169E-01 0.10045095E+03</pdfrwt>
<pdfrwt beam="2">  1       -2 0.37047962E-01 0.10045095E+03</pdfrwt>
<totfact> 0.30913646E+03</totfact>
</mgrwt>
</event>
<event>
 8    1  0.3466492E-004  0.9580760E+02  0.7546771E-02  0.1290108E+00
         -2   -1    0    0    0  501 -0.00000000000E+00  0.00000000000E+00  0.15776134941E+02  0.15776134941E+02  0.00000000000E+00 0.  1.
          2   -1    0    0  501    0  0.00000000000E+00 -0.00000000000E+00 -0.74257171478E+03  0.74257171478E+03  0.00000000000E+00 0. -1.
         23    2    1    2    0    0 -0.23373193712E+02 -0.18841794393E+02 -0.18460580907E+03  0.20798653840E+03  0.90982284074E+02 0.  0.
         23    2    1    2    0    0  0.23373193712E+02  0.18841794393E+02 -0.54218977077E+03  0.55036131132E+03  0.89590769980E+02 0.  0.
          5    1    4    4  502    0 -0.90346375053E+01  0.41567822381E+02 -0.41172322068E+03  0.41394155261E+03  0.47000000000E+01 0. -1.
         -5    1    3    3    0  503 -0.12565948740E+02 -0.55604325983E+02 -0.10950496735E+03  0.12354421075E+03  0.47000000000E+01 0.  1.
          5    1    3    3  503    0 -0.10807244972E+02  0.36762531589E+02 -0.75100841721E+02  0.84442327656E+02  0.47000000000E+01 0. -1.
         -5    1    4    4    0  502  0.32407831218E+02 -0.22726027987E+02 -0.13046655009E+03  0.13641975871E+03  0.47000000000E+01 0.  1.
<mgrwt>
<rscale>  0 0.95475770E+02</rscale>
<asrwt>0</asrwt>
<pdfrwt beam="1">  1        2 0.11424181E+00 0.95807596E+02</pdfrwt>
<pdfrwt beam="2">  1       -2 0.24270976E-02 0.95807596E+02</pdfrwt>
<totfact> 0.20786567E+04</totfact>
</mgrwt>
</event>
<event>
 8    1  0.3466492E-004  0.9410233E+02  0.7546771E-02  0.1294899E+00
         -1   -1    0    0    0  501 -0.00000000000E+00  0.00000000000E+00  0.24095071793E+02  0.24095071793E+02  0.00000000000E+00 0.  1.
          1   -1    0    0  501    0  0.00000000000E+00 -0.00000000000E+00 -0.38967614029E+03  0.38967614029E+03  0.00000000000E+00 0. -1.
         23    2    1    2    0    0 -0.91045655479E+01 -0.18373845022E+02 -0.24601856575E+03  0.26340156320E+03  0.91840935889E+02 0.  0.
         23    2    1    2    0    0  0.91045655479E+01  0.18373845022E+02 -0.11956250274E+03  0.15036964888E+03  0.88855770483E+02 0.  0.
          5    1    4    4  502    0  0.41139422915E+02  0.78684474282E+01 -0.10537547774E+03  0.11349205211E+03  0.47000000000E+01 0. -1.
         -5    1    3    3    0  503 -0.34458701075E+02 -0.22402701460E+02 -0.46726560822E+02  0.62407888914E+02  0.47000000000E+01 0.  1.
          5    1    3    3  503    0  0.25354135527E+02  0.40288564374E+01 -0.19929200493E+03  0.20099367429E+03  0.47000000000E+01 0. -1.
         -5    1    4    4    0  502 -0.32034857367E+02  0.10505397594E+02 -0.14187024994E+02  0.36877596767E+02  0.47000000000E+01 0.  1.
<mgrwt>
<rscale>  0 0.93365956E+02</rscale>
<asrwt>0</asrwt>
<pdfrwt beam="1">  1        1 0.59950174E-01 0.94102332E+02</pdfrwt>
<pdfrwt beam="2">  1       -1 0.37069342E-02 0.94102332E+02</pdfrwt>
<totfact> 0.15713938E+04</totfact>
</mgrwt>
</event>
<event>
 8    1  0.3466492E-004  0.8612497E+02  0.7546771E-02  0.1325469E+00
         -2   -1    0    0    0  501 -0.00000000000E+00  0.00000000000E+00  0.87089687056E+02  0.87089687056E+02  0.00000000000E+00 0.  1.
          2   -1    0    0  501    0  0.00000000000E+00 -0.00000000000E+00 -0.73326340889E+02  0.73326340889E+02  0.00000000000E+00 0. -1.
         23    2    1    2    0    0  0.99240789703E+01 -0.86242376644E+01 -0.12908694517E+02  0.87086999295E+02  0.85115487623E+02 0.  0.
         23    2    1    2    0    0 -0.99240789703E+01  0.86242376644E+01  0.26672040684E+02  0.73329028650E+02  0.67028977837E+02 0.  0.
          5    1    3    3  502    0  0.25446621084E+02 -0.21603662521E+02 -0.40408681222E+02  0.52623191437E+02  0.47000000000E+01 0. -1.
         -5    1    4    4    0  503 -0.32621278709E+02  0.87589276199E+00  0.34447293953E+02  0.47682502802E+02  0.47000000000E+01 0.  1.
          5    1    4    4  503    0  0.22697199739E+02  0.77483449024E+01 -0.77752532683E+01  0.25646525849E+02  0.47000000000E+01 0. -1.
         -5    1    3    3    0  502 -0.15522542113E+02  0.12979424856E+02  0.27499986705E+02  0.34463807858E+02  0.47000000000E+01 0.  1.
<mgrwt>
<rscale>  0 0.81275939E+02</rscale>
<asrwt>0</asrwt>
<pdfrwt beam="1">  1        2 0.11280976E-01 0.86124973E+02</pdfrwt>
<pdfrwt beam="2">  1       -2 0.13398413E-01 0.86124973E+02</pdfrwt>
<totfact> 0.20024625E+04</totfact>
</mgrwt>
</event>
<event>
 8    1  0.3466492E-004  0.9889763E+02  0.7546771E-02  0.1283736E+00
          1   -1    0    0  501    0  0.00000000000E+00  0.00000000000E+00  0.28438227255E+03  0.28438227255E+03  0.00000000000E+00 0. -1.
         -1   -1    0    0    0  501 -0.00000000000E+00 -0.00000000000E+00 -0.39151034947E+02  0.39151034947E+02  0.00000000000E+00 0.  1.
         23    2    1    2    0    0  0.24865439600E+02 -0.18546419450E+02  0.18195475051E+03  0.20612523924E+03  0.91748696218E+02 0.  0.
         23    2    1    2    0    0 -0.24865439600E+02  0.18546419450E+02  0.63276487094E+02  0.11740806826E+03  0.93906767127E+02 0.  0.
          5    1    4    4  502    0 -0.40755694726E+02  0.48889698470E+02  0.46590305708E+02  0.79018832281E+02  0.47000000000E+01 0. -1.
         -5    1    4    4    0  502  0.15890255126E+02 -0.30343279020E+02  0.16686181385E+02  0.38389235977E+02  0.47000000000E+01 0.  1.
          5    1    3    3  503    0 -0.95092793853E+01  0.25147486569E+02  0.11862484092E+03  0.12172413630E+03  0.47000000000E+01 0. -1.
         -5    1    3    3    0  503  0.34374718985E+02 -0.43693906018E+02  0.63329909592E+02  0.84401102939E+02  0.47000000000E+01 0.  1.
<mgrwt>
<rscale>  0 0.98381908E+02</rscale>
<asrwt>0</asrwt>
<pdfrwt beam="1">  1        1 0.43751118E-01 0.98897627E+02</pdfrwt>
<pdfrwt beam="2">  1       -1 0.60232363E-02 0.98897627E+02</pdfrwt>
<totfact> 0.11431135E+04</totfact>
</mgrwt>
</event>
<event>
 8    1  0.3466492E-004  0.9678556E+02  0.7546771E-02  0.1299200E+00
         -1   -1    0    0    0  501 -0.00000000000E+00  0.00000000000E+00  0.17720153403E+03  0.17720153403E+03  0.00000000000E+00 0.  1.
          1   -1    0    0  501    0  0.00000000000E+00 -0.00000000000E+00 -0.70940795964E+02  0.70940795964E+02  0.00000000000E+00 0. -1.
         23    2    1    2    0    0 -0.47502367773E+01 -0.77617036017E+01  0.12740684148E+03  0.14907365545E+03  0.76861191123E+02 0.  0.
         23    2    1    2    0    0  0.47502367773E+01  0.77617036017E+01 -0.21146103408E+02  0.99068674551E+02  0.96356814993E+02 0.  0.
          5    1    4    4  502    0  0.18541848388E+02  0.22532642684E+02 -0.53215487172E+02  0.60872803475E+02  0.47000000000E+01 0. -1.
         -5    1    3    3    0  503 -0.39693776353E+02 -0.13860510271E+01  0.81990668415E+02  0.91225417103E+02  0.47000000000E+01 0.  1.
          5    1    3    3  503    0  0.34943539575E+02 -0.63756525746E+01  0.45416173063E+02  0.57848238344E+02  0.47000000000E+01 0. -1.
         -5    1    4    4    0  502 -0.13791611611E+02 -0.14770939082E+02  0.32069383764E+02  0.38195871075E+02  0.47000000000E+01 0.  1.
<mgrwt>
<rscale>  0 0.91525133E+02</rscale>
<asrwt>0</asrwt>
<pdfrwt beam="1">  1        1 0.10913969E-01 0.96785560E+02</pdfrwt>
<pdfrwt beam="2">  1       -1 0.27261774E-01 0.96785560E+02</pdfrwt>
<totfact> 0.63381797E+03</totfact>
</mgrwt>
</event>
<event>
 8    1  0.3466492E-004  0.9565697E+02  0.7546771E-02  0.1294160E+00
         -3   -1    0    0    0  501 -0.00000000000E+00  0.00000000000E+00  0.16440289537E+03  0.16440289537E+03  0.00000000000E+00 0.  1.
          3   -1    0    0  501    0  0.00000000000E+00 -0.00000000000E+00 -0.74531342113E+02  0.74531342113E+02  0.00000000000E+00 0. -1.
         23    2    1    2    0    0  0.14290996339E+02 -0.10485427226E+02 -0.20433579374E+02  0.97815068114E+02  0.94000423529E+02 0.  0.
         23    2    1    2    0    0 -0.14290996339E+02  0.10485427226E+02  0.11030513263E+03  0.14111916937E+03  0.86216129110E+02 0.  0.
          5    1    4    4  502    0  0.28345773765E+02 -0.39699862951E+01  0.83770049028E+02  0.88649618136E+02  0.47000000000E+01 0. -1.
         -5    1    3    3    0  503 -0.16495405917E+02  0.22311460124E+02  0.22059067054E+02  0.35757406345E+02  0.47000000000E+01 0.  1.
          5    1    3    3  503    0  0.30786402256E+02 -0.32796887349E+02 -0.42492646428E+02  0.62057661769E+02  0.47000000000E+01 0. -1.
         -5    1    4    4    0  502 -0.42636770104E+02  0.14455413521E+02  0.26535083605E+02  0.52469551236E+02  0.47000000000E+01 0.  1.
<mgrwt>
<rscale>  0 0.93687566E+02</rscale>
<asrwt>0</asrwt>
<pdfrwt beam="1">  1        3 0.11466360E-01 0.95656972E+02</pdfrwt>
<pdfrwt beam="2">  1       -3 0.25292753E-01 0.95656972E+02</pdfrwt>
<totfact> 0.18545954E+03</totfact>
</mgrwt>
</event>
<event>
 8    1  0.3466492E-004  0.9805998E+02  0.7546771E-02  0.1285899E+00
         -2   -1    0    0    0  501 -0.00000000000E+00  0.00000000000E+00  0.12877231772E+03  0.12877231772E+03  0.00000000000E+00 0.  1.
          2   -1    0    0  501    0  0.00000000000E+00 -0.00000000000E+00 -0.74347962741E+02  0.74347962741E+02  0.00000000000E+00 0. -1.
         23    2    1    2    0    0 -0.26141990827E+02  0.14761531099E+02  0.12206825171E+02  0.98816834650E+02  0.93351238582E+02 0.  0.
         23    2    1    2    0    0  0.26141990827E+02 -0.14761531099E+02  0.42217529808E+02  0.10430344581E+03  0.90529456535E+02 0.  0.
          5    1    3    3  502    0  0.25248135003E+02  0.14158372038E+02  0.32125782155E+02  0.43498088452E+02  0.47000000000E+01 0. -1.
         -5    1    3    3    0  502 -0.51390125829E+02  0.60315906049E+00 -0.19918956984E+02  0.55318746198E+02  0.47000000000E+01 0.  1.
          5    1    4    4  503    0  0.29275622731E+02 -0.49807921921E+02  0.15879559270E+02  0.60101094624E+02  0.47000000000E+01 0. -1.
         -5    1    4    4    0  503 -0.31336319041E+01  0.35046390822E+02  0.26337970538E+02  0.44202351189E+02  0.47000000000E+01 0.  1.
<mgrwt>
<rscale>  0 0.97382400E+02</rscale>
<asrwt>0</asrwt>
<pdfrwt beam="1">  1        2 0.11438148E-01 0.98059983E+02</pdfrwt>
<pdfrwt beam="2">  1       -2 0.19811126E-01 0.98059983E+02</pdfrwt>
<totfact> 0.10537083E+04</totfact>
</mgrwt>
</event>
<event>
 8    1  0.3466492E-004  0.1052273E+03  0.7546771E-02  0.1271340E+00
          2   -1    0    0  501    0  0.00000000000E+00  0.00000000000E+00  0.15468118104E+03  0.15468118104E+03  0.00000000000E+00 0. -1.
         -2   -1    0    0    0  501 -0.00000000000E+00 -0.00000000000E+00 -0.70801920457E+02  0.70801920457E+02  0.00000000000E+00 0.  1.
         23    2    1    2    0    0 -0.45199376544E+00 -0.46017456332E+02  0.57514038751E+02  0.11700309926E+03  0.90906820406E+02 0.  0.
         23    2    1    2    0    0  0.45199376544E+00  0.46017456332E+02  0.26365221831E+02  0.10848000224E+03  0.94630731680E+02 0.  0.
          5    1    4    4  502    0  0.37110317604E+02  0.43659283639E+02  0.38861871395E+02  0.69394839641E+02  0.47000000000E+01 0. -1.
         -5    1    4    4    0  502 -0.36658323838E+02  0.23581726934E+01 -0.12496649565E+02  0.39085162599E+02  0.47000000000E+01 0.  1.
          5    1    3    3  503    0 -0.40247924326E+02  0.40776612204E-01  0.18447292581E+02  0.44522911842E+02  0.47000000000E+01 0. -1.
         -5    1    3    3    0  503  0.39795930561E+02 -0.46058232944E+02  0.39066746170E+02  0.72480187413E+02  0.47000000000E+01 0.  1.
<mgrwt>
<rscale>  0 0.10438323E+03</rscale>
<asrwt>0</asrwt>
<pdfrwt beam="1">  1        2 0.23797105E-01 0.10522731E+03</pdfrwt>
<pdfrwt beam="2">  1       -2 0.10892603E-01 0.10522731E+03</pdfrwt>
<totfact> 0.12063330E+04</totfact>
</mgrwt>
</event>
<event>
 8    1  0.3466492E-004  0.1102024E+03  0.7546771E-02  0.1260259E+00
         -1   -1    0    0    0  501 -0.00000000000E+00  0.00000000000E+00  0.21134122019E+02  0.21134122019E+02  0.00000000000E+00 0.  1.
          1   -1    0    0  501    0  0.00000000000E+00 -0.00000000000E+00 -0.67856137319E+03  0.67856137319E+03  0.00000000000E+00 0. -1.
         23    2    1    2    0    0  0.39869365600E+02 -0.45233114730E+02 -0.19116592661E+03  0.22058779963E+03  0.92081294875E+02 0.  0.
         23    2    1    2    0    0 -0.39869365600E+02  0.45233114730E+02 -0.46626132455E+03  0.47910769558E+03  0.92244025306E+02 0.  0.
          5    1    4    4  502    0 -0.58706039532E+02  0.60091520582E+02 -0.32320744932E+03  0.33397984253E+03  0.47000000000E+01 0. -1.
         -5    1    3    3    0  503  0.53214262651E+02 -0.15492983340E+02 -0.47344425427E+02  0.73043650657E+02  0.47000000000E+01 0.  1.
          5    1    3    3  503    0 -0.13344897051E+02 -0.29740131391E+02 -0.14382150119E+03  0.14754414897E+03  0.47000000000E+01 0. -1.
         -5    1    4    4    0  502  0.18836673931E+02 -0.14858405852E+02 -0.14305387524E+03  0.14512785304E+03  0.47000000000E+01 0.  1.
<mgrwt>
<rscale>  0 0.11016830E+03</rscale>
<asrwt>0</asrwt>
<pdfrwt beam="1">  1        1 0.10439407E+00 0.11020236E+03</pdfrwt>
<pdfrwt beam="2">  1       -1 0.32514031E-02 0.11020236E+03</pdfrwt>
<totfact> 0.93355351E+03</totfact>
</mgrwt>
</event>
<event>
 8    1  0.3466492E-004  0.1397181E+03  0.7546771E-02  0.1214204E+00
          2   -1    0    0  501    0  0.00000000000E+00  0.00000000000E+00  0.21081800797E+03  0.21081800797E+03  0.00000000000E+00 0. -1.
         -2   -1    0    0    0  501 -0.00000000000E+00 -0.00000000000E+00 -0.16875749600E+03  0.16875749600E+03  0.00000000000E+00 0.  1.
         23    2    1    2    0    0 -0.86742975171E+02  0.58254977713E+02 -0.10733113097E+03  0.17502962341E+03  0.90539556145E+02 0.  0.
         23    2    1    2    0    0  0.86742975171E+02 -0.58254977713E+02  0.14939164295E+03  0.20454588055E+03  0.92753264628E+02 0.  0.
          5    1    3    3  502    0  0.16142866587E+01  0.48600292036E+02 -0.44469279457E+02  0.66062100503E+02  0.47000000000E+01 0.  1.
         -5    1    3    3    0  502 -0.88357261830E+02  0.96546856771E+01 -0.62861851515E+02  0.10896752291E+03  0.47000000000E+01 0. -1.
          5    1    4    4  503    0  0.10418965824E+03 -0.44349333138E+02  0.10432241105E+03  0.15403766969E+03  0.47000000000E+01 0. -1.
         -5    1    4    4    0  503 -0.17446683073E+02 -0.13905644575E+02  0.45069231896E+02  0.50508210867E+02  0.47000000000E+01 0.  1.
<mgrwt>
<rscale>  0 0.13935177E+03</rscale>
<asrwt>0</asrwt>
<pdfrwt beam="1">  1        2 0.32433540E-01 0.13971812E+03</pdfrwt>
<pdfrwt beam="2">  1       -2 0.25962692E-01 0.13971812E+03</pdfrwt>
<totfact> 0.20829781E+03</totfact>
</mgrwt>
</event>
<event>
 8    1  0.3466492E-004  0.9769863E+02  0.7546771E-02  0.1287466E+00
         -1   -1    0    0    0  501 -0.00000000000E+00  0.00000000000E+00  0.37261557271E+02  0.37261557271E+02  0.00000000000E+00 0.  1.
          1   -1    0    0  501    0  0.00000000000E+00 -0.00000000000E+00 -0.26176338771E+03  0.26176338771E+03  0.00000000000E+00 0. -1.
         23    2    1    2    0    0 -0.50285953947E+01  0.28883772596E+02 -0.77366966001E+02  0.12462210720E+03  0.93195831902E+02 0.  0.
         23    2    1    2    0    0  0.50285953947E+01 -0.28883772596E+02 -0.14713486443E+03  0.17440283778E+03  0.88927624511E+02 0.  0.
          5    1    4    4  502    0  0.24474098912E+02 -0.14050210817E+02 -0.14673169080E+03  0.14949471237E+03  0.47000000000E+01 0. -1.
         -5    1    4    4    0  502 -0.19445503518E+02 -0.14833561780E+02 -0.40317363149E+00  0.24908125403E+02  0.47000000000E+01 0.  1.
          5    1    3    3  503    0 -0.83936230013E+01 -0.29093626085E+02 -0.53508800450E+02  0.61661768637E+02  0.47000000000E+01 0. -1.
         -5    1    3    3    0  503  0.33650276066E+01  0.57977398681E+02 -0.23858165551E+02  0.62960338564E+02  0.47000000000E+01 0.  1.
<mgrwt>
<rscale>  0 0.96666712E+02</rscale>
<asrwt>0</asrwt>
<pdfrwt beam="1">  1        1 0.40271290E-01 0.97698629E+02</pdfrwt>
<pdfrwt beam="2">  1       -1 0.57325473E-02 0.97698629E+02</pdfrwt>
<totfact> 0.13592482E+04</totfact>
</mgrwt>
</event>
<event>
 8    1  0.3466492E-004  0.1036842E+03  0.7546771E-02  0.1273378E+00
         -3   -1    0    0    0  501 -0.00000000000E+00  0.00000000000E+00  0.20258843624E+03  0.20258843624E+03  0.00000000000E+00 0.  1.
          3   -1    0    0  501    0  0.00000000000E+00 -0.00000000000E+00 -0.89110783112E+02  0.89110783112E+02  0.00000000000E+00 0. -1.
         23    2    1    2    0    0 -0.33931108390E+02  0.30617820727E+02 -0.37063339181E+02  0.10890699098E+03  0.91642078270E+02 0.  0.
         23    2    1    2    0    0  0.33931108390E+02 -0.30617820727E+02  0.15054099231E+03  0.18279222838E+03  0.93067917819E+02 0.  0.
          5    1    3    3  502    0  0.27546834401E+02 -0.86820456396E+01 -0.94752798863E+01  0.30758363593E+02  0.47000000000E+01 0.  1.
         -5    1    4    4    0  503  0.11006414344E+02 -0.51879355946E+02  0.13947878399E+03  0.14929511015E+03  0.47000000000E+01 0.  1.
          5    1    4    4  503    0  0.22924694046E+02  0.21261535218E+02  0.11062208320E+02  0.33497118232E+02  0.47000000000E+01 0. -1.
         -5    1    3    3    0  502 -0.61477942791E+02  0.39299866367E+02 -0.27588059295E+02  0.78148627383E+02  0.47000000000E+01 0. -1.
<mgrwt>
<rscale>  0 0.10336321E+03</rscale>
<asrwt>0</asrwt>
<pdfrwt beam="1">  1        3 0.13709351E-01 0.10368418E+03</pdfrwt>
<pdfrwt beam="2">  1       -3 0.31167452E-01 0.10368418E+03</pdfrwt>
<totfact> 0.95488358E+02</totfact>
</mgrwt>
</event>
<event>
 8    1  0.3466492E-004  0.1500386E+03  0.7546771E-02  0.1201717E+00
         -2   -1    0    0    0  501 -0.00000000000E+00  0.00000000000E+00  0.25363271469E+02  0.25363271469E+02  0.00000000000E+00 0.  1.
          2   -1    0    0  501    0  0.00000000000E+00 -0.00000000000E+00 -0.98988866897E+03  0.98988866897E+03  0.00000000000E+00 0. -1.
         23    2    1    2    0    0 -0.11167174803E+03  0.21638525436E+02 -0.66971397368E+03  0.68631507251E+03  0.97840518819E+02 0.  0.
         23    2    1    2    0    0  0.11167174803E+03 -0.21638525436E+02 -0.29481142383E+03  0.32893686793E+03  0.91361273942E+02 0.  0.
          5    1    3    3  502    0 -0.76367463737E+02 -0.33163620817E+02 -0.33018032922E+03  0.34054802168E+03  0.47000000000E+01 0. -1.
         -5    1    4    4    0  503  0.79671684155E+02 -0.31255752295E+02 -0.10216522640E+03  0.13335787488E+03  0.47000000000E+01 0.  1.
          5    1    4    4  503    0  0.32000063876E+02  0.96172268592E+01 -0.19264619743E+03  0.19557899305E+03  0.47000000000E+01 0. -1.
         -5    1    3    3    0  502 -0.35304284294E+02  0.54802146253E+02 -0.33953364446E+03  0.34576705083E+03  0.47000000000E+01 0.  1.
<mgrwt>
<rscale>  0 0.14899207E+03</rscale>
<asrwt>0</asrwt>
<pdfrwt beam="1">  1        2 0.15229054E+00 0.15003857E+03</pdfrwt>
<pdfrwt beam="2">  1       -2 0.39020425E-02 0.15003857E+03</pdfrwt>
<totfact> 0.74022687E+03</totfact>
</mgrwt>
</event>
<event>
 8    1  0.3466492E-004  0.1535324E+03  0.7546771E-02  0.1196298E+00
         -1   -1    0    0    0  501 -0.00000000000E+00  0.00000000000E+00  0.15718098248E+03  0.15718098248E+03  0.00000000000E+00 0.  1.
          1   -1    0    0  501    0  0.00000000000E+00 -0.00000000000E+00 -0.26523195466E+03  0.26523195466E+03  0.00000000000E+00 0. -1.
         23    2    1    2    0    0  0.81992846687E+02 -0.93529079970E+02  0.85370153533E+02  0.17567087775E+03  0.90009324336E+02 0.  0.
         23    2    1    2    0    0 -0.81992846687E+02  0.93529079970E+02 -0.19342112571E+03  0.24674205939E+03  0.89439344196E+02 0.  0.
          5    1    3    3  502    0  0.62055056513E+02 -0.47423516435E+01  0.34616991087E+02  0.71370484164E+02  0.47000000000E+01 0. -1.
         -5    1    3    3    0  502  0.19937790174E+02 -0.88786728326E+02  0.50753162446E+02  0.10430039359E+03  0.47000000000E+01 0.  1.
          5    1    4    4  503    0 -0.67128381286E+02  0.10773063703E+03 -0.18414338462E+03  0.22370289633E+03  0.47000000000E+01 0. -1.
         -5    1    4    4    0  503 -0.14864465401E+02 -0.14201557055E+02 -0.92777410922E+01  0.23039163054E+02  0.47000000000E+01 0.  1.
<mgrwt>
<rscale>  0 0.15344896E+03</rscale>
<asrwt>0</asrwt>
<pdfrwt beam="1">  1        1 0.40804916E-01 0.15353239E+03</pdfrwt>
<pdfrwt beam="2">  1       -1 0.24181690E-01 0.15353239E+03</pdfrwt>
<totfact> 0.14888266E+03</totfact>
</mgrwt>
</event>
<event>
 8    1  0.3466492E-004  0.1484567E+03  0.7546771E-02  0.1202402E+00
          4   -1    0    0  501    0  0.00000000000E+00  0.00000000000E+00  0.54513272864E+02  0.54513272864E+02  0.00000000000E+00 0. -1.
         -4   -1    0    0    0  501 -0.00000000000E+00 -0.00000000000E+00 -0.43383088436E+03  0.43383088436E+03  0.00000000000E+00 0.  1.
         23    2    1    2    0    0 -0.11160054562E+03 -0.27987400892E+02 -0.12580300188E+03  0.19459130736E+03  0.93815804775E+02 0.  0.
         23    2    1    2    0    0  0.11160054562E+03  0.27987400892E+02 -0.25351460961E+03  0.29375284986E+03  0.93718211268E+02 0.  0.
          5    1    4    4  502    0  0.47190240794E+02  0.51751465971E+01 -0.20330838075E+03  0.20883028672E+03  0.47000000000E+01 0. -1.
         -5    1    4    4    0  502  0.64410304829E+02  0.22812254295E+02 -0.50206228864E+02  0.84922563144E+02  0.47000000000E+01 0.  1.
          5    1    3    3  503    0 -0.11333701738E+03 -0.49125757636E+02 -0.11959159435E+03  0.17199668314E+03  0.47000000000E+01 0. -1.
         -5    1    3    3    0  503  0.17364717579E+01  0.21138356745E+02 -0.62114075281E+01  0.22594624217E+02  0.47000000000E+01 0.  1.
<mgrwt>
<rscale>  0 0.14844125E+03</rscale>
<asrwt>0</asrwt>
<pdfrwt beam="1">  1        4 0.83866568E-02 0.14845667E+03</pdfrwt>
<pdfrwt beam="2">  1       -4 0.66743217E-01 0.14845667E+03</pdfrwt>
<totfact> 0.36482499E+02</totfact>
</mgrwt>
</event>
<event>
 8    1  0.3466492E-004  0.1166869E+03  0.7546771E-02  0.1249177E+00
          1   -1    0    0  501    0  0.00000000000E+00  0.00000000000E+00  0.35941375642E+03  0.35941375642E+03  0.00000000000E+00 0. -1.
         -1   -1    0    0    0  501 -0.00000000000E+00 -0.00000000000E+00 -0.42654379900E+02  0.42654379900E+02  0.00000000000E+00 0.  1.
         23    2    1    2    0    0  0.72420421177E+02  0.54176358572E+01  0.87771758805E+02  0.14506393962E+03  0.89808667464E+02 0.  0.
         23    2    1    2    0    0 -0.72420421177E+02 -0.54176358572E+01  0.22898761772E+03  0.25700419671E+03  0.91333235322E+02 0.  0.
          5    1    3    3  502    0  0.64352079812E+02  0.29988667300E+02  0.22382684388E+02  0.74589442303E+02  0.47000000000E+01 0.  1.
         -5    1    3    3    0  502  0.80683413649E+01 -0.24571031443E+02  0.65389074417E+02  0.70474497314E+02  0.47000000000E+01 0. -1.
          5    1    4    4  503    0 -0.67013945498E+02 -0.38456538265E+02  0.19134468654E+03  0.20640894674E+03  0.47000000000E+01 0. -1.
         -5    1    4    4    0  503 -0.54064756796E+01  0.33038902408E+02  0.37642931178E+02  0.50595249967E+02  0.47000000000E+01 0.  1.
<mgrwt>
<rscale>  0 0.11638838E+03</rscale>
<asrwt>0</asrwt>
<pdfrwt beam="1">  1        1 0.55294422E-01 0.11668688E+03</pdfrwt>
<pdfrwt beam="2">  1       -1 0.65622125E-02 0.11668688E+03</pdfrwt>
<totfact> 0.76442404E+03</totfact>
</mgrwt>
</event>
<event>
 7    1  0.3466492E-004  0.8395831E+02  0.7546771E-02  0.1342226E+00
         -1   -1    0    0    0  501 -0.00000000000E+00  0.00000000000E+00  0.24297712512E+03  0.24297712512E+03  0.00000000000E+00 0.  1.
          1   -1    0    0  501    0  0.00000000000E+00 -0.00000000000E+00 -0.44377340150E+02  0.44377340150E+02  0.00000000000E+00 0. -1.
         23    2    1    2    0    0  0.21073473443E+01 -0.70255993453E+01  0.28309906877E+01  0.84006020826E+02  0.83637294718E+02 0.  0.
          5    1    1    2  502    0  0.23158940134E+02  0.37634407046E+00  0.51585603484E+02  0.56741894838E+02  0.47000000000E+01 0.  1.
         -5    1    1    2    0  502 -0.25266287479E+02  0.66492552748E+01  0.14418319080E+03  0.14660654960E+03  0.47000000000E+01 0.  1.
          5    1    3    3  503    0  0.14836454393E+01 -0.44622352717E+02 -0.54317875022E+01  0.45221122070E+02  0.47000000000E+01 0. -1.
         -5    1    3    3    0  503  0.62370190494E+00  0.37596753371E+02  0.82627781899E+01  0.38784898756E+02  0.47000000000E+01 0.  1.
<mgrwt>
<rscale>  0 0.75533821E+02</rscale>
<asrwt>0</asrwt>
<pdfrwt beam="1">  1        1 0.68272833E-02 0.83958305E+02</pdfrwt>
<pdfrwt beam="2">  1       -1 0.37381095E-01 0.83958305E+02</pdfrwt>
<totfact> 0.68489619E+03</totfact>
</mgrwt>
</event>
<event>
 8    1  0.3466492E-004  0.9804178E+02  0.7546771E-02  0.1286134E+00
          2   -1    0    0  501    0  0.00000000000E+00  0.00000000000E+00  0.19955102821E+02  0.19955102821E+02  0.00000000000E+00 0. -1.
         -2   -1    0    0    0  501 -0.00000000000E+00 -0.00000000000E+00 -0.62782253193E+03  0.62782253193E+03  0.00000000000E+00 0.  1.
         23    2    1    2    0    0 -0.20007140134E+02 -0.28182337012E+02 -0.13641881645E+03  0.16624260478E+03  0.88498476748E+02 0.  0.
         23    2    1    2    0    0  0.20007140134E+02  0.28182337012E+02 -0.47144861265E+03  0.48153502996E+03  0.91747811609E+02 0.  0.
          5    1    3    3  502    0  0.63669252000E+01 -0.52245525711E+02 -0.50541031021E+02  0.73120575148E+02  0.47000000000E+01 0. -1.
         -5    1    4    4    0  503  0.35843729111E+02  0.52371171915E+02 -0.24211288065E+03  0.25033627292E+03  0.47000000000E+01 0.  1.
          5    1    4    4  503    0 -0.15836588976E+02 -0.24188834903E+02 -0.22933573200E+03  0.23119875704E+03  0.47000000000E+01 0. -1.
         -5    1    3    3    0  502 -0.26374065334E+02  0.24063188699E+02 -0.85877785431E+02  0.93122029634E+02  0.47000000000E+01 0.  1.
<mgrwt>
<rscale>  0 0.97274359E+02</rscale>
<asrwt>0</asrwt>
<pdfrwt beam="1">  1        2 0.30700161E-02 0.98041780E+02</pdfrwt>
<pdfrwt beam="2">  1       -2 0.96588073E-01 0.98041780E+02</pdfrwt>
<totfact> 0.26260557E+03</totfact>
</mgrwt>
</event>
<event>
 8    1  0.3466492E-004  0.1044404E+03  0.7546771E-02  0.1272347E+00
          1   -1    0    0  501    0  0.00000000000E+00  0.00000000000E+00  0.67599708641E+03  0.67599708641E+03  0.00000000000E+00 0. -1.
         -1   -1    0    0    0  501 -0.00000000000E+00 -0.00000000000E+00 -0.19607729467E+02  0.19607729467E+02  0.00000000000E+00 0.  1.
         23    2    1    2    0    0  0.75438656128E+01  0.48048032482E+02  0.17193437320E+03  0.20001988726E+03  0.89894400719E+02 0.  0.
         23    2    1    2    0    0 -0.75438656128E+01 -0.48048032482E+02  0.48445498374E+03  0.49558492861E+03  0.92424384547E+02 0.  0.
          5    1    3    3  502    0  0.34421848659E+02 -0.11587177488E+02  0.60703462326E+02  0.70895180976E+02  0.47000000000E+01 0. -1.
         -5    1    4    4    0  503 -0.20299870875E+01  0.25999020249E+02  0.19174857877E+03  0.19357085876E+03  0.47000000000E+01 0.  1.
          5    1    4    4  503    0 -0.55138785253E+01 -0.74047052730E+02  0.29270640497E+03  0.30201406985E+03  0.47000000000E+01 0. -1.
         -5    1    3    3    0  502 -0.26877983047E+02  0.59635209969E+02  0.11123091087E+03  0.12912470629E+03  0.47000000000E+01 0.  1.
<mgrwt>
<rscale>  0 0.10387781E+03</rscale>
<asrwt>0</asrwt>
<pdfrwt beam="1">  1        1 0.10399953E+00 0.10444037E+03</pdfrwt>
<pdfrwt beam="2">  1       -1 0.30165743E-02 0.10444037E+03</pdfrwt>
<totfact> 0.10421459E+04</totfact>
</mgrwt>
</event>
<event>
 8    1  0.3466492E-004  0.1602807E+03  0.7546771E-02  0.1189118E+00
          1   -1    0    0  501    0  0.00000000000E+00  0.00000000000E+00  0.27082110094E+03  0.27082110094E+03  0.00000000000E+00 0. -1.
         -1   -1    0    0    0  501 -0.00000000000E+00 -0.00000000000E+00 -0.10410642351E+03  0.10410642351E+03  0.00000000000E+00 0.  1.
         23    2    1    2    0    0  0.39165408285E+02  0.12671324613E+03  0.23650760049E+02  0.16201624202E+03  0.89998490399E+02 0.  0.
         23    2    1    2    0    0 -0.39165408285E+02 -0.12671324613E+03  0.14306391738E+03  0.21291128243E+03  0.85286304765E+02 0.  0.
          5    1    4    4  502    0 -0.42914898934E+02 -0.16200963470E+02  0.32070015667E+02  0.56167033683E+02  0.47000000000E+01 0. -1.
         -5    1    3    3    0  503  0.37047763536E+02  0.52893677289E+02 -0.29253784973E+02  0.71050347047E+02  0.47000000000E+01 0.  1.
          5    1    3    3  503    0  0.21176447490E+01  0.73819568843E+02  0.52904545021E+02  0.90965894969E+02  0.47000000000E+01 0. -1.
         -5    1    4    4    0  502  0.37494906491E+01 -0.11051228266E+03  0.11099390171E+03  0.15674424875E+03  0.47000000000E+01 0.  1.
<mgrwt>
<rscale>  0 0.15962729E+03</rscale>
<asrwt>0</asrwt>
<pdfrwt beam="1">  1        1 0.41664784E-01 0.16028070E+03</pdfrwt>
<pdfrwt beam="2">  1       -1 0.16016373E-01 0.16028070E+03</pdfrwt>
<totfact> 0.28201786E+03</totfact>
</mgrwt>
</event>
<event>
 8    1  0.3466492E-004  0.1846650E+03  0.7546771E-02  0.1164190E+00
         -1   -1    0    0    0  501 -0.00000000000E+00  0.00000000000E+00  0.53677350721E+02  0.53677350721E+02  0.00000000000E+00 0.  1.
          1   -1    0    0  501    0  0.00000000000E+00 -0.00000000000E+00 -0.90008739834E+03  0.90008739834E+03  0.00000000000E+00 0. -1.
         23    2    1    2    0    0 -0.15928805011E+03 -0.91211237437E+01 -0.16157604161E+03  0.24537316339E+03  0.92980074650E+02 0.  0.
         23    2    1    2    0    0  0.15928805011E+03  0.91211237437E+01 -0.68483400601E+03  0.70839158567E+03  0.85820423322E+02 0.  0.
          5    1    3    3  502    0 -0.84714357298E+02 -0.50662370677E+02 -0.79046134884E+02  0.12654477301E+03  0.47000000000E+01 0. -1.
         -5    1    3    3    0  502 -0.74573692815E+02  0.41541246933E+02 -0.82529906730E+02  0.11882839039E+03  0.47000000000E+01 0.  1.
          5    1    4    4  503    0  0.15291836888E+03 -0.16536624684E+02 -0.56449308599E+03  0.58509146432E+03  0.47000000000E+01 0. -1.
         -5    1    4    4    0  503  0.63696812374E+01  0.25657748428E+02 -0.12034092002E+03  0.12330012135E+03  0.47000000000E+01 0.  1.
<mgrwt>
<rscale>  0 0.18378392E+03</rscale>
<asrwt>0</asrwt>
<pdfrwt beam="1">  1        1 0.13847498E+00 0.18466503E+03</pdfrwt>
<pdfrwt beam="2">  1       -1 0.82580541E-02 0.18466503E+03</pdfrwt>
<totfact> 0.15625126E+03</totfact>
</mgrwt>
</event>
<event>
 8    1  0.3466492E-004  0.1015317E+03  0.7546771E-02  0.1278338E+00
          1   -1    0    0  501    0  0.00000000000E+00  0.00000000000E+00  0.60645340306E+03  0.60645340306E+03  0.00000000000E+00 0. -1.
         -1   -1    0    0    0  501 -0.00000000000E+00 -0.00000000000E+00 -0.16701313174E+02  0.16701313174E+02  0.00000000000E+00 0.  1.
         23    2    1    2    0    0  0.10435771146E+02  0.37903022123E+02  0.32188479397E+03  0.33751814735E+03  0.93611616779E+02 0.  0.
         23    2    1    2    0    0 -0.10435771146E+02 -0.37903022123E+02  0.26786729592E+03  0.28563656888E+03  0.91048431383E+02 0.  0.
          5    1    3    3  502    0 -0.13311823216E+02 -0.17137969850E+02  0.20379675918E+03  0.20500274071E+03  0.47000000000E+01 0. -1.
         -5    1    3    3    0  502  0.23747594362E+02  0.55040991973E+02  0.11808803479E+03  0.13251540664E+03  0.47000000000E+01 0.  1.
          5    1    4    4  503    0 -0.37340896525E+02 -0.32332467166E+02  0.24383597713E+03  0.24883288515E+03  0.47000000000E+01 0. -1.
         -5    1    4    4    0  503  0.26905125379E+02 -0.55705549564E+01  0.24031318784E+02  0.36803683738E+02  0.47000000000E+01 0.  1.
<mgrwt>
<rscale>  0 0.10093689E+03</rscale>
<asrwt>0</asrwt>
<pdfrwt beam="1">  1        1 0.93300507E-01 0.10153167E+03</pdfrwt>
<pdfrwt beam="2">  1       -1 0.25694333E-02 0.10153167E+03</pdfrwt>
<totfact> 0.15212131E+04</totfact>
</mgrwt>
</event>
<event>
 8    1  0.3466492E-004  0.1603869E+03  0.7546771E-02  0.1188334E+00
         -2   -1    0    0    0  501 -0.00000000000E+00  0.00000000000E+00  0.99197385715E+03  0.99197385715E+03  0.00000000000E+00 0.  1.
          2   -1    0    0  501    0  0.00000000000E+00 -0.00000000000E+00 -0.34982233622E+02  0.34982233622E+02  0.00000000000E+00 0. -1.
         23    2    1    2    0    0  0.84885148385E+02 -0.99633833266E+02  0.21642651365E+03  0.26922220662E+03  0.92237582253E+02 0.  0.
         23    2    1    2    0    0 -0.84885148385E+02  0.99633833266E+02  0.74056510988E+03  0.75773388415E+03  0.92690711907E+02 0.  0.
          5    1    3    3  502    0 -0.95236669673E+00 -0.60241539869E+02  0.52859047350E+02  0.80287726427E+02  0.47000000000E+01 0. -1.
         -5    1    3    3    0  502  0.85837515082E+02 -0.39392293397E+02  0.16356746630E+03  0.18893448019E+03  0.47000000000E+01 0.  1.
          5    1    4    4  503    0  0.12637969170E+02  0.34175060985E+02  0.10142060210E+03  0.10786974362E+03  0.47000000000E+01 0. -1.
         -5    1    4    4    0  503 -0.97523117555E+02  0.65458772281E+02  0.63914450778E+03  0.64986414053E+03  0.47000000000E+01 0.  1.
<mgrwt>
<rscale>  0 0.16032150E+03</rscale>
<asrwt>0</asrwt>
<pdfrwt beam="1">  1        2 0.53818828E-02 0.16038690E+03</pdfrwt>
<pdfrwt beam="2">  1       -2 0.15261134E+00 0.16038690E+03</pdfrwt>
<totfact> 0.42694750E+02</totfact>
</mgrwt>
</event>
<event>
 8    1  0.3466492E-004  0.9878692E+02  0.7546771E-02  0.1284417E+00
          1   -1    0    0  501    0  0.00000000000E+00  0.00000000000E+00  0.97114299247E+02  0.97114299247E+02  0.00000000000E+00 0. -1.
         -1   -1    0    0    0  501 -0.00000000000E+00 -0.00000000000E+00 -0.29317412694E+03  0.29317412694E+03  0.00000000000E+00 0.  1.
         23    2    1    2    0    0  0.16679276099E+02 -0.37863128069E+00 -0.25692885488E+03  0.27425440232E+03  0.94470625636E+02 0.  0.
         23    2    1    2    0    0 -0.16679276099E+02  0.37863128069E+00  0.60869027187E+02  0.11603402387E+03  0.97367934208E+02 0.  0.
          5    1    4    4  502    0 -0.53778821907E+02 -0.17245275196E+02  0.42283896709E+02  0.70707702007E+02  0.47000000000E+01 0. -1.
         -5    1    3    3    0  503 -0.35451241816E+02 -0.18801415174E+02 -0.10434135842E+03  0.11189053953E+03  0.47000000000E+01 0.  1.
          5    1    3    3  503    0  0.52130517914E+02  0.18422783893E+02 -0.15258749646E+03  0.16236386279E+03  0.47000000000E+01 0. -1.
         -5    1    4    4    0  502  0.37099545808E+02  0.17623906476E+02  0.18585130478E+02  0.45326321862E+02  0.47000000000E+01 0.  1.
<mgrwt>
<rscale>  0 0.98065447E+02</rscale>
<asrwt>0</asrwt>
<pdfrwt beam="1">  1        1 0.14940662E-01 0.98786923E+02</pdfrwt>
<pdfrwt beam="2">  1       -1 0.45103711E-01 0.98786923E+02</pdfrwt>
<totfact> 0.17916859E+03</totfact>
</mgrwt>
</event>
<event>
 8    1  0.3466492E-004  0.1005411E+03  0.7546771E-02  0.1280018E+00
         -3   -1    0    0    0  501 -0.00000000000E+00  0.00000000000E+00  0.13368524631E+03  0.13368524631E+03  0.00000000000E+00 0.  1.
          3   -1    0    0  501    0  0.00000000000E+00 -0.00000000000E+00 -0.20475061162E+03  0.20475061162E+03  0.00000000000E+00 0. -1.
         23    2    1    2    0    0  0.30221275988E+02  0.24683328651E+02  0.99379462984E+02  0.14136755987E+03  0.92660223862E+02 0.  0.
         23    2    1    2    0    0 -0.30221275988E+02 -0.24683328651E+02 -0.17044482829E+03  0.19706829807E+03  0.90894897408E+02 0.  0.
          5    1    4    4  502    0  0.16043977545E+02 -0.44945623126E+02 -0.89644177900E+02  0.10166458029E+03  0.47000000000E+01 0. -1.
         -5    1    4    4    0  502 -0.46265253533E+02  0.20262294475E+02 -0.80800650394E+02  0.95403717778E+02  0.47000000000E+01 0.  1.
          5    1    3    3  503    0  0.53168529478E+02 -0.80940128509E+01  0.80376500172E+02  0.96823950296E+02  0.47000000000E+01 0. -1.
         -5    1    3    3    0  503 -0.22947253490E+02  0.32777341502E+02  0.19002962811E+02  0.44543609579E+02  0.47000000000E+01 0.  1.
<mgrwt>
<rscale>  0 0.10013245E+03</rscale>
<asrwt>0</asrwt>
<pdfrwt beam="1">  1        3 0.31500094E-01 0.10054108E+03</pdfrwt>
<pdfrwt beam="2">  1       -3 0.20566961E-01 0.10054108E+03</pdfrwt>
<totfact> 0.46405480E+02</totfact>
</mgrwt>
</event>
<event>
 8    1  0.3466492E-004  0.9875795E+02  0.7546771E-02  0.1283796E+00
          4   -1    0    0  501    0  0.00000000000E+00  0.00000000000E+00  0.17737390900E+03  0.17737390900E+03  0.00000000000E+00 0. -1.
         -4   -1    0    0    0  501 -0.00000000000E+00 -0.00000000000E+00 -0.54339342723E+02  0.54339342723E+02  0.00000000000E+00 0.  1.
         23    2    1    2    0    0  0.40412400025E+01 -0.22840318511E+02  0.53248247699E+02  0.11078656957E+03  0.94341275926E+02 0.  0.
         23    2    1    2    0    0 -0.40412400025E+01  0.22840318511E+02  0.69786318582E+02  0.12092668216E+03  0.95995418778E+02 0.  0.
          5    1    3    3  502    0  0.28472957744E+02  0.43061183570E+00  0.67841731650E+02  0.73725743825E+02  0.47000000000E+01 0. -1.
         -5    1    4    4    0  503  0.73591734794E+01 -0.36804505075E+02  0.25402522719E+02  0.45564319249E+02  0.47000000000E+01 0.  1.
          5    1    4    4  503    0 -0.11400413482E+02  0.59644823586E+02  0.44383795863E+02  0.75362362910E+02  0.47000000000E+01 0. -1.
         -5    1    3    3    0  502 -0.24431717741E+02 -0.23270930347E+02 -0.14593483951E+02  0.37060825744E+02  0.47000000000E+01 0.  1.
<mgrwt>
<rscale>  0 0.98353698E+02</rscale>
<asrwt>0</asrwt>
<pdfrwt beam="1">  1        4 0.27288293E-01 0.98757948E+02</pdfrwt>
<pdfrwt beam="2">  1       -4 0.83598990E-02 0.98757948E+02</pdfrwt>
<totfact> 0.19863596E+03</totfact>
</mgrwt>
</event>
<event>
 8    1  0.3466492E-004  0.9433765E+02  0.7546771E-02  0.1293031E+00
         -1   -1    0    0    0  501 -0.00000000000E+00  0.00000000000E+00  0.48474453596E+03  0.48474453596E+03  0.00000000000E+00 0.  1.
          1   -1    0    0  501    0  0.00000000000E+00 -0.00000000000E+00 -0.20987841897E+02  0.20987841897E+02  0.00000000000E+00 0. -1.
         23    2    1    2    0    0  0.63649549473E+00  0.30552020331E+02  0.14101820642E+03  0.16966356694E+03  0.89251108301E+02 0.  0.
         23    2    1    2    0    0 -0.63649549473E+00 -0.30552020331E+02  0.32273848765E+03  0.33606881092E+03  0.88590536684E+02 0.  0.
          5    1    3    3  502    0 -0.23357020829E+02 -0.21575172875E+02  0.27181484339E+02  0.42094674217E+02  0.47000000000E+01 0. -1.
         -5    1    3    3    0  502  0.23993516324E+02  0.52127193206E+02  0.11383672208E+03  0.12756889272E+03  0.47000000000E+01 0.  1.
          5    1    4    4  503    0 -0.27311616856E+02 -0.49838860351E+02  0.15719664617E+03  0.16722054893E+03  0.47000000000E+01 0. -1.
         -5    1    4    4    0  503  0.26675121361E+02  0.19286840020E+02  0.16554184147E+03  0.16884826199E+03  0.47000000000E+01 0.  1.
<mgrwt>
<rscale>  0 0.94181079E+02</rscale>
<asrwt>0</asrwt>
<pdfrwt beam="1">  1        1 0.32288991E-02 0.94337646E+02</pdfrwt>
<pdfrwt beam="2">  1       -1 0.74576074E-01 0.94337646E+02</pdfrwt>
<totfact> 0.53642378E+03</totfact>
</mgrwt>
</event>
<event>
 8    1  0.3466492E-004  0.9596238E+02  0.7546771E-02  0.1292101E+00
         -2   -1    0    0    0  501 -0.00000000000E+00  0.00000000000E+00  0.46935720985E+02  0.46935720985E+02  0.00000000000E+00 0.  1.
          2   -1    0    0  501    0  0.00000000000E+00 -0.00000000000E+00 -0.22321996399E+03  0.22321996399E+03  0.00000000000E+00 0. -1.
         23    2    1    2    0    0  0.20261864323E+02 -0.30491128701E+01 -0.14163628790E+03  0.16812990720E+03  0.88243908634E+02 0.  0.
         23    2    1    2    0    0 -0.20261864323E+02  0.30491128701E+01 -0.34647955107E+02  0.10202577777E+03  0.93749337609E+02 0.  0.
          5    1    4    4  502    0  0.33954834696E+02 -0.16072369383E+02 -0.90896428658E+01  0.38935375487E+02  0.47000000000E+01 0. -1.
         -5    1    4    4    0  502 -0.54216699020E+02  0.19121482253E+02 -0.25558312241E+02  0.63090402287E+02  0.47000000000E+01 0.  1.
          5    1    3    3  503    0  0.38296722969E+02 -0.33427458833E+02 -0.58296741611E+02  0.77489573987E+02  0.47000000000E+01 0. -1.
         -5    1    3    3    0  503 -0.18034858646E+02  0.30378345963E+02 -0.83339546290E+02  0.90640333217E+02  0.47000000000E+01 0.  1.
<mgrwt>
<rscale>  0 0.94590533E+02</rscale>
<asrwt>0</asrwt>
<pdfrwt beam="1">  1        2 0.34341532E-01 0.95962381E+02</pdfrwt>
<pdfrwt beam="2">  1       -2 0.72208803E-02 0.95962381E+02</pdfrwt>
<totfact> 0.15194585E+04</totfact>
</mgrwt>
</event>
<event>
 8    1  0.3466492E-004  0.1144767E+03  0.7546771E-02  0.1252997E+00
          2   -1    0    0  501    0  0.00000000000E+00  0.00000000000E+00  0.87973208856E+03  0.87973208856E+03  0.00000000000E+00 0. -1.
         -2   -1    0    0    0  501 -0.00000000000E+00 -0.00000000000E+00 -0.15005714930E+02  0.15005714930E+02  0.00000000000E+00 0.  1.
         23    2    1    2    0    0 -0.60873766001E+02 -0.28783230268E+02  0.49292020282E+03  0.50603877894E+03  0.92578775691E+02 0.  0.
         23    2    1    2    0    0  0.60873766001E+02  0.28783230268E+02  0.37180617082E+03  0.38869902456E+03  0.91175727601E+02 0.  0.
          5    1    4    4  502    0  0.73782914145E+02  0.12336544819E+02  0.35070093081E+03  0.35862144613E+03  0.47000000000E+01 0. -1.
         -5    1    4    4    0  502 -0.12909148143E+02  0.16446685449E+02  0.21105240007E+02  0.30077578423E+02  0.47000000000E+01 0.  1.
          5    1    3    3  503    0 -0.31483285718E+01  0.30545733292E+02  0.15639924068E+03  0.15945459003E+03  0.47000000000E+01 0. -1.
         -5    1    3    3    0  503 -0.57725437430E+02 -0.59328963560E+02  0.33652096214E+03  0.34658418891E+03  0.47000000000E+01 0.  1.
<mgrwt>
<rscale>  0 0.11419275E+03</rscale>
<asrwt>0</asrwt>
<pdfrwt beam="1">  1        2 0.13534336E+00 0.11447672E+03</pdfrwt>
<pdfrwt beam="2">  1       -2 0.23085722E-02 0.11447672E+03</pdfrwt>
<totfact> 0.18404315E+04</totfact>
</mgrwt>
</event>
<event>
 8    1  0.3466492E-004  0.9590850E+02  0.7546771E-02  0.1291704E+00
         -1   -1    0    0    0  501 -0.00000000000E+00  0.00000000000E+00  0.17255871855E+02  0.17255871855E+02  0.00000000000E+00 0.  1.
          1   -1    0    0  501    0  0.00000000000E+00 -0.00000000000E+00 -0.64956178813E+03  0.64956178813E+03  0.00000000000E+00 0. -1.
         23    2    1    2    0    0  0.15981902378E+02  0.87100729739E+01 -0.15483244447E+03  0.17980702612E+03  0.89589029500E+02 0.  0.
         23    2    1    2    0    0 -0.15981902378E+02 -0.87100729739E+01 -0.47747347180E+03  0.48701063386E+03  0.94165570379E+02 0.  0.
          5    1    4    4  502    0 -0.54540673249E+02  0.12401083639E+01 -0.31039144786E+03  0.31518433306E+03  0.47000000000E+01 0. -1.
         -5    1    4    4    0  502  0.38558770871E+02 -0.99501813378E+01 -0.16708202395E+03  0.17182630080E+03  0.47000000000E+01 0.  1.
          5    1    3    3  503    0  0.47687089344E+02  0.21430403951E+02 -0.11907112361E+03  0.13012817982E+03  0.47000000000E+01 0. -1.
         -5    1    3    3    0  503 -0.31705186966E+02 -0.12720330977E+02 -0.35761320856E+02  0.49678846303E+02  0.47000000000E+01 0.  1.
<mgrwt>
<rscale>  0 0.94765937E+02</rscale>
<asrwt>0</asrwt>
<pdfrwt beam="1">  1        1 0.99932584E-01 0.95908504E+02</pdfrwt>
<pdfrwt beam="2">  1       -1 0.26547495E-02 0.95908504E+02</pdfrwt>
<totfact> 0.13154112E+04</totfact>
</mgrwt>
</event>
<event>
 8    1  0.3466492E-004  0.1131900E+03  0.7546771E-02  0.1255878E+00
          1   -1    0    0  501    0  0.00000000000E+00  0.00000000000E+00  0.15222922483E+04  0.15222922483E+04  0.00000000000E+00 0. -1.
         -1   -1    0    0    0  501 -0.00000000000E+00 -0.00000000000E+00 -0.82357368752E+01  0.82357368752E+01  0.00000000000E+00 0.  1.
         23    2    1    2    0    0  0.33669373152E+02 -0.52225663837E+02  0.77145706488E+03  0.77971660170E+03  0.94608822795E+02 0.  0.
         23    2    1    2    0    0 -0.33669373152E+02  0.52225663837E+02  0.74259944655E+03  0.75081138349E+03  0.91665963729E+02 0.  0.
          5    1    3    3  502    0  0.42491691425E+02  0.14932190905E+02  0.31340070746E+03  0.31665534513E+03  0.47000000000E+01 0. -1.
         -5    1    4    4    0  503  0.26284708102E+02  0.51904350935E+00  0.10698770115E+03  0.11027063745E+03  0.47000000000E+01 0.  1.
          5    1    4    4  503    0 -0.59954081253E+02  0.51706620327E+02  0.63561174540E+03  0.64054074603E+03  0.47000000000E+01 0. -1.
         -5    1    3    3    0  502 -0.88223182729E+01 -0.67157854742E+02  0.45805635743E+03  0.46306125657E+03  0.47000000000E+01 0.  1.
<mgrwt>
<rscale>  0 0.11257298E+03</rscale>
<asrwt>0</asrwt>
<pdfrwt beam="1">  1        1 0.23419858E+00 0.11319000E+03</pdfrwt>
<pdfrwt beam="2">  1       -1 0.12670376E-02 0.11319000E+03</pdfrwt>
<totfact> 0.89200390E+03</totfact>
</mgrwt>
</event>
<event>
 8    1  0.3466492E-004  0.3184220E+03  0.7546771E-02  0.1076581E+00
          2   -1    0    0  501    0  0.00000000000E+00  0.00000000000E+00  0.25673382291E+04  0.25673382291E+04  0.00000000000E+00 0. -1.
         -2   -1    0    0    0  501 -0.00000000000E+00 -0.00000000000E+00 -0.51275207060E+02  0.51275207060E+02  0.00000000000E+00 0.  1.
         23    2    1    2    0    0 -0.18518977187E+03  0.24094715709E+03  0.18887409511E+04  0.19151039664E+04  0.89050758668E+02 0.  0.
         23    2    1    2    0    0  0.18518977187E+03 -0.24094715709E+03  0.62732207094E+03  0.70350946977E+03  0.95088428595E+02 0.  0.
          5    1    4    4  502    0  0.39972658575E+02 -0.59282346810E+02  0.25160828079E+03  0.26161236026E+03  0.47000000000E+01 0. -1.
         -5    1    4    4    0  502  0.14521711329E+03 -0.18166481028E+03  0.37571379015E+03  0.44189710951E+03  0.47000000000E+01 0.  1.
          5    1    3    3  503    0 -0.14917039490E+03  0.23614235852E+03  0.16263639320E+04  0.16501808233E+04  0.47000000000E+01 0. -1.
         -5    1    3    3    0  503 -0.36019376966E+02  0.48047985659E+01  0.26237701911E+03  0.26492314313E+03  0.47000000000E+01 0.  1.
<mgrwt>
<rscale>  0 0.31798349E+03</rscale>
<asrwt>0</asrwt>
<pdfrwt beam="1">  1        2 0.39497501E+00 0.31842204E+03</pdfrwt>
<pdfrwt beam="2">  1       -2 0.78884954E-02 0.31842204E+03</pdfrwt>
<totfact> 0.35259570E+02</totfact>
</mgrwt>
</event>
<event>
 7    1  0.3466492E-004  0.2060886E+03  0.7546771E-02  0.1180476E+00
         -1   -1    0    0    0  501 -0.00000000000E+00  0.00000000000E+00  0.98272957622E+02  0.98272957622E+02  0.00000000000E+00 0.  1.
          1   -1    0    0  501    0  0.00000000000E+00 -0.00000000000E+00 -0.23294471555E+03  0.23294471555E+03  0.00000000000E+00 0. -1.
         23    2    1    2    0    0 -0.42908447403E+00  0.20048490485E+02 -0.73763339445E+02  0.11631693045E+03  0.87672526936E+02 0.  0.
          5    1    1    2  502    0 -0.83130769066E+02 -0.27107011759E+02 -0.90426900095E+02  0.12587545079E+03  0.47000000000E+01 0. -1.
         -5    1    1    2    0  502  0.83559853540E+02  0.70585212734E+01  0.29518481611E+02  0.89025291927E+02  0.47000000000E+01 0.  1.
          5    1    3    3  503    0 -0.39874880366E+02  0.11034342207E+02 -0.60563633248E+02  0.73496982688E+02  0.47000000000E+01 0. -1.
         -5    1    3    3    0  503  0.39445795892E+02  0.90141482786E+01 -0.13199706198E+02  0.42819947763E+02  0.47000000000E+01 0.  1.
<mgrwt>
<rscale>  0 0.16750376E+03</rscale>
<asrwt>0</asrwt>
<pdfrwt beam="1">  1        1 0.35837648E-01 0.20608856E+03</pdfrwt>
<pdfrwt beam="2">  1       -1 0.15118917E-01 0.20608856E+03</pdfrwt>
<totfact> 0.37678141E+03</totfact>
</mgrwt>
</event>
<event>
 8    1  0.3466492E-004  0.1591186E+03  0.7546771E-02  0.1189993E+00
         -1   -1    0    0    0  501 -0.00000000000E+00  0.00000000000E+00  0.70766022325E+02  0.70766022325E+02  0.00000000000E+00 0.  1.
          1   -1    0    0  501    0  0.00000000000E+00 -0.00000000000E+00 -0.35860020229E+03  0.35860020229E+03  0.00000000000E+00 0. -1.
         23    2    1    2    0    0  0.13081680577E+03  0.52682636196E+01 -0.12423260665E+03  0.20187241752E+03  0.90431969612E+02 0.  0.
         23    2    1    2    0    0 -0.13081680577E+03 -0.52682636196E+01 -0.16360157332E+03  0.22749380710E+03  0.88584232247E+02 0.  0.
          5    1    4    4  502    0 -0.53156964668E+02  0.39682833906E+02 -0.86398740438E+02  0.10902854007E+03  0.47000000000E+01 0. -1.
         -5    1    3    3    0  503  0.68774697575E+02  0.46594803921E+02 -0.77867122190E+02  0.11395794618E+03  0.47000000000E+01 0. -1.
          5    1    3    3  503    0  0.62042108192E+02 -0.41326540301E+02 -0.46365484456E+02  0.87914471340E+02  0.47000000000E+01 0.  1.
         -5    1    4    4    0  502 -0.77659841098E+02 -0.44951097525E+02 -0.77202832880E+02  0.11846526703E+03  0.47000000000E+01 0.  1.
<mgrwt>
<rscale>  0 0.15885726E+03</rscale>
<asrwt>0</asrwt>
<pdfrwt beam="1">  1        1 0.55169262E-01 0.15911861E+03</pdfrwt>
<pdfrwt beam="2">  1       -1 0.10887080E-01 0.15911861E+03</pdfrwt>
<totfact> 0.36272263E+03</totfact>
</mgrwt>
</event>
<event>
 8    1  0.3466492E-004  0.1190698E+03  0.7546771E-02  0.1245977E+00
         -2   -1    0    0    0  501 -0.00000000000E+00  0.00000000000E+00  0.13241790683E+02  0.13241790683E+02  0.00000000000E+00 0.  1.
          2   -1    0    0  501    0  0.00000000000E+00 -0.00000000000E+00 -0.10648208235E+04  0.10648208235E+04  0.00000000000E+00 0. -1.
         23    2    1    2    0    0 -0.36613640666E+02 -0.62419514409E+02 -0.61090593400E+03  0.62240154553E+03  0.94556169653E+02 0.  0.
         23    2    1    2    0    0  0.36613640666E+02  0.62419514409E+02 -0.44067309883E+03  0.45566106866E+03  0.90539908344E+02 0.  0.
          5    1    3    3  502    0  0.19141141134E+02  0.14035555382E+02 -0.13644781176E+03  0.13857660492E+03  0.47000000000E+01 0. -1.
         -5    1    4    4    0  503  0.54713463505E+02  0.45680098589E+01 -0.20795055575E+03  0.21512776073E+03  0.47000000000E+01 0.  1.
          5    1    4    4  503    0 -0.18099822839E+02  0.57851504551E+02 -0.23272254308E+03  0.24053330793E+03  0.47000000000E+01 0. -1.
         -5    1    3    3    0  502 -0.55754781800E+02 -0.76455069792E+02 -0.47445812224E+03  0.48382494061E+03  0.47000000000E+01 0.  1.
<mgrwt>
<rscale>  0 0.11827090E+03</rscale>
<asrwt>0</asrwt>
<pdfrwt beam="1">  1        2 0.16381860E+00 0.11906983E+03</pdfrwt>
<pdfrwt beam="2">  1       -2 0.20371984E-02 0.11906983E+03</pdfrwt>
<totfact> 0.17113811E+04</totfact>
</mgrwt>
</event>
<event>
 8    1  0.3466492E-004  0.1499259E+03  0.7546771E-02  0.1200770E+00
          2   -1    0    0  501    0  0.00000000000E+00  0.00000000000E+00  0.53213336028E+03  0.53213336028E+03  0.00000000000E+00 0. -1.
         -2   -1    0    0    0  501 -0.00000000000E+00 -0.00000000000E+00 -0.42070834157E+02  0.42070834157E+02  0.00000000000E+00 0.  1.
         23    2    1    2    0    0  0.22208899765E+02 -0.11588890517E+03  0.23970803389E+03  0.28273256932E+03  0.92489408439E+02 0.  0.
         23    2    1    2    0    0 -0.22208899765E+02  0.11588890517E+03  0.25035449224E+03  0.29147162512E+03  0.91404939136E+02 0.  0.
          5    1    4    4  502    0  0.16465068654E+02  0.13994660679E+02  0.45917468404E+01  0.22585906056E+02  0.47000000000E+01 0. -1.
         -5    1    3    3    0  503  0.19879510452E+02  0.27338599042E+01  0.75086257734E+01  0.21934866920E+02  0.47000000000E+01 0.  1.
          5    1    3    3  503    0  0.23293893125E+01 -0.11862276507E+03  0.23219940812E+03  0.26079770240E+03  0.47000000000E+01 0. -1.
         -5    1    4    4    0  502 -0.38673968419E+02  0.10189424449E+03  0.24576274539E+03  0.26888571906E+03  0.47000000000E+01 0.  1.
<mgrwt>
<rscale>  0 0.14975894E+03</rscale>
<asrwt>0</asrwt>
<pdfrwt beam="1">  1        2 0.81866666E-01 0.14992586E+03</pdfrwt>
<pdfrwt beam="2">  1       -2 0.64724364E-02 0.14992586E+03</pdfrwt>
<totfact> 0.73586550E+03</totfact>
</mgrwt>
</event>
<event>
 8    1  0.3466492E-004  0.1228667E+03  0.7546771E-02  0.1239603E+00
         -2   -1    0    0    0  501 -0.00000000000E+00  0.00000000000E+00  0.61687132994E+02  0.61687132994E+02  0.00000000000E+00 0.  1.
          2   -1    0    0  501    0  0.00000000000E+00 -0.00000000000E+00 -0.30259276855E+03  0.30259276855E+03  0.00000000000E+00 0. -1.
         23    2    1    2    0    0  0.66656408681E+02 -0.40264939387E+02 -0.20279543771E+03  0.23563846689E+03  0.91297072022E+02 0.  0.
         23    2    1    2    0    0 -0.66656408681E+02  0.40264939387E+02 -0.38110197847E+02  0.12864143465E+03  0.95036252914E+02 0.  0.
          5    1    4    4  502    0 -0.47647908373E+02 -0.21263730317E+02 -0.36866637763E+02  0.64060193406E+02  0.47000000000E+01 0. -1.
         -5    1    3    3    0  503  0.30911164307E+02  0.21436333737E+02 -0.12209617249E+03  0.12784593000E+03  0.47000000000E+01 0.  1.
          5    1    3    3  503    0  0.35745244374E+02 -0.61701273123E+02 -0.80699265222E+02  0.10779253688E+03  0.47000000000E+01 0. -1.
         -5    1    4    4    0  502 -0.19008500309E+02  0.61528669704E+02 -0.12435600838E+01  0.64581241248E+02  0.47000000000E+01 0.  1.
<mgrwt>
<rscale>  0 0.12214315E+03</rscale>
<asrwt>0</asrwt>
<pdfrwt beam="1">  1        2 0.46552733E-01 0.12286672E+03</pdfrwt>
<pdfrwt beam="2">  1       -2 0.94903283E-02 0.12286672E+03</pdfrwt>
<totfact> 0.73852569E+03</totfact>
</mgrwt>
</event>
<event>
 8    1  0.3466492E-004  0.1785493E+03  0.7546771E-02  0.1169497E+00
          1   -1    0    0  501    0  0.00000000000E+00  0.00000000000E+00  0.81222869557E+03  0.81222869557E+03  0.00000000000E+00 0. -1.
         -1   -1    0    0    0  501 -0.00000000000E+00 -0.00000000000E+00 -0.45766115247E+02  0.45766115247E+02  0.00000000000E+00 0.  1.
         23    2    1    2    0    0  0.35077068299E+02  0.14930372414E+03  0.54927426416E+03  0.57756562773E+03  0.91421191764E+02 0.  0.
         23    2    1    2    0    0 -0.35077068299E+02 -0.14930372414E+03  0.21718831617E+03  0.28042918309E+03  0.89150206320E+02 0.  0.
          5    1    3    3  502    0  0.10098766268E+02  0.15250958633E+03  0.46776408183E+03  0.49212446114E+03  0.47000000000E+01 0. -1.
         -5    1    3    3    0  502  0.24978302031E+02 -0.32058621874E+01  0.81510182329E+02  0.85441166588E+02  0.47000000000E+01 0.  1.
          5    1    4    4  503    0 -0.26000008831E+02 -0.40593573302E+02  0.13598832376E+03  0.14435633984E+03  0.47000000000E+01 0. -1.
         -5    1    4    4    0  503 -0.90770594683E+01 -0.10871015084E+03  0.81199992409E+02  0.13607284325E+03  0.47000000000E+01 0.  1.
<mgrwt>
<rscale>  0 0.17826054E+03</rscale>
<asrwt>0</asrwt>
<pdfrwt beam="1">  1        1 0.12495825E+00 0.17854926E+03</pdfrwt>
<pdfrwt beam="2">  1       -1 0.70409414E-02 0.17854926E+03</pdfrwt>
<totfact> 0.23370465E+03</totfact>
</mgrwt>
</event>
<event>
 8    1  0.3466492E-004  0.9153799E+02  0.7546771E-02  0.1300652E+00
          1   -1    0    0  501    0  0.00000000000E+00  0.00000000000E+00  0.69441172731E+02  0.69441172731E+02  0.00000000000E+00 0. -1.
         -1   -1    0    0    0  501 -0.00000000000E+00 -0.00000000000E+00 -0.11816691450E+03  0.11816691450E+03  0.00000000000E+00 0.  1.
         23    2    1    2    0    0 -0.10263612959E+02 -0.35236620831E+01 -0.31414979988E+02  0.94447654666E+02  0.88406450889E+02 0.  0.
         23    2    1    2    0    0  0.10263612959E+02  0.35236620831E+01 -0.17310761781E+02  0.93160432565E+02  0.90892495713E+02 0.  0.
          5    1    3    3  502    0 -0.11460236404E+02 -0.38169404390E+02  0.88652343229E+01  0.41096506294E+02  0.47000000000E+01 0. -1.
         -5    1    3    3    0  502  0.11966234449E+01  0.34645742307E+02 -0.40280214311E+02  0.53351148372E+02  0.47000000000E+01 0.  1.
          5    1    4    4  503    0 -0.34489412171E+02 -0.17346189113E+02 -0.19506570472E+02  0.43508690169E+02  0.47000000000E+01 0. -1.
         -5    1    4    4    0  503  0.44753025130E+02  0.20869851196E+02  0.21958086911E+01  0.49651742397E+02  0.47000000000E+01 0.  1.
<mgrwt>
<rscale>  0 0.90914646E+02</rscale>
<asrwt>0</asrwt>
<pdfrwt beam="1">  1        1 0.10683257E-01 0.91537991E+02</pdfrwt>
<pdfrwt beam="2">  1       -1 0.18179525E-01 0.91537991E+02</pdfrwt>
<totfact> 0.12440262E+04</totfact>
</mgrwt>
</event>
<event>
 8    1  0.3466492E-004  0.1070250E+03  0.7546771E-02  0.1267105E+00
         -2   -1    0    0    0  501 -0.00000000000E+00  0.00000000000E+00  0.19880944181E+03  0.19880944181E+03  0.00000000000E+00 0.  1.
          2   -1    0    0  501    0  0.00000000000E+00 -0.00000000000E+00 -0.60750470050E+02  0.60750470050E+02  0.00000000000E+00 0. -1.
         23    2    1    2    0    0 -0.13417677687E+02 -0.51419338751E+02  0.10355939899E+03  0.14892584331E+03  0.92899812775E+02 0.  0.
         23    2    1    2    0    0  0.13417677687E+02  0.51419338751E+02  0.34499572766E+02  0.11063406855E+03  0.90695612520E+02 0.  0.
          5    1    4    4  502    0  0.45950104885E+02  0.38091347426E+02 -0.17797802174E+01  0.59896748704E+02  0.47000000000E+01 0. -1.
         -5    1    3    3    0  503 -0.50713713458E+02 -0.16914218846E+02  0.68485532885E+02  0.87007641885E+02  0.47000000000E+01 0.  1.
          5    1    3    3  503    0  0.37296035771E+02 -0.34505119905E+02  0.35073866103E+02  0.61918201422E+02  0.47000000000E+01 0. -1.
         -5    1    4    4    0  502 -0.32532427198E+02  0.13327991325E+02  0.36279352984E+02  0.50737319845E+02  0.47000000000E+01 0.  1.
<mgrwt>
<rscale>  0 0.10654491E+03</rscale>
<asrwt>0</asrwt>
<pdfrwt beam="1">  1        2 0.93462263E-02 0.10702503E+03</pdfrwt>
<pdfrwt beam="2">  1       -2 0.30586068E-01 0.10702503E+03</pdfrwt>
<totfact> 0.63918096E+03</totfact>
</mgrwt>
</event>
<event>
 8    1  0.3466492E-004  0.9285401E+02  0.7546771E-02  0.1302754E+00
         -1   -1    0    0    0  501 -0.00000000000E+00  0.00000000000E+00  0.26190856074E+03  0.26190856074E+03  0.00000000000E+00 0.  1.
          1   -1    0    0  501    0  0.00000000000E+00 -0.00000000000E+00 -0.29753114852E+02  0.29753114852E+02  0.00000000000E+00 0. -1.
         23    2    1    2    0    0 -0.59451656445E+01 -0.20361248980E+02  0.89536020871E+02  0.12147892828E+03  0.79312707226E+02 0.  0.
         23    2    1    2    0    0  0.59451656445E+01  0.20361248980E+02  0.14261942502E+03  0.17018274731E+03  0.90398792231E+02 0.  0.
          5    1    3    3  502    0 -0.23841011631E+02  0.15410067367E+02  0.69577977801E+01  0.29603461990E+02  0.47000000000E+01 0. -1.
         -5    1    4    4    0  503 -0.71489266903E+01  0.50471354288E+02  0.11876241613E+03  0.12932542766E+03  0.47000000000E+01 0.  1.
          5    1    4    4  503    0  0.13094092335E+02 -0.30110105308E+02  0.23857008890E+02  0.40857319649E+02  0.47000000000E+01 0. -1.
         -5    1    3    3    0  502  0.17895845986E+02 -0.35771316347E+02  0.82578223090E+02  0.91875466287E+02  0.47000000000E+01 0.  1.
<mgrwt>
<rscale>  0 0.90040201E+02</rscale>
<asrwt>0</asrwt>
<pdfrwt beam="1">  1        1 0.45774025E-02 0.92854010E+02</pdfrwt>
<pdfrwt beam="2">  1       -1 0.40293623E-01 0.92854010E+02</pdfrwt>
<totfact> 0.10398094E+04</totfact>
</mgrwt>
</event>
<event>
 8    1  0.3466492E-004  0.1098536E+03  0.7546771E-02  0.1262393E+00
          1   -1    0    0  501    0  0.00000000000E+00  0.00000000000E+00  0.35347347450E+02  0.35347347450E+02  0.00000000000E+00 0. -1.
         -1   -1    0    0    0  501 -0.00000000000E+00 -0.00000000000E+00 -0.33414126770E+03  0.33414126770E+03  0.00000000000E+00 0.  1.
         23    2    1    2    0    0  0.42039480291E+02 -0.33789577867E+02 -0.16431359236E+03  0.19584310708E+03  0.91904909986E+02 0.  0.
         23    2    1    2    0    0 -0.42039480291E+02  0.33789577867E+02 -0.13448032788E+03  0.17364550807E+03  0.95701360537E+02 0.  0.
          5    1    4    4  502    0 -0.48640724454E+02  0.10689172475E+02 -0.15788183404E+02  0.52455078103E+02  0.47000000000E+01 0. -1.
         -5    1    3    3    0  503  0.53495400001E+02 -0.57253677381E+02 -0.10719044198E+03  0.13285940782E+03  0.47000000000E+01 0.  1.
          5    1    3    3  503    0 -0.11455919710E+02  0.23464099514E+02 -0.57123150384E+02  0.62983699258E+02  0.47000000000E+01 0. -1.
         -5    1    4    4    0  502  0.66012441629E+01  0.23100405392E+02 -0.11869214448E+03  0.12119042996E+03  0.47000000000E+01 0.  1.
<mgrwt>
<rscale>  0 0.10902138E+03</rscale>
<asrwt>0</asrwt>
<pdfrwt beam="1">  1        1 0.54380533E-02 0.10985356E+03</pdfrwt>
<pdfrwt beam="2">  1       -1 0.51406350E-01 0.10985356E+03</pdfrwt>
<totfact> 0.54167657E+03</totfact>
</mgrwt>
</event>
<event>
 8    1  0.3466492E-004  0.9374128E+02  0.7546771E-02  0.1294107E+00
         -2   -1    0    0    0  501 -0.00000000000E+00  0.00000000000E+00  0.10274292076E+03  0.10274292076E+03  0.00000000000E+00 0.  1.
          2   -1    0    0  501    0  0.00000000000E+00 -0.00000000000E+00 -0.98843719328E+02  0.98843719328E+02  0.00000000000E+00 0. -1.
         23    2    1    2    0    0 -0.71947920239E+01  0.23188057226E+02 -0.35201850599E+02  0.10001735720E+03  0.90414879447E+02 0.  0.
         23    2    1    2    0    0  0.71947920239E+01 -0.23188057226E+02  0.39101052029E+02  0.10156928289E+03  0.90542674613E+02 0.  0.
          5    1    3    3  502    0 -0.36219209740E+02  0.40972592426E+02 -0.65510703550E+01  0.55277400510E+02  0.47000000000E+01 0. -1.
         -5    1    3    3    0  502  0.29024417716E+02 -0.17784535200E+02 -0.28650780244E+02  0.44739956690E+02  0.47000000000E+01 0.  1.
          5    1    4    4  503    0 -0.22855988017E+02  0.36397400415E+01 -0.19277507913E+02  0.30485344137E+02  0.47000000000E+01 0. -1.
         -5    1    4    4    0  503  0.30050780041E+02 -0.26827797267E+02  0.58378559942E+02  0.71083938749E+02  0.47000000000E+01 0.  1.
<mgrwt>
<rscale>  0 0.93710404E+02</rscale>
<asrwt>0</asrwt>
<pdfrwt beam="1">  1        2 0.15206726E-01 0.93741277E+02</pdfrwt>
<pdfrwt beam="2">  1       -2 0.15806603E-01 0.93741277E+02</pdfrwt>
<totfact> 0.10899287E+04</totfact>
</mgrwt>
</event>
<event>
 8    1  0.3466492E-004  0.1741879E+03  0.7546771E-02  0.1173837E+00
         -1   -1    0    0    0  501 -0.00000000000E+00  0.00000000000E+00  0.23532532701E+03  0.23532532701E+03  0.00000000000E+00 0.  1.
          1   -1    0    0  501    0  0.00000000000E+00 -0.00000000000E+00 -0.14753718026E+03  0.14753718026E+03  0.00000000000E+00 0. -1.
         23    2    1    2    0    0 -0.74306323338E+02 -0.12659305068E+03  0.11325742722E+03  0.20682247734E+03  0.91657308172E+02 0.  0.
         23    2    1    2    0    0  0.74306323338E+02  0.12659305068E+03 -0.25469280477E+02  0.17604002994E+03  0.93777277231E+02 0.  0.
          5    1    4    4  502    0  0.95801681370E+02  0.10970500610E+03 -0.15412124279E+02  0.14653591400E+03  0.47000000000E+01 0. -1.
         -5    1    3    3    0  503 -0.26229516509E+01 -0.89453948754E+02  0.77182256873E+02  0.11827121205E+03  0.47000000000E+01 0.  1.
          5    1    3    3  503    0 -0.71683371687E+02 -0.37139101926E+02  0.36075170351E+02  0.88551265288E+02  0.47000000000E+01 0. -1.
         -5    1    4    4    0  502 -0.21495358033E+02  0.16888044583E+02 -0.10057156198E+02  0.29504115943E+02  0.47000000000E+01 0.  1.
<mgrwt>
<rscale>  0 0.17390413E+03</rscale>
<asrwt>0</asrwt>
<pdfrwt beam="1">  1        1 0.22698028E-01 0.17418785E+03</pdfrwt>
<pdfrwt beam="2">  1       -1 0.36203896E-01 0.17418785E+03</pdfrwt>
<totfact> 0.15768581E+03</totfact>
</mgrwt>
</event>
<event>
 8    1  0.3466492E-004  0.9655666E+02  0.7546771E-02  0.1289769E+00
          2   -1    0    0  501    0  0.00000000000E+00  0.00000000000E+00  0.16810001414E+02  0.16810001414E+02  0.00000000000E+00 0. -1.
         -2   -1    0    0    0  501 -0.00000000000E+00 -0.00000000000E+00 -0.56686668778E+03  0.56686668778E+03  0.00000000000E+00 0.  1.
         23    2    1    2    0    0 -0.72377865883E+01 -0.11518594447E+02 -0.20954294639E+03  0.23071938640E+03  0.95593542173E+02 0.  0.
         23    2    1    2    0    0  0.72377865883E+01  0.11518594447E+02 -0.34051373997E+03  0.35295730279E+03  0.91892257082E+02 0.  0.
          5    1    4    4  502    0 -0.30169925230E+02 -0.23007838972E+02 -0.99746848075E+02  0.10682279131E+03  0.47000000000E+01 0. -1.
         -5    1    3    3    0  503 -0.28920144494E+01  0.35078732257E+02 -0.15350310710E+03  0.15755689479E+03  0.47000000000E+01 0.  1.
          5    1    3    3  503    0 -0.43457721390E+01 -0.46597326704E+02 -0.56039839286E+02  0.73162491611E+02  0.47000000000E+01 0. -1.
         -5    1    4    4    0  502  0.37407711818E+02  0.34526433420E+02 -0.24076689190E+03  0.24613451148E+03  0.47000000000E+01 0.  1.
<mgrwt>
<rscale>  0 0.95627613E+02</rscale>
<asrwt>0</asrwt>
<pdfrwt beam="1">  1        2 0.25861541E-02 0.96556661E+02</pdfrwt>
<pdfrwt beam="2">  1       -2 0.87210257E-01 0.96556661E+02</pdfrwt>
<totfact> 0.41447862E+03</totfact>
</mgrwt>
</event>
<event>
 8    1  0.3466492E-004  0.1239858E+03  0.7546771E-02  0.1237407E+00
          1   -1    0    0  501    0  0.00000000000E+00  0.00000000000E+00  0.60340662087E+02  0.60340662087E+02  0.00000000000E+00 0. -1.
         -1   -1    0    0    0  501 -0.00000000000E+00 -0.00000000000E+00 -0.30544310522E+03  0.30544310522E+03  0.00000000000E+00 0.  1.
         23    2    1    2    0    0 -0.22967430775E+02 -0.78728264322E+02 -0.20057453954E+03  0.23580206596E+03  0.92988310681E+02 0.  0.
         23    2    1    2    0    0  0.22967430775E+02  0.78728264322E+02 -0.44527903599E+02  0.12998170134E+03  0.90481301969E+02 0.  0.
          5    1    4    4  502    0 -0.95926460471E+01  0.68913657174E+02  0.47793681139E+01  0.69900238647E+02  0.47000000000E+01 0. -1.
         -5    1    3    3    0  503 -0.44330250737E+02 -0.67166521044E+01 -0.10411302215E+03  0.11345437818E+03  0.47000000000E+01 0.  1.
          5    1    3    3  503    0  0.21362819962E+02 -0.72011612217E+02 -0.96461517385E+02  0.12234768779E+03  0.47000000000E+01 0. -1.
         -5    1    4    4    0  502  0.32560076822E+02  0.98146071472E+01 -0.49307271713E+02  0.60081462697E+02  0.47000000000E+01 0.  1.
<mgrwt>
<rscale>  0 0.12351585E+03</rscale>
<asrwt>0</asrwt>
<pdfrwt beam="1">  1        1 0.92831787E-02 0.12398576E+03</pdfrwt>
<pdfrwt beam="2">  1       -1 0.46991247E-01 0.12398576E+03</pdfrwt>
<totfact> 0.31348223E+03</totfact>
</mgrwt>
</event>
<event>
 8    1  0.3466492E-004  0.1460883E+03  0.7546771E-02  0.1206004E+00
         -1   -1    0    0    0  501 -0.00000000000E+00  0.00000000000E+00  0.95228760704E+02  0.95228760704E+02  0.00000000000E+00 0.  1.
          1   -1    0    0  501    0  0.00000000000E+00 -0.00000000000E+00 -0.22138708574E+03  0.22138708574E+03  0.00000000000E+00 0. -1.
         23    2    1    2    0    0  0.38030553824E+02 -0.10843181903E+03 -0.68774688135E+02  0.15966149074E+03  0.86937054791E+02 0.  0.
         23    2    1    2    0    0 -0.38030553824E+02  0.10843181903E+03 -0.57383636900E+02  0.15695435570E+03  0.90210895065E+02 0.  0.
          5    1    4    4  502    0 -0.58704869045E+02  0.52772914780E+02 -0.56848920519E+02  0.97391642085E+02  0.47000000000E+01 0. -1.
         -5    1    3    3    0  503  0.57616175690E+02 -0.61696030126E+02 -0.15444464896E+02  0.85945595177E+02  0.47000000000E+01 0.  1.
          5    1    3    3  503    0 -0.19585621865E+02 -0.46735788901E+02 -0.53330223239E+02  0.73715895564E+02  0.47000000000E+01 0. -1.
         -5    1    4    4    0  502  0.20674315220E+02  0.55658904247E+02 -0.53471638095E+00  0.59562713617E+02  0.47000000000E+01 0.  1.
<mgrwt>
<rscale>  0 0.14558605E+03</rscale>
<asrwt>0</asrwt>
<pdfrwt beam="1">  1        1 0.34059552E-01 0.14608829E+03</pdfrwt>
<pdfrwt beam="2">  1       -1 0.14650579E-01 0.14608829E+03</pdfrwt>
<totfact> 0.41493122E+03</totfact>
</mgrwt>
</event>
<event>
 8    1  0.3466492E-004  0.9827779E+02  0.7546771E-02  0.1295276E+00
         -2   -1    0    0    0  501 -0.00000000000E+00  0.00000000000E+00  0.77225931401E+02  0.77225931401E+02  0.00000000000E+00 0.  1.
          2   -1    0    0  501    0  0.00000000000E+00 -0.00000000000E+00 -0.11414068167E+03  0.11414068167E+03  0.00000000000E+00 0. -1.
         23    2    1    2    0    0  0.24604274040E+02  0.25881815385E+02  0.10445866527E+02  0.98831369771E+02  0.91560279896E+02 0.  0.
         23    2    1    2    0    0 -0.24604274040E+02 -0.25881815385E+02 -0.47360616798E+02  0.92535243301E+02  0.71024675717E+02 0.  0.
          5    1    4    4  502    0 -0.43703994308E+02 -0.36319758322E+02 -0.30985323001E+02  0.64894870402E+02  0.47000000000E+01 0. -1.
         -5    1    4    4    0  502  0.19099720268E+02  0.10437942937E+02 -0.16375293797E+02  0.27640372899E+02  0.47000000000E+01 0.  1.
          5    1    3    3  503    0  0.58643295161E+02  0.10704369040E+02  0.12949850184E+02  0.61183398105E+02  0.47000000000E+01 0. -1.
         -5    1    3    3    0  503 -0.34039021121E+02  0.15177446345E+02 -0.25039836570E+01  0.37647971666E+02  0.47000000000E+01 0.  1.
<mgrwt>
<rscale>  0 0.93202800E+02</rscale>
<asrwt>0</asrwt>
<pdfrwt beam="1">  1        2 0.17560105E-01 0.98277788E+02</pdfrwt>
<pdfrwt beam="2">  1       -2 0.11880913E-01 0.98277788E+02</pdfrwt>
<totfact> 0.14679262E+04</totfact>
</mgrwt>
</event>
<event>
 8    1  0.3466492E-004  0.1043803E+03  0.7546771E-02  0.1272716E+00
          1   -1    0    0  501    0  0.00000000000E+00  0.00000000000E+00  0.16603624388E+03  0.16603624388E+03  0.00000000000E+00 0. -1.
         -1   -1    0    0    0  501 -0.00000000000E+00 -0.00000000000E+00 -0.91255164878E+02  0.91255164878E+02  0.00000000000E+00 0.  1.
         23    2    1    2    0    0  0.19078365467E+02  0.40106336015E+02  0.10814087885E+03  0.15029866559E+03  0.94460240209E+02 0.  0.
         23    2    1    2    0    0 -0.19078365467E+02 -0.40106336015E+02 -0.33359799850E+02  0.10699274317E+03  0.91444347164E+02 0.  0.
          5    1    4    4  502    0  0.70234459155E+01 -0.23402917718E+02  0.28385776282E+02  0.37747419056E+02  0.47000000000E+01 0. -1.
         -5    1    4    4    0  502 -0.26101811382E+02 -0.16703418297E+02 -0.61745576132E+02  0.69245324117E+02  0.47000000000E+01 0.  1.
          5    1    3    3  503    0  0.53124555751E+02  0.27440327692E+02  0.37526699603E+02  0.70749792867E+02  0.47000000000E+01 0. -1.
         -5    1    3    3    0  503 -0.34046190284E+02  0.12666008323E+02  0.70614179251E+02  0.79548872720E+02  0.47000000000E+01 0.  1.
<mgrwt>
<rscale>  0 0.10369322E+03</rscale>
<asrwt>0</asrwt>
<pdfrwt beam="1">  1        1 0.25544037E-01 0.10438026E+03</pdfrwt>
<pdfrwt beam="2">  1       -1 0.14039256E-01 0.10438026E+03</pdfrwt>
<totfact> 0.62047222E+03</totfact>
</mgrwt>
</event>
<event>
 8    1  0.3466492E-004  0.1065914E+03  0.7546771E-02  0.1268172E+00
          1   -1    0    0  501    0  0.00000000000E+00  0.00000000000E+00  0.79464178800E+03  0.79464178800E+03  0.00000000000E+00 0. -1.
         -1   -1    0    0    0  501 -0.00000000000E+00 -0.00000000000E+00 -0.14799017703E+02  0.14799017703E+02  0.00000000000E+00 0.  1.
         23    2    1    2    0    0 -0.45894889127E+02 -0.28379470943E+02  0.48086622280E+03  0.49203145996E+03  0.89167808854E+02 0.  0.
         23    2    1    2    0    0  0.45894889127E+02  0.28379470943E+02  0.29897654749E+03  0.31740934574E+03  0.91923781451E+02 0.  0.
          5    1    3    3  502    0 -0.72258212203E+02 -0.26998470729E+02  0.34600186561E+03  0.35452721710E+03  0.47000000000E+01 0. -1.
         -5    1    4    4    0  503 -0.22733325443E+02  0.27659900185E+02  0.13115778593E+03  0.13603796887E+03  0.47000000000E+01 0.  1.
          5    1    4    4  503    0  0.68628214570E+02  0.71957075783E+00  0.16781876156E+03  0.18137137687E+03  0.47000000000E+01 0. -1.
         -5    1    3    3    0  502  0.26363323076E+02 -0.13810002138E+01  0.13486435719E+03  0.13750424286E+03  0.47000000000E+01 0.  1.
<mgrwt>
<rscale>  0 0.10599451E+03</rscale>
<asrwt>0</asrwt>
<pdfrwt beam="1">  1        1 0.12225255E+00 0.10659135E+03</pdfrwt>
<pdfrwt beam="2">  1       -1 0.22767726E-02 0.10659135E+03</pdfrwt>
<totfact> 0.12404670E+04</totfact>
</mgrwt>
</event>
<event>
 8    1  0.3466492E-004  0.9976823E+02  0.7546771E-02  0.1281674E+00
         -2   -1    0    0    0  501 -0.00000000000E+00  0.00000000000E+00  0.73390354726E+02  0.73390354726E+02  0.00000000000E+00 0.  1.
          2   -1    0    0  501    0  0.00000000000E+00 -0.00000000000E+00 -0.22588908025E+03  0.22588908025E+03  0.00000000000E+00 0. -1.
         23    2    1    2    0    0  0.15812557471E+02 -0.34287703744E+02  0.19898863379E+02  0.10009452616E+03  0.90538753038E+02 0.  0.
         23    2    1    2    0    0 -0.15812557471E+02  0.34287703744E+02 -0.17239758890E+03  0.19918490882E+03  0.92347255717E+02 0.  0.
          5    1    3    3  502    0  0.39164704788E+02 -0.81756310703E+01 -0.21498038257E+02  0.45661479317E+02  0.47000000000E+01 0. -1.
         -5    1    3    3    0  502 -0.23352147317E+02 -0.26112072673E+02  0.41396901636E+02  0.54433046844E+02  0.47000000000E+01 0.  1.
          5    1    4    4  503    0  0.24882267038E+02  0.29037195505E+02 -0.14399637973E+03  0.14906150848E+03  0.47000000000E+01 0. -1.
         -5    1    4    4    0  503 -0.40694824509E+02  0.52505082384E+01 -0.28401209177E+02  0.50123400337E+02  0.47000000000E+01 0.  1.
<mgrwt>
<rscale>  0 0.99347677E+02</rscale>
<asrwt>0</asrwt>
<pdfrwt beam="1">  1        2 0.34752166E-01 0.99768228E+02</pdfrwt>
<pdfrwt beam="2">  1       -2 0.11290824E-01 0.99768228E+02</pdfrwt>
<totfact> 0.75429242E+03</totfact>
</mgrwt>
</event>
<event>
 8    1  0.3466492E-004  0.2306545E+03  0.7546771E-02  0.1126191E+00
          2   -1    0    0  501    0  0.00000000000E+00  0.00000000000E+00  0.25191230927E+04  0.25191230927E+04  0.00000000000E+00 0. -1.
         -2   -1    0    0    0  501 -0.00000000000E+00 -0.00000000000E+00 -0.25132635188E+02  0.25132635188E+02  0.00000000000E+00 0.  1.
         23    2    1    2    0    0  0.24674242704E+02 -0.21035344878E+03  0.73810338263E+03  0.77328397935E+03  0.91181783310E+02 0.  0.
         23    2    1    2    0    0 -0.24674242704E+02  0.21035344878E+03  0.17558870749E+04  0.17709717485E+04  0.91346169676E+02 0.  0.
          5    1    3    3  502    0 -0.32656650723E+02 -0.51347465650E+02  0.17478514731E+03  0.18513496910E+03  0.47000000000E+01 0. -1.
         -5    1    4    4    0  503  0.30327441456E+02  0.12717098990E+03  0.99538144737E+03  0.10039414974E+04  0.47000000000E+01 0.  1.
          5    1    4    4  503    0 -0.55001684160E+02  0.83182458879E+02  0.76050562752E+03  0.76703025117E+03  0.47000000000E+01 0. -1.
         -5    1    3    3    0  502  0.57330893427E+02 -0.15900598313E+03  0.56331823532E+03  0.58814901025E+03  0.47000000000E+01 0.  1.
<mgrwt>
<rscale>  0 0.23063827E+03</rscale>
<asrwt>0</asrwt>
<pdfrwt beam="1">  1        2 0.38755720E+00 0.23065453E+03</pdfrwt>
<pdfrwt beam="2">  1       -2 0.38665613E-02 0.23065453E+03</pdfrwt>
<totfact> 0.11393216E+03</totfact>
</mgrwt>
</event>
<event>
 8    1  0.3466492E-004  0.2753407E+03  0.7546771E-02  0.1098416E+00
          1   -1    0    0  501    0  0.00000000000E+00  0.00000000000E+00  0.28997281057E+03  0.28997281057E+03  0.00000000000E+00 0. -1.
         -1   -1    0    0    0  501 -0.00000000000E+00 -0.00000000000E+00 -0.36065414195E+03  0.36065414195E+03  0.00000000000E+00 0.  1.
         23    2    1    2    0    0 -0.15935072245E+02 -0.25930109671E+03  0.13612561209E+03  0.30715252826E+03  0.91222300277E+02 0.  0.
         23    2    1    2    0    0  0.15935072245E+02  0.25930109671E+03 -0.20680694347E+03  0.34347442425E+03  0.87832698731E+02 0.  0.
          5    1    4    4  502    0  0.16050762473E+02  0.12523632467E+03 -0.46951316324E+02  0.13478976258E+03  0.47000000000E+01 0. -1.
         -5    1    4    4    0  502 -0.11569022808E+00  0.13406477204E+03 -0.15985562714E+03  0.20868466167E+03  0.47000000000E+01 0.  1.
          5    1    3    3  503    0 -0.37461018514E+02 -0.18348301822E+03  0.58054292562E+02  0.19611664072E+03  0.47000000000E+01 0. -1.
         -5    1    3    3    0  503  0.21525946270E+02 -0.75818078495E+02  0.78071319532E+02  0.11103588755E+03  0.47000000000E+01 0.  1.
<mgrwt>
<rscale>  0 0.27506418E+03</rscale>
<asrwt>0</asrwt>
<pdfrwt beam="1">  1        1 0.44611202E-01 0.27534069E+03</pdfrwt>
<pdfrwt beam="2">  1       -1 0.55485252E-01 0.27534069E+03</pdfrwt>
<totfact> 0.31094146E+02</totfact>
</mgrwt>
</event>
<event>
 8    1  0.3466492E-004  0.9572591E+02  0.7546771E-02  0.1289678E+00
          3   -1    0    0  501    0  0.00000000000E+00  0.00000000000E+00  0.13693459738E+02  0.13693459738E+02  0.00000000000E+00 0. -1.
         -3   -1    0    0    0  501 -0.00000000000E+00 -0.00000000000E+00 -0.89226998198E+03  0.89226998198E+03  0.00000000000E+00 0.  1.
         23    2    1    2    0    0  0.31559034606E+02 -0.29324315936E+01 -0.21157687496E+03  0.23212965028E+03  0.90082343994E+02 0.  0.
         23    2    1    2    0    0 -0.31559034606E+02  0.29324315936E+01 -0.66699964729E+03  0.67383379144E+03  0.90326503267E+02 0.  0.
          5    1    4    4  502    0  0.25520563491E+02  0.21469079600E+02 -0.30620989700E+03  0.30805650709E+03  0.47000000000E+01 0. -1.
         -5    1    3    3    0  503  0.26770461020E+02 -0.38457115879E+02 -0.17285081042E+03  0.17915105360E+03  0.47000000000E+01 0.  1.
          5    1    3    3  503    0  0.47885735864E+01  0.35524684285E+02 -0.38726064541E+02  0.52978596672E+02  0.47000000000E+01 0. -1.
         -5    1    4    4    0  502 -0.57079598097E+02 -0.18536648006E+02 -0.36078975028E+03  0.36577728435E+03  0.47000000000E+01 0.  1.
<mgrwt>
<rscale>  0 0.95668265E+02</rscale>
<asrwt>0</asrwt>
<pdfrwt beam="1">  1        3 0.21066855E-02 0.95725906E+02</pdfrwt>
<pdfrwt beam="2">  1       -3 0.13727234E+00 0.95725906E+02</pdfrwt>
<totfact> 0.82184147E+02</totfact>
</mgrwt>
</event>
<event>
 8    1  0.5230807E-004  0.1239460E+03  0.7546771E-02  0.1242081E+00
          1   -1    0    0  501    0  0.00000000000E+00  0.00000000000E+00  0.45758497445E+03  0.45758497445E+03  0.00000000000E+00 0. -1.
         -1   -1    0    0    0  501 -0.00000000000E+00 -0.00000000000E+00 -0.47684722786E+02  0.47684722786E+02  0.00000000000E+00 0.  1.
         23    2    1    2    0    0 -0.82840247976E+02  0.85841891188E+01  0.35073028071E+03  0.36792451137E+03  0.73624189423E+02 0.  0.
         23    2    1    2    0    0  0.82840247976E+02 -0.85841891188E+01  0.59169970953E+02  0.13734518587E+03  0.91795531655E+02 0.  0.
          5    1    4    4  502    0 -0.10207709620E+02 -0.25443229701E+02  0.22636104627E+02  0.35861379031E+02  0.47000000000E+01 0. -1.
         -5    1    4    4    0  502  0.93047957595E+02  0.16859040582E+02  0.36533866325E+02  0.10148380684E+03  0.47000000000E+01 0.  1.
          5    1    3    3  503    0 -0.85154883619E+02 -0.15304576708E+02  0.26852422867E+03  0.28215764327E+03  0.47000000000E+01 0. -1.
         -5    1    3    3    0  503  0.23146356429E+01  0.23888765827E+02  0.82206052044E+02  0.85766868099E+02  0.47000000000E+01 0.  1.
<mgrwt>
<rscale>  0 0.12061805E+03</rscale>
<asrwt>0</asrwt>
<pdfrwt beam="1">  1        1 0.70397685E-01 0.12394601E+03</pdfrwt>
<pdfrwt beam="2">  1       -1 0.73361115E-02 0.12394601E+03</pdfrwt>
<totfact> 0.47932669E+03</totfact>
</mgrwt>
</event>
<event>
 8    1  0.3466492E-004  0.9507840E+02  0.7546771E-02  0.1293733E+00
         -1   -1    0    0    0  501 -0.00000000000E+00  0.00000000000E+00  0.61800415925E+02  0.61800415925E+02  0.00000000000E+00 0.  1.
          1   -1    0    0  501    0  0.00000000000E+00 -0.00000000000E+00 -0.18776878497E+03  0.18776878497E+03  0.00000000000E+00 0. -1.
         23    2    1    2    0    0  0.12825966784E+02  0.98669377608E+01 -0.12531357745E+03  0.15448854138E+03  0.88889565413E+02 0.  0.
         23    2    1    2    0    0 -0.12825966784E+02 -0.98669377608E+01 -0.65479160090E+00  0.95080659521E+02  0.93691201178E+02 0.  0.
          5    1    4    4  502    0  0.95422546912E+01 -0.48217021165E+02 -0.74046930825E+01  0.49928501222E+02  0.47000000000E+01 0. -1.
         -5    1    3    3    0  503 -0.44019637183E+01  0.27906079725E+02 -0.21317481421E+01  0.28718651088E+02  0.47000000000E+01 0.  1.
          5    1    3    3  503    0  0.17227930502E+02 -0.18039141964E+02 -0.12318182931E+03  0.12576989029E+03  0.47000000000E+01 0. -1.
         -5    1    4    4    0  502 -0.22368221475E+02  0.38350083404E+02  0.67499014816E+01  0.45152158299E+02  0.47000000000E+01 0.  1.
<mgrwt>
<rscale>  0 0.93873731E+02</rscale>
<asrwt>0</asrwt>
<pdfrwt beam="1">  1        1 0.28887505E-01 0.95078405E+02</pdfrwt>
<pdfrwt beam="2">  1       -1 0.95077565E-02 0.95078405E+02</pdfrwt>
<totfact> 0.95900897E+03</totfact>
</mgrwt>
</event>
<event>
 8    1  0.3466492E-004  0.1009069E+03  0.7546771E-02  0.1281109E+00
         -2   -1    0    0    0  501 -0.00000000000E+00  0.00000000000E+00  0.19527532727E+03  0.19527532727E+03  0.00000000000E+00 0.  1.
          2   -1    0    0  501    0  0.00000000000E+00 -0.00000000000E+00 -0.89164319598E+02  0.89164319598E+02  0.00000000000E+00 0. -1.
         23    2    1    2    0    0 -0.20813495973E+02  0.31700715041E+02  0.14706803550E+03  0.17553751314E+03  0.88012922376E+02 0.  0.
         23    2    1    2    0    0  0.20813495973E+02 -0.31700715041E+02 -0.40957027823E+02  0.10890213373E+03  0.93509676795E+02 0.  0.
          5    1    3    3  502    0  0.27082831740E+02  0.35653166729E+02  0.51077760929E+02  0.68085649989E+02  0.47000000000E+01 0. -1.
         -5    1    4    4    0  503  0.23374590462E+02  0.10992001890E+02  0.20896449724E+02  0.33555136654E+02  0.47000000000E+01 0.  1.
          5    1    4    4  503    0 -0.25610944886E+01 -0.42692716930E+02 -0.61853477547E+02  0.75346997077E+02  0.47000000000E+01 0. -1.
         -5    1    3    3    0  502 -0.47896327713E+02 -0.39524516887E+01  0.95990274568E+02  0.10745186315E+03  0.47000000000E+01 0.  1.
<mgrwt>
<rscale>  0 0.99614365E+02</rscale>
<asrwt>0</asrwt>
<pdfrwt beam="1">  1        2 0.13717588E-01 0.10090687E+03</pdfrwt>
<pdfrwt beam="2">  1       -2 0.30042358E-01 0.10090687E+03</pdfrwt>
<totfact> 0.41455221E+03</totfact>
</mgrwt>
</event>
<event>
 8    1  0.3466492E-004  0.1045943E+03  0.7546771E-02  0.1271284E+00
          1   -1    0    0  501    0  0.00000000000E+00  0.00000000000E+00  0.80995902051E+03  0.80995902051E+03  0.00000000000E+00 0. -1.
         -1   -1    0    0    0  501 -0.00000000000E+00 -0.00000000000E+00 -0.73477837759E+02  0.73477837759E+02  0.00000000000E+00 0.  1.
         23    2    1    2    0    0  0.17326677596E+02 -0.41305402813E+02 -0.31367308915E+02  0.10849733148E+03  0.93709192784E+02 0.  0.
         23    2    1    2    0    0 -0.17326677596E+02  0.41305402813E+02  0.76784849166E+03  0.77493952678E+03  0.94517797087E+02 0.  0.
          5    1    3    3  502    0 -0.76301519758E+01 -0.36834784367E+02  0.25750990116E+02  0.45828201476E+02  0.47000000000E+01 0. -1.
         -5    1    3    3    0  502  0.24956829572E+02 -0.44706184455E+01 -0.57118299031E+02  0.62669130006E+02  0.47000000000E+01 0.  1.
          5    1    4    4  503    0 -0.41474007301E+02 -0.13947464915E+02  0.34059399691E+03  0.34342537150E+03  0.47000000000E+01 0. -1.
         -5    1    4    4    0  503  0.24147329705E+02  0.55252867727E+02  0.42725449476E+03  0.43151415529E+03  0.47000000000E+01 0.  1.
<mgrwt>
<rscale>  0 0.10441127E+03</rscale>
<asrwt>0</asrwt>
<pdfrwt beam="1">  1        1 0.12460907E+00 0.10459428E+03</pdfrwt>
<pdfrwt beam="2">  1       -1 0.11304283E-01 0.10459428E+03</pdfrwt>
<totfact> 0.11351702E+03</totfact>
</mgrwt>
</event>
<event>
 8    1  0.3466492E-004  0.9112786E+02  0.7546771E-02  0.1300842E+00
          4   -1    0    0  501    0  0.00000000000E+00  0.00000000000E+00  0.32150550642E+03  0.32150550642E+03  0.00000000000E+00 0. -1.
         -4   -1    0    0    0  501 -0.00000000000E+00 -0.00000000000E+00 -0.79660370894E+02  0.79660370894E+02  0.00000000000E+00 0.  1.
         23    2    1    2    0    0 -0.11534863910E+02 -0.77673177327E+01 -0.44218837173E+02  0.10128964607E+03  0.90060549243E+02 0.  0.
         23    2    1    2    0    0  0.11534863910E+02  0.77673177327E+01  0.28606397270E+03  0.29987623124E+03  0.88880668757E+02 0.  0.
          5    1    4    4  502    0 -0.45079038254E+01 -0.38840108480E+02  0.14996851762E+03  0.15505328601E+03  0.47000000000E+01 0.  1.
         -5    1    3    3    0  503 -0.26414070392E+02 -0.43754074316E+02 -0.30677131817E+02  0.59793800268E+02  0.47000000000E+01 0.  1.
          5    1    3    3  503    0  0.14879206482E+02  0.35986756584E+02 -0.13541705356E+02  0.41495845803E+02  0.47000000000E+01 0. -1.
         -5    1    4    4    0  502  0.16042767735E+02  0.46607426212E+02  0.13609545508E+03  0.14482294524E+03  0.47000000000E+01 0. -1.
<mgrwt>
<rscale>  0 0.90834981E+02</rscale>
<asrwt>0</asrwt>
<pdfrwt beam="1">  1        4 0.49462385E-01 0.91127860E+02</pdfrwt>
<pdfrwt beam="2">  1       -4 0.12255442E-01 0.91127860E+02</pdfrwt>
<totfact> 0.32599164E+02</totfact>
</mgrwt>
</event>
<event>
 8    1  0.3466492E-004  0.1598816E+03  0.7546771E-02  0.1190572E+00
         -1   -1    0    0    0  501 -0.00000000000E+00  0.00000000000E+00  0.27066432743E+02  0.27066432743E+02  0.00000000000E+00 0.  1.
          1   -1    0    0  501    0  0.00000000000E+00 -0.00000000000E+00 -0.98853081245E+03  0.98853081245E+03  0.00000000000E+00 0. -1.
         23    2    1    2    0    0  0.25040276378E+01  0.12360687576E+03 -0.63316398981E+03  0.65303809168E+03  0.10137643367E+03 0.  0.
         23    2    1    2    0    0 -0.25040276378E+01 -0.12360687576E+03 -0.32830038990E+03  0.36255915352E+03  0.91559073276E+02 0.  0.
          5    1    4    4  502    0 -0.22148538369E+02 -0.85822326802E+01 -0.15704980745E+02  0.28860853935E+02  0.47000000000E+01 0. -1.
         -5    1    3    3    0  503 -0.20349095886E+02 -0.76707452022E+01 -0.15661625021E+03  0.15818870335E+03  0.47000000000E+01 0.  1.
          5    1    3    3  503    0  0.22853123524E+02  0.13127762096E+03 -0.47654773959E+03  0.49484938833E+03  0.47000000000E+01 0. -1.
         -5    1    4    4    0  502  0.19644510731E+02 -0.11502464308E+03 -0.31259540916E+03  0.33369829958E+03  0.47000000000E+01 0.  1.
<mgrwt>
<rscale>  0 0.15835032E+03</rscale>
<asrwt>0</asrwt>
<pdfrwt beam="1">  1        1 0.15208165E+00 0.15988155E+03</pdfrwt>
<pdfrwt beam="2">  1       -1 0.41640669E-02 0.15988155E+03</pdfrwt>
<totfact> 0.37243116E+03</totfact>
</mgrwt>
</event>
<event>
 8    1  0.3466492E-004  0.1176810E+03  0.7546771E-02  0.1247303E+00
          2   -1    0    0  501    0  0.00000000000E+00  0.00000000000E+00  0.63680920436E+02  0.63680920436E+02  0.00000000000E+00 0. -1.
         -2   -1    0    0    0  501 -0.00000000000E+00 -0.00000000000E+00 -0.21604313785E+03  0.21604313785E+03  0.00000000000E+00 0.  1.
         23    2    1    2    0    0  0.56774108784E+02 -0.46911959266E+02 -0.77317071240E+02  0.14080746718E+03  0.91786611004E+02 0.  0.
         23    2    1    2    0    0 -0.56774108784E+02  0.46911959266E+02 -0.75045146174E+02  0.13891659110E+03  0.90785538324E+02 0.  0.
          5    1    3    3  502    0 -0.19831510877E+02  0.28172265312E+01  0.71767947803E+00  0.20587147758E+02  0.47000000000E+01 0. -1.
         -5    1    4    4    0  503  0.11112485390E+00 -0.24227328465E+02 -0.88440269022E+01  0.26216075319E+02  0.47000000000E+01 0.  1.
          5    1    4    4  503    0 -0.56885233637E+02  0.71139287731E+02 -0.66201119271E+02  0.11270051578E+03  0.47000000000E+01 0. -1.
         -5    1    3    3    0  502  0.76605619660E+02 -0.49729185797E+02 -0.78034750718E+02  0.12022031943E+03  0.47000000000E+01 0.  1.
<mgrwt>
<rscale>  0 0.11748572E+03</rscale>
<asrwt>0</asrwt>
<pdfrwt beam="1">  1        2 0.97970645E-02 0.11768098E+03</pdfrwt>
<pdfrwt beam="2">  1       -2 0.33237407E-01 0.11768098E+03</pdfrwt>
<totfact> 0.52295995E+03</totfact>
</mgrwt>
</event>
<event>
 8    1  0.3466492E-004  0.1208233E+03  0.7546771E-02  0.1242843E+00
         -3   -1    0    0    0  501 -0.00000000000E+00  0.00000000000E+00  0.13642897983E+03  0.13642897983E+03  0.00000000000E+00 0.  1.
          3   -1    0    0  501    0  0.00000000000E+00 -0.00000000000E+00 -0.10602199133E+03  0.10602199133E+03  0.00000000000E+00 0. -1.
         23    2    1    2    0    0 -0.76522917718E+02 -0.17970521790E+02  0.28756961291E+02  0.12161637816E+03  0.88231989798E+02 0.  0.
         23    2    1    2    0    0  0.76522917718E+02  0.17970521790E+02  0.16500272057E+01  0.12083459301E+03  0.91758267684E+02 0.  0.
          5    1    4    4  502    0  0.53895192811E+02  0.14924826417E+02 -0.42843068446E+02  0.70604962755E+02  0.47000000000E+01 0. -1.
         -5    1    3    3    0  503 -0.79026630076E+02  0.11340092982E+02 -0.33820319527E+00  0.79975060809E+02  0.47000000000E+01 0.  1.
          5    1    3    3  503    0  0.25037123584E+01 -0.29310614772E+02  0.29095164486E+02  0.41641317347E+02  0.47000000000E+01 0. -1.
         -5    1    4    4    0  502  0.22627724907E+02  0.30456953732E+01  0.44493095652E+02  0.50229630254E+02  0.47000000000E+01 0.  1.
<mgrwt>
<rscale>  0 0.12015385E+03</rscale>
<asrwt>0</asrwt>
<pdfrwt beam="1">  1        3 0.16311076E-01 0.12082333E+03</pdfrwt>
<pdfrwt beam="2">  1       -3 0.20989074E-01 0.12082333E+03</pdfrwt>
<totfact> 0.14891793E+03</totfact>
</mgrwt>
</event>
<event>
 8    1  0.3466492E-004  0.1060460E+03  0.7546771E-02  0.1268709E+00
          1   -1    0    0  501    0  0.00000000000E+00  0.00000000000E+00  0.12404436483E+03  0.12404436483E+03  0.00000000000E+00 0. -1.
         -1   -1    0    0    0  501 -0.00000000000E+00 -0.00000000000E+00 -0.97618969850E+02  0.97618969850E+02  0.00000000000E+00 0.  1.
         23    2    1    2    0    0 -0.54435017791E+02 -0.15921447810E+02 -0.18724893281E+02  0.10640578314E+03  0.88061940678E+02 0.  0.
         23    2    1    2    0    0  0.54435017791E+02  0.15921447810E+02  0.45150288256E+02  0.11525755153E+03  0.89605195123E+02 0.  0.
          5    1    3    3  502    0 -0.35299747935E+02 -0.51973879205E+02 -0.54953283042E+01  0.63242746280E+02  0.47000000000E+01 0. -1.
         -5    1    4    4    0  503  0.30871620593E+02 -0.33645702431E+02  0.38233942556E+02  0.59741230432E+02  0.47000000000E+01 0.  1.
          5    1    4    4  503    0  0.23563397198E+02  0.49567150241E+02  0.69163457005E+01  0.55516321099E+02  0.47000000000E+01 0. -1.
         -5    1    3    3    0  502 -0.19135269856E+02  0.36052431394E+02 -0.13229564977E+02  0.43163036865E+02  0.47000000000E+01 0.  1.
<mgrwt>
<rscale>  0 0.10571931E+03</rscale>
<asrwt>0</asrwt>
<pdfrwt beam="1">  1        1 0.19083749E-01 0.10604600E+03</pdfrwt>
<pdfrwt beam="2">  1       -1 0.15018303E-01 0.10604600E+03</pdfrwt>
<totfact> 0.80649458E+03</totfact>
</mgrwt>
</event>
<event>
 8    1  0.3466492E-004  0.1104968E+03  0.7546771E-02  0.1261075E+00
         -1   -1    0    0    0  501 -0.00000000000E+00  0.00000000000E+00  0.18821356553E+02  0.18821356553E+02  0.00000000000E+00 0.  1.
          1   -1    0    0  501    0  0.00000000000E+00 -0.00000000000E+00 -0.70707816200E+03  0.70707816200E+03  0.00000000000E+00 0. -1.
         23    2    1    2    0    0 -0.11570686377E+02 -0.55627608086E+02 -0.46749863072E+03  0.48037954704E+03  0.94769340637E+02 0.  0.
         23    2    1    2    0    0  0.11570686377E+02  0.55627608086E+02 -0.22075817473E+03  0.24551997151E+03  0.91200729925E+02 0.  0.
          5    1    3    3  502    0  0.38683439360E+02 -0.33894889028E+02 -0.16380380024E+03  0.17175286593E+03  0.47000000000E+01 0. -1.
         -5    1    3    3    0  502 -0.50254125737E+02 -0.21732719058E+02 -0.30369483048E+03  0.30862668111E+03  0.47000000000E+01 0.  1.
          5    1    4    4  503    0 -0.27473445592E+02  0.61419960853E+02 -0.14690026372E+03  0.16164460797E+03  0.47000000000E+01 0. -1.
         -5    1    4    4    0  503  0.39044131968E+02 -0.57923527674E+01 -0.73857911002E+02  0.83875363542E+02  0.47000000000E+01 0.  1.
<mgrwt>
<rscale>  0 0.10972754E+03</rscale>
<asrwt>0</asrwt>
<pdfrwt beam="1">  1        1 0.10878126E+00 0.11049678E+03</pdfrwt>
<pdfrwt beam="2">  1       -1 0.28955932E-02 0.11049678E+03</pdfrwt>
<totfact> 0.10420809E+04</totfact>
</mgrwt>
</event>
<event>
 8    1  0.3466492E-004  0.1185610E+03  0.7546771E-02  0.1247927E+00
          1   -1    0    0  501    0  0.00000000000E+00  0.00000000000E+00  0.99064739360E+02  0.99064739360E+02  0.00000000000E+00 0. -1.
         -1   -1    0    0    0  501 -0.00000000000E+00 -0.00000000000E+00 -0.98390999370E+03  0.98390999370E+03  0.00000000000E+00 0.  1.
         23    2    1    2    0    0 -0.25500511959E+02 -0.71473336291E+02 -0.94680008244E+03  0.95419447532E+03  0.91093285745E+02 0.  0.
         23    2    1    2    0    0  0.25500511959E+02  0.71473336291E+02  0.61954828104E+02  0.12878025774E+03  0.83589713164E+02 0.  0.
          5    1    4    4  502    0  0.43117235857E+01  0.66136971060E+02  0.77101410670E+02  0.10178117423E+03  0.47000000000E+01 0. -1.
         -5    1    3    3    0  503  0.25293900095E+02 -0.60670411850E+02 -0.48381927329E+03  0.48828665706E+03  0.47000000000E+01 0.  1.
          5    1    3    3  503    0 -0.50794412054E+02 -0.10802924441E+02 -0.46298080915E+03  0.46590781826E+03  0.47000000000E+01 0. -1.
         -5    1    4    4    0  502  0.21188788374E+02  0.53363652318E+01 -0.15146582566E+02  0.26999083504E+02  0.47000000000E+01 0.  1.
<mgrwt>
<rscale>  0 0.11711912E+03</rscale>
<asrwt>0</asrwt>
<pdfrwt beam="1">  1        1 0.15240729E-01 0.11856096E+03</pdfrwt>
<pdfrwt beam="2">  1       -1 0.15137077E+00 0.11856096E+03</pdfrwt>
<totfact> 0.13823877E+02</totfact>
</mgrwt>
</event>
<event>
 8    1  0.3466492E-004  0.1089475E+03  0.7546771E-02  0.1264574E+00
         -3   -1    0    0    0  501 -0.00000000000E+00  0.00000000000E+00  0.31234869252E+03  0.31234869252E+03  0.00000000000E+00 0.  1.
          3   -1    0    0  501    0  0.00000000000E+00 -0.00000000000E+00 -0.58597409735E+02  0.58597409735E+02  0.00000000000E+00 0. -1.
         23    2    1    2    0    0 -0.44098875342E+02  0.37908672829E+02  0.11488393767E+02  0.10531315601E+03  0.87046535574E+02 0.  0.
         23    2    1    2    0    0  0.44098875342E+02 -0.37908672829E+02  0.24226288902E+03  0.26563294624E+03  0.92129129237E+02 0.  0.
          5    1    4    4  502    0 -0.82850710563E+01  0.23670483522E+02  0.36741997382E+02  0.44732522444E+02  0.47000000000E+01 0. -1.
         -5    1    4    4    0  502  0.52383946398E+02 -0.61579156351E+02  0.20552089163E+03  0.22090042380E+03  0.47000000000E+01 0.  1.
          5    1    3    3  503    0 -0.65138307650E+02  0.18827410618E+02  0.26371385371E+02  0.72904118405E+02  0.47000000000E+01 0. -1.
         -5    1    3    3    0  503  0.21039432308E+02  0.19081262211E+02 -0.14882991603E+02  0.32409037605E+02  0.47000000000E+01 0.  1.
<mgrwt>
<rscale>  0 0.10786578E+03</rscale>
<asrwt>0</asrwt>
<pdfrwt beam="1">  1        3 0.90149863E-02 0.10894749E+03</pdfrwt>
<pdfrwt beam="2">  1       -3 0.48053644E-01 0.10894749E+03</pdfrwt>
<totfact> 0.84482599E+02</totfact>
</mgrwt>
</event>
<event>
 8    1  0.3466492E-004  0.1278733E+03  0.7546771E-02  0.1230801E+00
          2   -1    0    0  501    0  0.00000000000E+00  0.00000000000E+00  0.15610365993E+03  0.15610365993E+03  0.00000000000E+00 0. -1.
         -2   -1    0    0    0  501 -0.00000000000E+00 -0.00000000000E+00 -0.22112793166E+03  0.22112793166E+03  0.00000000000E+00 0.  1.
         23    2    1    2    0    0  0.88716682871E+02  0.61027162615E+01  0.10454307928E+03  0.16485301910E+03  0.91320148473E+02 0.  0.
         23    2    1    2    0    0 -0.88716682871E+02 -0.61027162615E+01 -0.16956735101E+03  0.21237857248E+03  0.91889491005E+02 0.  0.
          5    1    3    3  502    0  0.53888833210E+02 -0.19300926182E+02  0.10697860229E+03  0.12142093495E+03  0.47000000000E+01 0. -1.
         -5    1    3    3    0  502  0.34827849661E+02  0.25403642444E+02 -0.24355230142E+01  0.43432084152E+02  0.47000000000E+01 0.  1.
          5    1    4    4  503    0 -0.42988228884E+02  0.32239457658E+02 -0.32912108151E+02  0.63187556651E+02  0.47000000000E+01 0. -1.
         -5    1    4    4    0  503 -0.45728453988E+02 -0.38342173919E+02 -0.13665524286E+03  0.14919101583E+03  0.47000000000E+01 0.  1.
<mgrwt>
<rscale>  0 0.12777101E+03</rscale>
<asrwt>0</asrwt>
<pdfrwt beam="1">  1        2 0.24015948E-01 0.12787326E+03</pdfrwt>
<pdfrwt beam="2">  1       -2 0.34019682E-01 0.12787326E+03</pdfrwt>
<totfact> 0.17730041E+03</totfact>
</mgrwt>
</event>
<event>
 8    1  0.3466492E-004  0.9216225E+02  0.7546771E-02  0.1299568E+00
          1   -1    0    0  501    0  0.00000000000E+00  0.00000000000E+00  0.17262863444E+03  0.17262863444E+03  0.00000000000E+00 0. -1.
         -1   -1    0    0    0  501 -0.00000000000E+00 -0.00000000000E+00 -0.65075170498E+02  0.65075170498E+02  0.00000000000E+00 0.  1.
         23    2    1    2    0    0 -0.13165498309E+02  0.72885965073E+01 -0.85792850324E+01  0.89444926069E+02  0.87751562283E+02 0.  0.
         23    2    1    2    0    0  0.13165498309E+02 -0.72885965073E+01  0.11613274897E+03  0.14825887887E+03  0.90925385862E+02 0.  0.
          5    1    3    3  502    0 -0.38749360908E+00 -0.39412420900E+02 -0.94057603019E+01  0.40792737091E+02  0.47000000000E+01 0. -1.
         -5    1    4    4    0  503  0.16127715994E+02  0.24647204010E+02  0.23172943102E+01  0.29917348506E+02  0.47000000000E+01 0.  1.
          5    1    4    4  503    0 -0.29622176855E+01 -0.31935800517E+02  0.11381545466E+03  0.11834153036E+03  0.47000000000E+01 0. -1.
         -5    1    3    3    0  502 -0.12778004700E+02  0.46701017408E+02  0.82647526948E+00  0.48652188978E+02  0.47000000000E+01 0.  1.
<mgrwt>
<rscale>  0 0.91369651E+02</rscale>
<asrwt>0</asrwt>
<pdfrwt beam="1">  1        1 0.26558251E-01 0.92162247E+02</pdfrwt>
<pdfrwt beam="2">  1       -1 0.10011565E-01 0.92162247E+02</pdfrwt>
<totfact> 0.98140311E+03</totfact>
</mgrwt>
</event>
<event>
 8    1  0.3466492E-004  0.1201116E+03  0.7546771E-02  0.1243227E+00
          2   -1    0    0  501    0  0.00000000000E+00  0.00000000000E+00  0.42643581338E+02  0.42643581338E+02  0.00000000000E+00 0.  1.
         -2   -1    0    0    0  501 -0.00000000000E+00 -0.00000000000E+00 -0.34897262543E+03  0.34897262543E+03  0.00000000000E+00 0. -1.
         23    2    1    2    0    0 -0.37765996664E+02  0.67235957538E+02 -0.11520418276E+03  0.16588296357E+03  0.91094507992E+02 0.  0.
         23    2    1    2    0    0  0.37765996664E+02 -0.67235957538E+02 -0.19112486133E+03  0.22573324320E+03  0.92086046593E+02 0.  0.
          5    1    4    4  502    0  0.42916521619E+02 -0.37446644861E+02 -0.18616448070E+03  0.19473926906E+03  0.47000000000E+01 0. -1.
         -5    1    3    3    0  503 -0.47182861093E+02  0.37917226819E+02 -0.17280543927E+02  0.63124049846E+02  0.47000000000E+01 0.  1.
          5    1    3    3  503    0  0.94168644288E+01  0.29318730720E+02 -0.97923638837E+02  0.10275891372E+03  0.47000000000E+01 0. -1.
         -5    1    4    4    0  502 -0.51505249553E+01 -0.29789312677E+02 -0.49603806297E+01  0.30993974142E+02  0.47000000000E+01 0.  1.
<mgrwt>
<rscale>  0 0.11992148E+03</rscale>
<asrwt>0</asrwt>
<pdfrwt beam="1">  1        2 0.65605510E-02 0.12011155E+03</pdfrwt>
<pdfrwt beam="2">  1       -2 0.53688096E-01 0.12011155E+03</pdfrwt>
<totfact> 0.34608213E+03</totfact>
</mgrwt>
</event>
<event>
 8    1  0.3466492E-004  0.1096677E+03  0.7546771E-02  0.1261576E+00
         -1   -1    0    0    0  501 -0.00000000000E+00  0.00000000000E+00  0.42230383012E+02  0.42230383012E+02  0.00000000000E+00 0.  1.
          1   -1    0    0  501    0  0.00000000000E+00 -0.00000000000E+00 -0.38010029025E+03  0.38010029025E+03  0.00000000000E+00 0. -1.
         23    2    1    2    0    0 -0.57976673644E+02  0.15228761989E+02 -0.62484536127E+02  0.12621930074E+03  0.91835639843E+02 0.  0.
         23    2    1    2    0    0  0.57976673644E+02 -0.15228761989E+02 -0.27538537111E+03  0.29611137252E+03  0.90838496445E+02 0.  0.
          5    1    3    3  502    0 -0.16794091017E+01  0.32992831548E+02 -0.57893533180E+02  0.66821392776E+02  0.47000000000E+01 0. -1.
         -5    1    3    3    0  502 -0.56297264543E+02 -0.17764069559E+02 -0.45910029471E+01  0.59397907963E+02  0.47000000000E+01 0.  1.
          5    1    4    4  503    0  0.16824951844E+02 -0.22876100279E+02 -0.23817981718E+03  0.23991271388E+03  0.47000000000E+01 0. -1.
         -5    1    4    4    0  503  0.41151721800E+02  0.76473382896E+01 -0.37205553929E+02  0.56198658642E+02  0.47000000000E+01 0.  1.
<mgrwt>
<rscale>  0 0.10945865E+03</rscale>
<asrwt>0</asrwt>
<pdfrwt beam="1">  1        1 0.58476967E-01 0.10966766E+03</pdfrwt>
<pdfrwt beam="2">  1       -1 0.64969821E-02 0.10966766E+03</pdfrwt>
<totfact> 0.72057599E+03</totfact>
</mgrwt>
</event>
<event>
 8    1  0.3466492E-004  0.1024603E+03  0.7546771E-02  0.1275846E+00
         -1   -1    0    0    0  501 -0.00000000000E+00  0.00000000000E+00  0.24962716891E+03  0.24962716891E+03  0.00000000000E+00 0.  1.
          1   -1    0    0  501    0  0.00000000000E+00 -0.00000000000E+00 -0.43612664440E+02  0.43612664440E+02  0.00000000000E+00 0. -1.
         23    2    1    2    0    0 -0.64775150566E+00  0.43448845863E+02  0.70471810940E+02  0.12332829058E+03  0.91407709370E+02 0.  0.
         23    2    1    2    0    0  0.64775150566E+00 -0.43448845863E+02  0.13554269353E+03  0.16991154276E+03  0.92789486510E+02 0.  0.
          5    1    4    4  502    0 -0.44784322595E+02 -0.31503261524E+02  0.66474534710E+02  0.86249897402E+02  0.47000000000E+01 0. -1.
         -5    1    3    3    0  503  0.47529653082E+01  0.71718234965E+02  0.49055723698E+02  0.87147288731E+02  0.47000000000E+01 0.  1.
          5    1    3    3  503    0 -0.54007168139E+01 -0.28269389102E+02  0.21416087242E+02  0.36181001853E+02  0.47000000000E+01 0. -1.
         -5    1    4    4    0  502  0.45432074100E+02 -0.11945584339E+02  0.69068158816E+02  0.83661645361E+02  0.47000000000E+01 0.  1.
<mgrwt>
<rscale>  0 0.10214643E+03</rscale>
<asrwt>0</asrwt>
<pdfrwt beam="1">  1        1 0.67096409E-02 0.10246029E+03</pdfrwt>
<pdfrwt beam="2">  1       -1 0.38404179E-01 0.10246029E+03</pdfrwt>
<totfact> 0.68087794E+03</totfact>
</mgrwt>
</event>
<event>
 8    1  0.3466492E-004  0.1219739E+03  0.7546771E-02  0.1240026E+00
         -1   -1    0    0    0  501 -0.00000000000E+00  0.00000000000E+00  0.26728139677E+03  0.26728139677E+03  0.00000000000E+00 0.  1.
          1   -1    0    0  501    0  0.00000000000E+00 -0.00000000000E+00 -0.15141229037E+03  0.15141229037E+03  0.00000000000E+00 0. -1.
         23    2    1    2    0    0  0.31341810887E+02  0.75291313525E+02  0.22459086205E+03  0.25557520347E+03  0.90700266326E+02 0.  0.
         23    2    1    2    0    0 -0.31341810887E+02 -0.75291313525E+02 -0.10872175565E+03  0.16311848366E+03  0.90200490910E+02 0.  0.
          5    1    4    4  502    0  0.25539794302E+02 -0.55331378269E+02 -0.53351659047E+02  0.81131572382E+02  0.47000000000E+01 0. -1.
         -5    1    3    3    0  503  0.11665344360E+02  0.55762824158E+02  0.21972542145E+03  0.22703947597E+03  0.47000000000E+01 0.  1.
          5    1    3    3  503    0  0.19676466527E+02  0.19528489367E+02  0.48654406011E+01  0.28535727504E+02  0.47000000000E+01 0. -1.
         -5    1    4    4    0  502 -0.56881605189E+02 -0.19959935255E+02 -0.55370096599E+02  0.81986911282E+02  0.47000000000E+01 0.  1.
<mgrwt>
<rscale>  0 0.12188099E+03</rscale>
<asrwt>0</asrwt>
<pdfrwt beam="1">  1        1 0.23294199E-01 0.12197389E+03</pdfrwt>
<pdfrwt beam="2">  1       -1 0.41120215E-01 0.12197389E+03</pdfrwt>
<totfact> 0.12098819E+03</totfact>
</mgrwt>
</event>
<event>
 8    1  0.3466492E-004  0.1207529E+03  0.7546771E-02  0.1242934E+00
          3   -1    0    0  501    0  0.00000000000E+00  0.00000000000E+00  0.56938988389E+03  0.56938988389E+03  0.00000000000E+00 0. -1.
         -3   -1    0    0    0  501 -0.00000000000E+00 -0.00000000000E+00 -0.48712735538E+02  0.48712735538E+02  0.00000000000E+00 0.  1.
         23    2    1    2    0    0 -0.38564720821E+02  0.65533742720E+02  0.46452473536E+02  0.12937962146E+03  0.93804824100E+02 0.  0.
         23    2    1    2    0    0  0.38564720821E+02 -0.65533742720E+02  0.47422467482E+03  0.48872299797E+03  0.90439025939E+02 0.  0.
          5    1    4    4  502    0  0.16991525147E+02 -0.80556560756E+02  0.25806986388E+03  0.27092474242E+03  0.47000000000E+01 0. -1.
         -5    1    4    4    0  502  0.21573195673E+02  0.15022818036E+02  0.21615481093E+03  0.21779825556E+03  0.47000000000E+01 0.  1.
          5    1    3    3  503    0 -0.71606451764E+01  0.75917888559E+02  0.55893743191E+02  0.94662564779E+02  0.47000000000E+01 0. -1.
         -5    1    3    3    0  503 -0.31404075644E+02 -0.10384145838E+02 -0.94412696548E+01  0.34717056680E+02  0.47000000000E+01 0.  1.
<mgrwt>
<rscale>  0 0.12009865E+03</rscale>
<asrwt>0</asrwt>
<pdfrwt beam="1">  1        3 0.87598439E-01 0.12075286E+03</pdfrwt>
<pdfrwt beam="2">  1       -3 0.74942674E-02 0.12075286E+03</pdfrwt>
<totfact> 0.33223298E+02</totfact>
</mgrwt>
</event>
<event>
 8    1  0.3466492E-004  0.1030923E+03  0.7546771E-02  0.1274884E+00
          2   -1    0    0  501    0  0.00000000000E+00  0.00000000000E+00  0.20432764867E+03  0.20432764867E+03  0.00000000000E+00 0. -1.
         -2   -1    0    0    0  501 -0.00000000000E+00 -0.00000000000E+00 -0.63611489865E+02  0.63611489865E+02  0.00000000000E+00 0.  1.
         23    2    1    2    0    0 -0.13964711726E+02  0.42401606539E+02  0.10353275172E+02  0.10173894368E+03  0.90833435167E+02 0.  0.
         23    2    1    2    0    0  0.13964711726E+02 -0.42401606539E+02  0.13036288363E+03  0.16620019485E+03  0.92925313716E+02 0.  0.
          5    1    3    3  502    0  0.77303330473E+01  0.56945919665E+02  0.33360873918E+02  0.66615566680E+02  0.47000000000E+01 0. -1.
         -5    1    4    4    0  503 -0.32992489510E+02 -0.82894836273E+01  0.87197148839E+02  0.93715807996E+02  0.47000000000E+01 0.  1.
          5    1    4    4  503    0  0.46957201236E+02 -0.34112122911E+02  0.43165734789E+02  0.72484386852E+02  0.47000000000E+01 0. -1.
         -5    1    3    3    0  502 -0.21695044773E+02 -0.14544313126E+02 -0.23007598746E+02  0.35123377003E+02  0.47000000000E+01 0.  1.
<mgrwt>
<rscale>  0 0.10261867E+03</rscale>
<asrwt>0</asrwt>
<pdfrwt beam="1">  1        2 0.31435022E-01 0.10309230E+03</pdfrwt>
<pdfrwt beam="2">  1       -2 0.97863832E-02 0.10309230E+03</pdfrwt>
<totfact> 0.10529334E+04</totfact>
</mgrwt>
</event>
<event>
 8    1  0.3466492E-004  0.9241525E+02  0.7546771E-02  0.1298345E+00
         -4   -1    0    0    0  501 -0.00000000000E+00  0.00000000000E+00  0.61264927026E+02  0.61264927026E+02  0.00000000000E+00 0.  1.
          4   -1    0    0  501    0  0.00000000000E+00 -0.00000000000E+00 -0.14278910522E+03  0.14278910522E+03  0.00000000000E+00 0. -1.
         23    2    1    2    0    0  0.15585630653E+02  0.19997765434E+01 -0.62128081717E+02  0.10962529045E+03  0.88943210977E+02 0.  0.
         23    2    1    2    0    0 -0.15585630653E+02 -0.19997765434E+01 -0.19396096480E+02  0.94428741802E+02  0.91069576317E+02 0.  0.
          5    1    4    4  502    0  0.32241879591E+02 -0.13754209485E+02 -0.26838997276E+02  0.44397509535E+02  0.47000000000E+01 0. -1.
         -5    1    4    4    0  502 -0.47827510244E+02  0.11754432941E+02  0.74429007953E+01  0.50031232267E+02  0.47000000000E+01 0.  1.
          5    1    3    3  503    0  0.50490826494E+02 -0.34708947418E+01 -0.20456206004E+02  0.54789753006E+02  0.47000000000E+01 0. -1.
         -5    1    3    3    0  503 -0.34905195842E+02  0.54706712852E+01 -0.41671875713E+02  0.54835537441E+02  0.47000000000E+01 0.  1.
<mgrwt>
<rscale>  0 0.91887071E+02</rscale>
<asrwt>0</asrwt>
<pdfrwt beam="1">  1        4 0.21967554E-01 0.92415252E+02</pdfrwt>
<pdfrwt beam="2">  1       -4 0.94253736E-02 0.92415252E+02</pdfrwt>
<totfact> 0.23796713E+03</totfact>
</mgrwt>
</event>
<event>
 8    1  0.3466492E-004  0.1160401E+03  0.7546771E-02  0.1251526E+00
         -1   -1    0    0    0  501 -0.00000000000E+00  0.00000000000E+00  0.34800463652E+03  0.34800463652E+03  0.00000000000E+00 0.  1.
          1   -1    0    0  501    0  0.00000000000E+00 -0.00000000000E+00 -0.49906346163E+02  0.49906346163E+02  0.00000000000E+00 0. -1.
         23    2    1    2    0    0 -0.66287833505E+02  0.47794883030E+01  0.47423885874E+02  0.12168106564E+03  0.90223812841E+02 0.  0.
         23    2    1    2    0    0  0.66287833505E+02 -0.47794883030E+01  0.25067440448E+03  0.27622991705E+03  0.95123023658E+02 0.  0.
          5    1    3    3  502    0 -0.81975677010E+02 -0.15544795267E+02  0.46340764230E+02  0.95557358223E+02  0.47000000000E+01 0. -1.
         -5    1    3    3    0  502  0.15687843505E+02  0.20324283570E+02  0.10831216439E+01  0.26123707413E+02  0.47000000000E+01 0.  1.
          5    1    4    4  503    0 -0.19639495389E+02  0.83785197140E+01  0.19833038683E+02  0.29518617771E+02  0.47000000000E+01 0. -1.
         -5    1    4    4    0  503  0.85927328894E+02 -0.13158008017E+02  0.23084136580E+03  0.24671129928E+03  0.47000000000E+01 0.  1.
<mgrwt>
<rscale>  0 0.11503182E+03</rscale>
<asrwt>0</asrwt>
<pdfrwt beam="1">  1        1 0.76778996E-02 0.11604012E+03</pdfrwt>
<pdfrwt beam="2">  1       -1 0.53539173E-01 0.11604012E+03</pdfrwt>
<totfact> 0.31714745E+03</totfact>
</mgrwt>
</event>
<event>
 8    1  0.3466492E-004  0.9957018E+02  0.7546771E-02  0.1281429E+00
          1   -1    0    0  501    0  0.00000000000E+00  0.00000000000E+00  0.33080290645E+03  0.33080290645E+03  0.00000000000E+00 0. -1.
         -1   -1    0    0    0  501 -0.00000000000E+00 -0.00000000000E+00 -0.79534062499E+02  0.79534062499E+02  0.00000000000E+00 0.  1.
         23    2    1    2    0    0  0.39822323967E+02 -0.43125791556E+01 -0.36640724541E+02  0.10569596746E+03  0.90690016088E+02 0.  0.
         23    2    1    2    0    0 -0.39822323967E+02  0.43125791556E+01  0.28790956849E+03  0.30464100149E+03  0.91158128173E+02 0.  0.
          5    1    3    3  502    0  0.22222073066E+02 -0.18718476019E+02  0.25759904645E+02  0.39113483138E+02  0.47000000000E+01 0. -1.
         -5    1    4    4    0  503  0.25155916052E+02  0.17016119476E+02  0.12513757683E+03  0.12885601099E+03  0.47000000000E+01 0.  1.
          5    1    4    4  503    0 -0.64978240019E+02 -0.12703540320E+02  0.16277199167E+03  0.17578499049E+03  0.47000000000E+01 0. -1.
         -5    1    3    3    0  502  0.17600250901E+02  0.14405896863E+02 -0.62400629186E+02  0.66582484326E+02  0.47000000000E+01 0.  1.
<mgrwt>
<rscale>  0 0.99462907E+02</rscale>
<asrwt>0</asrwt>
<pdfrwt beam="1">  1        1 0.50892754E-01 0.99570177E+02</pdfrwt>
<pdfrwt beam="2">  1       -1 0.12236010E-01 0.99570177E+02</pdfrwt>
<totfact> 0.32760034E+03</totfact>
</mgrwt>
</event>
<event>
 8    1  0.3466492E-004  0.1470465E+03  0.7546771E-02  0.1204412E+00
          1   -1    0    0  501    0  0.00000000000E+00  0.00000000000E+00  0.37026300646E+02  0.37026300646E+02  0.00000000000E+00 0. -1.
         -1   -1    0    0    0  501 -0.00000000000E+00 -0.00000000000E+00 -0.63531613832E+03  0.63531613832E+03  0.00000000000E+00 0.  1.
         23    2    1    2    0    0 -0.51480959289E+02 -0.10224456656E+03 -0.20134514167E+03  0.24932417087E+03  0.92295371194E+02 0.  0.
         23    2    1    2    0    0  0.51480959289E+02  0.10224456656E+03 -0.39694469601E+03  0.42301826810E+03  0.90967702501E+02 0.  0.
          5    1    3    3  502    0 -0.17579750860E+01 -0.57620371913E+02 -0.29581212633E+02  0.64964112220E+02  0.47000000000E+01 0. -1.
         -5    1    3    3    0  502 -0.49722984203E+02 -0.44624194652E+02 -0.17176392904E+03  0.18436005865E+03  0.47000000000E+01 0.  1.
          5    1    4    4  503    0  0.35155913314E+02 -0.65442015059E+01 -0.93615030481E+02  0.10032262330E+03  0.47000000000E+01 0. -1.
         -5    1    4    4    0  503  0.16325045975E+02  0.10878876807E+03 -0.30332966553E+03  0.32269564480E+03  0.47000000000E+01 0.  1.
<mgrwt>
<rscale>  0 0.14683865E+03</rscale>
<asrwt>0</asrwt>
<pdfrwt beam="1">  1        1 0.56963541E-02 0.14704651E+03</pdfrwt>
<pdfrwt beam="2">  1       -1 0.97740942E-01 0.14704651E+03</pdfrwt>
<totfact> 0.14433033E+03</totfact>
</mgrwt>
</event>
<event>
 8    1  0.3466492E-004  0.1050625E+03  0.7546771E-02  0.1270774E+00
          2   -1    0    0  501    0  0.00000000000E+00  0.00000000000E+00  0.12972381743E+03  0.12972381743E+03  0.00000000000E+00 0. -1.
         -2   -1    0    0    0  501 -0.00000000000E+00 -0.00000000000E+00 -0.85963281313E+02  0.85963281313E+02  0.00000000000E+00 0.  1.
         23    2    1    2    0    0 -0.36933006258E+02 -0.31425380192E+02  0.47121124113E+01  0.10360268086E+03  0.91431449763E+02 0.  0.
         23    2    1    2    0    0  0.36933006258E+02  0.31425380192E+02  0.39048423702E+02  0.11208441788E+03  0.93201587255E+02 0.  0.
          5    1    4    4  502    0  0.28103304530E+02 -0.23506810790E+02 -0.94487150300E+01  0.38127865070E+02  0.47000000000E+01 0. -1.
         -5    1    3    3    0  503 -0.21077525103E+01  0.20812702805E+02  0.29048966334E+02  0.36104621087E+02  0.47000000000E+01 0.  1.
          5    1    3    3  503    0 -0.34825253748E+02 -0.52238082997E+02 -0.24336853923E+02  0.67498059770E+02  0.47000000000E+01 0. -1.
         -5    1    4    4    0  502  0.88297017276E+01  0.54932190982E+02  0.48497138732E+02  0.73956552812E+02  0.47000000000E+01 0.  1.
<mgrwt>
<rscale>  0 0.10466856E+03</rscale>
<asrwt>0</asrwt>
<pdfrwt beam="1">  1        2 0.19957510E-01 0.10506254E+03</pdfrwt>
<pdfrwt beam="2">  1       -2 0.13225120E-01 0.10506254E+03</pdfrwt>
<totfact> 0.10779025E+04</totfact>
</mgrwt>
</event>
<event>
 8    1  0.3466492E-004  0.9811123E+02  0.7546771E-02  0.1285134E+00
          3   -1    0    0  501    0  0.00000000000E+00  0.00000000000E+00  0.21056480299E+02  0.21056480299E+02  0.00000000000E+00 0. -1.
         -3   -1    0    0    0  501 -0.00000000000E+00 -0.00000000000E+00 -0.60682476321E+03  0.60682476321E+03  0.00000000000E+00 0.  1.
         23    2    1    2    0    0  0.37526654350E+02  0.86478519943E+01 -0.13505843534E+03  0.16693290238E+03  0.90237341543E+02 0.  0.
         23    2    1    2    0    0 -0.37526654350E+02 -0.86478519943E+01 -0.45070984756E+03  0.46094834112E+03  0.88605707296E+02 0.  0.
          5    1    4    4  502    0  0.74721324005E+01 -0.31599567425E+02 -0.75452401936E+02  0.82277095124E+02  0.47000000000E+01 0. -1.
         -5    1    4    4    0  502 -0.44998786750E+02  0.22951715431E+02 -0.37525744563E+03  0.37867124600E+03  0.47000000000E+01 0.  1.
          5    1    3    3  503    0 -0.72611286736E+01 -0.31690105512E+02 -0.24701711932E+02  0.41100503030E+02  0.47000000000E+01 0. -1.
         -5    1    3    3    0  503  0.44787783023E+02  0.40337957506E+02 -0.11035672341E+03  0.12583239935E+03  0.47000000000E+01 0.  1.
<mgrwt>
<rscale>  0 0.97734421E+02</rscale>
<asrwt>0</asrwt>
<pdfrwt beam="1">  1        3 0.32394591E-02 0.98111227E+02</pdfrwt>
<pdfrwt beam="2">  1       -3 0.93357638E-01 0.98111227E+02</pdfrwt>
<totfact> 0.10434894E+03</totfact>
</mgrwt>
</event>
<event>
 8    1  0.3466492E-004  0.9294929E+02  0.7546771E-02  0.1297679E+00
         -1   -1    0    0    0  501 -0.00000000000E+00  0.00000000000E+00  0.10163988332E+02  0.10163988332E+02  0.00000000000E+00 0.  1.
          1   -1    0    0  501    0  0.00000000000E+00 -0.00000000000E+00 -0.89607730691E+03  0.89607730691E+03  0.00000000000E+00 0. -1.
         23    2    1    2    0    0 -0.74289915754E+01  0.10744491134E+01 -0.57994864479E+03  0.58734998158E+03  0.92645700963E+02 0.  0.
         23    2    1    2    0    0  0.74289915754E+01 -0.10744491134E+01 -0.30596467379E+03  0.31889131367E+03  0.89559722919E+02 0.  0.
          5    1    4    4  502    0 -0.11696004465E+02 -0.30607988659E+02 -0.25284410446E+03  0.25500171892E+03  0.47000000000E+01 0. -1.
         -5    1    4    4    0  502  0.19124996040E+02  0.29533539545E+02 -0.53120569327E+02  0.63889594750E+02  0.47000000000E+01 0.  1.
          5    1    3    3  503    0 -0.48160803433E+02 -0.83652040365E+01 -0.36832893815E+03  0.37158812724E+03  0.47000000000E+01 0. -1.
         -5    1    3    3    0  503  0.40731811858E+02  0.94396531499E+01 -0.21161970664E+03  0.21576185434E+03  0.47000000000E+01 0.  1.
<mgrwt>
<rscale>  0 0.92170671E+02</rscale>
<asrwt>0</asrwt>
<pdfrwt beam="1">  1        1 0.13785803E+00 0.92949289E+02</pdfrwt>
<pdfrwt beam="2">  1       -1 0.15636907E-02 0.92949289E+02</pdfrwt>
<totfact> 0.17474627E+04</totfact>
</mgrwt>
</event>
<event>
 8    1  0.3466492E-004  0.1065927E+03  0.7546771E-02  0.1268173E+00
          1   -1    0    0  501    0  0.00000000000E+00  0.00000000000E+00  0.42742433736E+03  0.42742433736E+03  0.00000000000E+00 0. -1.
         -1   -1    0    0    0  501 -0.00000000000E+00 -0.00000000000E+00 -0.26867419937E+02  0.26867419937E+02  0.00000000000E+00 0.  1.
         23    2    1    2    0    0 -0.20268439498E+02 -0.52608888906E+02  0.24341927028E+03  0.26573474642E+03  0.90462751888E+02 0.  0.
         23    2    1    2    0    0  0.20268439498E+02  0.52608888906E+02  0.15713764714E+03  0.18855701088E+03  0.87652731675E+02 0.  0.
          5    1    3    3  502    0  0.25593630435E+02 -0.44631582359E+02  0.17772932071E+03  0.18508596247E+03  0.47000000000E+01 0. -1.
         -5    1    3    3    0  502 -0.45862069932E+02 -0.79773065469E+01  0.65689949569E+02  0.80648783950E+02  0.47000000000E+01 0.  1.
          5    1    4    4  503    0  0.32435889218E+02 -0.11889481685E+02  0.79335491247E+02  0.86658276324E+02  0.47000000000E+01 0. -1.
         -5    1    4    4    0  503 -0.12167449720E+02  0.64498370591E+02  0.77802155894E+02  0.10189873455E+03  0.47000000000E+01 0.  1.
<mgrwt>
<rscale>  0 0.10599418E+03</rscale>
<asrwt>0</asrwt>
<pdfrwt beam="1">  1        1 0.65757585E-01 0.10659275E+03</pdfrwt>
<pdfrwt beam="2">  1       -1 0.41334495E-02 0.10659275E+03</pdfrwt>
<totfact> 0.12081677E+04</totfact>
</mgrwt>
</event>
<event>
 8    1  0.3466492E-004  0.1066223E+03  0.7546771E-02  0.1272886E+00
          1   -1    0    0  501    0  0.00000000000E+00  0.00000000000E+00  0.15102892651E+03  0.15102892651E+03  0.00000000000E+00 0. -1.
         -1   -1    0    0    0  501 -0.00000000000E+00 -0.00000000000E+00 -0.15980891716E+03  0.15980891716E+03  0.00000000000E+00 0.  1.
         23    2    1    2    0    0 -0.27211402953E+02 -0.90789154746E+01 -0.12242759356E+03  0.15500433007E+03  0.90636303540E+02 0.  0.
         23    2    1    2    0    0  0.27211402953E+02  0.90789154746E+01  0.11364760291E+03  0.15583351361E+03  0.10269089131E+03 0.  0.
          5    1    3    3  502    0  0.84319266592E+01  0.24502862861E+02 -0.38365098252E+01  0.26613840069E+02  0.47000000000E+01 0. -1.
         -5    1    4    4    0  503  0.10116510018E+02 -0.27228908445E+02 -0.55762626618E+01  0.29948988887E+02  0.47000000000E+01 0.  1.
          5    1    4    4  503    0  0.17094892935E+02  0.36307823920E+02  0.11922386557E+03  0.12588452472E+03  0.47000000000E+01 0. -1.
         -5    1    3    3    0  502 -0.35643329613E+02 -0.33581778336E+02 -0.11859108373E+03  0.12839049000E+03  0.47000000000E+01 0.  1.
<mgrwt>
<rscale>  0 0.10360815E+03</rscale>
<asrwt>0</asrwt>
<pdfrwt beam="1">  1        1 0.23235219E-01 0.10662226E+03</pdfrwt>
<pdfrwt beam="2">  1       -1 0.24585987E-01 0.10662226E+03</pdfrwt>
<totfact> 0.28757114E+03</totfact>
</mgrwt>
</event>
<event>
 8    1  0.3466492E-004  0.9953640E+02  0.7546771E-02  0.1281642E+00
          2   -1    0    0  501    0  0.00000000000E+00  0.00000000000E+00  0.12535637721E+03  0.12535637721E+03  0.00000000000E+00 0. -1.
         -2   -1    0    0    0  501 -0.00000000000E+00 -0.00000000000E+00 -0.11114372378E+03  0.11114372378E+03  0.00000000000E+00 0.  1.
         23    2    1    2    0    0  0.13183892657E+02  0.38203226700E+02  0.71189180701E+02  0.12180999765E+03  0.90202408625E+02 0.  0.
         23    2    1    2    0    0 -0.13183892657E+02 -0.38203226700E+02 -0.56976527267E+02  0.11469010335E+03  0.90962594456E+02 0.  0.
          5    1    3    3  502    0  0.45541426876E+02  0.73214813881E+00  0.49867391949E+02  0.67700844771E+02  0.47000000000E+01 0. -1.
         -5    1    4    4    0  503 -0.29353223920E+02 -0.78292285051E+00 -0.66252583683E+02  0.72620379835E+02  0.47000000000E+01 0.  1.
          5    1    4    4  503    0  0.16169331263E+02 -0.37420303850E+02  0.92760564154E+01  0.42069723511E+02  0.47000000000E+01 0. -1.
         -5    1    3    3    0  502 -0.32357534219E+02  0.37471078561E+02  0.21321788752E+02  0.54109152875E+02  0.47000000000E+01 0.  1.
<mgrwt>
<rscale>  0 0.99362389E+02</rscale>
<asrwt>0</asrwt>
<pdfrwt beam="1">  1        2 0.19285596E-01 0.99536401E+02</pdfrwt>
<pdfrwt beam="2">  1       -2 0.17099035E-01 0.99536401E+02</pdfrwt>
<totfact> 0.73472494E+03</totfact>
</mgrwt>
</event>
<event>
 8    1  0.3466492E-004  0.9319483E+02  0.7546771E-02  0.1295707E+00
          1   -1    0    0  501    0  0.00000000000E+00  0.00000000000E+00  0.42470435677E+03  0.42470435677E+03  0.00000000000E+00 0. -1.
         -1   -1    0    0    0  501 -0.00000000000E+00 -0.00000000000E+00 -0.21015393521E+02  0.21015393521E+02  0.00000000000E+00 0.  1.
         23    2    1    2    0    0 -0.49001604823E+01 -0.18292506268E+02  0.16131090878E+03  0.18629676526E+03  0.91250469012E+02 0.  0.
         23    2    1    2    0    0  0.49001604823E+01  0.18292506268E+02  0.24237805447E+03  0.25942298503E+03  0.90523679322E+02 0.  0.
          5    1    4    4  502    0 -0.24753405459E+02  0.14246912579E+02  0.21965305441E+03  0.22155193503E+03  0.47000000000E+01 0. -1.
         -5    1    4    4    0  502  0.29653565941E+02  0.40455936891E+01  0.22725000054E+02  0.37871050009E+02  0.47000000000E+01 0.  1.
          5    1    3    3  503    0 -0.38369147147E+02 -0.37362525990E+02  0.82858807081E+02  0.98771563276E+02  0.47000000000E+01 0. -1.
         -5    1    3    3    0  503  0.33468986665E+02  0.19070019721E+02  0.78452101699E+02  0.87525201979E+02  0.47000000000E+01 0.  1.
<mgrwt>
<rscale>  0 0.93016437E+02</rscale>
<asrwt>0</asrwt>
<pdfrwt beam="1">  1        1 0.65339125E-01 0.93194825E+02</pdfrwt>
<pdfrwt beam="2">  1       -1 0.32331378E-02 0.93194825E+02</pdfrwt>
<totfact> 0.17188547E+04</totfact>
</mgrwt>
</event>
<event>
 8    1  0.3466492E-004  0.1421741E+03  0.7546771E-02  0.1212390E+00
          2   -1    0    0  501    0  0.00000000000E+00  0.00000000000E+00  0.21617259418E+04  0.21617259418E+04  0.00000000000E+00 0. -1.
         -2   -1    0    0    0  501 -0.00000000000E+00 -0.00000000000E+00 -0.90607681229E+01  0.90607681229E+01  0.00000000000E+00 0.  1.
         23    2    1    2    0    0  0.89303715845E+02 -0.51135383989E+02  0.94720267146E+03  0.95696904414E+03  0.89481112372E+02 0.  0.
         23    2    1    2    0    0 -0.89303715845E+02  0.51135383989E+02  0.12054625022E+04  0.12138176657E+04  0.98099441094E+02 0.  0.
          5    1    3    3  502    0 -0.81968674234E+01 -0.20408562010E+02  0.63584077291E+02  0.67444220834E+02  0.47000000000E+01 0. -1.
         -5    1    4    4    0  503  0.91333407962E+01 -0.18730970492E+02  0.17629263344E+03  0.17758223384E+03  0.47000000000E+01 0.  1.
          5    1    4    4  503    0 -0.98437056641E+02  0.69866354481E+02  0.10291698687E+04  0.10362354319E+04  0.47000000000E+01 0. -1.
         -5    1    3    3    0  502  0.97500583268E+02 -0.30726821979E+02  0.88361859416E+03  0.88952482331E+03  0.47000000000E+01 0.  1.
<mgrwt>
<rscale>  0 0.14070040E+03</rscale>
<asrwt>0</asrwt>
<pdfrwt beam="1">  1        2 0.33257281E+00 0.14217412E+03</pdfrwt>
<pdfrwt beam="2">  1       -2 0.13939660E-02 0.14217412E+03</pdfrwt>
<totfact> 0.79334697E+03</totfact>
</mgrwt>
</event>
<event>
 8    1  0.3466492E-004  0.1150223E+03  0.7546771E-02  0.1260694E+00
         -1   -1    0    0    0  501 -0.00000000000E+00  0.00000000000E+00  0.91438775256E+02  0.91438775256E+02  0.00000000000E+00 0.  1.
          1   -1    0    0  501    0  0.00000000000E+00 -0.00000000000E+00 -0.12803910807E+03  0.12803910807E+03  0.00000000000E+00 0. -1.
         23    2    1    2    0    0  0.23785913692E+02  0.17772237553E+02 -0.41008913508E+02  0.10437113184E+03  0.91268724422E+02 0.  0.
         23    2    1    2    0    0 -0.23785913692E+02 -0.17772237553E+02  0.44085806953E+01  0.11510675148E+03  0.11112383423E+03 0.  0.
          5    1    4    4  502    0 -0.41445476741E+02 -0.55706185044E+02 -0.10623250051E+02  0.70397798517E+02  0.47000000000E+01 0. -1.
         -5    1    3    3    0  503  0.25317856582E+02 -0.30969467653E+02  0.31637292169E+00  0.40277684646E+02  0.47000000000E+01 0. -1.
          5    1    3    3  503    0 -0.15319428897E+01  0.48741705206E+02 -0.41325286430E+02  0.64093447199E+02  0.47000000000E+01 0.  1.
         -5    1    4    4    0  502  0.17659563049E+02  0.37933947491E+02  0.15031830746E+02  0.44708952961E+02  0.47000000000E+01 0.  1.
<mgrwt>
<rscale>  0 0.10993309E+03</rscale>
<asrwt>0</asrwt>
<pdfrwt beam="1">  1        1 0.19698324E-01 0.11502230E+03</pdfrwt>
<pdfrwt beam="2">  1       -1 0.14067504E-01 0.11502230E+03</pdfrwt>
<totfact> 0.86342303E+03</totfact>
</mgrwt>
</event>
<event>
 8    1  0.3466492E-004  0.9117177E+02  0.7546771E-02  0.1316772E+00
         -2   -1    0    0    0  501 -0.00000000000E+00  0.00000000000E+00  0.40764290065E+02  0.40764290065E+02  0.00000000000E+00 0.  1.
          2   -1    0    0  501    0  0.00000000000E+00 -0.00000000000E+00 -0.30312068521E+03  0.30312068521E+03  0.00000000000E+00 0. -1.
         23    2    1    2    0    0  0.38770282977E+01 -0.13771142433E+01 -0.21301371858E+02  0.93627134831E+02  0.91078889659E+02 0.  0.
         23    2    1    2    0    0 -0.38770282977E+01  0.13771142433E+01 -0.24105502329E+03  0.25025784045E+03  0.67115830172E+02 0.  0.
          5    1    4    4  502    0 -0.19977567885E+02 -0.27088548956E+02 -0.13226596993E+03  0.13656232827E+03  0.47000000000E+01 0. -1.
         -5    1    3    3    0  503 -0.26256800740E+02 -0.25742171716E+02  0.15311990502E+02  0.40107680597E+02  0.47000000000E+01 0.  1.
          5    1    3    3  503    0  0.30133829038E+02  0.24365057473E+02 -0.36613362361E+02  0.53519454234E+02  0.47000000000E+01 0. -1.
         -5    1    4    4    0  502  0.16100539588E+02  0.28465663199E+02 -0.10878905336E+03  0.11369551217E+03  0.47000000000E+01 0.  1.
<mgrwt>
<rscale>  0 0.84489971E+02</rscale>
<asrwt>0</asrwt>
<pdfrwt beam="1">  1        2 0.46633951E-01 0.91171772E+02</pdfrwt>
<pdfrwt beam="2">  1       -2 0.62714293E-02 0.91171772E+02</pdfrwt>
<totfact> 0.13568525E+04</totfact>
</mgrwt>
</event>
<event>
 8    1  0.3466492E-004  0.9780197E+02  0.7546771E-02  0.1287172E+00
         -2   -1    0    0    0  501 -0.00000000000E+00  0.00000000000E+00  0.69778604990E+01  0.69778604990E+01  0.00000000000E+00 0.  1.
          2   -1    0    0  501    0  0.00000000000E+00 -0.00000000000E+00 -0.13911640113E+04  0.13911640113E+04  0.00000000000E+00 0. -1.
         23    2    1    2    0    0  0.27931812957E+00  0.21789608711E+02 -0.54317471075E+03  0.55190940580E+03  0.95343383383E+02 0.  0.
         23    2    1    2    0    0 -0.27931812957E+00 -0.21789608711E+02 -0.84101144002E+03  0.84623246596E+03  0.91292273131E+02 0.  0.
          5    1    3    3  502    0 -0.29702503515E+02  0.47785923626E+02 -0.36231039694E+03  0.36668330606E+03  0.47000000000E+01 0. -1.
         -5    1    3    3    0  502  0.29981821644E+02 -0.25996314914E+02 -0.18086431381E+03  0.18522609974E+03  0.47000000000E+01 0.  1.
          5    1    4    4  503    0 -0.44792781015E+02 -0.26742315184E+01 -0.38858489371E+03  0.39119541710E+03  0.47000000000E+01 0. -1.
         -5    1    4    4    0  503  0.44513462886E+02 -0.19115377193E+02 -0.45242654632E+03  0.45503704886E+03  0.47000000000E+01 0.  1.
<mgrwt>
<rscale>  0 0.96800461E+02</rscale>
<asrwt>0</asrwt>
<pdfrwt beam="1">  1        2 0.21402518E+00 0.97801972E+02</pdfrwt>
<pdfrwt beam="2">  1       -2 0.10735173E-02 0.97801972E+02</pdfrwt>
<totfact> 0.28035705E+04</totfact>
</mgrwt>
</event>
<event>
 8    1  0.3466492E-004  0.1029281E+03  0.7546771E-02  0.1275817E+00
          1   -1    0    0  501    0  0.00000000000E+00  0.00000000000E+00  0.44866018933E+03  0.44866018933E+03  0.00000000000E+00 0. -1.
         -1   -1    0    0    0  501 -0.00000000000E+00 -0.00000000000E+00 -0.39899040779E+02  0.39899040779E+02  0.00000000000E+00 0.  1.
         23    2    1    2    0    0  0.46169413519E+02 -0.45977511696E+01  0.43285620548E+02  0.10886650681E+03  0.88461953956E+02 0.  0.
         23    2    1    2    0    0 -0.46169413519E+02  0.45977511696E+01  0.36547552801E+03  0.37969272331E+03  0.91877355746E+02 0.  0.
          5    1    3    3  502    0 -0.10786235714E+02 -0.33177487682E+02  0.22028544941E+02  0.41526321315E+02  0.47000000000E+01 0. -1.
         -5    1    4    4    0  503  0.10632849173E+02  0.35562025837E+02  0.11378150904E+03  0.11977494296E+03  0.47000000000E+01 0.  1.
          5    1    4    4  503    0 -0.56802262692E+02 -0.30964274668E+02  0.25169401897E+03  0.25991778034E+03  0.47000000000E+01 0. -1.
         -5    1    3    3    0  502  0.56955649233E+02  0.28579736513E+02  0.21257075607E+02  0.67340185492E+02  0.47000000000E+01 0.  1.
<mgrwt>
<rscale>  0 0.10216038E+03</rscale>
<asrwt>0</asrwt>
<pdfrwt beam="1">  1        1 0.69024641E-01 0.10292814E+03</pdfrwt>
<pdfrwt beam="2">  1       -1 0.61383143E-02 0.10292814E+03</pdfrwt>
<totfact> 0.63381871E+03</totfact>
</mgrwt>
</event>
<event>
 8    1  0.3466492E-004  0.9426398E+02  0.7546771E-02  0.1292934E+00
         -1   -1    0    0    0  501 -0.00000000000E+00  0.00000000000E+00  0.24979551166E+03  0.24979551166E+03  0.00000000000E+00 0.  1.
          1   -1    0    0  501    0  0.00000000000E+00 -0.00000000000E+00 -0.17731763378E+03  0.17731763378E+03  0.00000000000E+00 0. -1.
         23    2    1    2    0    0  0.18278313708E+02 -0.11239877345E+02  0.22722399516E+03  0.24600089858E+03  0.91789250642E+02 0.  0.
         23    2    1    2    0    0 -0.18278313708E+02  0.11239877345E+02 -0.15474611729E+03  0.18111224686E+03  0.91623433426E+02 0.  0.
          5    1    4    4  502    0 -0.51064582583E+02 -0.12901663253E+02 -0.80739892770E+02  0.96514583321E+02  0.47000000000E+01 0. -1.
         -5    1    3    3    0  503  0.48569515850E+02  0.85023640567E+01  0.17788079599E+03  0.18464819426E+03  0.47000000000E+01 0.  1.
          5    1    3    3  503    0 -0.30291202142E+02 -0.19742241402E+02  0.49343199173E+02  0.61352704320E+02  0.47000000000E+01 0. -1.
         -5    1    4    4    0  502  0.32786268875E+02  0.24141540598E+02 -0.74006224515E+02  0.84597663538E+02  0.47000000000E+01 0.  1.
<mgrwt>
<rscale>  0 0.94223591E+02</rscale>
<asrwt>0</asrwt>
<pdfrwt beam="1">  1        1 0.27279636E-01 0.94263981E+02</pdfrwt>
<pdfrwt beam="2">  1       -1 0.38430079E-01 0.94263981E+02</pdfrwt>
<totfact> 0.11099427E+03</totfact>
</mgrwt>
</event>
<event>
 8    1  0.3466492E-004  0.9541156E+02  0.7546771E-02  0.1290916E+00
          2   -1    0    0  501    0  0.00000000000E+00  0.00000000000E+00  0.22077939319E+02  0.22077939319E+02  0.00000000000E+00 0. -1.
         -2   -1    0    0    0  501 -0.00000000000E+00 -0.00000000000E+00 -0.42576245801E+03  0.42576245801E+03  0.00000000000E+00 0.  1.
         23    2    1    2    0    0  0.17368044087E+02 -0.44662091811E+01 -0.15395214591E+03  0.18050236391E+03  0.92510778652E+02 0.  0.
         23    2    1    2    0    0 -0.17368044087E+02  0.44662091811E+01 -0.24973237278E+03  0.26733803342E+03  0.93711099223E+02 0.  0.
          5    1    4    4  502    0  0.24670379859E+02 -0.28936971440E+02 -0.71302251465E+02  0.80944901152E+02  0.47000000000E+01 0. -1.
         -5    1    4    4    0  502 -0.42038423946E+02  0.33403180621E+02 -0.17843012131E+03  0.18639313226E+03  0.47000000000E+01 0.  1.
          5    1    3    3  503    0  0.39347657481E+02 -0.76933940956E+01 -0.20767880825E+02  0.45396270066E+02  0.47000000000E+01 0. -1.
         -5    1    3    3    0  503 -0.21979613394E+02  0.32271849145E+01 -0.13318426508E+03  0.13510609384E+03  0.47000000000E+01 0.  1.
<mgrwt>
<rscale>  0 0.95115522E+02</rscale>
<asrwt>0</asrwt>
<pdfrwt beam="1">  1        2 0.33966060E-02 0.95411562E+02</pdfrwt>
<pdfrwt beam="2">  1       -2 0.65501917E-01 0.95411562E+02</pdfrwt>
<totfact> 0.53252464E+03</totfact>
</mgrwt>
</event>
<event>
 8    1  0.3466492E-004  0.9222946E+02  0.7546771E-02  0.1299506E+00
         -2   -1    0    0    0  501 -0.00000000000E+00  0.00000000000E+00  0.16197919805E+03  0.16197919805E+03  0.00000000000E+00 0.  1.
          2   -1    0    0  501    0  0.00000000000E+00 -0.00000000000E+00 -0.50673662488E+02  0.50673662488E+02  0.00000000000E+00 0. -1.
         23    2    1    2    0    0 -0.33921548781E+01  0.19999248136E+01  0.58493159508E+02  0.10921411616E+03  0.92145358242E+02 0.  0.
         23    2    1    2    0    0  0.33921548781E+01 -0.19999248136E+01  0.52812376058E+02  0.10343874438E+03  0.88853364372E+02 0.  0.
          5    1    4    4  502    0  0.13993816768E+02 -0.28016731996E+02 -0.11027087234E+02  0.33532832155E+02  0.47000000000E+01 0. -1.
         -5    1    3    3    0  503  0.28608951783E+02  0.89311923825E+01 -0.10984080683E+02  0.32264196069E+02  0.47000000000E+01 0.  1.
          5    1    3    3  503    0 -0.32001106661E+02 -0.69312675689E+01  0.69477240191E+02  0.76949920092E+02  0.47000000000E+01 0. -1.
         -5    1    4    4    0  502 -0.10601661890E+02  0.26016807183E+02  0.63839463291E+02  0.69905912226E+02  0.47000000000E+01 0.  1.
<mgrwt>
<rscale>  0 0.91396011E+02</rscale>
<asrwt>0</asrwt>
<pdfrwt beam="1">  1        2 0.77959482E-02 0.92229461E+02</pdfrwt>
<pdfrwt beam="2">  1       -2 0.24919876E-01 0.92229461E+02</pdfrwt>
<totfact> 0.11316245E+04</totfact>
</mgrwt>
</event>
<event>
 8    1  0.3466492E-004  0.9764207E+02  0.7546771E-02  0.1286837E+00
         -1   -1    0    0    0  501 -0.00000000000E+00  0.00000000000E+00  0.25076203151E+02  0.25076203151E+02  0.00000000000E+00 0.  1.
          1   -1    0    0  501    0  0.00000000000E+00 -0.00000000000E+00 -0.42606345242E+03  0.42606345242E+03  0.00000000000E+00 0. -1.
         23    2    1    2    0    0 -0.46317270532E+01 -0.20633434742E+02 -0.12088779908E+03  0.15539573547E+03  0.95324619653E+02 0.  0.
         23    2    1    2    0    0  0.46317270532E+01  0.20633434742E+02 -0.28009945019E+03  0.29574392010E+03  0.92528767168E+02 0.  0.
          5    1    4    4  502    0  0.43759711633E+01  0.56531768002E+02 -0.19807149769E+03  0.20608104744E+03  0.47000000000E+01 0. -1.
         -5    1    3    3    0  503  0.21472595678E+02 -0.42945572591E+02 -0.10823094479E+03  0.11849650620E+03  0.47000000000E+01 0.  1.
          5    1    3    3  503    0 -0.26104322731E+02  0.22312137848E+02 -0.12656854286E+02  0.36899229274E+02  0.47000000000E+01 0. -1.
         -5    1    4    4    0  502  0.25575588993E+00 -0.35898333260E+02 -0.82027952505E+02  0.89662872663E+02  0.47000000000E+01 0.  1.
<mgrwt>
<rscale>  0 0.96952921E+02</rscale>
<asrwt>0</asrwt>
<pdfrwt beam="1">  1        1 0.65548219E-01 0.97642074E+02</pdfrwt>
<pdfrwt beam="2">  1       -1 0.38578776E-02 0.97642074E+02</pdfrwt>
<totfact> 0.13311095E+04</totfact>
</mgrwt>
</event>
<event>
 8    1  0.3466492E-004  0.1476293E+03  0.7546771E-02  0.1205730E+00
          3   -1    0    0  501    0  0.00000000000E+00  0.00000000000E+00  0.15375794391E+03  0.15375794391E+03  0.00000000000E+00 0. -1.
         -3   -1    0    0    0  501 -0.00000000000E+00 -0.00000000000E+00 -0.27976000929E+03  0.27976000929E+03  0.00000000000E+00 0.  1.
         23    2    1    2    0    0  0.67457107650E+02 -0.93439182955E+02 -0.21817747031E+03  0.25947565660E+03  0.80279919875E+02 0.  0.
         23    2    1    2    0    0 -0.67457107650E+02  0.93439182955E+02  0.92175404931E+02  0.17404229659E+03  0.92266318034E+02 0.  0.
          5    1    4    4  502    0 -0.36888920177E+02  0.97626322366E+02  0.96884554138E+02  0.14247946547E+03  0.47000000000E+01 0. -1.
         -5    1    3    3    0  503  0.57002908288E+02 -0.53896090218E+02 -0.68541643102E+02  0.10427927375E+03  0.47000000000E+01 0.  1.
          5    1    3    3  503    0  0.10454199362E+02 -0.39543092737E+02 -0.14963582721E+03  0.15519638286E+03  0.47000000000E+01 0. -1.
         -5    1    4    4    0  502 -0.30568187473E+02 -0.41871394104E+01 -0.47091492070E+01  0.31562831116E+02  0.47000000000E+01 0.  1.
<mgrwt>
<rscale>  0 0.14580080E+03</rscale>
<asrwt>0</asrwt>
<pdfrwt beam="1">  1        3 0.23655068E-01 0.14762932E+03</pdfrwt>
<pdfrwt beam="2">  1       -3 0.43040001E-01 0.14762932E+03</pdfrwt>
<totfact> 0.21102840E+02</totfact>
</mgrwt>
</event>
<event>
 8    1  0.3466492E-004  0.1695408E+03  0.7546771E-02  0.1178420E+00
         -2   -1    0    0    0  501 -0.00000000000E+00  0.00000000000E+00  0.52581587642E+02  0.52581587642E+02  0.00000000000E+00 0.  1.
          2   -1    0    0  501    0  0.00000000000E+00 -0.00000000000E+00 -0.93708962254E+03  0.93708962254E+03  0.00000000000E+00 0. -1.
         23    2    1    2    0    0 -0.11872955446E+03 -0.76569682340E+02 -0.12211068952E+03  0.20865020741E+03  0.93082034792E+02 0.  0.
         23    2    1    2    0    0  0.11872955446E+03  0.76569682340E+02 -0.76239734537E+03  0.78102100277E+03  0.93725509746E+02 0.  0.
          5    1    3    3  502    0 -0.83952212393E+02 -0.97062184807E+02 -0.89219080754E+02  0.15636871828E+03  0.47000000000E+01 0. -1.
         -5    1    4    4    0  503  0.15793404750E+02  0.51718006147E+02 -0.39251494491E+03  0.39625024388E+03  0.47000000000E+01 0.  1.
          5    1    4    4  503    0  0.10293614971E+03  0.24851676193E+02 -0.36988240046E+03  0.38477075889E+03  0.47000000000E+01 0. -1.
         -5    1    3    3    0  502 -0.34777342066E+02  0.20492502467E+02 -0.32891608768E+02  0.52281489132E+02  0.47000000000E+01 0.  1.
<mgrwt>
<rscale>  0 0.16945205E+03</rscale>
<asrwt>0</asrwt>
<pdfrwt beam="1">  1        2 0.14416763E+00 0.16954083E+03</pdfrwt>
<pdfrwt beam="2">  1       -2 0.80894752E-02 0.16954083E+03</pdfrwt>
<totfact> 0.26469660E+03</totfact>
</mgrwt>
</event>
<event>
 8    1  0.3466492E-004  0.1393385E+03  0.7546771E-02  0.1215056E+00
          1   -1    0    0  501    0  0.00000000000E+00  0.00000000000E+00  0.29507446796E+02  0.29507446796E+02  0.00000000000E+00 0. -1.
         -1   -1    0    0    0  501 -0.00000000000E+00 -0.00000000000E+00 -0.69200726865E+03  0.69200726865E+03  0.00000000000E+00 0.  1.
         23    2    1    2    0    0 -0.78123802834E+02 -0.68102466067E+02 -0.42648561296E+03  0.44867047633E+03  0.93134009942E+02 0.  0.
         23    2    1    2    0    0  0.78123802834E+02  0.68102466067E+02 -0.23601420889E+03  0.27284423912E+03  0.89442705515E+02 0.  0.
          5    1    3    3  502    0 -0.44063299156E+02 -0.73988562498E+02 -0.17849366301E+03  0.19823712933E+03  0.47000000000E+01 0. -1.
         -5    1    3    3    0  502 -0.34060503677E+02  0.58860964313E+01 -0.24799194996E+03  0.25043334699E+03  0.47000000000E+01 0.  1.
          5    1    4    4  503    0  0.75616801523E+02  0.77894166542E+01 -0.13856438522E+03  0.15811626905E+03  0.47000000000E+01 0. -1.
         -5    1    4    4    0  503  0.25070013106E+01  0.60313049413E+02 -0.97449823667E+02  0.11472797008E+03  0.47000000000E+01 0.  1.
<mgrwt>
<rscale>  0 0.13872452E+03</rscale>
<asrwt>0</asrwt>
<pdfrwt beam="1">  1        1 0.45396074E-02 0.13933850E+03</pdfrwt>
<pdfrwt beam="2">  1       -1 0.10646265E+00 0.13933850E+03</pdfrwt>
<totfact> 0.16253887E+03</totfact>
</mgrwt>
</event>
<event>
 8    1  0.3466492E-004  0.1594722E+03  0.7546771E-02  0.1189306E+00
         -1   -1    0    0    0  501 -0.00000000000E+00  0.00000000000E+00  0.31739242483E+03  0.31739242483E+03  0.00000000000E+00 0.  1.
          1   -1    0    0  501    0  0.00000000000E+00 -0.00000000000E+00 -0.16885905067E+03  0.16885905067E+03  0.00000000000E+00 0. -1.
         23    2    1    2    0    0  0.11543115482E+03 -0.62385111141E+02  0.25053461251E+03  0.29698311925E+03  0.90637340325E+02 0.  0.
         23    2    1    2    0    0 -0.11543115482E+03  0.62385111141E+02 -0.10200123835E+03  0.18926835624E+03  0.90564918460E+02 0.  0.
          5    1    4    4  502    0 -0.12302767219E+03  0.37394436971E+02 -0.66196869992E+02  0.14470061382E+03  0.47000000000E+01 0. -1.
         -5    1    3    3    0  503  0.12633054399E+03 -0.42742439988E+02  0.18947205575E+03  0.23175002142E+03  0.47000000000E+01 0.  1.
          5    1    3    3  503    0 -0.10899389169E+02 -0.19642671153E+02  0.61062556758E+02  0.65233097827E+02  0.47000000000E+01 0. -1.
         -5    1    4    4    0  502  0.75965173762E+01  0.24990674170E+02 -0.35804368353E+02  0.44567742426E+02  0.47000000000E+01 0.  1.
<mgrwt>
<rscale>  0 0.15946191E+03</rscale>
<asrwt>0</asrwt>
<pdfrwt beam="1">  1        1 0.25978315E-01 0.15947220E+03</pdfrwt>
<pdfrwt beam="2">  1       -1 0.48829604E-01 0.15947220E+03</pdfrwt>
<totfact> 0.77970890E+02</totfact>
</mgrwt>
</event>
<event>
 8    1  0.3466492E-004  0.1088701E+03  0.7546771E-02  0.1263905E+00
          1   -1    0    0  501    0  0.00000000000E+00  0.00000000000E+00  0.85242017149E+02  0.85242017149E+02  0.00000000000E+00 0. -1.
         -1   -1    0    0    0  501 -0.00000000000E+00 -0.00000000000E+00 -0.30126716720E+03  0.30126716720E+03  0.00000000000E+00 0.  1.
         23    2    1    2    0    0 -0.39256766702E+02  0.37995862827E+02 -0.25182801354E+03  0.27435387832E+03  0.94169649146E+02 0.  0.
         23    2    1    2    0    0  0.39256766702E+02 -0.37995862827E+02  0.35802863489E+02  0.11215530603E+03  0.91171203311E+02 0.  0.
          5    1    3    3  502    0 -0.23600044398E+02 -0.19909234354E+02 -0.25969246581E+02  0.40618117585E+02  0.47000000000E+01 0. -1.
         -5    1    3    3    0  502 -0.15656722304E+02  0.57905097181E+02 -0.22585876696E+03  0.23373576073E+03  0.47000000000E+01 0.  1.
          5    1    4    4  503    0  0.55715814663E+02  0.14505227259E+01 -0.41620242042E+00  0.55934061574E+02  0.47000000000E+01 0. -1.
         -5    1    4    4    0  503 -0.16459047961E+02 -0.39446385553E+02  0.36219065909E+02  0.56221244458E+02  0.47000000000E+01 0.  1.
<mgrwt>
<rscale>  0 0.10821856E+03</rscale>
<asrwt>0</asrwt>
<pdfrwt beam="1">  1        1 0.13114157E-01 0.10887012E+03</pdfrwt>
<pdfrwt beam="2">  1       -1 0.46348794E-01 0.10887012E+03</pdfrwt>
<totfact> 0.20283900E+03</totfact>
</mgrwt>
</event>
<event>
 8    1  0.3466492E-004  0.9551717E+02  0.7546771E-02  0.1290151E+00
         -1   -1    0    0    0  501 -0.00000000000E+00  0.00000000000E+00  0.86406068171E+02  0.86406068171E+02  0.00000000000E+00 0.  1.
          1   -1    0    0  501    0  0.00000000000E+00 -0.00000000000E+00 -0.11871349441E+03  0.11871349441E+03  0.00000000000E+00 0. -1.
         23    2    1    2    0    0 -0.22456740951E+02 -0.19472583999E+02  0.18274342784E+02  0.97249582737E+02  0.90774682575E+02 0.  0.
         23    2    1    2    0    0  0.22456740951E+02  0.19472583999E+02 -0.50581769024E+02  0.10786997985E+03  0.90520331708E+02 0.  0.
          5    1    3    3  502    0  0.26255769580E+02  0.18973274642E+02  0.13745728683E+01  0.32761716033E+02  0.47000000000E+01 0. -1.
         -5    1    4    4    0  503 -0.76075597946E+01  0.46593119257E+02 -0.65932173538E+01  0.47899417984E+02  0.47000000000E+01 0.  1.
          5    1    4    4  503    0  0.30064300745E+02 -0.27120535258E+02 -0.43988551670E+02  0.59970561862E+02  0.47000000000E+01 0. -1.
         -5    1    3    3    0  502 -0.48712510530E+02 -0.38445858641E+02  0.16899769916E+02  0.64487866704E+02  0.47000000000E+01 0.  1.
<mgrwt>
<rscale>  0 0.95456690E+02</rscale>
<asrwt>0</asrwt>
<pdfrwt beam="1">  1        1 0.18263615E-01 0.95517170E+02</pdfrwt>
<pdfrwt beam="2">  1       -1 0.13293241E-01 0.95517170E+02</pdfrwt>
<totfact> 0.10204829E+04</totfact>
</mgrwt>
</event>
<event>
 8    1  0.3466492E-004  0.1116590E+03  0.7546771E-02  0.1257860E+00
          1   -1    0    0  501    0  0.00000000000E+00  0.00000000000E+00  0.38601157906E+03  0.38601157906E+03  0.00000000000E+00 0. -1.
         -1   -1    0    0    0  501 -0.00000000000E+00 -0.00000000000E+00 -0.46098181535E+02  0.46098181535E+02  0.00000000000E+00 0.  1.
         23    2    1    2    0    0  0.22023527731E+02  0.60416838947E+02  0.51236794900E+02  0.12285330523E+03  0.91282502447E+02 0.  0.
         23    2    1    2    0    0 -0.22023527731E+02 -0.60416838947E+02  0.28867660262E+03  0.30925645536E+03  0.90388849298E+02 0.  0.
          5    1    3    3  502    0 -0.30850264469E+02  0.43987383968E+02  0.37272563482E+02  0.65558849553E+02  0.47000000000E+01 0. -1.
         -5    1    4    4    0  503 -0.19856036414E+02 -0.46245250931E+01  0.70018607695E+01  0.22062739373E+02  0.47000000000E+01 0.  1.
          5    1    4    4  503    0 -0.21674913174E+01 -0.55792313853E+02  0.28167474185E+03  0.28719371598E+03  0.47000000000E+01 0. -1.
         -5    1    3    3    0  502  0.52873792201E+02  0.16429454979E+02  0.13964231418E+02  0.57294455680E+02  0.47000000000E+01 0.  1.
<mgrwt>
<rscale>  0 0.11147618E+03</rscale>
<asrwt>0</asrwt>
<pdfrwt beam="1">  1        1 0.59386395E-01 0.11165897E+03</pdfrwt>
<pdfrwt beam="2">  1       -1 0.70920282E-02 0.11165897E+03</pdfrwt>
<totfact> 0.62111054E+03</totfact>
</mgrwt>
</event>
<event>
 8    1  0.3466492E-004  0.9955255E+02  0.7546771E-02  0.1281877E+00
         -1   -1    0    0    0  501 -0.00000000000E+00  0.00000000000E+00  0.15396823770E+03  0.15396823770E+03  0.00000000000E+00 0.  1.
          1   -1    0    0  501    0  0.00000000000E+00 -0.00000000000E+00 -0.80496157597E+02  0.80496157597E+02  0.00000000000E+00 0. -1.
         23    2    1    2    0    0 -0.39161612592E+02 -0.25114792819E+01 -0.17153297581E+02  0.99840218361E+02  0.90188104290E+02 0.  0.
         23    2    1    2    0    0  0.39161612592E+02  0.25114792819E+01  0.90625377682E+02  0.13462417693E+03  0.91491914975E+02 0.  0.
          5    1    4    4  502    0  0.15590000699E+02  0.25403502130E+02 -0.74533393278E+01  0.31080995952E+02  0.47000000000E+01 0. -1.
         -5    1    4    4    0  502  0.23571611893E+02 -0.22892022848E+02  0.98078717009E+02  0.10354318098E+03  0.47000000000E+01 0.  1.
          5    1    3    3  503    0 -0.43072860415E+02  0.33621200545E+02 -0.28061029447E+02  0.61604933277E+02  0.47000000000E+01 0. -1.
         -5    1    3    3    0  503  0.39112478230E+01 -0.36132679827E+02  0.10907731866E+02  0.38235285084E+02  0.47000000000E+01 0.  1.
<mgrwt>
<rscale>  0 0.99251965E+02</rscale>
<asrwt>0</asrwt>
<pdfrwt beam="1">  1        1 0.12384024E-01 0.99552549E+02</pdfrwt>
<pdfrwt beam="2">  1       -1 0.23687421E-01 0.99552549E+02</pdfrwt>
<totfact> 0.67781368E+03</totfact>
</mgrwt>
</event>
<event>
 8    1  0.3466492E-004  0.9835619E+02  0.7546771E-02  0.1284557E+00
          2   -1    0    0  501    0  0.00000000000E+00  0.00000000000E+00  0.58582458879E+03  0.58582458879E+03  0.00000000000E+00 0. -1.
         -2   -1    0    0    0  501 -0.00000000000E+00 -0.00000000000E+00 -0.18642849408E+03  0.18642849408E+03  0.00000000000E+00 0.  1.
         23    2    1    2    0    0  0.20891387492E+02  0.22183357381E+02 -0.16931262461E+03  0.19510184808E+03  0.92029423872E+02 0.  0.
         23    2    1    2    0    0 -0.20891387492E+02 -0.22183357381E+02  0.56870871932E+03  0.57715123479E+03  0.93516784468E+02 0.  0.
          5    1    3    3  502    0 -0.17967641753E+02  0.46626897239E+02 -0.77283594544E+02  0.92150679227E+02  0.47000000000E+01 0. -1.
         -5    1    3    3    0  502  0.38859029245E+02 -0.24443539857E+02 -0.92029030062E+02  0.10295116886E+03  0.47000000000E+01 0.  1.
          5    1    4    4  503    0 -0.38853259107E+02  0.22524053945E+02  0.36432834393E+03  0.36711597751E+03  0.47000000000E+01 0. -1.
         -5    1    4    4    0  503  0.17961871615E+02 -0.44707411326E+02  0.20438037539E+03  0.21003525728E+03  0.47000000000E+01 0.  1.
<mgrwt>
<rscale>  0 0.98001001E+02</rscale>
<asrwt>0</asrwt>
<pdfrwt beam="1">  1        2 0.90126859E-01 0.98356191E+02</pdfrwt>
<pdfrwt beam="2">  1       -2 0.28681307E-01 0.98356191E+02</pdfrwt>
<totfact> 0.58086586E+02</totfact>
</mgrwt>
</event>
<event>
 8    1  0.3466492E-004  0.9559299E+02  0.7546771E-02  0.1291083E+00
         -1   -1    0    0    0  501 -0.00000000000E+00  0.00000000000E+00  0.79494979070E+02  0.79494979070E+02  0.00000000000E+00 0.  1.
          1   -1    0    0  501    0  0.00000000000E+00 -0.00000000000E+00 -0.13448262693E+03  0.13448262693E+03  0.00000000000E+00 0. -1.
         23    2    1    2    0    0  0.13167955909E+02 -0.12372043121E+02 -0.70642290438E+02  0.11711127055E+03  0.91641988075E+02 0.  0.
         23    2    1    2    0    0 -0.13167955909E+02  0.12372043121E+02  0.15654642576E+02  0.96866335450E+02  0.93869891848E+02 0.  0.
          5    1    4    4  502    0  0.14401950966E+02  0.33017351798E+02 -0.24453080493E+02  0.43790465366E+02  0.47000000000E+01 0. -1.
         -5    1    4    4    0  502 -0.27569906875E+02 -0.20645308676E+02  0.40107723069E+02  0.53075870084E+02  0.47000000000E+01 0.  1.
          5    1    3    3  503    0  0.35171242715E+02 -0.39546760431E+02 -0.60251973693E+02  0.80332763607E+02  0.47000000000E+01 0. -1.
         -5    1    3    3    0  503 -0.22003286806E+02  0.27174717310E+02 -0.10390316745E+02  0.36778506946E+02  0.47000000000E+01 0.  1.
<mgrwt>
<rscale>  0 0.95041534E+02</rscale>
<asrwt>0</asrwt>
<pdfrwt beam="1">  1        1 0.20689635E-01 0.95592987E+02</pdfrwt>
<pdfrwt beam="2">  1       -1 0.12229997E-01 0.95592987E+02</pdfrwt>
<totfact> 0.99120165E+03</totfact>
</mgrwt>
</event>
<event>
 8    1  0.3466492E-004  0.1276009E+03  0.7546771E-02  0.1237783E+00
          3   -1    0    0  501    0  0.00000000000E+00  0.00000000000E+00  0.28306082633E+03  0.28306082633E+03  0.00000000000E+00 0. -1.
         -3   -1    0    0    0  501 -0.00000000000E+00 -0.00000000000E+00 -0.56294779815E+02  0.56294779815E+02  0.00000000000E+00 0.  1.
         23    2    1    2    0    0  0.63940467413E+02  0.17157321870E+01  0.51400778615E+02  0.12248014050E+03  0.90928640513E+02 0.  0.
         23    2    1    2    0    0 -0.63940467413E+02 -0.17157321870E+01  0.17536526790E+03  0.21687546564E+03  0.11041133683E+03 0.  0.
          5    1    4    4  502    0  0.59186054994E+01 -0.24903942876E+02  0.12471577120E+03  0.12740231492E+03  0.47000000000E+01 0. -1.
         -5    1    4    4    0  502 -0.69859072912E+02  0.23188210689E+02  0.50649496694E+02  0.89473150713E+02  0.47000000000E+01 0.  1.
          5    1    3    3  503    0 -0.21336967388E+02 -0.11365489237E+02  0.14009595940E+02  0.28333713158E+02  0.47000000000E+01 0. -1.
         -5    1    3    3    0  503  0.85277434800E+02  0.13081221424E+02  0.37391182674E+02  0.94146427345E+02  0.47000000000E+01 0.  1.
<mgrwt>
<rscale>  0 0.12327918E+03</rscale>
<asrwt>0</asrwt>
<pdfrwt beam="1">  1        3 0.43547819E-01 0.12760090E+03</pdfrwt>
<pdfrwt beam="2">  1       -3 0.86607355E-02 0.12760090E+03</pdfrwt>
<totfact> 0.11235785E+03</totfact>
</mgrwt>
</event>
<event>
 8    1  0.3466492E-004  0.9665687E+02  0.7546771E-02  0.1287599E+00
          2   -1    0    0  501    0  0.00000000000E+00  0.00000000000E+00  0.84697199246E+02  0.84697199246E+02  0.00000000000E+00 0. -1.
         -2   -1    0    0    0  501 -0.00000000000E+00 -0.00000000000E+00 -0.11587421252E+03  0.11587421252E+03  0.00000000000E+00 0.  1.
         23    2    1    2    0    0  0.11804019415E+02  0.26838556443E+02  0.68627445051E+01  0.96698535895E+02  0.91890514178E+02 0.  0.
         23    2    1    2    0    0 -0.11804019415E+02 -0.26838556443E+02 -0.38039757781E+02  0.10387287587E+03  0.92102704540E+02 0.  0.
          5    1    4    4  502    0 -0.49560775087E+02 -0.19427287682E+02 -0.63710408453E+01  0.53817934699E+02  0.47000000000E+01 0. -1.
         -5    1    3    3    0  503  0.43563429674E+02  0.24937465781E+02 -0.20546610077E+02  0.54441737575E+02  0.47000000000E+01 0.  1.
          5    1    3    3  503    0 -0.31759410258E+02  0.19010906614E+01  0.27409354582E+02  0.42256798320E+02  0.47000000000E+01 0. -1.
         -5    1    4    4    0  502  0.37756755671E+02 -0.74112687612E+01 -0.31668716935E+02  0.50054941173E+02  0.47000000000E+01 0.  1.
<mgrwt>
<rscale>  0 0.96606291E+02</rscale>
<asrwt>0</asrwt>
<pdfrwt beam="1">  1        2 0.13030338E-01 0.96656873E+02</pdfrwt>
<pdfrwt beam="2">  1       -2 0.17826802E-01 0.96656873E+02</pdfrwt>
<totfact> 0.10745384E+04</totfact>
</mgrwt>
</event>
<event>
 8    1  0.3466492E-004  0.9812063E+02  0.7546771E-02  0.1290276E+00
          1   -1    0    0  501    0  0.00000000000E+00  0.00000000000E+00  0.35954961174E+03  0.35954961174E+03  0.00000000000E+00 0. -1.
         -1   -1    0    0    0  501 -0.00000000000E+00 -0.00000000000E+00 -0.53513082625E+02  0.53513082625E+02  0.00000000000E+00 0.  1.
         23    2    1    2    0    0 -0.22261773431E+02 -0.31545138464E+02  0.36167996703E+01  0.98187269120E+02  0.90205189764E+02 0.  0.
         23    2    1    2    0    0  0.22261773431E+02  0.31545138464E+02  0.30241972944E+03  0.31487542525E+03  0.78728383378E+02 0.  0.
          5    1    4    4  502    0  0.44264157734E+02  0.29609911461E+02  0.27075907736E+03  0.27598664911E+03  0.47000000000E+01 0. -1.
         -5    1    4    4    0  502 -0.22002384303E+02  0.19352270026E+01  0.31660652087E+02  0.38888776134E+02  0.47000000000E+01 0.  1.
          5    1    3    3  503    0 -0.37710420220E+01 -0.61023799220E+02  0.11015990070E+02  0.62302222002E+02  0.47000000000E+01 0. -1.
         -5    1    3    3    0  503 -0.18490731409E+02  0.29478660756E+02 -0.73991903997E+01  0.35885047117E+02  0.47000000000E+01 0.  1.
<mgrwt>
<rscale>  0 0.95400986E+02</rscale>
<asrwt>0</asrwt>
<pdfrwt beam="1">  1        1 0.55315323E-01 0.98120633E+02</pdfrwt>
<pdfrwt beam="2">  1       -1 0.82327822E-02 0.98120633E+02</pdfrwt>
<totfact> 0.53816050E+03</totfact>
</mgrwt>
</event>
<event>
 8    1  0.3466492E-004  0.1041157E+03  0.7546771E-02  0.1273216E+00
         -1   -1    0    0    0  501 -0.00000000000E+00  0.00000000000E+00  0.17972172640E+02  0.17972172640E+02  0.00000000000E+00 0.  1.
          1   -1    0    0  501    0  0.00000000000E+00 -0.00000000000E+00 -0.63400193434E+03  0.63400193434E+03  0.00000000000E+00 0. -1.
         23    2    1    2    0    0 -0.35697571006E+02  0.35622747928E+02 -0.39967011373E+03  0.41300880893E+03  0.91086660403E+02 0.  0.
         23    2    1    2    0    0  0.35697571006E+02 -0.35622747928E+02 -0.21635964798E+03  0.23896529805E+03  0.88031924063E+02 0.  0.
          5    1    4    4  502    0  0.63444726134E+02 -0.12352447349E+02 -0.14411714493E+03  0.15801790308E+03  0.47000000000E+01 0. -1.
         -5    1    3    3    0  503 -0.61711106776E+02  0.24687339437E+02 -0.18892445305E+03  0.20033038808E+03  0.47000000000E+01 0.  1.
          5    1    3    3  503    0  0.26013535770E+02  0.10935408492E+02 -0.21074566067E+03  0.21267842085E+03  0.47000000000E+01 0. -1.
         -5    1    4    4    0  502 -0.27747155128E+02 -0.23270300579E+02 -0.72242503045E+02  0.80947394973E+02  0.47000000000E+01 0.  1.
<mgrwt>
<rscale>  0 0.10344379E+03</rscale>
<asrwt>0</asrwt>
<pdfrwt beam="1">  1        1 0.97538757E-01 0.10411569E+03</pdfrwt>
<pdfrwt beam="2">  1       -1 0.27649497E-02 0.10411569E+03</pdfrwt>
<totfact> 0.12911889E+04</totfact>
</mgrwt>
</event>
<event>
 8    1  0.3466492E-004  0.1342562E+03  0.7546771E-02  0.1221442E+00
          2   -1    0    0  501    0  0.00000000000E+00  0.00000000000E+00  0.45816585327E+03  0.45816585327E+03  0.00000000000E+00 0. -1.
         -2   -1    0    0    0  501 -0.00000000000E+00 -0.00000000000E+00 -0.39509999879E+02  0.39509999879E+02  0.00000000000E+00 0.  1.
         23    2    1    2    0    0 -0.24636342571E+02 -0.94964065734E+02  0.23091511948E+03  0.26687006806E+03  0.90954481265E+02 0.  0.
         23    2    1    2    0    0  0.24636342571E+02  0.94964065734E+02  0.18774073390E+03  0.23080578509E+03  0.91649354107E+02 0.  0.
          5    1    3    3  502    0 -0.46106639468E+02 -0.26963233055E+02  0.14796757039E+03  0.15738275010E+03  0.47000000000E+01 0. -1.
         -5    1    4    4    0  503  0.36392473618E+02  0.59805494751E+02  0.45237321832E+02  0.83484217820E+02  0.47000000000E+01 0.  1.
          5    1    4    4  503    0 -0.11756131047E+02  0.35158570983E+02  0.14250341207E+03  0.14732156727E+03  0.47000000000E+01 0. -1.
         -5    1    3    3    0  502  0.21470296897E+02 -0.68000832679E+02  0.82947549090E+02  0.10948731796E+03  0.47000000000E+01 0.  1.
<mgrwt>
<rscale>  0 0.13413770E+03</rscale>
<asrwt>0</asrwt>
<pdfrwt beam="1">  1        2 0.70487050E-01 0.13425620E+03</pdfrwt>
<pdfrwt beam="2">  1       -2 0.60784619E-02 0.13425620E+03</pdfrwt>
<totfact> 0.94769085E+03</totfact>
</mgrwt>
</event>
<event>
 8    1  0.3466492E-004  0.1105567E+03  0.7546771E-02  0.1259714E+00
          1   -1    0    0  501    0  0.00000000000E+00  0.00000000000E+00  0.73716728967E+02  0.73716728967E+02  0.00000000000E+00 0. -1.
         -1   -1    0    0    0  501 -0.00000000000E+00 -0.00000000000E+00 -0.16832237252E+03  0.16832237252E+03  0.00000000000E+00 0.  1.
         23    2    1    2    0    0  0.53883239232E+02 -0.32101952149E+02 -0.30870746942E+02  0.11442670610E+03  0.90589895965E+02 0.  0.
         23    2    1    2    0    0 -0.53883239232E+02  0.32101952149E+02 -0.63734896609E+02  0.12761239538E+03  0.91043108512E+02 0.  0.
          5    1    4    4  502    0 -0.14726824709E+02 -0.23714130535E+02 -0.50656500063E+02  0.58029392136E+02  0.47000000000E+01 0. -1.
         -5    1    4    4    0  502 -0.39156414523E+02  0.55816082685E+02 -0.13078396546E+02  0.69583003246E+02  0.47000000000E+01 0.  1.
          5    1    3    3  503    0  0.51350086601E+02 -0.52511936422E+02  0.39624204433E+01  0.73702955412E+02  0.47000000000E+01 0. -1.
         -5    1    3    3    0  503  0.25331526317E+01  0.20409984273E+02 -0.34833167385E+02  0.40723750691E+02  0.47000000000E+01 0.  1.
<mgrwt>
<rscale>  0 0.11046336E+03</rscale>
<asrwt>0</asrwt>
<pdfrwt beam="1">  1        1 0.11341035E-01 0.11055671E+03</pdfrwt>
<pdfrwt beam="2">  1       -1 0.25895750E-01 0.11055671E+03</pdfrwt>
<totfact> 0.66293628E+03</totfact>
</mgrwt>
</event>
<event>
 8    1  0.3466492E-004  0.1660933E+03  0.7546771E-02  0.1186004E+00
          2   -1    0    0  501    0  0.00000000000E+00  0.00000000000E+00  0.66300172107E+02  0.66300172107E+02  0.00000000000E+00 0.  1.
         -2   -1    0    0    0  501 -0.00000000000E+00 -0.00000000000E+00 -0.11615896317E+04  0.11615896317E+04  0.00000000000E+00 0. -1.
         23    2    1    2    0    0 -0.58901325884E+01 -0.12117034582E+03 -0.10426595689E+04  0.10536574911E+04  0.91313665939E+02 0.  0.
         23    2    1    2    0    0  0.58901325884E+01  0.12117034582E+03 -0.52629890646E+02  0.17423231265E+03  0.11344622962E+03 0.  0.
          5    1    4    4  502    0 -0.28764226210E+02  0.94571108607E+02  0.80812345195E+01  0.99289836559E+02  0.47000000000E+01 0.  1.
         -5    1    4    4    0  502  0.34654358799E+02  0.26599237209E+02 -0.60711125165E+02  0.74942476091E+02  0.47000000000E+01 0. -1.
          5    1    3    3  503    0  0.24849929204E+02 -0.11375451024E+03 -0.89653123989E+03  0.90407298471E+03  0.47000000000E+01 0. -1.
         -5    1    3    3    0  503 -0.30740061793E+02 -0.74158355750E+01 -0.14612832905E+03  0.14958450644E+03  0.47000000000E+01 0.  1.
<mgrwt>
<rscale>  0 0.16240900E+03</rscale>
<asrwt>0</asrwt>
<pdfrwt beam="1">  1        2 0.10200027E-01 0.16609333E+03</pdfrwt>
<pdfrwt beam="2">  1       -2 0.17870608E+00 0.16609333E+03</pdfrwt>
<totfact> 0.12473025E+02</totfact>
</mgrwt>
</event>
<event>
 8    1  0.3466492E-004  0.1159063E+03  0.7546771E-02  0.1250798E+00
          2   -1    0    0  501    0  0.00000000000E+00  0.00000000000E+00  0.78312335220E+03  0.78312335220E+03  0.00000000000E+00 0. -1.
         -2   -1    0    0    0  501 -0.00000000000E+00 -0.00000000000E+00 -0.17245509131E+02  0.17245509131E+02  0.00000000000E+00 0.  1.
         23    2    1    2    0    0  0.66537645951E+02 -0.21713270242E+02  0.43765671619E+03  0.45228356124E+03  0.90101576620E+02 0.  0.
         23    2    1    2    0    0 -0.66537645951E+02  0.21713270242E+02  0.32822112688E+03  0.34808530009E+03  0.92388005585E+02 0.  0.
          5    1    4    4  502    0  0.18412664290E+02 -0.13742147761E+02  0.76829368209E+02  0.80328790920E+02  0.47000000000E+01 0. -1.
         -5    1    4    4    0  502 -0.84950310240E+02  0.35455418004E+02  0.25139175867E+03  0.26775650917E+03  0.47000000000E+01 0.  1.
          5    1    3    3  503    0  0.18374360601E+02 -0.42028046388E+02  0.32188968234E+03  0.32517538561E+03  0.47000000000E+01 0. -1.
         -5    1    3    3    0  503  0.48163285350E+02  0.20314776146E+02  0.11576703385E+03  0.12710817563E+03  0.47000000000E+01 0.  1.
<mgrwt>
<rscale>  0 0.11545007E+03</rscale>
<asrwt>0</asrwt>
<pdfrwt beam="1">  1        2 0.12048049E+00 0.11590629E+03</pdfrwt>
<pdfrwt beam="2">  1       -2 0.26531559E-02 0.11590629E+03</pdfrwt>
<totfact> 0.17409812E+04</totfact>
</mgrwt>
</event>
<event>
 8    1  0.3466492E-004  0.1097063E+03  0.7546771E-02  0.1261389E+00
         -3   -1    0    0    0  501 -0.00000000000E+00  0.00000000000E+00  0.58131464357E+02  0.58131464357E+02  0.00000000000E+00 0.  1.
          3   -1    0    0  501    0  0.00000000000E+00 -0.00000000000E+00 -0.23208127685E+03  0.23208127685E+03  0.00000000000E+00 0. -1.
         23    2    1    2    0    0 -0.55513123891E+02  0.22549305376E+02 -0.13547782015E+03  0.17395631525E+03  0.91194198084E+02 0.  0.
         23    2    1    2    0    0  0.55513123891E+02 -0.22549305376E+02 -0.38471992341E+02  0.11625642596E+03  0.91898227868E+02 0.  0.
          5    1    4    4  502    0  0.36265947302E+02  0.32027858953E+02 -0.41026046201E+01  0.48784465227E+02  0.47000000000E+01 0. -1.
         -5    1    3    3    0  503 -0.15134809283E+02  0.37140726774E+02 -0.10496185090E+02  0.41722367368E+02  0.47000000000E+01 0.  1.
          5    1    3    3  503    0 -0.40378314608E+02 -0.14591421398E+02 -0.12498163506E+03  0.13223394788E+03  0.47000000000E+01 0. -1.
         -5    1    4    4    0  502  0.19247176589E+02 -0.54577164329E+02 -0.34369387721E+02  0.67471960733E+02  0.47000000000E+01 0.  1.
<mgrwt>
<rscale>  0 0.10955869E+03</rscale>
<asrwt>0</asrwt>
<pdfrwt beam="1">  1        3 0.35704811E-01 0.10970625E+03</pdfrwt>
<pdfrwt beam="2">  1       -3 0.89433023E-02 0.10970625E+03</pdfrwt>
<totfact> 0.15197513E+03</totfact>
</mgrwt>
</event>
<event>
 8    1  0.3466492E-004  0.1522526E+03  0.7546771E-02  0.1198125E+00
          1   -1    0    0  501    0  0.00000000000E+00  0.00000000000E+00  0.18869773176E+02  0.18869773176E+02  0.00000000000E+00 0. -1.
         -1   -1    0    0    0  501 -0.00000000000E+00 -0.00000000000E+00 -0.15338514242E+04  0.15338514242E+04  0.00000000000E+00 0.  1.
         23    2    1    2    0    0 -0.75522686249E+02 -0.94688415343E+02 -0.11072064589E+04  0.11174494867E+04  0.90097949900E+02 0.  0.
         23    2    1    2    0    0  0.75522686249E+02  0.94688415343E+02 -0.40777519213E+03  0.43527171067E+03  0.92256613084E+02 0.  0.
          5    1    3    3  502    0  0.58658793196E+01 -0.22568572387E+02 -0.59117660149E+02  0.63723910280E+02  0.47000000000E+01 0. -1.
         -5    1    3    3    0  502 -0.81388565569E+02 -0.72119842955E+02 -0.10480887987E+04  0.10537255764E+04  0.47000000000E+01 0.  1.
          5    1    4    4  503    0  0.85604462814E+02  0.69115050762E+02 -0.22636473177E+03  0.25173020495E+03  0.47000000000E+01 0. -1.
         -5    1    4    4    0  503 -0.10081776566E+02  0.25573364581E+02 -0.18141046036E+03  0.18354150572E+03  0.47000000000E+01 0.  1.
<mgrwt>
<rscale>  0 0.15192699E+03</rscale>
<asrwt>0</asrwt>
<pdfrwt beam="1">  1        1 0.29030413E-02 0.15225260E+03</pdfrwt>
<pdfrwt beam="2">  1       -1 0.23597720E+00 0.15225260E+03</pdfrwt>
<totfact> 0.34752768E+02</totfact>
</mgrwt>
</event>
<event>
 8    1  0.3466492E-004  0.1897454E+03  0.7546771E-02  0.1159241E+00
          2   -1    0    0  501    0  0.00000000000E+00  0.00000000000E+00  0.90340506550E+03  0.90340506550E+03  0.00000000000E+00 0. -1.
         -2   -1    0    0    0  501 -0.00000000000E+00 -0.00000000000E+00 -0.40038468919E+02  0.40038468919E+02  0.00000000000E+00 0.  1.
         23    2    1    2    0    0 -0.18618331110E+02 -0.16358942147E+03  0.49095458069E+03  0.52547939993E+03  0.89353558256E+02 0.  0.
         23    2    1    2    0    0  0.18618331110E+02  0.16358942147E+03  0.37241201589E+03  0.41796413449E+03  0.94314193392E+02 0.  0.
          5    1    4    4  502    0  0.48780145162E+02  0.99251515193E+02  0.28150565827E+03  0.30248618393E+03  0.47000000000E+01 0. -1.
         -5    1    3    3    0  503 -0.40867616690E+02 -0.13099354351E+03  0.29300343564E+03  0.32357777092E+03  0.47000000000E+01 0.  1.
          5    1    3    3  503    0  0.22249285580E+02 -0.32595877963E+02  0.19795114505E+03  0.20190162901E+03  0.47000000000E+01 0. -1.
         -5    1    4    4    0  502 -0.30161814052E+02  0.64337906276E+02  0.90906357613E+02  0.11547795056E+03  0.47000000000E+01 0.  1.
<mgrwt>
<rscale>  0 0.18913841E+03</rscale>
<asrwt>0</asrwt>
<pdfrwt beam="1">  1        2 0.13898538E+00 0.18974538E+03</pdfrwt>
<pdfrwt beam="2">  1       -2 0.61597651E-02 0.18974538E+03</pdfrwt>
<totfact> 0.42434349E+03</totfact>
</mgrwt>
</event>
<event>
 8    1  0.3466492E-004  0.1023596E+03  0.7546771E-02  0.1275928E+00
          1   -1    0    0  501    0  0.00000000000E+00  0.00000000000E+00  0.27012891528E+03  0.27012891528E+03  0.00000000000E+00 0. -1.
         -1   -1    0    0    0  501 -0.00000000000E+00 -0.00000000000E+00 -0.10305988578E+03  0.10305988578E+03  0.00000000000E+00 0.  1.
         23    2    1    2    0    0  0.20125855215E+02 -0.39914919630E+02 -0.64103234175E+02  0.12077544885E+03  0.92082753848E+02 0.  0.
         23    2    1    2    0    0 -0.20125855215E+02  0.39914919630E+02  0.23117226368E+03  0.25241335221E+03  0.90959518603E+02 0.  0.
          5    1    3    3  502    0 -0.58981088733E+01 -0.53647285202E+02 -0.47753683449E+01  0.54384860399E+02  0.47000000000E+01 0. -1.
         -5    1    4    4    0  503 -0.35908619135E+02 -0.92000934556E+01  0.16048153708E+03  0.16477404041E+03  0.47000000000E+01 0.  1.
          5    1    4    4  503    0  0.15782763920E+02  0.49115013086E+02  0.70690726597E+02  0.87639311808E+02  0.47000000000E+01 0. -1.
         -5    1    3    3    0  502  0.26023964088E+02  0.13732365571E+02 -0.59327865830E+02  0.66390588452E+02  0.47000000000E+01 0.  1.
<mgrwt>
<rscale>  0 0.10210633E+03</rscale>
<asrwt>0</asrwt>
<pdfrwt beam="1">  1        1 0.41558294E-01 0.10235958E+03</pdfrwt>
<pdfrwt beam="2">  1       -1 0.15855367E-01 0.10235958E+03</pdfrwt>
<totfact> 0.28170340E+03</totfact>
</mgrwt>
</event>
<event>
 8    1  0.3466492E-004  0.9360039E+02  0.7546771E-02  0.1297549E+00
         -1   -1    0    0    0  501 -0.00000000000E+00  0.00000000000E+00  0.25966582856E+03  0.25966582856E+03  0.00000000000E+00 0.  1.
          1   -1    0    0  501    0  0.00000000000E+00 -0.00000000000E+00 -0.37599956260E+02  0.37599956260E+02  0.00000000000E+00 0. -1.
         23    2    1    2    0    0 -0.19788937371E+02  0.27243752330E+01  0.50046281956E+02  0.10142969962E+03  0.85932120676E+02 0.  0.
         23    2    1    2    0    0  0.19788937371E+02 -0.27243752330E+01  0.17201959034E+03  0.19583608520E+03  0.91444018631E+02 0.  0.
          5    1    3    3  502    0  0.27343664469E+02  0.34145641058E+00 -0.56091464637E+01  0.28308039549E+02  0.47000000000E+01 0. -1.
         -5    1    3    3    0  502 -0.47132601840E+02  0.23829188224E+01  0.55655428420E+02  0.73121660067E+02  0.47000000000E+01 0.  1.
          5    1    4    4  503    0  0.43327512610E+02 -0.11877413667E+02  0.36988527819E+02  0.58383109669E+02  0.47000000000E+01 0. -1.
         -5    1    4    4    0  503 -0.23538575239E+02  0.91530384342E+01  0.13503106252E+03  0.13745297553E+03  0.47000000000E+01 0.  1.
<mgrwt>
<rscale>  0 0.92226151E+02</rscale>
<asrwt>0</asrwt>
<pdfrwt beam="1">  1        1 0.57846088E-02 0.93600389E+02</pdfrwt>
<pdfrwt beam="2">  1       -1 0.39948588E-01 0.93600389E+02</pdfrwt>
<totfact> 0.77004398E+03</totfact>
</mgrwt>
</event>
<event>
 8    1  0.3466492E-004  0.9191843E+02  0.7546771E-02  0.1298376E+00
         -1   -1    0    0    0  501 -0.00000000000E+00  0.00000000000E+00  0.97865915036E+02  0.97865915036E+02  0.00000000000E+00 0.  1.
          1   -1    0    0  501    0  0.00000000000E+00 -0.00000000000E+00 -0.21471744517E+03  0.21471744517E+03  0.00000000000E+00 0. -1.
         23    2    1    2    0    0  0.39571253973E+01  0.45806672088E+01  0.62529088505E+02  0.11102343311E+03  0.91540561707E+02 0.  0.
         23    2    1    2    0    0 -0.39571253973E+01 -0.45806672088E+01 -0.17938061864E+03  0.20155992709E+03  0.91718899430E+02 0.  0.
          5    1    3    3  502    0 -0.18102665575E+02 -0.22817491781E+02 -0.92764499446E+01  0.30927123300E+02  0.47000000000E+01 0. -1.
         -5    1    3    3    0  502  0.22059790972E+02  0.27398158989E+02  0.71805538450E+02  0.80096309814E+02  0.47000000000E+01 0.  1.
          5    1    4    4  503    0 -0.20992618242E+02  0.19723526249E+02 -0.12087890495E+02  0.31589786403E+02  0.47000000000E+01 0. -1.
         -5    1    4    4    0  503  0.17035492845E+02 -0.24304193458E+02 -0.16729272815E+03  0.16997014069E+03  0.47000000000E+01 0.  1.
<mgrwt>
<rscale>  0 0.91873911E+02</rscale>
<asrwt>0</asrwt>
<pdfrwt beam="1">  1        1 0.33033453E-01 0.91918431E+02</pdfrwt>
<pdfrwt beam="2">  1       -1 0.15056295E-01 0.91918431E+02</pdfrwt>
<totfact> 0.40194108E+03</totfact>
</mgrwt>
</event>
<event>
 8    1  0.3466492E-004  0.1043743E+03  0.7546771E-02  0.1272693E+00
         -2   -1    0    0    0  501 -0.00000000000E+00  0.00000000000E+00  0.16155437826E+03  0.16155437826E+03  0.00000000000E+00 0. -1.
          2   -1    0    0  501    0  0.00000000000E+00 -0.00000000000E+00 -0.74136130826E+02  0.74136130826E+02  0.00000000000E+00 0.  1.
         23    2    1    2    0    0  0.42838818031E+02 -0.24218412242E+01  0.45260336086E+01  0.10447237470E+03  0.95147056972E+02 0.  0.
         23    2    1    2    0    0 -0.42838818031E+02  0.24218412242E+01  0.82892213823E+02  0.13121813438E+03  0.92228249647E+02 0.  0.
          5    1    3    3  502    0  0.11689559873E+02  0.23227950629E+02  0.41725978961E+02  0.49389582107E+02  0.47000000000E+01 0. -1.
         -5    1    4    4    0  503 -0.29116319789E+01 -0.40717970291E+02  0.22659326036E+02  0.46925108011E+02  0.47000000000E+01 0.  1.
          5    1    4    4  503    0 -0.39927186052E+02  0.43139811516E+02  0.60232887787E+02  0.84293026371E+02  0.47000000000E+01 0. -1.
         -5    1    3    3    0  502  0.31149258158E+02 -0.25649791853E+02 -0.37199945352E+02  0.55082792596E+02  0.47000000000E+01 0.  1.
<mgrwt>
<rscale>  0 0.10370444E+03</rscale>
<asrwt>0</asrwt>
<pdfrwt beam="1">  1        2 0.11405559E-01 0.10437429E+03</pdfrwt>
<pdfrwt beam="2">  1       -2 0.24854520E-01 0.10437429E+03</pdfrwt>
<totfact> 0.72229789E+03</totfact>
</mgrwt>
</event>
<event>
 8    1  0.3466492E-004  0.1224282E+03  0.7546771E-02  0.1243082E+00
         -1   -1    0    0    0  501 -0.00000000000E+00  0.00000000000E+00  0.45992627541E+03  0.45992627541E+03  0.00000000000E+00 0.  1.
          1   -1    0    0  501    0  0.00000000000E+00 -0.00000000000E+00 -0.36326628582E+02  0.36326628582E+02  0.00000000000E+00 0. -1.
         23    2    1    2    0    0  0.66328844607E+02 -0.14068308089E+02  0.32116253564E+03  0.34370632680E+03  0.10193739189E+03 0.  0.
         23    2    1    2    0    0 -0.66328844607E+02  0.14068308089E+02  0.10243711118E+03  0.15254657719E+03  0.90441492384E+02 0.  0.
          5    1    3    3  502    0  0.24860357011E+02  0.43901044502E+02  0.14583166896E+03  0.15438362844E+03  0.47000000000E+01 0. -1.
         -5    1    4    4    0  503 -0.81249789255E+02 -0.36772708952E+01  0.99669123291E+02  0.12872868644E+03  0.47000000000E+01 0.  1.
          5    1    4    4  503    0  0.14920944648E+02  0.17745578984E+02  0.27679878940E+01  0.23817890747E+02  0.47000000000E+01 0. -1.
         -5    1    3    3    0  502  0.41468487596E+02 -0.57969352591E+02  0.17533086668E+03  0.18932269836E+03  0.47000000000E+01 0.  1.
<mgrwt>
<rscale>  0 0.12000936E+03</rscale>
<asrwt>0</asrwt>
<pdfrwt beam="1">  1        1 0.55887124E-02 0.12242820E+03</pdfrwt>
<pdfrwt beam="2">  1       -1 0.70757884E-01 0.12242820E+03</pdfrwt>
<totfact> 0.28688213E+03</totfact>
</mgrwt>
</event>
<event>
 8    1  0.3466492E-004  0.1037447E+03  0.7546771E-02  0.1272838E+00
         -2   -1    0    0    0  501 -0.00000000000E+00  0.00000000000E+00  0.15511604045E+02  0.15511604045E+02  0.00000000000E+00 0.  1.
          2   -1    0    0  501    0  0.00000000000E+00 -0.00000000000E+00 -0.69608190988E+03  0.69608190988E+03  0.00000000000E+00 0. -1.
         23    2    1    2    0    0 -0.49124003679E+02 -0.19788926539E+01 -0.37035617919E+03  0.38449144959E+03  0.90845426912E+02 0.  0.
         23    2    1    2    0    0  0.49124003679E+02  0.19788926539E+01 -0.31021412664E+03  0.32710206433E+03  0.91355746222E+02 0.  0.
          5    1    4    4  502    0  0.13573977650E+02 -0.26016637783E+02 -0.24934938225E+03  0.25111416276E+03  0.47000000000E+01 0. -1.
         -5    1    4    4    0  502  0.35550026029E+02  0.27995530437E+02 -0.60864744393E+02  0.75987901571E+02  0.47000000000E+01 0.  1.
          5    1    3    3  503    0 -0.12550304000E+02  0.43022914471E+02 -0.16783438861E+03  0.17377846040E+03  0.47000000000E+01 0. -1.
         -5    1    3    3    0  503 -0.36573699678E+02 -0.45001807125E+02 -0.20252179058E+03  0.21071298919E+03  0.47000000000E+01 0.  1.
<mgrwt>
<rscale>  0 0.10363221E+03</rscale>
<asrwt>0</asrwt>
<pdfrwt beam="1">  1        2 0.10708951E+00 0.10374467E+03</pdfrwt>
<pdfrwt beam="2">  1       -2 0.23864010E-02 0.10374467E+03</pdfrwt>
<totfact> 0.23162066E+04</totfact>
</mgrwt>
</event>
<event>
 8    1  0.3466492E-004  0.1070194E+03  0.7546771E-02  0.1268525E+00
         -1   -1    0    0    0  501 -0.00000000000E+00  0.00000000000E+00  0.58405119261E+02  0.58405119261E+02  0.00000000000E+00 0.  1.
          1   -1    0    0  501    0  0.00000000000E+00 -0.00000000000E+00 -0.68784013955E+03  0.68784013955E+03  0.00000000000E+00 0. -1.
         23    2    1    2    0    0 -0.34338442010E+02 -0.29624789195E+02  0.54320494613E+01  0.10242125137E+03  0.91672508614E+02 0.  0.
         23    2    1    2    0    0  0.34338442010E+02  0.29624789195E+02 -0.63486706975E+03  0.64382400745E+03  0.96935027599E+02 0.  0.
          5    1    4    4  502    0 -0.64660396326E+01  0.51172371122E+02 -0.46012468609E+03  0.46303049358E+03  0.47000000000E+01 0. -1.
         -5    1    3    3    0  503  0.24246293887E+02  0.22804909190E+01  0.22407724859E+02  0.33425731697E+02  0.47000000000E+01 0.  1.
          5    1    3    3  503    0 -0.58584735897E+02 -0.31905280114E+02 -0.16975675398E+02  0.68995519670E+02  0.47000000000E+01 0. -1.
         -5    1    4    4    0  502  0.40804481642E+02 -0.21547581926E+02 -0.17474238366E+03  0.18079351387E+03  0.47000000000E+01 0.  1.
<mgrwt>
<rscale>  0 0.10581361E+03</rscale>
<asrwt>0</asrwt>
<pdfrwt beam="1">  1        1 0.10582157E+00 0.10701942E+03</pdfrwt>
<pdfrwt beam="2">  1       -1 0.89854023E-02 0.10701942E+03</pdfrwt>
<totfact> 0.20392408E+03</totfact>
</mgrwt>
</event>
<event>
 8    1  0.3466492E-004  0.9694454E+02  0.7546771E-02  0.1287334E+00
         -1   -1    0    0    0  501 -0.00000000000E+00  0.00000000000E+00  0.20559571098E+03  0.20559571098E+03  0.00000000000E+00 0.  1.
          1   -1    0    0  501    0  0.00000000000E+00 -0.00000000000E+00 -0.45395849006E+02  0.45395849006E+02  0.00000000000E+00 0. -1.
         23    2    1    2    0    0 -0.90673191659E+01 -0.30590652080E+02  0.86122861902E+02  0.12967417217E+03  0.91543647048E+02 0.  0.
         23    2    1    2    0    0  0.90673191659E+01  0.30590652080E+02  0.74077000071E+02  0.12131738781E+03  0.90622857904E+02 0.  0.
          5    1    4    4  502    0 -0.38724133109E+02 -0.32740825867E-01  0.33003119390E+02  0.51096530670E+02  0.47000000000E+01 0. -1.
         -5    1    3    3    0  503  0.16453107211E+02 -0.41889058360E+02  0.90359686356E+02  0.10105622626E+03  0.47000000000E+01 0.  1.
          5    1    3    3  503    0 -0.25520426377E+02  0.11298406280E+02 -0.42368244540E+01  0.28617945915E+02  0.47000000000E+01 0. -1.
         -5    1    4    4    0  502  0.47791452275E+02  0.30623392906E+02  0.41073880681E+02  0.70220857143E+02  0.47000000000E+01 0.  1.
<mgrwt>
<rscale>  0 0.96726551E+02</rscale>
<asrwt>0</asrwt>
<pdfrwt beam="1">  1        1 0.69839769E-02 0.96944539E+02</pdfrwt>
<pdfrwt beam="2">  1       -1 0.31630109E-01 0.96944539E+02</pdfrwt>
<totfact> 0.89342266E+03</totfact>
</mgrwt>
</event>
<event>
 8    1  0.3466492E-004  0.1066349E+03  0.7546771E-02  0.1267779E+00
          1   -1    0    0  501    0  0.00000000000E+00  0.00000000000E+00  0.59730713620E+03  0.59730713620E+03  0.00000000000E+00 0. -1.
         -1   -1    0    0    0  501 -0.00000000000E+00 -0.00000000000E+00 -0.26859314669E+02  0.26859314669E+02  0.00000000000E+00 0.  1.
         23    2    1    2    0    0 -0.25601525313E+02  0.46056699626E+02  0.11514688731E+03  0.15693887009E+03  0.92705693507E+02 0.  0.
         23    2    1    2    0    0  0.25601525313E+02 -0.46056699626E+02  0.45530093421E+03  0.46722758078E+03  0.90697375167E+02 0.  0.
          5    1    4    4  502    0  0.56865891915E+02 -0.45334339238E+02  0.29827195772E+03  0.30704589679E+03  0.47000000000E+01 0. -1.
         -5    1    4    4    0  502 -0.31264366602E+02 -0.72236038833E+00  0.15702897650E+03  0.16018168398E+03  0.47000000000E+01 0.  1.
          5    1    3    3  503    0 -0.11687481912E+02 -0.20719777391E+02  0.72281490142E+02  0.76240476295E+02  0.47000000000E+01 0. -1.
         -5    1    3    3    0  503 -0.13914043401E+02  0.66776477017E+02  0.42865397171E+02  0.80698393795E+02  0.47000000000E+01 0.  1.
<mgrwt>
<rscale>  0 0.10619689E+03</rscale>
<asrwt>0</asrwt>
<pdfrwt beam="1">  1        1 0.91893396E-01 0.10663491E+03</pdfrwt>
<pdfrwt beam="2">  1       -1 0.41322027E-02 0.10663491E+03</pdfrwt>
<totfact> 0.78288040E+03</totfact>
</mgrwt>
</event>
<event>
 8    1  0.3466492E-004  0.9076328E+02  0.7546771E-02  0.1301449E+00
         -3   -1    0    0    0  501 -0.00000000000E+00  0.00000000000E+00  0.84401641058E+02  0.84401641058E+02  0.00000000000E+00 0.  1.
          3   -1    0    0  501    0  0.00000000000E+00 -0.00000000000E+00 -0.10491587124E+03  0.10491587124E+03  0.00000000000E+00 0. -1.
         23    2    1    2    0    0  0.29515978323E+00 -0.11810126633E+01  0.16064560059E+02  0.91460570168E+02  0.90030460931E+02 0.  0.
         23    2    1    2    0    0 -0.29515978323E+00  0.11810126633E+01 -0.36578790243E+02  0.97856942132E+02  0.90755117308E+02 0.  0.
          5    1    4    4  502    0 -0.35463185441E+02 -0.17154140269E+02  0.52547811033E+01  0.40020054653E+02  0.47000000000E+01 0. -1.
         -5    1    4    4    0  502  0.35168025657E+02  0.18335152932E+02 -0.41833571346E+02  0.57836887479E+02  0.47000000000E+01 0.  1.
          5    1    3    3  503    0 -0.44165938240E+02  0.26185779353E+00  0.14420042616E+02  0.46698247282E+02  0.47000000000E+01 0. -1.
         -5    1    3    3    0  503  0.44461098023E+02 -0.14428704568E+01  0.16445174429E+01  0.44762322887E+02  0.47000000000E+01 0.  1.
<mgrwt>
<rscale>  0 0.90581589E+02</rscale>
<asrwt>0</asrwt>
<pdfrwt beam="1">  1        3 0.16140903E-01 0.90763281E+02</pdfrwt>
<pdfrwt beam="2">  1       -3 0.12984868E-01 0.90763281E+02</pdfrwt>
<totfact> 0.32719073E+03</totfact>
</mgrwt>
</event>
<event>
 8    1  0.3466492E-004  0.1067851E+03  0.7546771E-02  0.1266713E+00
         -2   -1    0    0    0  501 -0.00000000000E+00  0.00000000000E+00  0.32631032984E+02  0.32631032984E+02  0.00000000000E+00 0.  1.
          2   -1    0    0  501    0  0.00000000000E+00 -0.00000000000E+00 -0.34922842224E+03  0.34922842224E+03  0.00000000000E+00 0. -1.
         23    2    1    2    0    0 -0.30022267217E+02 -0.44201032633E+02 -0.15300401014E+03  0.18649863830E+03  0.92284598692E+02 0.  0.
         23    2    1    2    0    0  0.30022267217E+02  0.44201032633E+02 -0.16359337911E+03  0.19536081692E+03  0.92455325873E+02 0.  0.
          5    1    4    4  502    0  0.53236285298E+02  0.46930629388E+02 -0.15405661216E+03  0.16968239684E+03  0.47000000000E+01 0. -1.
         -5    1    3    3    0  503 -0.61634299517E+02 -0.34418751910E+02 -0.83990732934E+02  0.10981789735E+03  0.47000000000E+01 0.  1.
          5    1    3    3  503    0  0.31612032300E+02 -0.97822807228E+01 -0.69013277206E+02  0.76680740952E+02  0.47000000000E+01 0. -1.
         -5    1    4    4    0  502 -0.23214018081E+02 -0.27295967549E+01 -0.95367669578E+01  0.25678420082E+02  0.47000000000E+01 0.  1.
<mgrwt>
<rscale>  0 0.10674812E+03</rscale>
<asrwt>0</asrwt>
<pdfrwt beam="1">  1        2 0.53727447E-01 0.10678509E+03</pdfrwt>
<pdfrwt beam="2">  1       -2 0.50201592E-02 0.10678509E+03</pdfrwt>
<totfact> 0.16567047E+04</totfact>
</mgrwt>
</event>
<event>
 8    1  0.3466492E-004  0.1572728E+03  0.7546771E-02  0.1191961E+00
         -1   -1    0    0    0  501 -0.00000000000E+00  0.00000000000E+00  0.78520045979E+02  0.78520045979E+02  0.00000000000E+00 0.  1.
          1   -1    0    0  501    0  0.00000000000E+00 -0.00000000000E+00 -0.32278857507E+03  0.32278857507E+03  0.00000000000E+00 0. -1.
         23    2    1    2    0    0  0.12274165262E+03  0.36769690533E+02 -0.89169649813E+02  0.18079259769E+03  0.91198758234E+02 0.  0.
         23    2    1    2    0    0 -0.12274165262E+03 -0.36769690533E+02 -0.15509887928E+03  0.22051602336E+03  0.90300225779E+02 0.  0.
          5    1    3    3  502    0  0.42428672374E+02 -0.19672946720E+02  0.15744718325E+01  0.47029629316E+02  0.47000000000E+01 0. -1.
         -5    1    3    3    0  502  0.80312980242E+02  0.56442637253E+02 -0.90744121645E+02  0.13376296838E+03  0.47000000000E+01 0.  1.
          5    1    4    4  503    0 -0.79937019242E+02 -0.16128695102E+02 -0.15212795614E+03  0.17267039958E+03  0.47000000000E+01 0. -1.
         -5    1    4    4    0  503 -0.42804633373E+02 -0.20640995431E+02 -0.29709231378E+01  0.47845623780E+02  0.47000000000E+01 0.  1.
<mgrwt>
<rscale>  0 0.15714282E+03</rscale>
<asrwt>0</asrwt>
<pdfrwt beam="1">  1        1 0.49659782E-01 0.15727281E+03</pdfrwt>
<pdfrwt beam="2">  1       -1 0.12080007E-01 0.15727281E+03</pdfrwt>
<totfact> 0.35219484E+03</totfact>
</mgrwt>
</event>
<event>
 8    1  0.3466492E-004  0.9504023E+02  0.7546771E-02  0.1291883E+00
         -1   -1    0    0    0  501 -0.00000000000E+00  0.00000000000E+00  0.16115131396E+03  0.16115131396E+03  0.00000000000E+00 0.  1.
          1   -1    0    0  501    0  0.00000000000E+00 -0.00000000000E+00 -0.56747220443E+02  0.56747220443E+02  0.00000000000E+00 0. -1.
         23    2    1    2    0    0  0.50040996005E+01  0.14051445302E+02  0.33980371727E+02  0.99610134483E+02  0.92439326593E+02 0.  0.
         23    2    1    2    0    0 -0.50040996005E+01 -0.14051445302E+02  0.70423721786E+02  0.11828839992E+03  0.93862457015E+02 0.  0.
          5    1    3    3  502    0 -0.13934976720E+02  0.50281481091E+02  0.21267205382E+02  0.56540206417E+02  0.47000000000E+01 0. -1.
         -5    1    4    4    0  503 -0.27855691907E+02 -0.46854409752E+02  0.38236718581E+02  0.66748872145E+02  0.47000000000E+01 0.  1.
          5    1    4    4  503    0  0.22851592306E+02  0.32802964450E+02  0.32187003205E+02  0.51539527772E+02  0.47000000000E+01 0. -1.
         -5    1    3    3    0  502  0.18939076320E+02 -0.36230035789E+02  0.12713166345E+02  0.43069928066E+02  0.47000000000E+01 0.  1.
<mgrwt>
<rscale>  0 0.94686956E+02</rscale>
<asrwt>0</asrwt>
<pdfrwt beam="1">  1        1 0.87303417E-02 0.95040228E+02</pdfrwt>
<pdfrwt beam="2">  1       -1 0.24792510E-01 0.95040228E+02</pdfrwt>
<totfact> 0.99094577E+03</totfact>
</mgrwt>
</event>
<event>
 8    1  0.3466492E-004  0.1029374E+03  0.7546771E-02  0.1274599E+00
         -2   -1    0    0    0  501 -0.00000000000E+00  0.00000000000E+00  0.41381235626E+02  0.41381235626E+02  0.00000000000E+00 0.  1.
          2   -1    0    0  501    0  0.00000000000E+00 -0.00000000000E+00 -0.33368773204E+03  0.33368773204E+03  0.00000000000E+00 0. -1.
         23    2    1    2    0    0  0.48236197632E+02 -0.58919145052E+01 -0.55063452781E+02  0.11673943929E+03  0.90745068378E+02 0.  0.
         23    2    1    2    0    0 -0.48236197632E+02  0.58919145052E+01 -0.23724304364E+03  0.25832952838E+03  0.89935744065E+02 0.  0.
          5    1    3    3  502    0  0.11535327429E+02  0.40825945059E+02 -0.29538386301E+02  0.51907878343E+02  0.47000000000E+01 0. -1.
         -5    1    4    4    0  503 -0.67507595425E+02 -0.13692986370E+02 -0.20150922657E+03  0.21300899443E+03  0.47000000000E+01 0.  1.
          5    1    4    4  503    0  0.19271397793E+02  0.19584900876E+02 -0.35733817066E+02  0.45320533948E+02  0.47000000000E+01 0. -1.
         -5    1    3    3    0  502  0.36700870203E+02 -0.46717859564E+02 -0.25525066480E+02  0.64831560946E+02  0.47000000000E+01 0.  1.
<mgrwt>
<rscale>  0 0.10275877E+03</rscale>
<asrwt>0</asrwt>
<pdfrwt beam="1">  1        2 0.51336577E-01 0.10293742E+03</pdfrwt>
<pdfrwt beam="2">  1       -2 0.63663436E-02 0.10293742E+03</pdfrwt>
<totfact> 0.12125898E+04</totfact>
</mgrwt>
</event>
<event>
 8    1  0.3466492E-004  0.9435009E+02  0.7546771E-02  0.1293050E+00
         -2   -1    0    0    0  501 -0.00000000000E+00  0.00000000000E+00  0.51063464450E+02  0.51063464450E+02  0.00000000000E+00 0.  1.
          2   -1    0    0  501    0  0.00000000000E+00 -0.00000000000E+00 -0.17997063940E+03  0.17997063940E+03  0.00000000000E+00 0. -1.
         23    2    1    2    0    0  0.17148731243E+02  0.30288738228E+01 -0.41530022110E+02  0.10243897863E+03  0.92009502482E+02 0.  0.
         23    2    1    2    0    0 -0.17148731243E+02 -0.30288738228E+01 -0.87377152841E+02  0.12859512522E+03  0.92729101858E+02 0.  0.
          5    1    4    4  502    0  0.20413718721E+02  0.39254413148E+01 -0.87549162809E+02  0.90105909407E+02  0.47000000000E+01 0. -1.
         -5    1    4    4    0  502 -0.37562449964E+02 -0.69543151376E+01  0.17200996771E+00  0.38489215811E+02  0.47000000000E+01 0.  1.
          5    1    3    3  503    0 -0.29084124118E+02  0.16725833010E+02 -0.42036287941E+02  0.53988695756E+02  0.47000000000E+01 0. -1.
         -5    1    3    3    0  503  0.46232855360E+02 -0.13696959187E+02  0.50626583091E+00  0.48450282877E+02  0.47000000000E+01 0.  1.
<mgrwt>
<rscale>  0 0.94172805E+02</rscale>
<asrwt>0</asrwt>
<pdfrwt beam="1">  1        2 0.27687791E-01 0.94350090E+02</pdfrwt>
<pdfrwt beam="2">  1       -2 0.78559176E-02 0.94350090E+02</pdfrwt>
<totfact> 0.16793169E+04</totfact>
</mgrwt>
</event>
<event>
 8    1  0.3466492E-004  0.9319295E+02  0.7546771E-02  0.1295979E+00
          1   -1    0    0  501    0  0.00000000000E+00  0.00000000000E+00  0.27090138304E+02  0.27090138304E+02  0.00000000000E+00 0. -1.
         -1   -1    0    0    0  501 -0.00000000000E+00 -0.00000000000E+00 -0.48767001446E+03  0.48767001446E+03  0.00000000000E+00 0.  1.
         23    2    1    2    0    0  0.11711222849E+02  0.67660324288E+01 -0.38367932019E+03  0.39483508803E+03  0.92206258242E+02 0.  0.
         23    2    1    2    0    0 -0.11711222849E+02 -0.67660324288E+01 -0.76900555968E+02  0.11992506474E+03  0.91024138059E+02 0.  0.
          5    1    4    4  502    0 -0.50384978432E+02 -0.59815996345E+01 -0.30713452707E+02  0.59496485299E+02  0.47000000000E+01 0. -1.
         -5    1    3    3    0  503  0.46038455259E+02  0.64338787903E+01 -0.30895969973E+03  0.31247259114E+03  0.47000000000E+01 0.  1.
          5    1    3    3  503    0 -0.34327232410E+02  0.33215363847E+00 -0.74719620465E+02  0.82362496887E+02  0.47000000000E+01 0. -1.
         -5    1    4    4    0  502  0.38673755583E+02 -0.78443279424E+00 -0.46187103261E+02  0.60428579442E+02  0.47000000000E+01 0.  1.
<mgrwt>
<rscale>  0 0.92899203E+02</rscale>
<asrwt>0</asrwt>
<pdfrwt beam="1">  1        1 0.41677142E-02 0.93192950E+02</pdfrwt>
<pdfrwt beam="2">  1       -1 0.75026145E-01 0.93192950E+02</pdfrwt>
<totfact> 0.37385426E+03</totfact>
</mgrwt>
</event>
<event>
 8    1  0.3466492E-004  0.1426286E+03  0.7546771E-02  0.1210655E+00
          2   -1    0    0  501    0  0.00000000000E+00  0.00000000000E+00  0.41389301135E+03  0.41389301135E+03  0.00000000000E+00 0. -1.
         -2   -1    0    0    0  501 -0.00000000000E+00 -0.00000000000E+00 -0.48750127447E+02  0.48750127447E+02  0.00000000000E+00 0.  1.
         23    2    1    2    0    0 -0.21305126923E+02  0.10896847036E+03  0.20317702571E+03  0.24682875775E+03  0.85530672351E+02 0.  0.
         23    2    1    2    0    0  0.21305126923E+02 -0.10896847036E+03  0.16196585819E+03  0.21581438104E+03  0.89525816832E+02 0.  0.
          5    1    4    4  502    0  0.50448049495E+02 -0.43532079482E+02  0.10372508110E+03  0.12337353886E+03  0.47000000000E+01 0. -1.
         -5    1    4    4    0  502 -0.29142922573E+02 -0.65436390875E+02  0.58240777092E+02  0.92440842181E+02  0.47000000000E+01 0.  1.
          5    1    3    3  503    0 -0.73248576863E+01  0.25044955423E+02  0.13534197663E+03  0.13791462565E+03  0.47000000000E+01 0. -1.
         -5    1    3    3    0  503 -0.13980269236E+02  0.83923514934E+02  0.67835049083E+02  0.10891413210E+03  0.47000000000E+01 0.  1.
<mgrwt>
<rscale>  0 0.14200621E+03</rscale>
<asrwt>0</asrwt>
<pdfrwt beam="1">  1        2 0.63675846E-01 0.14262857E+03</pdfrwt>
<pdfrwt beam="2">  1       -2 0.75000199E-02 0.14262857E+03</pdfrwt>
<totfact> 0.77006576E+03</totfact>
</mgrwt>
</event>
<event>
 8    1  0.3466492E-004  0.1054880E+03  0.7546771E-02  0.1271365E+00
         -1   -1    0    0    0  501 -0.00000000000E+00  0.00000000000E+00  0.83681201648E+02  0.83681201648E+02  0.00000000000E+00 0.  1.
          1   -1    0    0  501    0  0.00000000000E+00 -0.00000000000E+00 -0.16454239060E+03  0.16454239060E+03  0.00000000000E+00 0. -1.
         23    2    1    2    0    0  0.42466309992E+02  0.71841725692E+01 -0.99983209079E+02  0.14534219635E+03  0.96294922621E+02 0.  0.
         23    2    1    2    0    0 -0.42466309992E+02 -0.71841725692E+01  0.19122020124E+02  0.10288139590E+03  0.91454525032E+02 0.  0.
          5    1    4    4  502    0  0.23364774270E+02 -0.39206253626E+01  0.27124172318E+02  0.36319343384E+02  0.47000000000E+01 0.  1.
         -5    1    3    3    0  503 -0.21974686096E+02 -0.24584052996E+02 -0.35648950305E+02  0.48787294951E+02  0.47000000000E+01 0.  1.
          5    1    3    3  503    0  0.64440996088E+02  0.31768225566E+02 -0.64334258774E+02  0.96554901400E+02  0.47000000000E+01 0. -1.
         -5    1    4    4    0  502 -0.65831084261E+02 -0.32635472066E+01 -0.80021521944E+01  0.66562052516E+02  0.47000000000E+01 0.  1.
<mgrwt>
<rscale>  0 0.10437053E+03</rscale>
<asrwt>0</asrwt>
<pdfrwt beam="1">  1        1 0.25314214E-01 0.10548797E+03</pdfrwt>
<pdfrwt beam="2">  1       -1 0.12874031E-01 0.10548797E+03</pdfrwt>
<totfact> 0.71790455E+03</totfact>
</mgrwt>
</event>
<event>
 8    1  0.3466492E-004  0.9144691E+02  0.7546771E-02  0.1299390E+00
         -1   -1    0    0    0  501 -0.00000000000E+00  0.00000000000E+00  0.71546930794E+02  0.71546930794E+02  0.00000000000E+00 0.  1.
          1   -1    0    0  501    0  0.00000000000E+00 -0.00000000000E+00 -0.12851968664E+03  0.12851968664E+03  0.00000000000E+00 0. -1.
         23    2    1    2    0    0 -0.10378514637E+00 -0.10917072311E+01 -0.58601180368E+02  0.10860521089E+03  0.91431892120E+02 0.  0.
         23    2    1    2    0    0  0.10378514637E+00  0.10917072311E+01  0.16284245193E+01  0.91461406543E+02  0.91440333138E+02 0.  0.
          5    1    4    4  502    0  0.43544842215E+02  0.51902379975E+01  0.13269865410E+02  0.46057259819E+02  0.47000000000E+01 0. -1.
         -5    1    4    4    0  502 -0.43441057069E+02 -0.40985307664E+01 -0.11641440891E+02  0.45404146724E+02  0.47000000000E+01 0.  1.
          5    1    3    3  503    0 -0.22225807844E+02  0.12193466256E+02 -0.73880529592E+02  0.78250174482E+02  0.47000000000E+01 0. -1.
         -5    1    3    3    0  503  0.22122022698E+02 -0.13285173488E+02  0.15279349224E+02  0.30355036412E+02  0.47000000000E+01 0.  1.
<mgrwt>
<rscale>  0 0.91444799E+02</rscale>
<asrwt>0</asrwt>
<pdfrwt beam="1">  1        1 0.19772259E-01 0.91446909E+02</pdfrwt>
<pdfrwt beam="2">  1       -1 0.11007220E-01 0.91446909E+02</pdfrwt>
<totfact> 0.12270115E+04</totfact>
</mgrwt>
</event>
<event>
 8    1  0.3466492E-004  0.1076195E+03  0.7546771E-02  0.1270865E+00
         -2   -1    0    0    0  501 -0.00000000000E+00  0.00000000000E+00  0.12525815752E+02  0.12525815752E+02  0.00000000000E+00 0.  1.
          2   -1    0    0  501    0  0.00000000000E+00 -0.00000000000E+00 -0.92227356288E+03  0.92227356288E+03  0.00000000000E+00 0. -1.
         23    2    1    2    0    0  0.20433458721E+02 -0.76032090964E+01 -0.32911442225E+03  0.34626327648E+03  0.10538794373E+03 0.  0.
         23    2    1    2    0    0 -0.20433458721E+02  0.76032090964E+01 -0.58063332489E+03  0.58853610216E+03  0.93618110155E+02 0.  0.
          5    1    4    4  502    0  0.30233572880E+02  0.27835217840E+02 -0.25062359091E+03  0.25401405985E+03  0.47000000000E+01 0. -1.
         -5    1    4    4    0  502 -0.50667031601E+02 -0.20232008744E+02 -0.33000973398E+03  0.33452204231E+03  0.47000000000E+01 0.  1.
          5    1    3    3  503    0  0.58054554234E+02 -0.27701781542E+02 -0.20812556004E+03  0.21789001516E+03  0.47000000000E+01 0. -1.
         -5    1    3    3    0  503 -0.37621095513E+02  0.20098572446E+02 -0.12098886221E+03  0.12837326132E+03  0.47000000000E+01 0.  1.
<mgrwt>
<rscale>  0 0.10462256E+03</rscale>
<asrwt>0</asrwt>
<pdfrwt beam="1">  1        2 0.14188822E+00 0.10761949E+03</pdfrwt>
<pdfrwt beam="2">  1       -2 0.19270489E-02 0.10761949E+03</pdfrwt>
<totfact> 0.22368063E+04</totfact>
</mgrwt>
</event>
<event>
 8    1  0.3466492E-004  0.1126573E+03  0.7546771E-02  0.1255807E+00
          1   -1    0    0  501    0  0.00000000000E+00  0.00000000000E+00  0.59502923756E+03  0.59502923756E+03  0.00000000000E+00 0. -1.
         -1   -1    0    0    0  501 -0.00000000000E+00 -0.00000000000E+00 -0.21862066902E+02  0.21862066902E+02  0.00000000000E+00 0.  1.
         23    2    1    2    0    0  0.49491380777E+02 -0.43085281929E+02  0.33600479163E+03  0.35433147281E+03  0.91355538046E+02 0.  0.
         23    2    1    2    0    0 -0.49491380777E+02  0.43085281929E+02  0.23716237902E+03  0.26255983165E+03  0.91574739328E+02 0.  0.
          5    1    3    3  502    0  0.26805829522E+02 -0.71027171734E+02  0.23497793992E+03  0.24698205171E+03  0.47000000000E+01 0. -1.
         -5    1    4    4    0  503 -0.17046525505E+02  0.15030152999E+02  0.18023820501E+01  0.23277201551E+02  0.47000000000E+01 0.  1.
          5    1    4    4  503    0 -0.32444855272E+02  0.28055128929E+02  0.23535999697E+03  0.23928263010E+03  0.47000000000E+01 0. -1.
         -5    1    3    3    0  502  0.22685551255E+02  0.27941889806E+02  0.10102685172E+03  0.10734942109E+03  0.47000000000E+01 0.  1.
<mgrwt>
<rscale>  0 0.11261276E+03</rscale>
<asrwt>0</asrwt>
<pdfrwt beam="1">  1        1 0.91542948E-01 0.11265732E+03</pdfrwt>
<pdfrwt beam="2">  1       -1 0.33633954E-02 0.11265732E+03</pdfrwt>
<totfact> 0.10662580E+04</totfact>
</mgrwt>
</event>
<event>
 8    1  0.3466492E-004  0.1509498E+03  0.7546771E-02  0.1209100E+00
         -1   -1    0    0    0  501 -0.00000000000E+00  0.00000000000E+00  0.61151443515E+03  0.61151443515E+03  0.00000000000E+00 0.  1.
          1   -1    0    0  501    0  0.00000000000E+00 -0.00000000000E+00 -0.49862338075E+02  0.49862338075E+02  0.00000000000E+00 0. -1.
         23    2    1    2    0    0  0.35422931756E+02 -0.77474334199E+02  0.50422467810E+03  0.52633485128E+03  0.12461457822E+03 0.  0.
         23    2    1    2    0    0 -0.35422931756E+02  0.77474334199E+02  0.57427418968E+02  0.13504192195E+03  0.87643343615E+02 0.  0.
          5    1    4    4  502    0 -0.17651630519E+02  0.43534400192E+02 -0.17827952506E+02  0.50465334147E+02  0.47000000000E+01 0. -1.
         -5    1    4    4    0  502 -0.17771301237E+02  0.33939934007E+02  0.75255371474E+02  0.84576587799E+02  0.47000000000E+01 0.  1.
          5    1    3    3  503    0 -0.27643971882E+02  0.12066806957E+02  0.46200180534E+02  0.55374576233E+02  0.47000000000E+01 0. -1.
         -5    1    3    3    0  503  0.63066903638E+02 -0.89541141156E+02  0.45802449757E+03  0.47096027504E+03  0.47000000000E+01 0.  1.
<mgrwt>
<rscale>  0 0.14318994E+03</rscale>
<asrwt>0</asrwt>
<pdfrwt beam="1">  1        1 0.76711294E-02 0.15094982E+03</pdfrwt>
<pdfrwt beam="2">  1       -1 0.94079138E-01 0.15094982E+03</pdfrwt>
<totfact> 0.10481826E+03</totfact>
</mgrwt>
</event>
<event>
 7    1  0.3466492E-004  0.2526349E+03  0.7546771E-02  0.1111651E+00
          1   -1    0    0  501    0  0.00000000000E+00  0.00000000000E+00  0.27559564765E+03  0.27559564765E+03  0.00000000000E+00 0. -1.
         -1   -1    0    0    0  501 -0.00000000000E+00 -0.00000000000E+00 -0.57896787235E+02  0.57896787235E+02  0.00000000000E+00 0.  1.
         23    2    1    2    0    0  0.20804770287E+02 -0.18565673458E+02  0.95192684453E+02  0.13975824991E+03  0.98454042820E+02 0.  0.
          5    1    1    2  502    0 -0.47285451498E+02  0.73821065976E+02  0.82007420780E+02  0.12013646727E+03  0.47000000000E+01 0. -1.
         -5    1    3    3    0  503  0.57021348687E+02 -0.28338964226E+02  0.51894151127E+02  0.82277724936E+02  0.47000000000E+01 0.  1.
          5    1    3    3  503    0 -0.36216578400E+02  0.97732907680E+01  0.43298533326E+02  0.57480524976E+02  0.47000000000E+01 0. -1.
         -5    1    1    2    0  502  0.26480681212E+02 -0.55255392519E+02  0.40498755186E+02  0.73597717705E+02  0.47000000000E+01 0.  1.
<mgrwt>
<rscale>  0 0.25263493E+03</rscale>
<asrwt>0</asrwt>
<pdfrwt beam="1">  1        1 0.42399330E-01 0.25263493E+03</pdfrwt>
<pdfrwt beam="2">  1       -1 0.89071982E-02 0.25263493E+03</pdfrwt>
<totfact> 0.70335414E+03</totfact>
</mgrwt>
</event>
<event>
 8    1  0.3466492E-004  0.9132312E+02  0.7546771E-02  0.1299990E+00
         -1   -1    0    0    0  501 -0.00000000000E+00  0.00000000000E+00  0.28454200226E+02  0.28454200226E+02  0.00000000000E+00 0.  1.
          1   -1    0    0  501    0  0.00000000000E+00 -0.00000000000E+00 -0.33052248596E+03  0.33052248596E+03  0.00000000000E+00 0. -1.
         23    2    1    2    0    0  0.10297488938E+01  0.53485463950E+01 -0.21238482764E+03  0.23098045825E+03  0.90636580640E+02 0.  0.
         23    2    1    2    0    0 -0.10297488938E+01 -0.53485463950E+01 -0.89683458090E+02  0.12799622793E+03  0.91160541785E+02 0.  0.
          5    1    4    4  502    0 -0.15912182579E+02 -0.23148300457E+02 -0.98652414988E+02  0.10268120739E+03  0.47000000000E+01 0. -1.
         -5    1    3    3    0  503  0.25072736618E+02 -0.35166813469E+02 -0.99970772696E+02  0.10900271687E+03  0.47000000000E+01 0. -1.
          5    1    3    3  503    0 -0.24042987725E+02  0.40515359864E+02 -0.11241405494E+03  0.12197774138E+03  0.47000000000E+01 0.  1.
         -5    1    4    4    0  502  0.14882433685E+02  0.17799754062E+02  0.89689568985E+01  0.25315020539E+02  0.47000000000E+01 0.  1.
<mgrwt>
<rscale>  0 0.91192080E+02</rscale>
<asrwt>0</asrwt>
<pdfrwt beam="1">  1        1 0.50849613E-01 0.91323117E+02</pdfrwt>
<pdfrwt beam="2">  1       -1 0.43775693E-02 0.91323117E+02</pdfrwt>
<totfact> 0.15074718E+04</totfact>
</mgrwt>
</event>
<event>
 8    1  0.3466492E-004  0.9923569E+02  0.7546771E-02  0.1282805E+00
         -1   -1    0    0    0  501 -0.00000000000E+00  0.00000000000E+00  0.16332341349E+02  0.16332341349E+02  0.00000000000E+00 0.  1.
          1   -1    0    0  501    0  0.00000000000E+00 -0.00000000000E+00 -0.60142645928E+03  0.60142645928E+03  0.00000000000E+00 0. -1.
         23    2    1    2    0    0 -0.37989637814E+02  0.48733300145E+01 -0.25815625358E+03  0.27657254533E+03  0.91546488981E+02 0.  0.
         23    2    1    2    0    0  0.37989637814E+02 -0.48733300145E+01 -0.32693786436E+03  0.34118625530E+03  0.89737014259E+02 0.  0.
          5    1    4    4  502    0  0.33349033303E+02  0.33411676233E+02 -0.25550540371E+03  0.25987227527E+03  0.47000000000E+01 0. -1.
         -5    1    3    3    0  503 -0.24858158887E+02 -0.30783242860E+02 -0.45427972364E+02  0.60426209357E+02  0.47000000000E+01 0.  1.
          5    1    3    3  503    0 -0.13131478927E+02  0.35656572875E+02 -0.21272828121E+03  0.21614633597E+03  0.47000000000E+01 0. -1.
         -5    1    4    4    0  502  0.46406045112E+01 -0.38285006247E+02 -0.71432460653E+02  0.81313980031E+02  0.47000000000E+01 0.  1.
<mgrwt>
<rscale>  0 0.98816344E+02</rscale>
<asrwt>0</asrwt>
<pdfrwt beam="1">  1        1 0.92527153E-01 0.99235687E+02</pdfrwt>
<pdfrwt beam="2">  1       -1 0.25126678E-02 0.99235687E+02</pdfrwt>
<totfact> 0.15854201E+04</totfact>
</mgrwt>
</event>
<event>
 8    1  0.3466492E-004  0.1199890E+03  0.7546771E-02  0.1247204E+00
          2   -1    0    0  501    0  0.00000000000E+00  0.00000000000E+00  0.42596934421E+03  0.42596934421E+03  0.00000000000E+00 0. -1.
         -2   -1    0    0    0  501 -0.00000000000E+00 -0.00000000000E+00 -0.43192545787E+02  0.43192545787E+02  0.00000000000E+00 0.  1.
         23    2    1    2    0    0 -0.60571111311E+02  0.72115756580E+01  0.32070488043E+03  0.34241637164E+03  0.10332707722E+03 0.  0.
         23    2    1    2    0    0  0.60571111311E+02 -0.72115756580E+01  0.62071917988E+02  0.12674551835E+03  0.92144652967E+02 0.  0.
          5    1    3    3  502    0  0.95634032624E+01  0.40594353438E+02  0.12203340554E+03  0.12904883681E+03  0.47000000000E+01 0. -1.
         -5    1    4    4    0  503  0.59095923880E+02 -0.43709051247E+02  0.40148291722E+02  0.83885545288E+02  0.47000000000E+01 0.  1.
          5    1    4    4  503    0  0.14751874315E+01  0.36497475589E+02  0.21923626265E+02  0.42859973062E+02  0.47000000000E+01 0. -1.
         -5    1    3    3    0  502 -0.70134514574E+02 -0.33382777780E+02  0.19867147489E+03  0.21336753483E+03  0.47000000000E+01 0.  1.
<mgrwt>
<rscale>  0 0.11754445E+03</rscale>
<asrwt>0</asrwt>
<pdfrwt beam="1">  1        2 0.65533743E-01 0.11998896E+03</pdfrwt>
<pdfrwt beam="2">  1       -2 0.66450073E-02 0.11998896E+03</pdfrwt>
<totfact> 0.88820580E+03</totfact>
</mgrwt>
</event>
<event>
 8    1  0.3466492E-004  0.1948521E+03  0.7546771E-02  0.1154325E+00
         -1   -1    0    0    0  501 -0.00000000000E+00  0.00000000000E+00  0.11888724351E+04  0.11888724351E+04  0.00000000000E+00 0.  1.
          1   -1    0    0  501    0  0.00000000000E+00 -0.00000000000E+00 -0.71904574490E+02  0.71904574490E+02  0.00000000000E+00 0. -1.
         23    2    1    2    0    0 -0.10454256129E+03  0.13508194975E+03  0.10297051206E+04  0.10479789930E+04  0.93760621347E+02 0.  0.
         23    2    1    2    0    0  0.10454256129E+03 -0.13508194975E+03  0.87262740003E+02  0.21279801658E+03  0.92151667351E+02 0.  0.
          5    1    3    3  502    0  0.16142180107E+02  0.31653966854E+02  0.18980977248E+03  0.19316413571E+03  0.47000000000E+01 0. -1.
         -5    1    3    3    0  502 -0.12068474140E+03  0.10342798290E+03  0.83989534808E+03  0.85481485725E+03  0.47000000000E+01 0.  1.
          5    1    4    4  503    0  0.73779780862E+02 -0.13886231008E+03  0.52166150010E+02  0.16573953793E+03  0.47000000000E+01 0. -1.
         -5    1    4    4    0  503  0.30762780431E+02  0.37803603253E+01  0.35096589992E+02  0.47058478653E+02  0.47000000000E+01 0.  1.
<mgrwt>
<rscale>  0 0.19465953E+03</rscale>
<asrwt>0</asrwt>
<pdfrwt beam="1">  1        1 0.11062243E-01 0.19485208E+03</pdfrwt>
<pdfrwt beam="2">  1       -1 0.18290344E+00 0.19485208E+03</pdfrwt>
<totfact> 0.12369014E+02</totfact>
</mgrwt>
</event>
<event>
 8    1  0.3466492E-004  0.1002920E+03  0.7546771E-02  0.1281548E+00
         -3   -1    0    0    0  501 -0.00000000000E+00  0.00000000000E+00  0.22438080871E+02  0.22438080871E+02  0.00000000000E+00 0.  1.
          3   -1    0    0  501    0  0.00000000000E+00 -0.00000000000E+00 -0.44986245496E+03  0.44986245496E+03  0.00000000000E+00 0. -1.
         23    2    1    2    0    0 -0.36026997143E+00 -0.32402631574E+02 -0.26334545750E+03  0.28179658471E+03  0.94912722238E+02 0.  0.
         23    2    1    2    0    0  0.36026997143E+00  0.32402631574E+02 -0.16407891659E+03  0.19050395112E+03  0.91212960674E+02 0.  0.
          5    1    4    4  502    0  0.51096364652E+01  0.59901745595E+02 -0.70665083921E+02  0.92897640421E+02  0.47000000000E+01 0. -1.
         -5    1    3    3    0  503  0.24087646413E+02 -0.45263559834E+02 -0.72605251429E+02  0.89009084332E+02  0.47000000000E+01 0.  1.
          5    1    3    3  503    0 -0.24447916384E+02  0.12860928260E+02 -0.19074020607E+03  0.19278750038E+03  0.47000000000E+01 0. -1.
         -5    1    4    4    0  502 -0.47493664938E+01 -0.27499114021E+02 -0.93413832670E+02  0.97606310698E+02  0.47000000000E+01 0.  1.
<mgrwt>
<rscale>  0 0.99406866E+02</rscale>
<asrwt>0</asrwt>
<pdfrwt beam="1">  1        3 0.69209611E-01 0.10029200E+03</pdfrwt>
<pdfrwt beam="2">  1       -3 0.34520123E-02 0.10029200E+03</pdfrwt>
<totfact> 0.18139383E+03</totfact>
</mgrwt>
</event>
<event>
 8    1  0.3466492E-004  0.9926773E+02  0.7546771E-02  0.1283536E+00
         -1   -1    0    0    0  501 -0.00000000000E+00  0.00000000000E+00  0.10298025983E+02  0.10298025983E+02  0.00000000000E+00 0.  1.
          1   -1    0    0  501    0  0.00000000000E+00 -0.00000000000E+00 -0.92854571580E+03  0.92854571580E+03  0.00000000000E+00 0. -1.
         23    2    1    2    0    0  0.40537559722E+02  0.75672190545E+01 -0.43213968965E+03  0.44270357027E+03  0.86839986211E+02 0.  0.
         23    2    1    2    0    0 -0.40537559722E+02 -0.75672190545E+01 -0.48610800017E+03  0.49614017152E+03  0.90296873769E+02 0.  0.
          5    1    3    3  502    0  0.35601615397E+02  0.36699931429E+02 -0.37205890319E+03  0.37558524655E+03  0.47000000000E+01 0. -1.
         -5    1    3    3    0  502  0.49359443248E+01 -0.29132712375E+02 -0.60080786464E+02  0.67118323719E+02  0.47000000000E+01 0.  1.
          5    1    4    4  503    0  0.46955193400E+01  0.28956531495E+02 -0.29066183589E+03  0.29217618223E+03  0.47000000000E+01 0. -1.
         -5    1    4    4    0  503 -0.45233079062E+02 -0.36523750549E+02 -0.19544616428E+03  0.20396398929E+03  0.47000000000E+01 0.  1.
<mgrwt>
<rscale>  0 0.98474839E+02</rscale>
<asrwt>0</asrwt>
<pdfrwt beam="1">  1        1 0.14285314E+00 0.99267729E+02</pdfrwt>
<pdfrwt beam="2">  1       -1 0.15843122E-02 0.99267729E+02</pdfrwt>
<totfact> 0.16302464E+04</totfact>
</mgrwt>
</event>
<event>
 8    1  0.3466492E-004  0.9272690E+02  0.7546771E-02  0.1297306E+00
         -1   -1    0    0    0  501 -0.00000000000E+00  0.00000000000E+00  0.10364837751E+02  0.10364837751E+02  0.00000000000E+00 0.  1.
          1   -1    0    0  501    0  0.00000000000E+00 -0.00000000000E+00 -0.93261384286E+03  0.93261384286E+03  0.00000000000E+00 0. -1.
         23    2    1    2    0    0  0.28343448367E+01  0.10881938185E+02 -0.63165600460E+03  0.63842586576E+03  0.92042532780E+02 0.  0.
         23    2    1    2    0    0 -0.28343448367E+01 -0.10881938185E+02 -0.29059300052E+03  0.30455281485E+03  0.90452611887E+02 0.  0.
          5    1    3    3  502    0  0.41298778203E+02 -0.12026024451E+02 -0.21257647459E+03  0.21693561693E+03  0.47000000000E+01 0. -1.
         -5    1    3    3    0  502 -0.38464433366E+02  0.22907962637E+02 -0.41907953001E+03  0.42149024883E+03  0.47000000000E+01 0.  1.
          5    1    4    4  503    0  0.40861955164E+02  0.99707005097E+01 -0.12565002638E+03  0.13258632425E+03  0.47000000000E+01 0. -1.
         -5    1    4    4    0  503 -0.43696300000E+02 -0.20852638695E+02 -0.16494297414E+03  0.17196649061E+03  0.47000000000E+01 0.  1.
<mgrwt>
<rscale>  0 0.92329861E+02</rscale>
<asrwt>0</asrwt>
<pdfrwt beam="1">  1        1 0.14347906E+00 0.92726900E+02</pdfrwt>
<pdfrwt beam="2">  1       -1 0.15945903E-02 0.92726900E+02</pdfrwt>
<totfact> 0.15951680E+04</totfact>
</mgrwt>
</event>
<event>
 8    1  0.3466492E-004  0.5700458E+03  0.7546771E-02  0.9969781E-01
         -2   -1    0    0    0  501 -0.00000000000E+00  0.00000000000E+00  0.30923217799E+03  0.30923217799E+03  0.00000000000E+00 0.  1.
          2   -1    0    0  501    0  0.00000000000E+00 -0.00000000000E+00 -0.10581982242E+04  0.10581982242E+04  0.00000000000E+00 0. -1.
         23    2    1    2    0    0 -0.20380075071E+03 -0.52425617382E+03 -0.43420519038E+03  0.71657966558E+03  0.92590431384E+02 0.  0.
         23    2    1    2    0    0  0.20380075071E+03  0.52425617382E+03 -0.31476085586E+03  0.65085073665E+03  0.90293982320E+02 0.  0.
          5    1    4    4  502    0  0.68156476424E+02  0.81844756476E+02 -0.67329739261E+02  0.12609224096E+03  0.47000000000E+01 0. -1.
         -5    1    3    3    0  503  0.25625868615E+01 -0.72461117119E+02 -0.67407487852E+02  0.99111249432E+02  0.47000000000E+01 0.  1.
          5    1    3    3  503    0 -0.20636333758E+03 -0.45179505670E+03 -0.36679770253E+03  0.61746841614E+03  0.47000000000E+01 0. -1.
         -5    1    4    4    0  502  0.13564427429E+03  0.44241141734E+03 -0.24743111659E+03  0.52475849569E+03  0.47000000000E+01 0.  1.
<mgrwt>
<rscale>  0 0.56995370E+03</rscale>
<asrwt>0</asrwt>
<pdfrwt beam="1">  1        2 0.16279973E+00 0.57004585E+03</pdfrwt>
<pdfrwt beam="2">  1       -2 0.47574181E-01 0.57004585E+03</pdfrwt>
<totfact> 0.99753420E+01</totfact>
</mgrwt>
</event>
<event>
 8    1  0.3466492E-004  0.9488618E+02  0.7546771E-02  0.1291771E+00
          3   -1    0    0  501    0  0.00000000000E+00  0.00000000000E+00  0.44858812927E+03  0.44858812927E+03  0.00000000000E+00 0. -1.
         -3   -1    0    0    0  501 -0.00000000000E+00 -0.00000000000E+00 -0.48949548587E+02  0.48949548587E+02  0.00000000000E+00 0.  1.
         23    2    1    2    0    0  0.25220596765E+02  0.43300857806E+01  0.85804589368E+01  0.95273346280E+02  0.91370444301E+02 0.  0.
         23    2    1    2    0    0 -0.25220596765E+02 -0.43300857806E+01  0.39105812175E+03  0.40226433158E+03  0.90748607328E+02 0.  0.
          5    1    4    4  502    0 -0.41444119908E+02 -0.36677947998E+02  0.27689374475E+03  0.28240949492E+03  0.47000000000E+01 0. -1.
         -5    1    3    3    0  503  0.49651700879E+02  0.11811665531E+02 -0.21453496544E+02  0.55562121600E+02  0.47000000000E+01 0.  1.
          5    1    3    3  503    0 -0.24431104113E+02 -0.74815797503E+01  0.30033955480E+02  0.39711224680E+02  0.47000000000E+01 0. -1.
         -5    1    4    4    0  502  0.16223523143E+02  0.32347862218E+02  0.11416437700E+03  0.11985483665E+03  0.47000000000E+01 0.  1.
<mgrwt>
<rscale>  0 0.94736158E+02</rscale>
<asrwt>0</asrwt>
<pdfrwt beam="1">  1        3 0.69013556E-01 0.94886175E+02</pdfrwt>
<pdfrwt beam="2">  1       -3 0.75307001E-02 0.94886175E+02</pdfrwt>
<totfact> 0.52978276E+02</totfact>
</mgrwt>
</event>
<event>
 8    1  0.3466492E-004  0.9973477E+02  0.7546771E-02  0.1287724E+00
          1   -1    0    0  501    0  0.00000000000E+00  0.00000000000E+00  0.20631346339E+03  0.20631346339E+03  0.00000000000E+00 0. -1.
         -1   -1    0    0    0  501 -0.00000000000E+00 -0.00000000000E+00 -0.49810748509E+02  0.49810748509E+02  0.00000000000E+00 0.  1.
         23    2    1    2    0    0 -0.57104186124E+01 -0.51825768674E+00  0.33679534661E+02  0.10526792219E+03  0.99569809254E+02 0.  0.
         23    2    1    2    0    0  0.57104186124E+01  0.51825768674E+00  0.12282318022E+03  0.15085628971E+03  0.87402569038E+02 0.  0.
          5    1    3    3  502    0 -0.13999656951E+02  0.48033336663E+02  0.16458110988E+02  0.52878646381E+02  0.47000000000E+01 0. -1.
         -5    1    3    3    0  502  0.82892383390E+01 -0.48551594350E+02  0.17221423673E+02  0.52389275806E+02  0.47000000000E+01 0.  1.
          5    1    4    4  503    0  0.38063496453E+02  0.18017925041E+02  0.33091384769E+02  0.53764348140E+02  0.47000000000E+01 0. -1.
         -5    1    4    4    0  503 -0.32353077840E+02 -0.17499667354E+02  0.89731795455E+02  0.97091941575E+02  0.47000000000E+01 0.  1.
<mgrwt>
<rscale>  0 0.96549300E+02</rscale>
<asrwt>0</asrwt>
<pdfrwt beam="1">  1        1 0.31740532E-01 0.99734770E+02</pdfrwt>
<pdfrwt beam="2">  1       -1 0.76631922E-02 0.99734770E+02</pdfrwt>
<totfact> 0.11853671E+04</totfact>
</mgrwt>
</event>
<event>
 8    1  0.3466492E-004  0.1047973E+03  0.7546771E-02  0.1271387E+00
          3   -1    0    0  501    0  0.00000000000E+00  0.00000000000E+00  0.17421267232E+03  0.17421267232E+03  0.00000000000E+00 0. -1.
         -3   -1    0    0    0  501 -0.00000000000E+00 -0.00000000000E+00 -0.71089292486E+02  0.71089292486E+02  0.00000000000E+00 0.  1.
         23    2    1    2    0    0  0.24463434602E+02 -0.44970060282E+02  0.95798936152E+02  0.14198561956E+03  0.91442408325E+02 0.  0.
         23    2    1    2    0    0 -0.24463434602E+02  0.44970060282E+02  0.73244436836E+01  0.10331634525E+03  0.89441901620E+02 0.  0.
          5    1    3    3  502    0 -0.29577338796E+02 -0.40488647147E+02  0.46840093510E+02  0.68776695748E+02  0.47000000000E+01 0. -1.
         -5    1    4    4    0  503 -0.19161793578E+02  0.66153834104E+02  0.26433107168E+02  0.73920925686E+02  0.47000000000E+01 0.  1.
          5    1    4    4  503    0 -0.53016410242E+01 -0.21183773822E+02 -0.19108663484E+02  0.29395419559E+02  0.47000000000E+01 0. -1.
         -5    1    3    3    0  502  0.54040773398E+02 -0.44814131350E+01  0.48958842643E+02  0.73208923814E+02  0.47000000000E+01 0.  1.
<mgrwt>
<rscale>  0 0.10435936E+03</rscale>
<asrwt>0</asrwt>
<pdfrwt beam="1">  1        3 0.26801950E-01 0.10479733E+03</pdfrwt>
<pdfrwt beam="2">  1       -3 0.10936814E-01 0.10479733E+03</pdfrwt>
<totfact> 0.18388528E+03</totfact>
</mgrwt>
</event>
<event>
 8    1  0.3466492E-004  0.1021334E+03  0.7546771E-02  0.1275956E+00
         -1   -1    0    0    0  501 -0.00000000000E+00  0.00000000000E+00  0.20435538249E+03  0.20435538249E+03  0.00000000000E+00 0.  1.
          1   -1    0    0  501    0  0.00000000000E+00 -0.00000000000E+00 -0.86612992064E+02  0.86612992064E+02  0.00000000000E+00 0. -1.
         23    2    1    2    0    0  0.44292463891E+02 -0.74717385020E+01 -0.34493705768E+02  0.10764607674E+03  0.91543502585E+02 0.  0.
         23    2    1    2    0    0 -0.44292463891E+02  0.74717385020E+01  0.15223609620E+03  0.18332229782E+03  0.91725605253E+02 0.  0.
          5    1    3    3  502    0  0.46979945311E+02 -0.28231026698E+02 -0.55127824287E+02  0.77879863511E+02  0.47000000000E+01 0. -1.
         -5    1    4    4    0  503 -0.53804893261E+02  0.40378281070E+02  0.96307387571E+02  0.11756944765E+03  0.47000000000E+01 0.  1.
          5    1    4    4  503    0  0.95124293705E+01 -0.32906542568E+02  0.55928708626E+02  0.65752850165E+02  0.47000000000E+01 0. -1.
         -5    1    3    3    0  502 -0.26874814201E+01  0.20759288196E+02  0.20634118519E+02  0.29766213226E+02  0.47000000000E+01 0.  1.
<mgrwt>
<rscale>  0 0.10209252E+03</rscale>
<asrwt>0</asrwt>
<pdfrwt beam="1">  1        1 0.13325076E-01 0.10213342E+03</pdfrwt>
<pdfrwt beam="2">  1       -1 0.31439290E-01 0.10213342E+03</pdfrwt>
<totfact> 0.38740895E+03</totfact>
</mgrwt>
</event>
<event>
 8    1  0.3466492E-004  0.9305276E+02  0.7546771E-02  0.1296493E+00
          1   -1    0    0  501    0  0.00000000000E+00  0.00000000000E+00  0.11116340829E+03  0.11116340829E+03  0.00000000000E+00 0. -1.
         -1   -1    0    0    0  501 -0.00000000000E+00 -0.00000000000E+00 -0.82817128356E+02  0.82817128356E+02  0.00000000000E+00 0.  1.
         23    2    1    2    0    0  0.16197993478E+02  0.43813046870E+01  0.40531902503E+02  0.10013328936E+03  0.90012608525E+02 0.  0.
         23    2    1    2    0    0 -0.16197993478E+02 -0.43813046870E+01 -0.12185622565E+02  0.93847247293E+02  0.91527294310E+02 0.  0.
          5    1    3    3  502    0 -0.13451888296E+00  0.21846405736E+02  0.63086954389E+02  0.66927851848E+02  0.47000000000E+01 0. -1.
         -5    1    4    4    0  503  0.28885896638E+02  0.12044253221E+02  0.18538365510E+02  0.36677241663E+02  0.47000000000E+01 0.  1.
          5    1    4    4  503    0 -0.45083890115E+02 -0.16425557908E+02 -0.30723988075E+02  0.57170005630E+02  0.47000000000E+01 0. -1.
         -5    1    3    3    0  502  0.16332512361E+02 -0.17465101049E+02 -0.22555051885E+02  0.33205437510E+02  0.47000000000E+01 0.  1.
<mgrwt>
<rscale>  0 0.92678144E+02</rscale>
<asrwt>0</asrwt>
<pdfrwt beam="1">  1        1 0.17102063E-01 0.93052762E+02</pdfrwt>
<pdfrwt beam="2">  1       -1 0.12741097E-01 0.93052762E+02</pdfrwt>
<totfact> 0.11808995E+04</totfact>
</mgrwt>
</event>
<event>
 8    1  0.3466492E-004  0.1135014E+03  0.7546771E-02  0.1254584E+00
          1   -1    0    0  501    0  0.00000000000E+00  0.00000000000E+00  0.53336525903E+02  0.53336525903E+02  0.00000000000E+00 0. -1.
         -1   -1    0    0    0  501 -0.00000000000E+00 -0.00000000000E+00 -0.42980511506E+03  0.42980511506E+03  0.00000000000E+00 0.  1.
         23    2    1    2    0    0 -0.64713382609E+02  0.86679444704E+01 -0.34847237917E+03  0.36623846308E+03  0.91840392208E+02 0.  0.
         23    2    1    2    0    0  0.64713382609E+02 -0.86679444704E+01 -0.27996209982E+02  0.11690317788E+03  0.92841855195E+02 0.  0.
          5    1    4    4  502    0  0.43831618862E+02  0.39210757599E+02 -0.25853355884E+02  0.64414131477E+02  0.47000000000E+01 0. -1.
         -5    1    4    4    0  502  0.20881763747E+02 -0.47878702069E+02 -0.21428540985E+01  0.52489046407E+02  0.47000000000E+01 0.  1.
          5    1    3    3  503    0 -0.31278641453E+02 -0.41519643270E+02 -0.16214059170E+03  0.17033465785E+03  0.47000000000E+01 0. -1.
         -5    1    3    3    0  503 -0.33434741155E+02  0.50187587740E+02 -0.18633178747E+03  0.19590380522E+03  0.47000000000E+01 0.  1.
<mgrwt>
<rscale>  0 0.11329641E+03</rscale>
<asrwt>0</asrwt>
<pdfrwt beam="1">  1        1 0.82056197E-02 0.11350139E+03</pdfrwt>
<pdfrwt beam="2">  1       -1 0.66123861E-01 0.11350139E+03</pdfrwt>
<totfact> 0.19457576E+03</totfact>
</mgrwt>
</event>
<event>
 8    1  0.3466492E-004  0.1841185E+03  0.7546771E-02  0.1164829E+00
          3   -1    0    0  501    0  0.00000000000E+00  0.00000000000E+00  0.10309326516E+03  0.10309326516E+03  0.00000000000E+00 0. -1.
         -3   -1    0    0    0  501 -0.00000000000E+00 -0.00000000000E+00 -0.50219772407E+03  0.50219772407E+03  0.00000000000E+00 0.  1.
         23    2    1    2    0    0 -0.15382906817E+03 -0.27898192628E+02 -0.16711349256E+02  0.18088068246E+03  0.89425168311E+02 0.  0.
         23    2    1    2    0    0  0.15382906817E+03  0.27898192628E+02 -0.38239310966E+03  0.42441030677E+03  0.97251873037E+02 0.  0.
          5    1    4    4  502    0  0.51235313815E+02 -0.85377935479E+01 -0.23723356713E+03  0.24289875808E+03  0.47000000000E+01 0. -1.
         -5    1    3    3    0  503 -0.32486364116E+02  0.28494011209E+02 -0.17844323577E+02  0.46987045152E+02  0.47000000000E+01 0.  1.
          5    1    3    3  503    0 -0.12134270406E+03 -0.56392203837E+02  0.11329743203E+01  0.13389363731E+03  0.47000000000E+01 0. -1.
         -5    1    4    4    0  502  0.10259375436E+03  0.36435986175E+02 -0.14515954252E+03  0.18151154869E+03  0.47000000000E+01 0.  1.
<mgrwt>
<rscale>  0 0.18310733E+03</rscale>
<asrwt>0</asrwt>
<pdfrwt beam="1">  1        3 0.15860502E-01 0.18411849E+03</pdfrwt>
<pdfrwt beam="2">  1       -3 0.77261189E-01 0.18411849E+03</pdfrwt>
<totfact> 0.13135063E+02</totfact>
</mgrwt>
</event>
<event>
 7    1  0.3466492E-004  0.2303610E+03  0.7546771E-02  0.1129917E+00
          2   -1    0    0  501    0  0.00000000000E+00  0.00000000000E+00  0.30886628651E+03  0.30886628651E+03  0.00000000000E+00 0. -1.
         -2   -1    0    0    0  501 -0.00000000000E+00 -0.00000000000E+00 -0.18241687997E+03  0.18241687997E+03  0.00000000000E+00 0.  1.
         23    2    1    2    0    0  0.10501745178E+03 -0.15826076227E+03  0.15102898661E+03  0.25961451972E+03  0.92275728123E+02 0.  0.
          5    1    3    3  502    0  0.85378590524E+02 -0.51133171712E+02  0.92168593733E+02  0.13572488585E+03  0.47000000000E+01 0. -1.
         -5    1    3    3    0  502  0.19638861253E+02 -0.10712759056E+03  0.58860392879E+02  0.12388963387E+03  0.47000000000E+01 0.  1.
          5    1    1    2  503    0 -0.55314910177E+02  0.13760826286E+03  0.33737497442E+02  0.15217122602E+03  0.47000000000E+01 0. -1.
         -5    1    1    2    0  503 -0.49702541600E+02  0.20652499410E+02 -0.58317077517E+02  0.79497420735E+02  0.47000000000E+01 0.  1.
<mgrwt>
<rscale>  0 0.22540388E+03</rscale>
<asrwt>0</asrwt>
<pdfrwt beam="1">  1        2 0.47517890E-01 0.23036103E+03</pdfrwt>
<pdfrwt beam="2">  1       -2 0.28064135E-01 0.23036103E+03</pdfrwt>
<totfact> 0.12203633E+03</totfact>
</mgrwt>
</event>
<event>
 7    1  0.3466492E-004  0.1575594E+03  0.7546771E-02  0.1209378E+00
          1   -1    0    0  501    0  0.00000000000E+00  0.00000000000E+00  0.70102984758E+02  0.70102984758E+02  0.00000000000E+00 0. -1.
         -1   -1    0    0    0  501 -0.00000000000E+00 -0.00000000000E+00 -0.26163118756E+03  0.26163118756E+03  0.00000000000E+00 0.  1.
         23    2    1    2    0    0 -0.54096935936E+02  0.13105929155E+02 -0.42889342707E+02  0.11512746229E+03  0.91195356241E+02 0.  0.
          5    1    1    2  502    0  0.15997705718E+02  0.42254495839E+02  0.79733335561E+01  0.46119768591E+02  0.47000000000E+01 0. -1.
         -5    1    1    2    0  502  0.38099230218E+02 -0.55360424994E+02 -0.15661219366E+03  0.17048694144E+03  0.47000000000E+01 0.  1.
          5    1    3    3  503    0  0.19730650315E+02 -0.97080294648E+01 -0.28638871219E+02  0.36411802244E+02  0.47000000000E+01 0. -1.
         -5    1    3    3    0  503 -0.73827586251E+02  0.22813958619E+02 -0.14250471488E+02  0.78715660050E+02  0.47000000000E+01 0.  1.
<mgrwt>
<rscale>  0 0.14297724E+03</rscale>
<asrwt>0</asrwt>
<pdfrwt beam="1">  1        1 0.10785074E-01 0.15755937E+03</pdfrwt>
<pdfrwt beam="2">  1       -1 0.40250952E-01 0.15755937E+03</pdfrwt>
<totfact> 0.34290934E+03</totfact>
</mgrwt>
</event>
<event>
 8    1  0.3466492E-004  0.9848641E+02  0.7546771E-02  0.1284935E+00
         -1   -1    0    0    0  501 -0.00000000000E+00  0.00000000000E+00  0.38480810784E+02  0.38480810784E+02  0.00000000000E+00 0.  1.
          1   -1    0    0  501    0  0.00000000000E+00 -0.00000000000E+00 -0.25070166021E+03  0.25070166021E+03  0.00000000000E+00 0. -1.
         23    2    1    2    0    0  0.22934507468E+02  0.13044111611E+02 -0.12571241211E+03  0.15809745248E+03  0.92168614184E+02 0.  0.
         23    2    1    2    0    0 -0.22934507468E+02 -0.13044111611E+02 -0.86508437317E+02  0.13108501852E+03  0.94886415639E+02 0.  0.
          5    1    3    3  502    0  0.12963021644E+02 -0.35332537171E+02 -0.87839482948E+02  0.95678068948E+02  0.47000000000E+01 0. -1.
         -5    1    3    3    0  502  0.99714858243E+01  0.48376648781E+02 -0.37872929166E+02  0.62419383532E+02  0.47000000000E+01 0.  1.
          5    1    4    4  503    0  0.24957838458E+02  0.19649821648E+01 -0.75236254600E+02  0.79431346845E+02  0.47000000000E+01 0. -1.
         -5    1    4    4    0  503 -0.47892345926E+02 -0.15009093776E+02 -0.11272182717E+02  0.51653671675E+02  0.47000000000E+01 0.  1.
<mgrwt>
<rscale>  0 0.97825868E+02</rscale>
<asrwt>0</asrwt>
<pdfrwt beam="1">  1        1 0.38569484E-01 0.98486407E+02</pdfrwt>
<pdfrwt beam="2">  1       -1 0.59201250E-02 0.98486407E+02</pdfrwt>
<totfact> 0.13675285E+04</totfact>
</mgrwt>
</event>
<event>
 8    1  0.3466492E-004  0.1015827E+03  0.7546771E-02  0.1278914E+00
          1   -1    0    0  501    0  0.00000000000E+00  0.00000000000E+00  0.57899950538E+02  0.57899950538E+02  0.00000000000E+00 0. -1.
         -1   -1    0    0    0  501 -0.00000000000E+00 -0.00000000000E+00 -0.17219703531E+03  0.17219703531E+03  0.00000000000E+00 0.  1.
         23    2    1    2    0    0  0.26803270611E+02 -0.35332776162E+02 -0.63024330314E+02  0.11954544529E+03  0.91390518604E+02 0.  0.
         23    2    1    2    0    0 -0.26803270611E+02  0.35332776162E+02 -0.51272754462E+02  0.11055154056E+03  0.87326556009E+02 0.  0.
          5    1    3    3  502    0  0.46248039583E+02 -0.18954711463E+02  0.13008649690E+01  0.50218965557E+02  0.47000000000E+01 0. -1.
         -5    1    3    3    0  502 -0.19444768972E+02 -0.16378064699E+02 -0.64325195283E+02  0.69326479731E+02  0.47000000000E+01 0.  1.
          5    1    4    4  503    0 -0.32332056382E+02  0.57963409101E+02 -0.55212367971E+02  0.86461634506E+02  0.47000000000E+01 0. -1.
         -5    1    4    4    0  503  0.55287857707E+01 -0.22630632939E+02  0.39396135091E+01  0.24089906059E+02  0.47000000000E+01 0.  1.
<mgrwt>
<rscale>  0 0.10066019E+03</rscale>
<asrwt>0</asrwt>
<pdfrwt beam="1">  1        1 0.89076845E-02 0.10158271E+03</pdfrwt>
<pdfrwt beam="2">  1       -1 0.26491852E-01 0.10158271E+03</pdfrwt>
<totfact> 0.87122570E+03</totfact>
</mgrwt>
</event>
<event>
 8    1  0.3466492E-004  0.1249038E+03  0.7546771E-02  0.1235856E+00
          3   -1    0    0  501    0  0.00000000000E+00  0.00000000000E+00  0.62804886150E+03  0.62804886150E+03  0.00000000000E+00 0. -1.
         -3   -1    0    0    0  501 -0.00000000000E+00 -0.00000000000E+00 -0.35017720407E+02  0.35017720407E+02  0.00000000000E+00 0.  1.
         23    2    1    2    0    0 -0.52110052121E+02  0.66204119670E+02  0.11634784586E+03  0.17069790112E+03  0.92209051704E+02 0.  0.
         23    2    1    2    0    0  0.52110052121E+02 -0.66204119670E+02  0.47668329524E+03  0.49236868079E+03  0.90008393367E+02 0.  0.
          5    1    4    4  502    0  0.72894774333E+02 -0.25556144338E+02  0.30144562472E+03  0.31122069228E+03  0.47000000000E+01 0. -1.
         -5    1    4    4    0  502 -0.20784722211E+02 -0.40647975332E+02  0.17523767051E+03  0.18114798851E+03  0.47000000000E+01 0.  1.
          5    1    3    3  503    0  0.24229580817E+01  0.63399100739E+02  0.89126248712E+02  0.10950294475E+03  0.47000000000E+01 0. -1.
         -5    1    3    3    0  503 -0.54533010203E+02  0.28050189307E+01  0.27221597150E+02  0.61194956364E+02  0.47000000000E+01 0.  1.
<mgrwt>
<rscale>  0 0.12449788E+03</rscale>
<asrwt>0</asrwt>
<pdfrwt beam="1">  1        3 0.96622893E-01 0.12490377E+03</pdfrwt>
<pdfrwt beam="2">  1       -3 0.53873421E-02 0.12490377E+03</pdfrwt>
<totfact> 0.45528970E+02</totfact>
</mgrwt>
</event>
<event>
 8    1  0.3466492E-004  0.1114922E+03  0.7546771E-02  0.1258211E+00
          1   -1    0    0  501    0  0.00000000000E+00  0.00000000000E+00  0.22875143713E+03  0.22875143713E+03  0.00000000000E+00 0. -1.
         -1   -1    0    0    0  501 -0.00000000000E+00 -0.00000000000E+00 -0.10423680056E+03  0.10423680056E+03  0.00000000000E+00 0.  1.
         23    2    1    2    0    0 -0.12682828498E+02  0.62543669510E+02  0.17803579603E+03  0.21006486917E+03  0.91421769055E+02 0.  0.
         23    2    1    2    0    0  0.12682828498E+02 -0.62543669510E+02 -0.53521159462E+02  0.12292336853E+03  0.90405062275E+02 0.  0.
          5    1    3    3  502    0 -0.36200782451E+02  0.48089888722E+02  0.48233977252E+02  0.77277038045E+02  0.47000000000E+01 0. -1.
         -5    1    3    3    0  502  0.23517953954E+02  0.14453780788E+02  0.12980181877E+03  0.13278783112E+03  0.47000000000E+01 0.  1.
          5    1    4    4  503    0  0.30985257837E+02  0.12149454083E+02 -0.16545939770E+02  0.37464030224E+02  0.47000000000E+01 0. -1.
         -5    1    4    4    0  503 -0.18302429339E+02 -0.74693123592E+02 -0.36975219692E+02  0.85459338302E+02  0.47000000000E+01 0.  1.
<mgrwt>
<rscale>  0 0.11128355E+03</rscale>
<asrwt>0</asrwt>
<pdfrwt beam="1">  1        1 0.35192529E-01 0.11149217E+03</pdfrwt>
<pdfrwt beam="2">  1       -1 0.16036431E-01 0.11149217E+03</pdfrwt>
<totfact> 0.34090453E+03</totfact>
</mgrwt>
</event>
<event>
 8    1  0.3466492E-004  0.1340925E+03  0.7546771E-02  0.1222083E+00
         -3   -1    0    0    0  501 -0.00000000000E+00  0.00000000000E+00  0.11709260892E+04  0.11709260892E+04  0.00000000000E+00 0.  1.
          3   -1    0    0  501    0  0.00000000000E+00 -0.00000000000E+00 -0.15173182416E+02  0.15173182416E+02  0.00000000000E+00 0. -1.
         23    2    1    2    0    0  0.14347492402E+02  0.97475033855E+02  0.57887087425E+03  0.59383776959E+03  0.88569604057E+02 0.  0.
         23    2    1    2    0    0 -0.14347492402E+02 -0.97475033855E+02  0.57688203255E+03  0.59226150205E+03  0.90959191777E+02 0.  0.
          5    1    4    4  502    0  0.32778023102E+02 -0.54888726173E+02  0.19959665256E+03  0.20963798504E+03  0.47000000000E+01 0. -1.
         -5    1    4    4    0  502 -0.47125515505E+02 -0.42586307683E+02  0.37728537999E+03  0.38262351701E+03  0.47000000000E+01 0.  1.
          5    1    3    3  503    0 -0.20220467882E+02  0.10002976109E+02  0.35206083456E+02  0.42077133514E+02  0.47000000000E+01 0. -1.
         -5    1    3    3    0  503  0.34567960284E+02  0.87472057746E+02  0.54366479080E+03  0.55176063607E+03  0.47000000000E+01 0.  1.
<mgrwt>
<rscale>  0 0.13368838E+03</rscale>
<asrwt>0</asrwt>
<pdfrwt beam="1">  1        3 0.23343367E-02 0.13409253E+03</pdfrwt>
<pdfrwt beam="2">  1       -3 0.18014240E+00 0.13409253E+03</pdfrwt>
<totfact> 0.37334629E+02</totfact>
</mgrwt>
</event>
<event>
 8    1  0.3466492E-004  0.9265364E+02  0.7546771E-02  0.1296705E+00
         -1   -1    0    0    0  501 -0.00000000000E+00  0.00000000000E+00  0.66954556448E+02  0.66954556448E+02  0.00000000000E+00 0.  1.
          1   -1    0    0  501    0  0.00000000000E+00 -0.00000000000E+00 -0.12848429818E+03  0.12848429818E+03  0.00000000000E+00 0. -1.
         23    2    1    2    0    0  0.11032289688E+02  0.54470961755E+01 -0.23848692609E+02  0.95416067316E+02  0.91564641049E+02 0.  0.
         23    2    1    2    0    0 -0.11032289688E+02 -0.54470961755E+01 -0.37681049125E+02  0.10002278731E+03  0.91833078172E+02 0.  0.
          5    1    4    4  502    0 -0.38746601128E+02  0.19106929014E+02 -0.44367988667E+02  0.62104607347E+02  0.47000000000E+01 0. -1.
         -5    1    4    4    0  502  0.27714311440E+02 -0.24554025189E+02  0.66869395418E+01  0.37918179968E+02  0.47000000000E+01 0.  1.
          5    1    3    3  503    0  0.18901049344E+02  0.34048479292E+02 -0.44231151108E+02  0.59118806963E+02  0.47000000000E+01 0. -1.
         -5    1    3    3    0  503 -0.78687596561E+01 -0.28601383116E+02  0.20382458498E+02  0.36297260353E+02  0.47000000000E+01 0.  1.
<mgrwt>
<rscale>  0 0.92587052E+02</rscale>
<asrwt>0</asrwt>
<pdfrwt beam="1">  1        1 0.19766815E-01 0.92653637E+02</pdfrwt>
<pdfrwt beam="2">  1       -1 0.10300701E-01 0.92653637E+02</pdfrwt>
<totfact> 0.13590135E+04</totfact>
</mgrwt>
</event>
<event>
 8    1  0.3466492E-004  0.1433397E+03  0.7546771E-02  0.1219870E+00
          2   -1    0    0  501    0  0.00000000000E+00  0.00000000000E+00  0.25479844151E+03  0.25479844151E+03  0.00000000000E+00 0. -1.
         -2   -1    0    0    0  501 -0.00000000000E+00 -0.00000000000E+00 -0.65134369883E+02  0.65134369883E+02  0.00000000000E+00 0.  1.
         23    2    1    2    0    0 -0.11210944035E+02  0.67227043640E+02  0.95636544909E+02  0.14850511922E+03  0.90896980414E+02 0.  0.
         23    2    1    2    0    0  0.11210944035E+02 -0.67227043640E+02  0.94027526718E+02  0.17142769218E+03  0.12609963204E+03 0.  0.
          5    1    3    3  502    0  0.19441525030E+02 -0.91042052346E+01  0.49306268152E+02  0.53982011147E+02  0.47000000000E+01 0. -1.
         -5    1    3    3    0  502 -0.30652469065E+02  0.76331248875E+02  0.46330276757E+02  0.94523108069E+02  0.47000000000E+01 0.  1.
          5    1    4    4  503    0 -0.35530716322E+02 -0.70055897957E+02  0.96236555963E+02  0.12431341579E+03  0.47000000000E+01 0. -1.
         -5    1    4    4    0  503  0.46741660357E+02  0.28288543166E+01 -0.22090292445E+01  0.47114276391E+02  0.47000000000E+01 0.  1.
<mgrwt>
<rscale>  0 0.13524769E+03</rscale>
<asrwt>0</asrwt>
<pdfrwt beam="1">  1        2 0.39199760E-01 0.14333973E+03</pdfrwt>
<pdfrwt beam="2">  1       -2 0.10020672E-01 0.14333973E+03</pdfrwt>
<totfact> 0.82251526E+03</totfact>
</mgrwt>
</event>
<event>
 8    1  0.3466492E-004  0.1049703E+03  0.7546771E-02  0.1276333E+00
          1   -1    0    0  501    0  0.00000000000E+00  0.00000000000E+00  0.30621414764E+03  0.30621414764E+03  0.00000000000E+00 0. -1.
         -1   -1    0    0    0  501 -0.00000000000E+00 -0.00000000000E+00 -0.57837344316E+02  0.57837344316E+02  0.00000000000E+00 0.  1.
         23    2    1    2    0    0 -0.23213303717E+02  0.51809512189E+01  0.69013777757E+01  0.10519687789E+03  0.10224017986E+03 0.  0.
         23    2    1    2    0    0  0.23213303717E+02 -0.51809512189E+01  0.24147542555E+03  0.25885461407E+03  0.90164462818E+02 0.  0.
          5    1    4    4  502    0  0.47239301643E+02  0.14888475622E+02  0.20311137297E+03  0.20911608775E+03  0.47000000000E+01 0. -1.
         -5    1    3    3    0  503  0.23908094511E+02 -0.19262835034E+02 -0.27732754537E+02  0.41639518140E+02  0.47000000000E+01 0.  1.
          5    1    3    3  503    0 -0.47121398227E+02  0.24443786253E+02  0.34634132313E+02  0.63557359750E+02  0.47000000000E+01 0. -1.
         -5    1    4    4    0  502 -0.24025997926E+02 -0.20069426841E+02  0.38364052582E+02  0.49738526321E+02  0.47000000000E+01 0.  1.
<mgrwt>
<rscale>  0 0.10190851E+03</rscale>
<asrwt>0</asrwt>
<pdfrwt beam="1">  1        1 0.47109868E-01 0.10497025E+03</pdfrwt>
<pdfrwt beam="2">  1       -1 0.88980532E-02 0.10497025E+03</pdfrwt>
<totfact> 0.58621966E+03</totfact>
</mgrwt>
</event>
<event>
 8    1  0.3466492E-004  0.1353079E+03  0.7546771E-02  0.1219868E+00
          2   -1    0    0  501    0  0.00000000000E+00  0.00000000000E+00  0.91609507271E+02  0.91609507271E+02  0.00000000000E+00 0. -1.
         -2   -1    0    0    0  501 -0.00000000000E+00 -0.00000000000E+00 -0.27883850202E+03  0.27883850202E+03  0.00000000000E+00 0.  1.
         23    2    1    2    0    0 -0.96629104576E+02  0.27508272926E+02 -0.19235406963E+03  0.23504312214E+03  0.90284507129E+02 0.  0.
         23    2    1    2    0    0  0.96629104576E+02 -0.27508272926E+02  0.51250748874E+01  0.13540488715E+03  0.90632930781E+02 0.  0.
          5    1    3    3  502    0 -0.33527022127E+02 -0.33148527344E+02 -0.70226989849E+02  0.84716032609E+02  0.47000000000E+01 0. -1.
         -5    1    3    3    0  502 -0.63102082449E+02  0.60656800270E+02 -0.12212707979E+03  0.15032708953E+03  0.47000000000E+01 0.  1.
          5    1    4    4  503    0  0.36889516731E+02  0.32906308004E+02 -0.40360981771E+01  0.49820092730E+02  0.47000000000E+01 0. -1.
         -5    1    4    4    0  503  0.59739587845E+02 -0.60414580929E+02  0.91611730644E+01  0.85584794424E+02  0.47000000000E+01 0.  1.
<mgrwt>
<rscale>  0 0.13524954E+03</rscale>
<asrwt>0</asrwt>
<pdfrwt beam="1">  1        2 0.14093771E-01 0.13530786E+03</pdfrwt>
<pdfrwt beam="2">  1       -2 0.42898229E-01 0.13530786E+03</pdfrwt>
<totfact> 0.21144370E+03</totfact>
</mgrwt>
</event>
<event>
 8    1  0.3466492E-004  0.9458615E+02  0.7546771E-02  0.1295089E+00
         -2   -1    0    0    0  501 -0.00000000000E+00  0.00000000000E+00  0.15825379673E+03  0.15825379673E+03  0.00000000000E+00 0.  1.
          2   -1    0    0  501    0  0.00000000000E+00 -0.00000000000E+00 -0.63820383742E+02  0.63820383742E+02  0.00000000000E+00 0. -1.
         23    2    1    2    0    0 -0.42521331925E+01 -0.22834370905E+02  0.37298211566E+01  0.94659663064E+02  0.91689972811E+02 0.  0.
         23    2    1    2    0    0  0.42521331925E+01  0.22834370905E+02  0.90703591832E+02  0.12741451741E+03  0.86416598776E+02 0.  0.
          5    1    3    3  502    0 -0.29071686970E+02 -0.31150202552E+01  0.37712714100E+02  0.47950027521E+02  0.47000000000E+01 0. -1.
         -5    1    3    3    0  502  0.24819553777E+02 -0.19719350650E+02 -0.33982892943E+02  0.46709635543E+02  0.47000000000E+01 0.  1.
          5    1    4    4  503    0 -0.84323735366E+01 -0.29428676911E+02  0.14945108172E+02  0.34388925637E+02  0.47000000000E+01 0. -1.
         -5    1    4    4    0  503  0.12684506729E+02  0.52263047816E+02  0.75758483660E+02  0.93025591772E+02  0.47000000000E+01 0.  1.
<mgrwt>
<rscale>  0 0.93283869E+02</rscale>
<asrwt>0</asrwt>
<pdfrwt beam="1">  1        2 0.98185206E-02 0.94586153E+02</pdfrwt>
<pdfrwt beam="2">  1       -2 0.24346738E-01 0.94586153E+02</pdfrwt>
<totfact> 0.88920908E+03</totfact>
</mgrwt>
</event>
<event>
 8    1  0.3466492E-004  0.9632434E+02  0.7546771E-02  0.1290690E+00
         -2   -1    0    0    0  501 -0.00000000000E+00  0.00000000000E+00  0.12715243861E+02  0.12715243861E+02  0.00000000000E+00 0.  1.
          2   -1    0    0  501    0  0.00000000000E+00 -0.00000000000E+00 -0.69709371214E+03  0.69709371214E+03  0.00000000000E+00 0. -1.
         23    2    1    2    0    0 -0.46729180468E+01 -0.12599735007E+02 -0.34822012231E+03  0.36129715107E+03  0.95382327010E+02 0.  0.
         23    2    1    2    0    0  0.46729180468E+01  0.12599735007E+02 -0.33615834597E+03  0.34851180493E+03  0.90980520579E+02 0.  0.
          5    1    4    4  502    0 -0.27784705044E+02  0.37830262602E+02 -0.22524031919E+03  0.23012694321E+03  0.47000000000E+01 0. -1.
         -5    1    3    3    0  503  0.27908849520E+02 -0.84096005125E+01 -0.32779790811E+02  0.44116096245E+02  0.47000000000E+01 0.  1.
          5    1    3    3  503    0 -0.32581767567E+02 -0.41901344944E+01 -0.31544033150E+03  0.31718105483E+03  0.47000000000E+01 0. -1.
         -5    1    4    4    0  502  0.32457623091E+02 -0.25230527595E+02 -0.11091802678E+03  0.11838486172E+03  0.47000000000E+01 0.  1.
<mgrwt>
<rscale>  0 0.95216183E+02</rscale>
<asrwt>0</asrwt>
<pdfrwt beam="1">  1        2 0.10724520E+00 0.96324336E+02</pdfrwt>
<pdfrwt beam="2">  1       -2 0.19561912E-02 0.96324336E+02</pdfrwt>
<totfact> 0.30582220E+04</totfact>
</mgrwt>
</event>
<event>
 8    1  0.3466492E-004  0.1232210E+03  0.7546771E-02  0.1237983E+00
          3   -1    0    0  501    0  0.00000000000E+00  0.00000000000E+00  0.46918186811E+03  0.46918186811E+03  0.00000000000E+00 0. -1.
         -3   -1    0    0    0  501 -0.00000000000E+00 -0.00000000000E+00 -0.58695194946E+02  0.58695194946E+02  0.00000000000E+00 0.  1.
         23    2    1    2    0    0 -0.24399536479E+02  0.78495053759E+02  0.28093764259E+02  0.12612123496E+03  0.91435745047E+02 0.  0.
         23    2    1    2    0    0  0.24399536479E+02 -0.78495053759E+02  0.38239290891E+03  0.40175582810E+03  0.91796502020E+02 0.  0.
          5    1    4    4  502    0 -0.27892421915E+02 -0.19016308978E+02  0.19958900029E+03  0.20247831055E+03  0.47000000000E+01 0. -1.
         -5    1    4    4    0  502  0.52291958394E+02 -0.59478744782E+02  0.18280390862E+03  0.19927751755E+03  0.47000000000E+01 0.  1.
          5    1    3    3  503    0 -0.42482774523E+02  0.44606418052E+01 -0.42786116317E+01  0.43186571686E+02  0.47000000000E+01 0. -1.
         -5    1    3    3    0  503  0.18083238043E+02  0.74034411954E+02  0.32372375891E+02  0.82934663274E+02  0.47000000000E+01 0.  1.
<mgrwt>
<rscale>  0 0.12315379E+03</rscale>
<asrwt>0</asrwt>
<pdfrwt beam="1">  1        3 0.72181823E-01 0.12322097E+03</pdfrwt>
<pdfrwt beam="2">  1       -3 0.90300303E-02 0.12322097E+03</pdfrwt>
<totfact> 0.37387438E+02</totfact>
</mgrwt>
</event>
<event>
 8    1  0.3466492E-004  0.1058903E+03  0.7546771E-02  0.1273009E+00
          2   -1    0    0  501    0  0.00000000000E+00  0.00000000000E+00  0.12148476239E+04  0.12148476239E+04  0.00000000000E+00 0. -1.
         -2   -1    0    0    0  501 -0.00000000000E+00 -0.00000000000E+00 -0.86196691977E+01  0.86196691977E+01  0.00000000000E+00 0.  1.
         23    2    1    2    0    0  0.24271620894E+02  0.16222954301E+01  0.54547143736E+03  0.55565443629E+03  0.10305833381E+03 0.  0.
         23    2    1    2    0    0 -0.24271620894E+02 -0.16222954301E+01  0.66075651729E+03  0.66781285676E+03  0.93718157722E+02 0.  0.
          5    1    4    4  502    0  0.15941026835E+02  0.37161053155E+02  0.28865491299E+03  0.29151125021E+03  0.47000000000E+01 0. -1.
         -5    1    4    4    0  502 -0.40212647729E+02 -0.38783348586E+02  0.37210160430E+03  0.37630160655E+03  0.47000000000E+01 0.  1.
          5    1    3    3  503    0  0.62611464034E+02 -0.12852899738E+02  0.30362558430E+03  0.31031593240E+03  0.47000000000E+01 0. -1.
         -5    1    3    3    0  503 -0.38339843140E+02  0.14475195168E+02  0.24184585306E+03  0.24533850389E+03  0.47000000000E+01 0.  1.
<mgrwt>
<rscale>  0 0.10354705E+03</rscale>
<asrwt>0</asrwt>
<pdfrwt beam="1">  1        2 0.18689950E+00 0.10589034E+03</pdfrwt>
<pdfrwt beam="2">  1       -2 0.13261039E-02 0.10589034E+03</pdfrwt>
<totfact> 0.25918036E+04</totfact>
</mgrwt>
</event>
<event>
 8    1  0.3466492E-004  0.9244469E+02  0.7546771E-02  0.1297841E+00
         -1   -1    0    0    0  501 -0.00000000000E+00  0.00000000000E+00  0.17667316168E+03  0.17667316168E+03  0.00000000000E+00 0.  1.
          1   -1    0    0  501    0  0.00000000000E+00 -0.00000000000E+00 -0.10906747113E+03  0.10906747113E+03  0.00000000000E+00 0. -1.
         23    2    1    2    0    0  0.11606940055E+01 -0.16361324959E+01  0.14089384859E+03  0.16776955795E+03  0.91057805074E+02 0.  0.
         23    2    1    2    0    0 -0.11606940055E+01  0.16361324959E+01 -0.73288158040E+02  0.11797107485E+03  0.92422920600E+02 0.  0.
          5    1    3    3  502    0 -0.35105701445E+02 -0.27656721188E+02  0.84394139126E+02  0.95612578773E+02  0.47000000000E+01 0. -1.
         -5    1    4    4    0  503  0.26639049680E+02 -0.29411753542E+01  0.10715682130E+02  0.29243893787E+02  0.47000000000E+01 0.  1.
          5    1    4    4  503    0 -0.27799743686E+02  0.45773078501E+01 -0.84003840169E+02  0.88727181063E+02  0.47000000000E+01 0. -1.
         -5    1    3    3    0  502  0.36266395450E+02  0.26020588692E+02  0.56499709466E+02  0.72156979181E+02  0.47000000000E+01 0.  1.
<mgrwt>
<rscale>  0 0.92101586E+02</rscale>
<asrwt>0</asrwt>
<pdfrwt beam="1">  1        1 0.16779611E-01 0.92444688E+02</pdfrwt>
<pdfrwt beam="2">  1       -1 0.27180486E-01 0.92444688E+02</pdfrwt>
<totfact> 0.36475774E+03</totfact>
</mgrwt>
</event>
<event>
 8    1  0.3466492E-004  0.9870592E+02  0.7546771E-02  0.1283428E+00
         -1   -1    0    0    0  501 -0.00000000000E+00  0.00000000000E+00  0.35592278735E+02  0.35592278735E+02  0.00000000000E+00 0.  1.
          1   -1    0    0  501    0  0.00000000000E+00 -0.00000000000E+00 -0.44573634904E+03  0.44573634904E+03  0.00000000000E+00 0. -1.
         23    2    1    2    0    0  0.30646274141E+02 -0.72702528391E+01 -0.54250870361E+02  0.11200109210E+03  0.92784896408E+02 0.  0.
         23    2    1    2    0    0 -0.30646274141E+02  0.72702528391E+01 -0.35589319994E+03  0.36932753567E+03  0.93545754298E+02 0.  0.
          5    1    3    3  502    0 -0.30639455223E+02 -0.13601757057E+02 -0.79068459367E+01  0.34761936426E+02  0.47000000000E+01 0. -1.
         -5    1    4    4    0  503 -0.50096428407E+02  0.27917892376E+02 -0.13757689467E+03  0.14912596287E+03  0.47000000000E+01 0.  1.
          5    1    4    4  503    0  0.19450154266E+02 -0.20647639537E+02 -0.21831630527E+03  0.22020157281E+03  0.47000000000E+01 0. -1.
         -5    1    3    3    0  502  0.61285729364E+02  0.63315042174E+01 -0.46344024424E+02  0.77239155673E+02  0.47000000000E+01 0.  1.
<mgrwt>
<rscale>  0 0.98525230E+02</rscale>
<asrwt>0</asrwt>
<pdfrwt beam="1">  1        1 0.68574823E-01 0.98705921E+02</pdfrwt>
<pdfrwt beam="2">  1       -1 0.54757352E-02 0.98705921E+02</pdfrwt>
<totfact> 0.75421408E+03</totfact>
</mgrwt>
</event>
<event>
 8    1  0.3466492E-004  0.9490105E+02  0.7546771E-02  0.1291492E+00
         -2   -1    0    0    0  501 -0.00000000000E+00  0.00000000000E+00  0.37986471521E+02  0.37986471521E+02  0.00000000000E+00 0.  1.
          2   -1    0    0  501    0  0.00000000000E+00 -0.00000000000E+00 -0.42450284655E+03  0.42450284655E+03  0.00000000000E+00 0. -1.
         23    2    1    2    0    0 -0.55444079341E+01  0.24852329206E+02 -0.39347706684E+02  0.10258336630E+03  0.91250897501E+02 0.  0.
         23    2    1    2    0    0  0.55444079341E+01 -0.24852329206E+02 -0.34716866834E+03  0.35990595177E+03  0.91421174299E+02 0.  0.
          5    1    3    3  502    0  0.19308828436E+02 -0.73886924793E+01 -0.54823029947E+02  0.58779913615E+02  0.47000000000E+01 0. -1.
         -5    1    3    3    0  502 -0.24853236370E+02  0.32241021686E+02  0.15475323263E+02  0.43803452689E+02  0.47000000000E+01 0.  1.
          5    1    4    4  503    0 -0.26356292350E+02 -0.31880940647E+02 -0.29668900242E+03  0.29959556519E+03  0.47000000000E+01 0. -1.
         -5    1    4    4    0  503  0.31900700284E+02  0.70286114409E+01 -0.50479665924E+02  0.60310386579E+02  0.47000000000E+01 0.  1.
<mgrwt>
<rscale>  0 0.94860021E+02</rscale>
<asrwt>0</asrwt>
<pdfrwt beam="1">  1        2 0.65308131E-01 0.94901053E+02</pdfrwt>
<pdfrwt beam="2">  1       -2 0.58440725E-02 0.94901053E+02</pdfrwt>
<totfact> 0.10630158E+04</totfact>
</mgrwt>
</event>
<event>
 8    1  0.3466492E-004  0.1943178E+03  0.7546771E-02  0.1155285E+00
         -1   -1    0    0    0  501 -0.00000000000E+00  0.00000000000E+00  0.72333441796E+02  0.72333441796E+02  0.00000000000E+00 0.  1.
          1   -1    0    0  501    0  0.00000000000E+00 -0.00000000000E+00 -0.52769826708E+03  0.52769826708E+03  0.00000000000E+00 0. -1.
         23    2    1    2    0    0 -0.16499589296E+03 -0.33303258518E+02 -0.18108067630E+03  0.26561180349E+03  0.97091024836E+02 0.  0.
         23    2    1    2    0    0  0.16499589296E+03  0.33303258518E+02 -0.27428414899E+03  0.33441990539E+03  0.90951234230E+02 0.  0.
          5    1    4    4  502    0  0.18310885321E+02  0.18074916770E+02 -0.11231701600E+03  0.11532212806E+03  0.47000000000E+01 0. -1.
         -5    1    4    4    0  502  0.14668500764E+03  0.15228341748E+02 -0.16196713299E+03  0.21909777733E+03  0.47000000000E+01 0.  1.
          5    1    3    3  503    0 -0.83534913704E+02  0.27249825216E+02 -0.11335521240E+03  0.14349957826E+03  0.47000000000E+01 0. -1.
         -5    1    3    3    0  503 -0.81460979261E+02 -0.60553083734E+02 -0.67725463894E+02  0.12211222523E+03  0.47000000000E+01 0.  1.
<mgrwt>
<rscale>  0 0.19356501E+03</rscale>
<asrwt>0</asrwt>
<pdfrwt beam="1">  1        1 0.81184344E-01 0.19431783E+03</pdfrwt>
<pdfrwt beam="2">  1       -1 0.11128222E-01 0.19431783E+03</pdfrwt>
<totfact> 0.21459457E+03</totfact>
</mgrwt>
</event>
<event>
 8    1  0.3466492E-004  0.1453015E+03  0.7546771E-02  0.1214457E+00
          1   -1    0    0  501    0  0.00000000000E+00  0.00000000000E+00  0.48695256010E+02  0.48695256010E+02  0.00000000000E+00 0. -1.
         -1   -1    0    0    0  501 -0.00000000000E+00 -0.00000000000E+00 -0.37613429026E+03  0.37613429026E+03  0.00000000000E+00 0.  1.
         23    2    1    2    0    0  0.58603251535E+02  0.55806964306E+02 -0.18191077177E+03  0.21918175209E+03  0.91653440800E+02 0.  0.
         23    2    1    2    0    0 -0.58603251535E+02 -0.55806964306E+02 -0.14552826249E+03  0.20564779418E+03  0.12068049434E+03 0.  0.
          5    1    4    4  502    0 -0.52946057446E+02 -0.15629588470E+02 -0.95207799778E+00  0.55412683452E+02  0.47000000000E+01 0. -1.
         -5    1    3    3    0  503  0.48946410563E+02 -0.11495672416E+02 -0.10438311642E+03  0.11595614078E+03  0.47000000000E+01 0.  1.
          5    1    3    3  503    0  0.96568409712E+01  0.67302636722E+02 -0.77527655349E+02  0.10322561131E+03  0.47000000000E+01 0. -1.
         -5    1    4    4    0  502 -0.56571940884E+01 -0.40177375835E+02 -0.14457618449E+03  0.15023511073E+03  0.47000000000E+01 0.  1.
<mgrwt>
<rscale>  0 0.13916487E+03</rscale>
<asrwt>0</asrwt>
<pdfrwt beam="1">  1        1 0.74915779E-02 0.14530155E+03</pdfrwt>
<pdfrwt beam="2">  1       -1 0.57866814E-01 0.14530155E+03</pdfrwt>
<totfact> 0.28711365E+03</totfact>
</mgrwt>
</event>
<event>
 8    1  0.3466492E-004  0.9688496E+02  0.7546771E-02  0.1288587E+00
         -2   -1    0    0    0  501 -0.00000000000E+00  0.00000000000E+00  0.14853072521E+03  0.14853072521E+03  0.00000000000E+00 0.  1.
          2   -1    0    0  501    0  0.00000000000E+00 -0.00000000000E+00 -0.36045621615E+03  0.36045621615E+03  0.00000000000E+00 0. -1.
         23    2    1    2    0    0 -0.12039518064E+02  0.22944334291E+02  0.12559292359E+03  0.15861991867E+03  0.93355790767E+02 0.  0.
         23    2    1    2    0    0  0.12039518064E+02 -0.22944334291E+02 -0.33751841453E+03  0.35036702269E+03  0.90371333776E+02 0.  0.
          5    1    4    4  502    0 -0.11425733558E+02 -0.51216031329E+02 -0.24713061293E+03  0.25268410931E+03  0.47000000000E+01 0. -1.
         -5    1    4    4    0  502  0.23465251622E+02  0.28271697038E+02 -0.90387801601E+02  0.97682913375E+02  0.47000000000E+01 0.  1.
          5    1    3    3  503    0 -0.40819293680E+02  0.33680028945E+02  0.37020626144E+02  0.64754736093E+02  0.47000000000E+01 0. -1.
         -5    1    3    3    0  503  0.28779775616E+02 -0.10735694654E+02  0.88572297450E+02  0.93865182575E+02  0.47000000000E+01 0.  1.
<mgrwt>
<rscale>  0 0.96158750E+02</rscale>
<asrwt>0</asrwt>
<pdfrwt beam="1">  1        2 0.55454801E-01 0.96884963E+02</pdfrwt>
<pdfrwt beam="2">  1       -2 0.22850881E-01 0.96884963E+02</pdfrwt>
<totfact> 0.14534822E+03</totfact>
</mgrwt>
</event>
<event>
 8    1  0.3466492E-004  0.9832699E+02  0.7546771E-02  0.1290589E+00
         -1   -1    0    0    0  501 -0.00000000000E+00  0.00000000000E+00  0.60724160765E+03  0.60724160765E+03  0.00000000000E+00 0.  1.
          1   -1    0    0  501    0  0.00000000000E+00 -0.00000000000E+00 -0.26788564143E+02  0.26788564143E+02  0.00000000000E+00 0. -1.
         23    2    1    2    0    0 -0.12001335913E+02 -0.11283616710E+01  0.51797284070E+03  0.52722297145E+03  0.97585309634E+02 0.  0.
         23    2    1    2    0    0  0.12001335913E+02  0.11283616710E+01  0.62480202813E+02  0.10680720035E+03  0.85782848165E+02 0.  0.
          5    1    4    4  502    0  0.37346237604E+02 -0.26849283551E+02  0.21820448222E+02  0.51125800248E+02  0.47000000000E+01 0. -1.
         -5    1    4    4    0  502 -0.25344901691E+02  0.27977645222E+02  0.40659754592E+02  0.55681400102E+02  0.47000000000E+01 0.  1.
          5    1    3    3  503    0 -0.47131924499E+02  0.21884543368E+02  0.21102898021E+03  0.21738369771E+03  0.47000000000E+01 0.  1.
         -5    1    3    3    0  503  0.35130588586E+02 -0.23012905039E+02  0.30694386049E+03  0.30983927373E+03  0.47000000000E+01 0. -1.
<mgrwt>
<rscale>  0 0.95261232E+02</rscale>
<asrwt>0</asrwt>
<pdfrwt beam="1">  1        1 0.41213180E-02 0.98326995E+02</pdfrwt>
<pdfrwt beam="2">  1       -1 0.93421776E-01 0.98326995E+02</pdfrwt>
<totfact> 0.24260616E+03</totfact>
</mgrwt>
</event>
<event>
 8    1  0.3466492E-004  0.1199291E+03  0.7546771E-02  0.1249346E+00
         -1   -1    0    0    0  501 -0.00000000000E+00  0.00000000000E+00  0.20386942494E+03  0.20386942494E+03  0.00000000000E+00 0.  1.
          1   -1    0    0  501    0  0.00000000000E+00 -0.00000000000E+00 -0.84306201111E+02  0.84306201111E+02  0.00000000000E+00 0. -1.
         23    2    1    2    0    0  0.42672411249E+02  0.29406705498E+02  0.13004821734E+03  0.16778906066E+03  0.92492924230E+02 0.  0.
         23    2    1    2    0    0 -0.42672411249E+02 -0.29406705498E+02 -0.10484993507E+02  0.12038656540E+03  0.10815406155E+03 0.  0.
          5    1    4    4  502    0 -0.10707695962E+02 -0.25464817422E+02 -0.57057993359E+02  0.63567415279E+02  0.47000000000E+01 0. -1.
         -5    1    4    4    0  502 -0.31964715287E+02 -0.39418880762E+01  0.46572999851E+02  0.56819150118E+02  0.47000000000E+01 0.  1.
          5    1    3    3  503    0  0.52420014923E+01 -0.28319100964E+02  0.13018737241E+02  0.31953522160E+02  0.47000000000E+01 0. -1.
         -5    1    3    3    0  503  0.37430409757E+02  0.57725806463E+02  0.11702948010E+03  0.13583553850E+03  0.47000000000E+01 0.  1.
<mgrwt>
<rscale>  0 0.11628997E+03</rscale>
<asrwt>0</asrwt>
<pdfrwt beam="1">  1        1 0.12970185E-01 0.11992910E+03</pdfrwt>
<pdfrwt beam="2">  1       -1 0.31364527E-01 0.11992910E+03</pdfrwt>
<totfact> 0.40696399E+03</totfact>
</mgrwt>
</event>
<event>
 8    1  0.3466492E-004  0.1286901E+03  0.7546771E-02  0.1229788E+00
         -2   -1    0    0    0  501 -0.00000000000E+00  0.00000000000E+00  0.59085274088E+02  0.59085274088E+02  0.00000000000E+00 0.  1.
          2   -1    0    0  501    0  0.00000000000E+00 -0.00000000000E+00 -0.89442224465E+03  0.89442224465E+03  0.00000000000E+00 0. -1.
         23    2    1    2    0    0 -0.45596650991E+02 -0.77357556383E+02 -0.21421305090E+02  0.12948091532E+03  0.90792009612E+02 0.  0.
         23    2    1    2    0    0  0.45596650991E+02  0.77357556383E+02 -0.81391566547E+03  0.82402660342E+03  0.92183981953E+02 0.  0.
          5    1    3    3  502    0 -0.65371889099E+02 -0.26587987870E+02 -0.24117619565E+02  0.74727200917E+02  0.47000000000E+01 0. -1.
         -5    1    4    4    0  503 -0.16654280100E+02  0.24537784724E+02 -0.77970756250E+02  0.83552359363E+02  0.47000000000E+01 0.  1.
          5    1    4    4  503    0  0.62250931092E+02  0.52819771659E+02 -0.73594490922E+03  0.74047424406E+03  0.47000000000E+01 0. -1.
         -5    1    3    3    0  502  0.19775238108E+02 -0.50769568514E+02  0.26963144754E+01  0.54753714404E+02  0.47000000000E+01 0.  1.
<mgrwt>
<rscale>  0 0.12844099E+03</rscale>
<asrwt>0</asrwt>
<pdfrwt beam="1">  1        2 0.13760342E+00 0.12869006E+03</pdfrwt>
<pdfrwt beam="2">  1       -2 0.90900425E-02 0.12869006E+03</pdfrwt>
<totfact> 0.23347315E+03</totfact>
</mgrwt>
</event>
<event>
 8    1  0.3466492E-004  0.9720303E+02  0.7546771E-02  0.1286836E+00
          2   -1    0    0  501    0  0.00000000000E+00  0.00000000000E+00  0.37933452641E+03  0.37933452641E+03  0.00000000000E+00 0. -1.
         -2   -1    0    0    0  501 -0.00000000000E+00 -0.00000000000E+00 -0.90101869235E+02  0.90101869235E+02  0.00000000000E+00 0.  1.
         23    2    1    2    0    0 -0.19278599729E+02 -0.34074232495E+02 -0.55224873806E+02  0.11179541783E+03  0.88970281740E+02 0.  0.
         23    2    1    2    0    0  0.19278599729E+02  0.34074232495E+02  0.34445753098E+03  0.35764097781E+03  0.87882652650E+02 0.  0.
          5    1    4    4  502    0  0.29353661020E+02  0.52866091855E+02  0.31602356351E+03  0.32179099393E+03  0.47000000000E+01 0. -1.
         -5    1    4    4    0  502 -0.10075061292E+02 -0.18791859360E+02  0.28433967466E+02  0.35849983878E+02  0.47000000000E+01 0.  1.
          5    1    3    3  503    0  0.31956875761E+02 -0.40108308615E-01 -0.33127714975E+02  0.46268553214E+02  0.47000000000E+01 0. -1.
         -5    1    3    3    0  503 -0.51235475490E+02 -0.34034124187E+02 -0.22097158831E+02  0.65526864615E+02  0.47000000000E+01 0.  1.
<mgrwt>
<rscale>  0 0.96953441E+02</rscale>
<asrwt>0</asrwt>
<pdfrwt beam="1">  1        2 0.58359157E-01 0.97203029E+02</pdfrwt>
<pdfrwt beam="2">  1       -2 0.13861826E-01 0.97203029E+02</pdfrwt>
<totfact> 0.31509932E+03</totfact>
</mgrwt>
</event>
<event>
 8    1  0.3466492E-004  0.1042633E+03  0.7546771E-02  0.1273017E+00
          1   -1    0    0  501    0  0.00000000000E+00  0.00000000000E+00  0.76808445254E+02  0.76808445254E+02  0.00000000000E+00 0. -1.
         -1   -1    0    0    0  501 -0.00000000000E+00 -0.00000000000E+00 -0.28513569451E+03  0.28513569451E+03  0.00000000000E+00 0.  1.
         23    2    1    2    0    0  0.23651167619E+02  0.37120177240E+02 -0.23359850290E+03  0.25466188419E+03  0.91362625917E+02 0.  0.
         23    2    1    2    0    0 -0.23651167619E+02 -0.37120177240E+02  0.25271253647E+02  0.10728225557E+03  0.94517515896E+02 0.  0.
          5    1    4    4  502    0 -0.46971104686E+02 -0.33259324653E+02  0.47289716513E+02  0.74638292047E+02  0.47000000000E+01 0. -1.
         -5    1    4    4    0  502  0.23319937067E+02 -0.38608525869E+01 -0.22018462866E+02  0.32643963523E+02  0.47000000000E+01 0. -1.
          5    1    3    3  503    0  0.48205248888E+02  0.10208807204E+01 -0.17410038199E+03  0.18071475100E+03  0.47000000000E+01 0. -1.
         -5    1    3    3    0  503 -0.24554081269E+02  0.36099296520E+02 -0.59498120908E+02  0.73947133195E+02  0.47000000000E+01 0.  1.
<mgrwt>
<rscale>  0 0.10354311E+03</rscale>
<asrwt>0</asrwt>
<pdfrwt beam="1">  1        1 0.11816684E-01 0.10426335E+03</pdfrwt>
<pdfrwt beam="2">  1       -1 0.43867030E-01 0.10426335E+03</pdfrwt>
<totfact> 0.25557126E+03</totfact>
</mgrwt>
</event>
<event>
 8    1  0.3466492E-004  0.9451252E+02  0.7546771E-02  0.1294103E+00
          1   -1    0    0  501    0  0.00000000000E+00  0.00000000000E+00  0.37995585736E+02  0.37995585736E+02  0.00000000000E+00 0. -1.
         -1   -1    0    0    0  501 -0.00000000000E+00 -0.00000000000E+00 -0.26054566021E+03  0.26054566021E+03  0.00000000000E+00 0.  1.
         23    2    1    2    0    0 -0.20112056284E+02  0.16536054265E+02 -0.16623815545E+03  0.19122693698E+03  0.90855276131E+02 0.  0.
         23    2    1    2    0    0  0.20112056284E+02 -0.16536054265E+02 -0.56311919020E+02  0.10731430896E+03  0.87563649910E+02 0.  0.
          5    1    4    4  502    0  0.11144175055E+02 -0.52458523967E+02 -0.29779651072E+02  0.61522410490E+02  0.47000000000E+01 0. -1.
         -5    1    4    4    0  502  0.89678812289E+01  0.35922469702E+02 -0.26532267948E+02  0.45791898472E+02  0.47000000000E+01 0.  1.
          5    1    3    3  503    0 -0.69893556139E+01 -0.26805208268E+02 -0.12253813904E+02  0.30653160316E+02  0.47000000000E+01 0. -1.
         -5    1    3    3    0  503 -0.13122700670E+02  0.43341262533E+02 -0.15398434155E+03  0.16057377666E+03  0.47000000000E+01 0.  1.
<mgrwt>
<rscale>  0 0.93712484E+02</rscale>
<asrwt>0</asrwt>
<pdfrwt beam="1">  1        1 0.58454749E-02 0.94512524E+02</pdfrwt>
<pdfrwt beam="2">  1       -1 0.40083946E-01 0.94512524E+02</pdfrwt>
<totfact> 0.75548612E+03</totfact>
</mgrwt>
</event>
<event>
 8    1  0.3466492E-004  0.2220461E+03  0.7546771E-02  0.1132385E+00
          2   -1    0    0  501    0  0.00000000000E+00  0.00000000000E+00  0.54544757243E+02  0.54544757243E+02  0.00000000000E+00 0. -1.
         -2   -1    0    0    0  501 -0.00000000000E+00 -0.00000000000E+00 -0.90375829864E+03  0.90375829864E+03  0.00000000000E+00 0.  1.
         23    2    1    2    0    0  0.19923686405E+03  0.38827396607E+02 -0.41669659833E+03  0.47211856152E+03  0.89760717158E+02 0.  0.
         23    2    1    2    0    0 -0.19923686405E+03 -0.38827396607E+02 -0.43251694307E+03  0.48618449437E+03  0.90008676258E+02 0.  0.
          5    1    4    4  502    0 -0.79361495035E+02  0.16006673177E+02 -0.10193620835E+03  0.13025951425E+03  0.47000000000E+01 0. -1.
         -5    1    4    4    0  502 -0.11987536901E+03 -0.54834069783E+02 -0.33058073472E+03  0.35592498012E+03  0.47000000000E+01 0.  1.
          5    1    3    3  503    0  0.10607600039E+03  0.64589065673E+02 -0.21308360473E+03  0.24667909897E+03  0.47000000000E+01 0. -1.
         -5    1    3    3    0  503  0.93160863663E+02 -0.25761669067E+02 -0.20361299360E+03  0.22543946255E+03  0.47000000000E+01 0.  1.
<mgrwt>
<rscale>  0 0.22202096E+03</rscale>
<asrwt>0</asrwt>
<pdfrwt beam="1">  1        2 0.83915009E-02 0.22204607E+03</pdfrwt>
<pdfrwt beam="2">  1       -2 0.13903974E+00 0.22204607E+03</pdfrwt>
<totfact> 0.30760890E+02</totfact>
</mgrwt>
</event>
<event>
 8    1  0.3466492E-004  0.9775896E+02  0.7546771E-02  0.1292047E+00
         -1   -1    0    0    0  501 -0.00000000000E+00  0.00000000000E+00  0.12349570548E+02  0.12349570548E+02  0.00000000000E+00 0.  1.
          1   -1    0    0  501    0  0.00000000000E+00 -0.00000000000E+00 -0.70532614037E+03  0.70532614037E+03  0.00000000000E+00 0. -1.
         23    2    1    2    0    0  0.35258766109E+01  0.31830144866E+02 -0.38987549302E+03  0.39919953195E+03  0.79572459605E+02 0.  0.
         23    2    1    2    0    0 -0.35258766109E+01 -0.31830144866E+02 -0.30310107681E+03  0.31847617897E+03  0.92364624612E+02 0.  0.
          5    1    4    4  502    0  0.19103935997E+01 -0.63203821499E+02 -0.16729218430E+03  0.17890538724E+03  0.47000000000E+01 0. -1.
         -5    1    3    3    0  503  0.38765066947E+02  0.89101359277E+01 -0.13422822669E+03  0.14007650687E+03  0.47000000000E+01 0.  1.
          5    1    3    3  503    0 -0.35239190336E+02  0.22920008938E+02 -0.25564726633E+03  0.25912302508E+03  0.47000000000E+01 0. -1.
         -5    1    4    4    0  502 -0.54362702106E+01  0.31373676633E+02 -0.13580889250E+03  0.13957079172E+03  0.47000000000E+01 0.  1.
<mgrwt>
<rscale>  0 0.94614504E+02</rscale>
<asrwt>0</asrwt>
<pdfrwt beam="1">  1        1 0.10851171E+00 0.97758958E+02</pdfrwt>
<pdfrwt beam="2">  1       -1 0.18999340E-02 0.97758958E+02</pdfrwt>
<totfact> 0.18971498E+04</totfact>
</mgrwt>
</event>
<event>
 8    1  0.3466492E-004  0.1286145E+03  0.7546771E-02  0.1234025E+00
         -1   -1    0    0    0  501 -0.00000000000E+00  0.00000000000E+00  0.33110809355E+02  0.33110809355E+02  0.00000000000E+00 0.  1.
          1   -1    0    0  501    0  0.00000000000E+00 -0.00000000000E+00 -0.63663343460E+03  0.63663343460E+03  0.00000000000E+00 0. -1.
         23    2    1    2    0    0  0.64364062008E+02  0.38570323362E+02 -0.11369374385E+03  0.16331160196E+03  0.90077797617E+02 0.  0.
         23    2    1    2    0    0 -0.64364062008E+02 -0.38570323362E+02 -0.48982888140E+03  0.50643264199E+03  0.10445709885E+03 0.  0.
          5    1    3    3  502    0  0.73002476426E+02 -0.38232017111E+00 -0.92366155247E+02  0.11782658600E+03  0.47000000000E+01 0. -1.
         -5    1    4    4    0  503  0.11448569972E+02 -0.21997767177E+02 -0.26386814449E+02  0.36514729795E+02  0.47000000000E+01 0.  1.
          5    1    4    4  503    0 -0.75812631981E+02 -0.16572556184E+02 -0.46344206695E+03  0.46991791220E+03  0.47000000000E+01 0. -1.
         -5    1    3    3    0  502 -0.86384144182E+01  0.38952643533E+02 -0.21327588601E+02  0.45485015966E+02  0.47000000000E+01 0.  1.
<mgrwt>
<rscale>  0 0.12567046E+03</rscale>
<asrwt>0</asrwt>
<pdfrwt beam="1">  1        1 0.97943598E-01 0.12861449E+03</pdfrwt>
<pdfrwt beam="2">  1       -1 0.50939710E-02 0.12861449E+03</pdfrwt>
<totfact> 0.53360738E+03</totfact>
</mgrwt>
</event>
<event>
 8    1  0.3466492E-004  0.1046647E+03  0.7546771E-02  0.1271712E+00
          2   -1    0    0  501    0  0.00000000000E+00  0.00000000000E+00  0.58827150143E+03  0.58827150143E+03  0.00000000000E+00 0. -1.
         -2   -1    0    0    0  501 -0.00000000000E+00 -0.00000000000E+00 -0.20446333489E+02  0.20446333489E+02  0.00000000000E+00 0.  1.
         23    2    1    2    0    0  0.32163772872E+02 -0.35370096477E+02  0.18284239208E+03  0.20976115411E+03  0.91010161092E+02 0.  0.
         23    2    1    2    0    0 -0.32163772872E+02  0.35370096477E+02  0.38498277586E+03  0.39895668081E+03  0.93108235090E+02 0.  0.
          5    1    3    3  502    0  0.31158171661E+02 -0.23092169337E+01  0.17164121895E+03  0.17452496150E+03  0.47000000000E+01 0. -1.
         -5    1    4    4    0  503 -0.33483313028E+01 -0.20679466180E+02  0.22862113214E+02  0.31362682676E+02  0.47000000000E+01 0.  1.
          5    1    4    4  503    0 -0.28815441570E+02  0.56049562658E+02  0.36212066265E+03  0.36759399813E+03  0.47000000000E+01 0. -1.
         -5    1    3    3    0  502  0.10056012118E+01 -0.33060879544E+02  0.11201173126E+02  0.35236192606E+02  0.47000000000E+01 0.  1.
<mgrwt>
<rscale>  0 0.10419606E+03</rscale>
<asrwt>0</asrwt>
<pdfrwt beam="1">  1        2 0.90503295E-01 0.10466468E+03</pdfrwt>
<pdfrwt beam="2">  1       -2 0.31455902E-02 0.10466468E+03</pdfrwt>
<totfact> 0.18802914E+04</totfact>
</mgrwt>
</event>
<event>
 8    1  0.3466492E-004  0.9744212E+02  0.7546771E-02  0.1286605E+00
          2   -1    0    0  501    0  0.00000000000E+00  0.00000000000E+00  0.15415082760E+03  0.15415082760E+03  0.00000000000E+00 0. -1.
         -2   -1    0    0    0  501 -0.00000000000E+00 -0.00000000000E+00 -0.60714471103E+02  0.60714471103E+02  0.00000000000E+00 0.  1.
         23    2    1    2    0    0  0.21416023125E+02  0.17501419145E+02  0.43232710818E+02  0.10660222539E+03  0.93434583823E+02 0.  0.
         23    2    1    2    0    0 -0.21416023125E+02 -0.17501419145E+02  0.50203645679E+02  0.10826307332E+03  0.91845202845E+02 0.  0.
          5    1    3    3  502    0 -0.19545661721E+02  0.29079825972E+02  0.52009487695E+02  0.62886771112E+02  0.47000000000E+01 0. -1.
         -5    1    4    4    0  503 -0.15856246000E+02 -0.51549751679E+02  0.49624493373E+02  0.73440300775E+02  0.47000000000E+01 0.  1.
          5    1    4    4  503    0 -0.55597771254E+01  0.34048332533E+02  0.57915230539E+00  0.34822772540E+02  0.47000000000E+01 0. -1.
         -5    1    3    3    0  502  0.40961684847E+02 -0.11578406826E+02 -0.87767768765E+01  0.43715454275E+02  0.47000000000E+01 0.  1.
<mgrwt>
<rscale>  0 0.97059132E+02</rscale>
<asrwt>0</asrwt>
<pdfrwt beam="1">  1        2 0.23715512E-01 0.97442122E+02</pdfrwt>
<pdfrwt beam="2">  1       -2 0.93406879E-02 0.97442122E+02</pdfrwt>
<totfact> 0.15278794E+04</totfact>
</mgrwt>
</event>
<event>
 8    1  0.3466492E-004  0.9640839E+02  0.7546771E-02  0.1288207E+00
          2   -1    0    0  501    0  0.00000000000E+00  0.00000000000E+00  0.10502902973E+04  0.10502902973E+04  0.00000000000E+00 0. -1.
         -2   -1    0    0    0  501 -0.00000000000E+00 -0.00000000000E+00 -0.88337136950E+01  0.88337136950E+01  0.00000000000E+00 0.  1.
         23    2    1    2    0    0 -0.39277561107E+00 -0.32077128074E+02  0.54162744806E+03  0.55014077308E+03  0.90914692439E+02 0.  0.
         23    2    1    2    0    0  0.39277561107E+00  0.32077128074E+02  0.49982913552E+03  0.50898323788E+03  0.90585182641E+02 0.  0.
          5    1    3    3  502    0 -0.44072958359E+02 -0.10711559600E+02  0.31697625215E+03  0.32023928178E+03  0.47000000000E+01 0. -1.
         -5    1    4    4    0  503 -0.33253632020E+01 -0.31420916685E+02  0.14629348937E+03  0.14974046573E+03  0.47000000000E+01 0.  1.
          5    1    4    4  503    0  0.37181388131E+01  0.63498044759E+02  0.35353564615E+03  0.35924277215E+03  0.47000000000E+01 0. -1.
         -5    1    3    3    0  502  0.43680182748E+02 -0.21365568474E+02  0.22465119591E+03  0.22990149131E+03  0.47000000000E+01 0.  1.
<mgrwt>
<rscale>  0 0.96330629E+02</rscale>
<asrwt>0</asrwt>
<pdfrwt beam="1">  1        2 0.16158302E+00 0.96408390E+02</pdfrwt>
<pdfrwt beam="2">  1       -2 0.13590337E-02 0.96408390E+02</pdfrwt>
<totfact> 0.30671547E+04</totfact>
</mgrwt>
</event>
<event>
 8    1  0.3466492E-004  0.1168403E+03  0.7546771E-02  0.1252142E+00
         -1   -1    0    0    0  501 -0.00000000000E+00  0.00000000000E+00  0.89413073037E+01  0.89413073037E+01  0.00000000000E+00 0.  1.
          1   -1    0    0  501    0  0.00000000000E+00 -0.00000000000E+00 -0.14193107920E+04  0.14193107920E+04  0.00000000000E+00 0. -1.
         23    2    1    2    0    0  0.17834806715E+02 -0.70343882628E+02 -0.66698967734E+03  0.67574615675E+03  0.80568582776E+02 0.  0.
         23    2    1    2    0    0 -0.17834806715E+02  0.70343882628E+02 -0.74337980731E+03  0.75250594251E+03  0.91571357089E+02 0.  0.
          5    1    3    3  502    0  0.14963013828E+02  0.14511363722E+02 -0.88657156435E+02  0.91195684367E+02  0.47000000000E+01 0.  1.
         -5    1    4    4    0  503 -0.10035750755E+02  0.92084171342E+02 -0.61939228220E+03  0.62629793242E+03  0.47000000000E+01 0.  1.
          5    1    4    4  503    0 -0.77990559604E+01 -0.21740288715E+02 -0.12398752512E+03  0.12620801009E+03  0.47000000000E+01 0. -1.
         -5    1    3    3    0  502  0.28717928868E+01 -0.84855246350E+02 -0.57833252090E+03  0.58455047238E+03  0.47000000000E+01 0. -1.
<mgrwt>
<rscale>  0 0.11467916E+03</rscale>
<asrwt>0</asrwt>
<pdfrwt beam="1">  1        1 0.21835560E+00 0.11684030E+03</pdfrwt>
<pdfrwt beam="2">  1       -1 0.13755852E-02 0.11684030E+03</pdfrwt>
<totfact> 0.92628202E+03</totfact>
</mgrwt>
</event>
<event>
 8    1  0.3466492E-004  0.4406255E+03  0.7546771E-02  0.1030559E+00
         -1   -1    0    0    0  501 -0.00000000000E+00  0.00000000000E+00  0.17860138841E+03  0.17860138841E+03  0.00000000000E+00 0.  1.
          1   -1    0    0  501    0  0.00000000000E+00 -0.00000000000E+00 -0.10870012497E+04  0.10870012497E+04  0.00000000000E+00 0. -1.
         23    2    1    2    0    0  0.16564413533E+02  0.43077320203E+03 -0.44913827844E+03  0.62914992142E+03  0.90909290414E+02 0.  0.
         23    2    1    2    0    0 -0.16564413533E+02 -0.43077320203E+03 -0.45926158280E+03  0.63645271664E+03  0.91164289657E+02 0.  0.
          5    1    4    4  502    0  0.35957570375E+02 -0.22324801621E+03 -0.22357079464E+03  0.31802297688E+03  0.47000000000E+01 0. -1.
         -5    1    4    4    0  502 -0.52521983908E+02 -0.20752518582E+03 -0.23569078816E+03  0.31842973976E+03  0.47000000000E+01 0.  1.
          5    1    3    3  503    0  0.46030102877E+02  0.35213944055E+03 -0.34327517768E+03  0.49394422112E+03  0.47000000000E+01 0. -1.
         -5    1    3    3    0  503 -0.29465689344E+02  0.78633761474E+02 -0.10586310076E+03  0.13520570030E+03  0.47000000000E+01 0.  1.
<mgrwt>
<rscale>  0 0.44061236E+03</rscale>
<asrwt>0</asrwt>
<pdfrwt beam="1">  1        1 0.16723096E+00 0.44062553E+03</pdfrwt>
<pdfrwt beam="2">  1       -1 0.27477137E-01 0.44062553E+03</pdfrwt>
<totfact> 0.16123005E+02</totfact>
</mgrwt>
</event>
<event>
 8    1  0.3466492E-004  0.9358517E+02  0.7546771E-02  0.1296815E+00
          3   -1    0    0  501    0  0.00000000000E+00  0.00000000000E+00  0.12280643881E+02  0.12280643881E+02  0.00000000000E+00 0. -1.
         -3   -1    0    0    0  501 -0.00000000000E+00 -0.00000000000E+00 -0.68230004273E+03  0.68230004273E+03  0.00000000000E+00 0.  1.
         23    2    1    2    0    0 -0.44865703239E+01 -0.22084263887E+02 -0.33800082762E+03  0.35071746984E+03  0.90831383098E+02 0.  0.
         23    2    1    2    0    0  0.44865703239E+01  0.22084263887E+02 -0.33201857122E+03  0.34386321676E+03  0.86589469227E+02 0.  0.
          5    1    4    4  502    0  0.42718774200E+02 -0.12938336754E+01 -0.13175399079E+03  0.13859210570E+03  0.47000000000E+01 0. -1.
         -5    1    3    3    0  503  0.20815182061E+02 -0.33973443209E+02 -0.30314942556E+03  0.30579262722E+03  0.47000000000E+01 0.  1.
          5    1    3    3  503    0 -0.25301752385E+02  0.11889179322E+02 -0.34851402067E+02  0.44924842624E+02  0.47000000000E+01 0. -1.
         -5    1    4    4    0  502 -0.38232203876E+02  0.23378097563E+02 -0.20026458043E+03  0.20527111106E+03  0.47000000000E+01 0.  1.
<mgrwt>
<rscale>  0 0.92539975E+02</rscale>
<asrwt>0</asrwt>
<pdfrwt beam="1">  1        3 0.18893295E-02 0.93585171E+02</pdfrwt>
<pdfrwt beam="2">  1       -3 0.10496926E+00 0.93585171E+02</pdfrwt>
<totfact> 0.18061561E+03</totfact>
</mgrwt>
</event>
<event>
 8    1  0.3466492E-004  0.9803175E+02  0.7546771E-02  0.1284894E+00
         -1   -1    0    0    0  501 -0.00000000000E+00  0.00000000000E+00  0.19788857212E+03  0.19788857212E+03  0.00000000000E+00 0.  1.
          1   -1    0    0  501    0  0.00000000000E+00 -0.00000000000E+00 -0.84647834300E+02  0.84647834300E+02  0.00000000000E+00 0. -1.
         23    2    1    2    0    0  0.97703074465E+01 -0.33128370082E+02  0.14920094051E+03  0.17811724767E+03  0.90949906290E+02 0.  0.
         23    2    1    2    0    0 -0.97703074465E+01  0.33128370082E+02 -0.35960202696E+02  0.10441915875E+03  0.91745717745E+02 0.  0.
          5    1    4    4  502    0  0.16856997263E+02  0.38843225472E+02 -0.55940805539E+02  0.70316557411E+02  0.47000000000E+01 0. -1.
         -5    1    3    3    0  503 -0.25496739608E+02 -0.10526087429E+02  0.12783247203E+03  0.13085913477E+03  0.47000000000E+01 0.  1.
          5    1    3    3  503    0  0.35267047054E+02 -0.22602282653E+02  0.21368468479E+02  0.47258112893E+02  0.47000000000E+01 0. -1.
         -5    1    4    4    0  502 -0.26627304710E+02 -0.57148553896E+01  0.19980602843E+02  0.34102601341E+02  0.47000000000E+01 0.  1.
<mgrwt>
<rscale>  0 0.97845126E+02</rscale>
<asrwt>0</asrwt>
<pdfrwt beam="1">  1        1 0.13022744E-01 0.98031753E+02</pdfrwt>
<pdfrwt beam="2">  1       -1 0.30444396E-01 0.98031753E+02</pdfrwt>
<totfact> 0.41998282E+03</totfact>
</mgrwt>
</event>
<event>
 8    1  0.3466492E-004  0.9835101E+02  0.7546771E-02  0.1284090E+00
         -2   -1    0    0    0  501 -0.00000000000E+00  0.00000000000E+00  0.27194895376E+02  0.27194895376E+02  0.00000000000E+00 0.  1.
          2   -1    0    0  501    0  0.00000000000E+00 -0.00000000000E+00 -0.55533498815E+03  0.55533498815E+03  0.00000000000E+00 0. -1.
         23    2    1    2    0    0  0.27965590020E+02  0.18643120104E+02 -0.88130905122E+02  0.13166293344E+03  0.91860935401E+02 0.  0.
         23    2    1    2    0    0 -0.27965590020E+02 -0.18643120104E+02 -0.44000918765E+03  0.45086695008E+03  0.92429872367E+02 0.  0.
          5    1    4    4  502    0 -0.35078096553E+02 -0.49269799358E+02 -0.35421324184E+03  0.35937041709E+03  0.47000000000E+01 0. -1.
         -5    1    4    4    0  502  0.71125065336E+01  0.30626679254E+02 -0.85795945808E+02  0.91496532986E+02  0.47000000000E+01 0.  1.
          5    1    3    3  503    0  0.36339108851E+02 -0.48942589005E+01 -0.97731772944E+02  0.10448958821E+03  0.47000000000E+01 0. -1.
         -5    1    3    3    0  503 -0.83735188307E+01  0.23537379004E+02  0.96008678224E+01  0.27173345229E+02  0.47000000000E+01 0.  1.
<mgrwt>
<rscale>  0 0.98217115E+02</rscale>
<asrwt>0</asrwt>
<pdfrwt beam="1">  1        2 0.85436155E-01 0.98351011E+02</pdfrwt>
<pdfrwt beam="2">  1       -2 0.41838299E-02 0.98351011E+02</pdfrwt>
<totfact> 0.13114122E+04</totfact>
</mgrwt>
</event>
<event>
 8    1  0.3466492E-004  0.1138082E+03  0.7546771E-02  0.1257673E+00
         -2   -1    0    0    0  501 -0.00000000000E+00  0.00000000000E+00  0.12341914022E+03  0.12341914022E+03  0.00000000000E+00 0.  1.
          2   -1    0    0  501    0  0.00000000000E+00 -0.00000000000E+00 -0.17243040046E+03  0.17243040046E+03  0.00000000000E+00 0. -1.
         23    2    1    2    0    0 -0.76366069385E+01 -0.48790227446E+02  0.72669256742E+02  0.13503005840E+03  0.10253531946E+03 0.  0.
         23    2    1    2    0    0  0.76366069385E+01  0.48790227446E+02 -0.12168051698E+03  0.16081948228E+03  0.92832933857E+02 0.  0.
          5    1    4    4  502    0 -0.23594612782E+02  0.49283201835E+02 -0.11656432466E+03  0.12882108337E+03  0.47000000000E+01 0. -1.
         -5    1    3    3    0  503 -0.17074016204E+02  0.11202487720E+02  0.71072256981E+02  0.74097054414E+02  0.47000000000E+01 0.  1.
          5    1    3    3  503    0  0.94374092657E+01 -0.59992715166E+02  0.15969997607E+01  0.60933003987E+02  0.47000000000E+01 0. -1.
         -5    1    4    4    0  502  0.31231219721E+02 -0.49297438847E+00 -0.51161923110E+01  0.31998398909E+02  0.47000000000E+01 0.  1.
<mgrwt>
<rscale>  0 0.11157927E+03</rscale>
<asrwt>0</asrwt>
<pdfrwt beam="1">  1        2 0.26527754E-01 0.11380815E+03</pdfrwt>
<pdfrwt beam="2">  1       -2 0.18987560E-01 0.11380815E+03</pdfrwt>
<totfact> 0.43810797E+03</totfact>
</mgrwt>
</event>
<event>
 8    1  0.3466492E-004  0.1021064E+03  0.7546771E-02  0.1276894E+00
          1   -1    0    0  501    0  0.00000000000E+00  0.00000000000E+00  0.15177159986E+03  0.15177159986E+03  0.00000000000E+00 0. -1.
         -1   -1    0    0    0  501 -0.00000000000E+00 -0.00000000000E+00 -0.26425812311E+03  0.26425812311E+03  0.00000000000E+00 0.  1.
         23    2    1    2    0    0  0.26517271840E+02  0.36157019683E+02  0.12314156268E+03  0.15996736141E+03  0.91734489051E+02 0.  0.
         23    2    1    2    0    0 -0.26517271840E+02 -0.36157019683E+02 -0.23562808593E+03  0.25606236155E+03  0.89648437502E+02 0.  0.
          5    1    3    3  502    0  0.55993117774E+02  0.41570713112E+02  0.70921237660E+02  0.99575425572E+02  0.47000000000E+01 0. -1.
         -5    1    3    3    0  502 -0.29475845933E+02 -0.54136934289E+01  0.52220325015E+02  0.60391935842E+02  0.47000000000E+01 0.  1.
          5    1    4    4  503    0 -0.47545221251E+02 -0.13964434706E+02 -0.61073908566E+02  0.78788741632E+02  0.47000000000E+01 0. -1.
         -5    1    4    4    0  503  0.21027949411E+02 -0.22192584977E+02 -0.17455417736E+03  0.17727361992E+03  0.47000000000E+01 0.  1.
<mgrwt>
<rscale>  0 0.10163564E+03</rscale>
<asrwt>0</asrwt>
<pdfrwt beam="1">  1        1 0.23349477E-01 0.10210638E+03</pdfrwt>
<pdfrwt beam="2">  1       -1 0.40655095E-01 0.10210638E+03</pdfrwt>
<totfact> 0.12241878E+03</totfact>
</mgrwt>
</event>
<event>
 8    1  0.3466492E-004  0.9460818E+02  0.7546771E-02  0.1292088E+00
          2   -1    0    0  501    0  0.00000000000E+00  0.00000000000E+00  0.54137355456E+03  0.54137355456E+03  0.00000000000E+00 0. -1.
         -2   -1    0    0    0  501 -0.00000000000E+00 -0.00000000000E+00 -0.16897561311E+02  0.16897561311E+02  0.00000000000E+00 0.  1.
         23    2    1    2    0    0  0.17126912628E+02 -0.16919469720E+02  0.22073165909E+03  0.24013383740E+03  0.91445037849E+02 0.  0.
         23    2    1    2    0    0 -0.17126912628E+02  0.16919469720E+02  0.30374433416E+03  0.31813727847E+03  0.91493758416E+02 0.  0.
          5    1    4    4  502    0  0.77949915873E+01 -0.31007153900E+02  0.57168616834E+02  0.65669979728E+02  0.47000000000E+01 0. -1.
         -5    1    3    3    0  503 -0.31008456872E+02  0.16004472424E+02  0.67907815630E+02  0.76493326237E+02  0.47000000000E+01 0.  1.
          5    1    3    3  503    0  0.48135369500E+02 -0.32923942143E+02  0.15282384346E+03  0.16364051116E+03  0.47000000000E+01 0. -1.
         -5    1    4    4    0  502 -0.24921904215E+02  0.47926623619E+02  0.24657571733E+03  0.25246729875E+03  0.47000000000E+01 0.  1.
<mgrwt>
<rscale>  0 0.94596397E+02</rscale>
<asrwt>0</asrwt>
<pdfrwt beam="1">  1        2 0.83288226E-01 0.94608178E+02</pdfrwt>
<pdfrwt beam="2">  1       -2 0.25996252E-02 0.94608178E+02</pdfrwt>
<totfact> 0.26941546E+04</totfact>
</mgrwt>
</event>
<event>
 8    1  0.3466492E-004  0.1002627E+03  0.7546771E-02  0.1284186E+00
         -1   -1    0    0    0  501 -0.00000000000E+00  0.00000000000E+00  0.57197129636E+02  0.57197129636E+02  0.00000000000E+00 0.  1.
          1   -1    0    0  501    0  0.00000000000E+00 -0.00000000000E+00 -0.19432306283E+03  0.19432306283E+03  0.00000000000E+00 0. -1.
         23    2    1    2    0    0 -0.19427254028E+02  0.10093711044E+02 -0.14778625284E+02  0.93338437926E+02  0.89522930177E+02 0.  0.
         23    2    1    2    0    0  0.19427254028E+02 -0.10093711044E+02 -0.12234730791E+03  0.15818175454E+03  0.97843254823E+02 0.  0.
          5    1    4    4  502    0 -0.52007138781E+00 -0.37328440853E+02 -0.11796104028E+03  0.12381671936E+03  0.47000000000E+01 0. -1.
         -5    1    3    3    0  503 -0.45717741473E+02  0.28106603173E+02  0.71856659480E+01  0.54349027797E+02  0.47000000000E+01 0.  1.
          5    1    3    3  503    0  0.26290487445E+02 -0.18012892128E+02 -0.21964291232E+02  0.38989410130E+02  0.47000000000E+01 0. -1.
         -5    1    4    4    0  502  0.19947325416E+02  0.27234729808E+02 -0.43862676359E+01  0.34365035178E+02  0.47000000000E+01 0.  1.
<mgrwt>
<rscale>  0 0.98172827E+02</rscale>
<asrwt>0</asrwt>
<pdfrwt beam="1">  1        1 0.29895856E-01 0.10026267E+03</pdfrwt>
<pdfrwt beam="2">  1       -1 0.87995583E-02 0.10026267E+03</pdfrwt>
<totfact> 0.10377513E+04</totfact>
</mgrwt>
</event>
<event>
 8    1  0.3466492E-004  0.9989048E+02  0.7546771E-02  0.1280746E+00
         -1   -1    0    0    0  501 -0.00000000000E+00  0.00000000000E+00  0.17518729796E+03  0.17518729796E+03  0.00000000000E+00 0.  1.
          1   -1    0    0  501    0  0.00000000000E+00 -0.00000000000E+00 -0.57445573052E+02  0.57445573052E+02  0.00000000000E+00 0. -1.
         23    2    1    2    0    0 -0.31521964004E+02 -0.21115163770E+02  0.72069224830E+02  0.12317499992E+03  0.92404670237E+02 0.  0.
         23    2    1    2    0    0  0.31521964004E+02  0.21115163770E+02  0.45672500076E+02  0.10945787109E+03  0.91954140337E+02 0.  0.
          5    1    4    4  502    0  0.59690157347E+02  0.32008453280E+02  0.38548608178E+02  0.78073946730E+02  0.47000000000E+01 0. -1.
         -5    1    4    4    0  502 -0.28168193344E+02 -0.10893289510E+02  0.71238918979E+01  0.31383924362E+02  0.47000000000E+01 0.  1.
          5    1    3    3  503    0 -0.12563212613E+02 -0.49232086098E+02  0.95744941503E+01  0.51917179729E+02  0.47000000000E+01 0. -1.
         -5    1    3    3    0  503 -0.18958751391E+02  0.28116922328E+02  0.62494730680E+02  0.71257820190E+02  0.47000000000E+01 0.  1.
<mgrwt>
<rscale>  0 0.99786159E+02</rscale>
<asrwt>0</asrwt>
<pdfrwt beam="1">  1        1 0.88377806E-02 0.99890477E+02</pdfrwt>
<pdfrwt beam="2">  1       -1 0.26951892E-01 0.99890477E+02</pdfrwt>
<totfact> 0.85452199E+03</totfact>
</mgrwt>
</event>
<event>
 8    1  0.3466492E-004  0.1034987E+03  0.7546771E-02  0.1273449E+00
          2   -1    0    0  501    0  0.00000000000E+00  0.00000000000E+00  0.19913926408E+03  0.19913926408E+03  0.00000000000E+00 0. -1.
         -2   -1    0    0    0  501 -0.00000000000E+00 -0.00000000000E+00 -0.59805145023E+02  0.59805145023E+02  0.00000000000E+00 0.  1.
         23    2    1    2    0    0  0.11734268080E+02  0.45550613241E+02  0.27627435083E+02  0.10712262050E+03  0.92192349133E+02 0.  0.
         23    2    1    2    0    0 -0.11734268080E+02 -0.45550613241E+02  0.11170668398E+03  0.15182178861E+03  0.91427134035E+02 0.  0.
          5    1    3    3  502    0  0.13376071348E+02  0.71445201633E+02  0.33397263100E+02  0.80129915161E+02  0.47000000000E+01 0. -1.
         -5    1    3    3    0  502 -0.16418032673E+01 -0.25894588392E+02 -0.57698280169E+01  0.26992705335E+02  0.47000000000E+01 0.  1.
          5    1    4    4  503    0  0.15100093526E+02  0.22670071787E+02  0.19010649097E+02  0.33547574554E+02  0.47000000000E+01 0. -1.
         -5    1    4    4    0  503 -0.26834361606E+02 -0.68220685028E+02  0.92696034879E+02  0.11827421406E+03  0.47000000000E+01 0.  1.
<mgrwt>
<rscale>  0 0.10332802E+03</rscale>
<asrwt>0</asrwt>
<pdfrwt beam="1">  1        2 0.30636810E-01 0.10349870E+03</pdfrwt>
<pdfrwt beam="2">  1       -2 0.92007916E-02 0.10349870E+03</pdfrwt>
<totfact> 0.11916558E+04</totfact>
</mgrwt>
</event>
<event>
 8    1  0.3466492E-004  0.1403169E+03  0.7546771E-02  0.1213020E+00
          3   -1    0    0  501    0  0.00000000000E+00  0.00000000000E+00  0.85944255948E+02  0.85944255948E+02  0.00000000000E+00 0. -1.
         -3   -1    0    0    0  501 -0.00000000000E+00 -0.00000000000E+00 -0.28704530792E+03  0.28704530792E+03  0.00000000000E+00 0.  1.
         23    2    1    2    0    0  0.35833693103E+02  0.10048577529E+03 -0.18486003963E+03  0.23208199689E+03  0.91144799249E+02 0.  0.
         23    2    1    2    0    0 -0.35833693103E+02 -0.10048577529E+03 -0.16241012339E+02  0.14090756698E+03  0.90607545781E+02 0.  0.
          5    1    4    4  502    0 -0.16840679181E+02 -0.11246468356E+03 -0.18594226186E+01  0.11383084369E+03  0.47000000000E+01 0. -1.
         -5    1    4    4    0  502 -0.18993013922E+02  0.11978908266E+02 -0.14381589720E+02  0.27076723287E+02  0.47000000000E+01 0.  1.
          5    1    3    3  503    0  0.19540260088E+02  0.70656564742E+02 -0.40876318662E+02  0.84066255613E+02  0.47000000000E+01 0. -1.
         -5    1    3    3    0  503  0.16293433015E+02  0.29829210550E+02 -0.14398372097E+03  0.14801574128E+03  0.47000000000E+01 0.  1.
<mgrwt>
<rscale>  0 0.14022967E+03</rscale>
<asrwt>0</asrwt>
<pdfrwt beam="1">  1        3 0.13222193E-01 0.14031685E+03</pdfrwt>
<pdfrwt beam="2">  1       -3 0.44160817E-01 0.14031685E+03</pdfrwt>
<totfact> 0.54909264E+02</totfact>
</mgrwt>
</event>
<event>
 8    1  0.3466492E-004  0.1098210E+03  0.7546771E-02  0.1261474E+00
         -2   -1    0    0    0  501 -0.00000000000E+00  0.00000000000E+00  0.25463580525E+02  0.25463580525E+02  0.00000000000E+00 0.  1.
          2   -1    0    0  501    0  0.00000000000E+00 -0.00000000000E+00 -0.52613131801E+03  0.52613131801E+03  0.00000000000E+00 0. -1.
         23    2    1    2    0    0  0.15695233050E+01  0.59539602630E+02 -0.34296175050E+03  0.36011584392E+03  0.92267172110E+02 0.  0.
         23    2    1    2    0    0 -0.15695233050E+01 -0.59539602630E+02 -0.15770598699E+03  0.19147905462E+03  0.90805409210E+02 0.  0.
          5    1    3    3  502    0 -0.22649453604E+02  0.74208520738E+02 -0.28538750121E+03  0.29578373543E+03  0.47000000000E+01 0. -1.
         -5    1    3    3    0  502  0.24218976909E+02 -0.14668918107E+02 -0.57574249292E+02  0.64332108488E+02  0.47000000000E+01 0.  1.
          5    1    4    4  503    0 -0.30217233430E+02  0.64457146684E+01 -0.23375437030E+02  0.39027291605E+02  0.47000000000E+01 0. -1.
         -5    1    4    4    0  503  0.28647710125E+02 -0.65985317299E+02 -0.13433054996E+03  0.15245176302E+03  0.47000000000E+01 0.  1.
<mgrwt>
<rscale>  0 0.10951344E+03</rscale>
<asrwt>0</asrwt>
<pdfrwt beam="1">  1        2 0.80943272E-01 0.10982103E+03</pdfrwt>
<pdfrwt beam="2">  1       -2 0.39174743E-02 0.10982103E+03</pdfrwt>
<totfact> 0.15481749E+04</totfact>
</mgrwt>
</event>
<event>
 8    1  0.3466492E-004  0.1086987E+03  0.7546771E-02  0.1266624E+00
          1   -1    0    0  501    0  0.00000000000E+00  0.00000000000E+00  0.55970855391E+03  0.55970855391E+03  0.00000000000E+00 0. -1.
         -1   -1    0    0    0  501 -0.00000000000E+00 -0.00000000000E+00 -0.21586930973E+02  0.21586930973E+02  0.00000000000E+00 0.  1.
         23    2    1    2    0    0  0.48954483395E+02 -0.97847812236E+01  0.19170435471E+03  0.22037686139E+03  0.96556294627E+02 0.  0.
         23    2    1    2    0    0 -0.48954483395E+02  0.97847812236E+01  0.34641726823E+03  0.36091862350E+03  0.88119496546E+02 0.  0.
          5    1    3    3  502    0  0.13700203025E+02 -0.46050544382E+02  0.13915474217E+03  0.14729046293E+03  0.47000000000E+01 0. -1.
         -5    1    4    4    0  503 -0.58744994237E+01 -0.36815244118E+02  0.12235539253E+03  0.12799532813E+03  0.47000000000E+01 0.  1.
          5    1    4    4  503    0 -0.43079983971E+02  0.46600025342E+02  0.22406187570E+03  0.23292329536E+03  0.47000000000E+01 0. -1.
         -5    1    3    3    0  502  0.35254280369E+02  0.36265763158E+02  0.52549612540E+02  0.73086398460E+02  0.47000000000E+01 0.  1.
<mgrwt>
<rscale>  0 0.10679415E+03</rscale>
<asrwt>0</asrwt>
<pdfrwt beam="1">  1        1 0.86108997E-01 0.10869867E+03</pdfrwt>
<pdfrwt beam="2">  1       -1 0.33210667E-02 0.10869867E+03</pdfrwt>
<totfact> 0.11754298E+04</totfact>
</mgrwt>
</event>
<event>
 8    1  0.3466492E-004  0.9286665E+02  0.7546771E-02  0.1297509E+00
         -1   -1    0    0    0  501 -0.00000000000E+00  0.00000000000E+00  0.32715091388E+03  0.32715091388E+03  0.00000000000E+00 0.  1.
          1   -1    0    0  501    0  0.00000000000E+00 -0.00000000000E+00 -0.74550933044E+02  0.74550933044E+02  0.00000000000E+00 0. -1.
         23    2    1    2    0    0 -0.10859429393E+01  0.74836832853E+00  0.28835305146E+03  0.30219055580E+03  0.90387556670E+02 0.  0.
         23    2    1    2    0    0  0.10859429393E+01 -0.74836832853E+00 -0.35753070625E+02  0.99511291123E+02  0.92857286600E+02 0.  0.
          5    1    4    4  502    0 -0.24933517882E+02 -0.15694219034E+02 -0.55691432072E+02  0.63179224681E+02  0.47000000000E+01 0. -1.
         -5    1    3    3    0  503 -0.35392268785E+02  0.27664319093E+02  0.12000014345E+03  0.12821876488E+03  0.47000000000E+01 0.  1.
          5    1    3    3  503    0  0.34306325845E+02 -0.26915950765E+02  0.16835290801E+03  0.17397179091E+03  0.47000000000E+01 0. -1.
         -5    1    4    4    0  502  0.26019460821E+02  0.14945850706E+02  0.19938361448E+02  0.36332066442E+02  0.47000000000E+01 0.  1.
<mgrwt>
<rscale>  0 0.92243030E+02</rscale>
<asrwt>0</asrwt>
<pdfrwt beam="1">  1        1 0.11469375E-01 0.92866652E+02</pdfrwt>
<pdfrwt beam="2">  1       -1 0.50330909E-01 0.92866652E+02</pdfrwt>
<totfact> 0.20651748E+03</totfact>
</mgrwt>
</event>
<event>
 8    1  0.3466492E-004  0.9256077E+02  0.7546771E-02  0.1297792E+00
          2   -1    0    0  501    0  0.00000000000E+00  0.00000000000E+00  0.41350001741E+03  0.41350001741E+03  0.00000000000E+00 0. -1.
         -2   -1    0    0    0  501 -0.00000000000E+00 -0.00000000000E+00 -0.20362761127E+02  0.20362761127E+02  0.00000000000E+00 0.  1.
         23    2    1    2    0    0  0.39908594620E+01 -0.92213276956E+01  0.18619773784E+03  0.20716593292E+03  0.90261654897E+02 0.  0.
         23    2    1    2    0    0 -0.39908594620E+01  0.92213276956E+01  0.20693951844E+03  0.22669684561E+03  0.92013779798E+02 0.  0.
          5    1    3    3  502    0  0.92727686205E+01  0.39542362908E+02  0.96970587033E+02  0.10523767126E+03  0.47000000000E+01 0. -1.
         -5    1    4    4    0  503 -0.40293110655E+02 -0.18930189073E+02  0.80829508681E+02  0.92397977782E+02  0.47000000000E+01 0.  1.
          5    1    4    4  503    0  0.36302251193E+02  0.28151516768E+02  0.12611000976E+03  0.13429886783E+03  0.47000000000E+01 0. -1.
         -5    1    3    3    0  502 -0.52819091585E+01 -0.48763690603E+02  0.89227150805E+02  0.10192826167E+03  0.47000000000E+01 0.  1.
<mgrwt>
<rscale>  0 0.92122268E+02</rscale>
<asrwt>0</asrwt>
<pdfrwt beam="1">  1        2 0.63615381E-01 0.92560767E+02</pdfrwt>
<pdfrwt beam="2">  1       -2 0.31327328E-02 0.92560767E+02</pdfrwt>
<totfact> 0.27381862E+04</totfact>
</mgrwt>
</event>
<event>
 8    1  0.3466492E-004  0.9394527E+02  0.7546771E-02  0.1295657E+00
          1   -1    0    0  501    0  0.00000000000E+00  0.00000000000E+00  0.56643534175E+03  0.56643534175E+03  0.00000000000E+00 0. -1.
         -1   -1    0    0    0  501 -0.00000000000E+00 -0.00000000000E+00 -0.15272682205E+02  0.15272682205E+02  0.00000000000E+00 0.  1.
         23    2    1    2    0    0 -0.21856459862E+01 -0.36299777022E+01  0.30963872075E+03  0.32255647278E+03  0.90269523975E+02 0.  0.
         23    2    1    2    0    0  0.21856459862E+01  0.36299777022E+01  0.24152393879E+03  0.25915155117E+03  0.93849665309E+02 0.  0.
          5    1    3    3  502    0  0.14240646889E+01 -0.43525655029E+02  0.21916962704E+03  0.22350374946E+03  0.47000000000E+01 0. -1.
         -5    1    4    4    0  503  0.26604837280E+02  0.29393691939E+02  0.48423808085E+02  0.62759554507E+02  0.47000000000E+01 0.  1.
          5    1    4    4  503    0 -0.24419191294E+02 -0.25763714237E+02  0.19310013070E+03  0.19639199666E+03  0.47000000000E+01 0. -1.
         -5    1    3    3    0  502 -0.36097106751E+01  0.39895677327E+02  0.90469093709E+02  0.99052723320E+02  0.47000000000E+01 0.  1.
<mgrwt>
<rscale>  0 0.93038125E+02</rscale>
<asrwt>0</asrwt>
<pdfrwt beam="1">  1        1 0.87143883E-01 0.93945268E+02</pdfrwt>
<pdfrwt beam="2">  1       -1 0.23496438E-02 0.93945268E+02</pdfrwt>
<totfact> 0.18814026E+04</totfact>
</mgrwt>
</event>
<event>
 8    1  0.3466492E-004  0.1035265E+03  0.7546771E-02  0.1275221E+00
          2   -1    0    0  501    0  0.00000000000E+00  0.00000000000E+00  0.10250989884E+03  0.10250989884E+03  0.00000000000E+00 0. -1.
         -2   -1    0    0    0  501 -0.00000000000E+00 -0.00000000000E+00 -0.12500842933E+03  0.12500842933E+03  0.00000000000E+00 0.  1.
         23    2    1    2    0    0  0.12563538628E+02 -0.31581102438E+02 -0.61977278120E+02  0.12066034693E+03  0.97788178136E+02 0.  0.
         23    2    1    2    0    0 -0.12563538628E+02  0.31581102438E+02  0.39478747625E+02  0.10685798124E+03  0.93299775491E+02 0.  0.
          5    1    3    3  502    0 -0.20434944019E+02  0.28140628443E+02 -0.19452702193E+02  0.40124550201E+02  0.47000000000E+01 0. -1.
         -5    1    3    3    0  502  0.32998482647E+02 -0.59721730881E+02 -0.42524575928E+02  0.80535796726E+02  0.47000000000E+01 0.  1.
          5    1    4    4  503    0  0.25572659434E+02  0.37800322302E+02  0.48646134889E+02  0.66868241462E+02  0.47000000000E+01 0. -1.
         -5    1    4    4    0  503 -0.38136198061E+02 -0.62192198638E+01 -0.91673872644E+01  0.39989739778E+02  0.47000000000E+01 0.  1.
<mgrwt>
<rscale>  0 0.10245274E+03</rscale>
<asrwt>0</asrwt>
<pdfrwt beam="1">  1        2 0.15770754E-01 0.10352650E+03</pdfrwt>
<pdfrwt beam="2">  1       -2 0.19232066E-01 0.10352650E+03</pdfrwt>
<totfact> 0.76281929E+03</totfact>
</mgrwt>
</event>
<event>
 8    1  0.3466492E-004  0.9718742E+02  0.7546771E-02  0.1288096E+00
         -2   -1    0    0    0  501 -0.00000000000E+00  0.00000000000E+00  0.21297112203E+03  0.21297112203E+03  0.00000000000E+00 0.  1.
          2   -1    0    0  501    0  0.00000000000E+00 -0.00000000000E+00 -0.25621547673E+03  0.25621547673E+03  0.00000000000E+00 0. -1.
         23    2    1    2    0    0 -0.34026375389E+02  0.84663742998E+01  0.19236272316E+03  0.21551986400E+03  0.90641716676E+02 0.  0.
         23    2    1    2    0    0  0.34026375389E+02 -0.84663742998E+01 -0.23560707787E+03  0.25366673476E+03  0.87216073435E+02 0.  0.
          5    1    3    3  502    0  0.15927380633E+02  0.31022786670E+02  0.38693812271E+02  0.52301011985E+02  0.47000000000E+01 0. -1.
         -5    1    4    4    0  503 -0.49894161931E+01  0.24568503043E+02 -0.21103589042E+02  0.33105242579E+02  0.47000000000E+01 0.  1.
          5    1    4    4  503    0  0.39015791582E+02 -0.33034877343E+02 -0.21450348882E+03  0.22056149218E+03  0.47000000000E+01 0. -1.
         -5    1    3    3    0  502 -0.49953756022E+02 -0.22556412371E+02  0.15366891089E+03  0.16321885202E+03  0.47000000000E+01 0.  1.
<mgrwt>
<rscale>  0 0.96380732E+02</rscale>
<asrwt>0</asrwt>
<pdfrwt beam="1">  1        2 0.39417765E-01 0.97187420E+02</pdfrwt>
<pdfrwt beam="2">  1       -2 0.32764788E-01 0.97187420E+02</pdfrwt>
<totfact> 0.11030802E+03</totfact>
</mgrwt>
</event>
<event>
 8    1  0.3466492E-004  0.9756410E+02  0.7546771E-02  0.1285817E+00
         -1   -1    0    0    0  501 -0.00000000000E+00  0.00000000000E+00  0.52990656445E+03  0.52990656445E+03  0.00000000000E+00 0.  1.
          1   -1    0    0  501    0  0.00000000000E+00 -0.00000000000E+00 -0.75986433755E+02  0.75986433755E+02  0.00000000000E+00 0. -1.
         23    2    1    2    0    0 -0.32850733493E+02 -0.10552488599E+02  0.49177080075E+03  0.50124393429E+03  0.90644555757E+02 0.  0.
         23    2    1    2    0    0  0.32850733493E+02  0.10552488599E+02 -0.37850670054E+02  0.10464906391E+03  0.91259123639E+02 0.  0.
          5    1    4    4  502    0 -0.18878364967E+02  0.32266596031E+02 -0.29247445519E+02  0.47697263576E+02  0.47000000000E+01 0. -1.
         -5    1    4    4    0  502  0.51729098460E+02 -0.21714107432E+02 -0.86032245348E+01  0.56951800335E+02  0.47000000000E+01 0.  1.
          5    1    3    3  503    0 -0.90325459678E+01  0.35664754259E+02  0.30723618116E+03  0.30946683602E+03  0.47000000000E+01 0. -1.
         -5    1    3    3    0  503 -0.23818187525E+02 -0.46217242858E+02  0.18453461959E+03  0.19177709828E+03  0.47000000000E+01 0.  1.
<mgrwt>
<rscale>  0 0.97420128E+02</rscale>
<asrwt>0</asrwt>
<pdfrwt beam="1">  1        1 0.11690221E-01 0.97564099E+02</pdfrwt>
<pdfrwt beam="2">  1       -1 0.81524084E-01 0.97564099E+02</pdfrwt>
<totfact> 0.80104181E+02</totfact>
</mgrwt>
</event>
<event>
 8    1  0.3466492E-004  0.1277770E+03  0.7546771E-02  0.1235543E+00
         -2   -1    0    0    0  501 -0.00000000000E+00  0.00000000000E+00  0.20192552953E+02  0.20192552953E+02  0.00000000000E+00 0.  1.
          2   -1    0    0  501    0  0.00000000000E+00 -0.00000000000E+00 -0.85816932123E+03  0.85816932123E+03  0.00000000000E+00 0. -1.
         23    2    1    2    0    0  0.86045972605E+02  0.15138653872E+02 -0.27036559308E+03  0.29903933694E+03  0.93240993518E+02 0.  0.
         23    2    1    2    0    0 -0.86045972605E+02 -0.15138653872E+02 -0.56761117520E+03  0.57932253724E+03  0.76151610018E+02 0.  0.
          5    1    4    4  502    0 -0.78599233248E+02  0.15677090149E+02 -0.46309640547E+03  0.47000423549E+03  0.47000000000E+01 0. -1.
         -5    1    4    4    0  502 -0.74467393575E+01 -0.30815744021E+02 -0.10451476973E+03  0.10931830175E+03  0.47000000000E+01 0.  1.
          5    1    3    3  503    0  0.37684776678E+02  0.22339841496E+02 -0.23350929328E+03  0.23762973500E+03  0.47000000000E+01 0. -1.
         -5    1    3    3    0  503  0.48361195927E+02 -0.72011876234E+01 -0.36856299807E+02  0.61409601938E+02  0.47000000000E+01 0.  1.
<mgrwt>
<rscale>  0 0.12469752E+03</rscale>
<asrwt>0</asrwt>
<pdfrwt beam="1">  1        2 0.13202606E+00 0.12777704E+03</pdfrwt>
<pdfrwt beam="2">  1       -2 0.31065464E-02 0.12777704E+03</pdfrwt>
<totfact> 0.12414716E+04</totfact>
</mgrwt>
</event>
<event>
 8    1  0.3466492E-004  0.1134839E+03  0.7546771E-02  0.1260220E+00
         -1   -1    0    0    0  501 -0.00000000000E+00  0.00000000000E+00  0.38363844679E+02  0.38363844679E+02  0.00000000000E+00 0.  1.
          1   -1    0    0  501    0  0.00000000000E+00 -0.00000000000E+00 -0.69971249294E+03  0.69971249294E+03  0.00000000000E+00 0. -1.
         23    2    1    2    0    0 -0.12885546681E+02 -0.49502179362E+02 -0.43425253884E+02  0.10981849398E+03  0.86935872177E+02 0.  0.
         23    2    1    2    0    0  0.12885546681E+02  0.49502179362E+02 -0.61792339438E+03  0.62825784363E+03  0.10130199255E+03 0.  0.
          5    1    4    4  502    0  0.16206787136E+02  0.80335582090E+02 -0.45340523968E+03  0.46077637425E+03  0.47000000000E+01 0. -1.
         -5    1    4    4    0  502 -0.33212404559E+01 -0.30833402728E+02 -0.16451815469E+03  0.16748146938E+03  0.47000000000E+01 0.  1.
          5    1    3    3  503    0  0.20031291963E+02 -0.20696645688E+02 -0.56782042977E+02  0.63842730245E+02  0.47000000000E+01 0. -1.
         -5    1    3    3    0  503 -0.32916838644E+02 -0.28805533674E+02  0.13356789094E+02  0.45975763739E+02  0.47000000000E+01 0.  1.
<mgrwt>
<rscale>  0 0.11018920E+03</rscale>
<asrwt>0</asrwt>
<pdfrwt beam="1">  1        1 0.10764806E+00 0.11348391E+03</pdfrwt>
<pdfrwt beam="2">  1       -1 0.59021308E-02 0.11348391E+03</pdfrwt>
<totfact> 0.37374052E+03</totfact>
</mgrwt>
</event>
<event>
 8    1  0.3466492E-004  0.9480694E+02  0.7546771E-02  0.1292013E+00
          2   -1    0    0  501    0  0.00000000000E+00  0.00000000000E+00  0.23711171159E+03  0.23711171159E+03  0.00000000000E+00 0. -1.
         -2   -1    0    0    0  501 -0.00000000000E+00 -0.00000000000E+00 -0.39417891298E+02  0.39417891298E+02  0.00000000000E+00 0.  1.
         23    2    1    2    0    0  0.36388545428E+00  0.25617105239E+02  0.69714382323E+02  0.11767944511E+03  0.91279725047E+02 0.  0.
         23    2    1    2    0    0 -0.36388545428E+00 -0.25617105239E+02  0.12797943797E+03  0.15885015778E+03  0.90544285244E+02 0.  0.
          5    1    3    3  502    0 -0.40760430629E+02  0.11426083523E+02  0.10175164659E+02  0.43790319313E+02  0.47000000000E+01 0.  1.
         -5    1    3    3    0  502  0.41124316083E+02  0.14191021715E+02  0.59539217664E+02  0.73889125795E+02  0.47000000000E+01 0. -1.
          5    1    4    4  503    0  0.31823604449E+02 -0.44542001616E+02  0.89554571226E+02  0.10506589806E+03  0.47000000000E+01 0. -1.
         -5    1    4    4    0  503 -0.32187489903E+02  0.18924896377E+02  0.38424866740E+02  0.53784259716E+02  0.47000000000E+01 0.  1.
<mgrwt>
<rscale>  0 0.94629480E+02</rscale>
<asrwt>0</asrwt>
<pdfrwt beam="1">  1        2 0.36478724E-01 0.94806944E+02</pdfrwt>
<pdfrwt beam="2">  1       -2 0.60642911E-02 0.94806944E+02</pdfrwt>
<totfact> 0.18534968E+04</totfact>
</mgrwt>
</event>
<event>
 8    1  0.3466492E-004  0.2931678E+03  0.7546771E-02  0.1089105E+00
          2   -1    0    0  501    0  0.00000000000E+00  0.00000000000E+00  0.28228257661E+04  0.28228257661E+04  0.00000000000E+00 0. -1.
         -2   -1    0    0    0  501 -0.00000000000E+00 -0.00000000000E+00 -0.43147459140E+02  0.43147459140E+02  0.00000000000E+00 0.  1.
         23    2    1    2    0    0 -0.20409058317E+03  0.18695653728E+03  0.59759019145E+03  0.66427935126E+03  0.86875235959E+02 0.  0.
         23    2    1    2    0    0  0.20409058317E+03 -0.18695653728E+03  0.21820881156E+04  0.22016938740E+04  0.96652252469E+02 0.  0.
          5    1    3    3  502    0 -0.14558620246E+02  0.48006789726E+02  0.65955575359E+02  0.82998995200E+02  0.47000000000E+01 0. -1.
         -5    1    3    3    0  502 -0.18953196292E+03  0.13894974755E+03  0.53163461609E+03  0.58128035606E+03  0.47000000000E+01 0.  1.
          5    1    4    4  503    0  0.17523133469E+03 -0.19478608454E+03  0.20023963586E+04  0.20194704520E+04  0.47000000000E+01 0. -1.
         -5    1    4    4    0  503  0.28859248481E+02  0.78295472664E+01  0.17969175695E+03  0.18222342207E+03  0.47000000000E+01 0.  1.
<mgrwt>
<rscale>  0 0.29239567E+03</rscale>
<asrwt>0</asrwt>
<pdfrwt beam="1">  1        2 0.43428074E+00 0.29316782E+03</pdfrwt>
<pdfrwt beam="2">  1       -2 0.66380728E-02 0.29316782E+03</pdfrwt>
<totfact> 0.33297739E+02</totfact>
</mgrwt>
</event>
<event>
 8    1  0.3466492E-004  0.1495753E+03  0.7546771E-02  0.1201429E+00
          1   -1    0    0  501    0  0.00000000000E+00  0.00000000000E+00  0.28338432119E+03  0.28338432119E+03  0.00000000000E+00 0. -1.
         -1   -1    0    0    0  501 -0.00000000000E+00 -0.00000000000E+00 -0.84047402437E+02  0.84047402437E+02  0.00000000000E+00 0.  1.
         23    2    1    2    0    0  0.11820811879E+03 -0.22713878475E+01  0.14850789673E+03  0.21077799747E+03  0.91621232684E+02 0.  0.
         23    2    1    2    0    0 -0.11820811879E+03  0.22713878475E+01  0.50829022019E+02  0.15665372615E+03  0.89322348190E+02 0.  0.
          5    1    3    3  502    0  0.71623669348E+02  0.38377613540E+02  0.11320370361E+03  0.13942725610E+03  0.47000000000E+01 0. -1.
         -5    1    4    4    0  503 -0.77859619556E+02 -0.30634381007E+02  0.88774906648E-01  0.83801453078E+02  0.47000000000E+01 0.  1.
          5    1    4    4  503    0 -0.40348499233E+02  0.32905768855E+02  0.50740247113E+02  0.72852273069E+02  0.47000000000E+01 0. -1.
         -5    1    3    3    0  502  0.46584449440E+02 -0.40649001388E+02  0.35304193122E+02  0.71350741379E+02  0.47000000000E+01 0.  1.
<mgrwt>
<rscale>  0 0.14922481E+03</rscale>
<asrwt>0</asrwt>
<pdfrwt beam="1">  1        1 0.43597587E-01 0.14957529E+03</pdfrwt>
<pdfrwt beam="2">  1       -1 0.12930370E-01 0.14957529E+03</pdfrwt>
<totfact> 0.37170936E+03</totfact>
</mgrwt>
</event>
<event>
 8    1  0.3466492E-004  0.1167365E+03  0.7546771E-02  0.1249100E+00
          1   -1    0    0  501    0  0.00000000000E+00  0.00000000000E+00  0.35702103853E+03  0.35702103853E+03  0.00000000000E+00 0. -1.
         -1   -1    0    0    0  501 -0.00000000000E+00 -0.00000000000E+00 -0.54023676950E+02  0.54023676950E+02  0.00000000000E+00 0.  1.
         23    2    1    2    0    0 -0.71616352108E+02 -0.11976662750E+02  0.38236222163E+02  0.12169050394E+03  0.89856706614E+02 0.  0.
         23    2    1    2    0    0  0.71616352108E+02  0.11976662750E+02  0.26476113941E+03  0.28935421154E+03  0.91405997898E+02 0.  0.
          5    1    4    4  502    0  0.15262810402E+01 -0.23276567193E+02  0.13922170894E+03  0.14124058325E+03  0.47000000000E+01 0. -1.
         -5    1    3    3    0  503 -0.33449004118E+02  0.11426527554E+02 -0.25372420201E+02  0.43763582066E+02  0.47000000000E+01 0.  1.
          5    1    3    3  503    0 -0.38167347990E+02 -0.23403190304E+02  0.63608642364E+02  0.77926921872E+02  0.47000000000E+01 0. -1.
         -5    1    4    4    0  502  0.70090071067E+02  0.35253229943E+02  0.12553943047E+03  0.14811362829E+03  0.47000000000E+01 0.  1.
<mgrwt>
<rscale>  0 0.11643300E+03</rscale>
<asrwt>0</asrwt>
<pdfrwt beam="1">  1        1 0.54926312E-01 0.11673645E+03</pdfrwt>
<pdfrwt beam="2">  1       -1 0.83113351E-02 0.11673645E+03</pdfrwt>
<totfact> 0.54115833E+03</totfact>
</mgrwt>
</event>
<event>
 8    1  0.3466492E-004  0.9500924E+02  0.7546771E-02  0.1292643E+00
          4   -1    0    0  501    0  0.00000000000E+00  0.00000000000E+00  0.64597330127E+03  0.64597330127E+03  0.00000000000E+00 0. -1.
         -4   -1    0    0    0  501 -0.00000000000E+00 -0.00000000000E+00 -0.13995297518E+02  0.13995297518E+02  0.00000000000E+00 0.  1.
         23    2    1    2    0    0  0.19588453148E+02 -0.72652071734E+01  0.36762489334E+03  0.37906056777E+03  0.90013116254E+02 0.  0.
         23    2    1    2    0    0 -0.19588453148E+02  0.72652071734E+01  0.26435311041E+03  0.28090803102E+03  0.92683678058E+02 0.  0.
          5    1    3    3  502    0  0.17724272218E+02  0.37905250609E+02  0.11697754546E+03  0.12432535538E+03  0.47000000000E+01 0. -1.
         -5    1    3    3    0  502  0.18641809300E+01 -0.45170457782E+02  0.25064734788E+03  0.25473521238E+03  0.47000000000E+01 0.  1.
          5    1    4    4  503    0  0.21155596686E+02 -0.49571512934E+01  0.21256778408E+03  0.21372712848E+03  0.47000000000E+01 0. -1.
         -5    1    4    4    0  503 -0.40744049834E+02  0.12222358467E+02  0.51785326330E+02  0.67180902543E+02  0.47000000000E+01 0.  1.
<mgrwt>
<rscale>  0 0.94351607E+02</rscale>
<asrwt>0</asrwt>
<pdfrwt beam="1">  1        4 0.99380484E-01 0.95009236E+02</pdfrwt>
<pdfrwt beam="2">  1       -4 0.21531232E-02 0.95009236E+02</pdfrwt>
<totfact> 0.11989340E+03</totfact>
</mgrwt>
</event>
<event>
 8    1  0.3466492E-004  0.1234787E+03  0.7546771E-02  0.1237494E+00
          3   -1    0    0  501    0  0.00000000000E+00  0.00000000000E+00  0.28407097850E+03  0.28407097850E+03  0.00000000000E+00 0. -1.
         -3   -1    0    0    0  501 -0.00000000000E+00 -0.00000000000E+00 -0.60579930751E+02  0.60579930751E+02  0.00000000000E+00 0.  1.
         23    2    1    2    0    0  0.80171483823E+02 -0.18803060809E+02  0.17003165119E+03  0.21009648821E+03  0.91917082388E+02 0.  0.
         23    2    1    2    0    0 -0.80171483823E+02  0.18803060809E+02  0.53459396552E+02  0.13455442104E+03  0.92010669099E+02 0.  0.
          5    1    3    3  502    0  0.35169594827E+02 -0.49435956285E+02  0.12599133497E+03  0.13991683481E+03  0.47000000000E+01 0. -1.
         -5    1    3    3    0  502  0.45001888996E+02  0.30632895476E+02  0.44040316221E+02  0.70179653399E+02  0.47000000000E+01 0.  1.
          5    1    4    4  503    0 -0.49704750408E+01 -0.24456524445E+02 -0.96530280642E+01  0.27167962030E+02  0.47000000000E+01 0. -1.
         -5    1    4    4    0  503 -0.75201008782E+02  0.43259585254E+02  0.63112424617E+02  0.10738645901E+03  0.47000000000E+01 0.  1.
<mgrwt>
<rscale>  0 0.12346125E+03</rscale>
<asrwt>0</asrwt>
<pdfrwt beam="1">  1        3 0.43703227E-01 0.12347868E+03</pdfrwt>
<pdfrwt beam="2">  1       -3 0.93199895E-02 0.12347868E+03</pdfrwt>
<totfact> 0.98417942E+02</totfact>
</mgrwt>
</event>
<event>
 8    1  0.3466492E-004  0.9458424E+02  0.7546771E-02  0.1295008E+00
          1   -1    0    0  501    0  0.00000000000E+00  0.00000000000E+00  0.31455168221E+03  0.31455168221E+03  0.00000000000E+00 0. -1.
         -1   -1    0    0    0  501 -0.00000000000E+00 -0.00000000000E+00 -0.38710626284E+02  0.38710626284E+02  0.00000000000E+00 0.  1.
         23    2    1    2    0    0 -0.15713411389E+02  0.18689640618E+02  0.43254086276E+02  0.10400525728E+03  0.91378135237E+02 0.  0.
         23    2    1    2    0    0  0.15713411389E+02 -0.18689640618E+02  0.23258696965E+03  0.24925705121E+03  0.86233202205E+02 0.  0.
          5    1    3    3  502    0  0.71163032548E+01  0.51339707863E+02  0.35890320322E+02  0.63218766741E+02  0.47000000000E+01 0. -1.
         -5    1    4    4    0  503 -0.33884545115E+02 -0.89573326682E+01  0.63118480826E+02  0.72349352644E+02  0.47000000000E+01 0.  1.
          5    1    4    4  503    0  0.49597956504E+02 -0.97323079494E+01  0.16946848883E+03  0.17690769857E+03  0.47000000000E+01 0. -1.
         -5    1    3    3    0  502 -0.22829714644E+02 -0.32650067245E+02  0.73637659545E+01  0.40786490544E+02  0.47000000000E+01 0.  1.
<mgrwt>
<rscale>  0 0.93318896E+02</rscale>
<asrwt>0</asrwt>
<pdfrwt beam="1">  1        1 0.48392565E-01 0.94584235E+02</pdfrwt>
<pdfrwt beam="2">  1       -1 0.59554812E-02 0.94584235E+02</pdfrwt>
<totfact> 0.10234670E+04</totfact>
</mgrwt>
</event>
<event>
 8    1  0.3466492E-004  0.1806199E+03  0.7546771E-02  0.1168070E+00
         -2   -1    0    0    0  501 -0.00000000000E+00  0.00000000000E+00  0.10842127639E+04  0.10842127639E+04  0.00000000000E+00 0.  1.
          2   -1    0    0  501    0  0.00000000000E+00 -0.00000000000E+00 -0.61452097855E+02  0.61452097855E+02  0.00000000000E+00 0. -1.
         23    2    1    2    0    0  0.10899277837E+03  0.10836496918E+03  0.92686602116E+03  0.94430089142E+03  0.94874443664E+02 0.  0.
         23    2    1    2    0    0 -0.10899277837E+03 -0.10836496918E+03  0.95894644909E+02  0.20136397037E+03  0.87916286075E+02 0.  0.
          5    1    3    3  502    0 -0.22667274503E+01  0.38399437648E+02  0.10387658410E+03  0.11086969644E+03  0.47000000000E+01 0. -1.
         -5    1    4    4    0  503 -0.96123103234E+02 -0.35176816180E+02  0.59465073112E+02  0.11847043636E+03  0.47000000000E+01 0. -1.
          5    1    4    4  503    0 -0.12869675132E+02 -0.73188153004E+02  0.36429571797E+02  0.82893534003E+02  0.47000000000E+01 0.  1.
         -5    1    3    3    0  502  0.11125950582E+03  0.69965531536E+02  0.82298943706E+03  0.83343119497E+03  0.47000000000E+01 0.  1.
<mgrwt>
<rscale>  0 0.17972430E+03</rscale>
<asrwt>0</asrwt>
<pdfrwt beam="1">  1        2 0.94541697E-02 0.18061991E+03</pdfrwt>
<pdfrwt beam="2">  1       -2 0.16680195E+00 0.18061991E+03</pdfrwt>
<totfact> 0.16501167E+02</totfact>
</mgrwt>
</event>
<event>
 7    1  0.3466492E-004  0.3311865E+03  0.7546771E-02  0.1110100E+00
          1   -1    0    0  501    0  0.00000000000E+00  0.00000000000E+00  0.20498708768E+03  0.20498708768E+03  0.00000000000E+00 0. -1.
         -1   -1    0    0    0  501 -0.00000000000E+00 -0.00000000000E+00 -0.24530346306E+03  0.24530346306E+03  0.00000000000E+00 0.  1.
         23    2    1    2    0    0  0.68999214623E+02  0.29766550820E+02 -0.21145872914E+02  0.11854966102E+03  0.89218467938E+02 0.  0.
          5    1    1    2  502    0 -0.77197479189E+02  0.50520381728E+02  0.13152817855E+03  0.16072806699E+03  0.47000000000E+01 0. -1.
         -5    1    3    3    0  503 -0.19413540580E+02  0.11238032602E+02 -0.15993490729E+02  0.27947462860E+02  0.47000000000E+01 0.  1.
          5    1    3    3  503    0  0.88412755203E+02  0.18528518219E+02 -0.51523821854E+01  0.90602198164E+02  0.47000000000E+01 0. -1.
         -5    1    1    2    0  502  0.81982645653E+01 -0.80286932548E+02 -0.15069868101E+03  0.17101282273E+03  0.47000000000E+01 0.  1.
<mgrwt>
<rscale>  0 0.25513749E+03</rscale>
<asrwt>0</asrwt>
<pdfrwt beam="1">  1        1 0.31536475E-01 0.33118652E+03</pdfrwt>
<pdfrwt beam="2">  1       -1 0.37738994E-01 0.33118652E+03</pdfrwt>
<totfact> 0.97585062E+02</totfact>
</mgrwt>
</event>
<event>
 8    1  0.3466492E-004  0.9380552E+02  0.7546771E-02  0.1295102E+00
          3   -1    0    0  501    0  0.00000000000E+00  0.00000000000E+00  0.54335471600E+03  0.54335471600E+03  0.00000000000E+00 0. -1.
         -3   -1    0    0    0  501 -0.00000000000E+00 -0.00000000000E+00 -0.17234389949E+02  0.17234389949E+02  0.00000000000E+00 0.  1.
         23    2    1    2    0    0 -0.19792839549E+02 -0.41609661585E+01  0.34018133577E+03  0.35232776954E+03  0.89456390764E+02 0.  0.
         23    2    1    2    0    0  0.19792839549E+02  0.41609661585E+01  0.18593899028E+03  0.20826133640E+03  0.91599159371E+02 0.  0.
          5    1    4    4  502    0  0.44065157434E+02  0.20583596629E+02  0.16461775476E+03  0.17171638749E+03  0.47000000000E+01 0. -1.
         -5    1    3    3    0  503 -0.28132205466E+02  0.38459974708E+02  0.16781658634E+03  0.17451385988E+03  0.47000000000E+01 0.  1.
          5    1    3    3  503    0  0.83393659166E+01 -0.42620940867E+02  0.17236474943E+03  0.17781390966E+03  0.47000000000E+01 0. -1.
         -5    1    4    4    0  502 -0.24272317885E+02 -0.16422630471E+02  0.21321235520E+02  0.36544948915E+02  0.47000000000E+01 0.  1.
<mgrwt>
<rscale>  0 0.93278293E+02</rscale>
<asrwt>0</asrwt>
<pdfrwt beam="1">  1        3 0.83593020E-01 0.93805523E+02</pdfrwt>
<pdfrwt beam="2">  1       -3 0.26514450E-02 0.93805523E+02</pdfrwt>
<totfact> 0.17947422E+03</totfact>
</mgrwt>
</event>
<event>
 8    1  0.3466492E-004  0.1448475E+03  0.7546771E-02  0.1209777E+00
          1   -1    0    0  501    0  0.00000000000E+00  0.00000000000E+00  0.20476792985E+02  0.20476792985E+02  0.00000000000E+00 0. -1.
         -1   -1    0    0    0  501 -0.00000000000E+00 -0.00000000000E+00 -0.11374564595E+04  0.11374564595E+04  0.00000000000E+00 0.  1.
         23    2    1    2    0    0 -0.60392409483E+02 -0.81095232996E+02 -0.76927989406E+03  0.78126904605E+03  0.91466316112E+02 0.  0.
         23    2    1    2    0    0  0.60392409483E+02  0.81095232996E+02 -0.34769977248E+03  0.37666420645E+03  0.10371650160E+03 0.  0.
          5    1    4    4  502    0  0.99258912402E+01  0.28921282808E+02 -0.12012966316E+02  0.33186823830E+02  0.47000000000E+01 0. -1.
         -5    1    4    4    0  502  0.50466518242E+02  0.52173950188E+02 -0.33568680616E+03  0.34347738263E+03  0.47000000000E+01 0.  1.
          5    1    3    3  503    0  0.20418576085E+02 -0.37112823206E+02 -0.19100993428E+03  0.19570683403E+03  0.47000000000E+01 0. -1.
         -5    1    3    3    0  503 -0.80810985568E+02 -0.43982409790E+02 -0.57826995978E+03  0.58556221202E+03  0.47000000000E+01 0.  1.
<mgrwt>
<rscale>  0 0.14267322E+03</rscale>
<asrwt>0</asrwt>
<pdfrwt beam="1">  1        1 0.31502763E-02 0.14484748E+03</pdfrwt>
<pdfrwt beam="2">  1       -1 0.17499328E+00 0.14484748E+03</pdfrwt>
<totfact> 0.77903003E+02</totfact>
</mgrwt>
</event>
<event>
 8    1  0.3466492E-004  0.9283557E+02  0.7546771E-02  0.1296636E+00
          1   -1    0    0  501    0  0.00000000000E+00  0.00000000000E+00  0.45841032153E+02  0.45841032153E+02  0.00000000000E+00 0. -1.
         -1   -1    0    0    0  501 -0.00000000000E+00 -0.00000000000E+00 -0.19093463044E+03  0.19093463044E+03  0.00000000000E+00 0.  1.
         23    2    1    2    0    0  0.44133605376E-01  0.15845179342E+02 -0.54325431662E+02  0.10756251995E+03  0.91473337730E+02 0.  0.
         23    2    1    2    0    0 -0.44133605376E-01 -0.15845179342E+02 -0.90768166629E+02  0.12921314265E+03  0.90587551600E+02 0.  0.
          5    1    4    4  502    0  0.17738071605E+01  0.25549592781E+02 -0.82748408101E+02  0.86748585731E+02  0.47000000000E+01 0. -1.
         -5    1    3    3    0  503  0.10322121438E+02 -0.24072556661E+02 -0.60050608870E+02  0.65682568470E+02  0.47000000000E+01 0.  1.
          5    1    3    3  503    0 -0.10277987833E+02  0.39917736003E+02  0.57251772077E+01  0.41879951475E+02  0.47000000000E+01 0. -1.
         -5    1    4    4    0  502 -0.18179407659E+01 -0.41394772122E+02 -0.80197585272E+01  0.42464556921E+02  0.47000000000E+01 0.  1.
<mgrwt>
<rscale>  0 0.92616631E+02</rscale>
<asrwt>0</asrwt>
<pdfrwt beam="1">  1        1 0.70524665E-02 0.92835571E+02</pdfrwt>
<pdfrwt beam="2">  1       -1 0.29374559E-01 0.92835571E+02</pdfrwt>
<totfact> 0.99361314E+03</totfact>
</mgrwt>
</event>
<event>
 8    1  0.3466492E-004  0.1102634E+03  0.7546771E-02  0.1260189E+00
          1   -1    0    0  501    0  0.00000000000E+00  0.00000000000E+00  0.32748823071E+03  0.32748823071E+03  0.00000000000E+00 0. -1.
         -1   -1    0    0    0  501 -0.00000000000E+00 -0.00000000000E+00 -0.52173605245E+02  0.52173605245E+02  0.00000000000E+00 0.  1.
         23    2    1    2    0    0  0.18430025338E+02 -0.59759182594E+02  0.35343224093E+02  0.11557037739E+03  0.90534760747E+02 0.  0.
         23    2    1    2    0    0 -0.18430025338E+02  0.59759182594E+02  0.23997140137E+03  0.26409145856E+03  0.90814091805E+02 0.  0.
          5    1    3    3  502    0  0.52832670724E+02 -0.39381955596E+02  0.36140721725E+02  0.75302531758E+02  0.47000000000E+01 0. -1.
         -5    1    3    3    0  502 -0.34402645386E+02 -0.20377226998E+02 -0.79749763160E+00  0.40267845636E+02  0.47000000000E+01 0.  1.
          5    1    4    4  503    0 -0.33794853858E+02  0.78314160061E+02  0.19409438233E+03  0.21206112106E+03  0.47000000000E+01 0. -1.
         -5    1    4    4    0  503  0.15364828520E+02 -0.18554977467E+02  0.45877019037E+02  0.52030337497E+02  0.47000000000E+01 0.  1.
<mgrwt>
<rscale>  0 0.11020590E+03</rscale>
<asrwt>0</asrwt>
<pdfrwt beam="1">  1        1 0.50382804E-01 0.11026343E+03</pdfrwt>
<pdfrwt beam="2">  1       -1 0.80267086E-02 0.11026343E+03</pdfrwt>
<totfact> 0.63229199E+03</totfact>
</mgrwt>
</event>
<event>
 8    1  0.3466492E-004  0.9210879E+02  0.7546771E-02  0.1297829E+00
          2   -1    0    0  501    0  0.00000000000E+00  0.00000000000E+00  0.62411649198E+02  0.62411649198E+02  0.00000000000E+00 0. -1.
         -2   -1    0    0    0  501 -0.00000000000E+00 -0.00000000000E+00 -0.36051980924E+03  0.36051980924E+03  0.00000000000E+00 0.  1.
         23    2    1    2    0    0  0.31741594753E+01  0.12642057709E+02 -0.31596390576E+03  0.32911581471E+03  0.91181866809E+02 0.  0.
         23    2    1    2    0    0 -0.31741594753E+01 -0.12642057709E+02  0.17855745718E+02  0.93815643732E+02  0.91173737678E+02 0.  0.
          5    1    3    3  502    0  0.28362887839E+02 -0.25154053193E+02 -0.21415724225E+03  0.21753756965E+03  0.47000000000E+01 0. -1.
         -5    1    4    4    0  503 -0.29138245506E+02 -0.12043225831E+02 -0.26997377730E+02  0.41773496907E+02  0.47000000000E+01 0.  1.
          5    1    4    4  503    0  0.25964086030E+02 -0.59883187810E+00  0.44853123448E+02  0.52042146824E+02  0.47000000000E+01 0. -1.
         -5    1    3    3    0  502 -0.25188728364E+02  0.37796110902E+02 -0.10180666351E+03  0.11157824506E+03  0.47000000000E+01 0.  1.
<mgrwt>
<rscale>  0 0.92106781E+02</rscale>
<asrwt>0</asrwt>
<pdfrwt beam="1">  1        2 0.96017923E-02 0.92108793E+02</pdfrwt>
<pdfrwt beam="2">  1       -2 0.55464585E-01 0.92108793E+02</pdfrwt>
<totfact> 0.19817714E+03</totfact>
</mgrwt>
</event>
<event>
 8    1  0.3466492E-004  0.1105404E+03  0.7546771E-02  0.1269089E+00
          3   -1    0    0  501    0  0.00000000000E+00  0.00000000000E+00  0.16322729725E+03  0.16322729725E+03  0.00000000000E+00 0. -1.
         -3   -1    0    0    0  501 -0.00000000000E+00 -0.00000000000E+00 -0.10247974938E+03  0.10247974938E+03  0.00000000000E+00 0.  1.
         23    2    1    2    0    0  0.55692343869E+01  0.71811417903E+01  0.11119944984E+03  0.14419747046E+03  0.91351013542E+02 0.  0.
         23    2    1    2    0    0 -0.55692343869E+01 -0.71811417903E+01 -0.50451901967E+02  0.12150957616E+03  0.11016622675E+03 0.  0.
          5    1    3    3  502    0 -0.12364182726E+02  0.37828769170E+02  0.98252173702E+02  0.10611064239E+03  0.47000000000E+01 0. -1.
         -5    1    3    3    0  502  0.17933417113E+02 -0.30647627380E+02  0.12947276135E+02  0.38086828073E+02  0.47000000000E+01 0.  1.
          5    1    4    4  503    0  0.20906803714E+02  0.19874623831E+02  0.24024079906E+02  0.37833074542E+02  0.47000000000E+01 0. -1.
         -5    1    4    4    0  503 -0.26476038101E+02 -0.27055765621E+02 -0.74475981872E+02  0.83676501616E+02  0.47000000000E+01 0.  1.
<mgrwt>
<rscale>  0 0.10552461E+03</rscale>
<asrwt>0</asrwt>
<pdfrwt beam="1">  1        3 0.25111892E-01 0.11054041E+03</pdfrwt>
<pdfrwt beam="2">  1       -3 0.15766115E-01 0.11054041E+03</pdfrwt>
<totfact> 0.11293984E+03</totfact>
</mgrwt>
</event>
<event>
 8    1  0.3466492E-004  0.9509854E+02  0.7546771E-02  0.1291992E+00
          2   -1    0    0  501    0  0.00000000000E+00  0.00000000000E+00  0.14091427887E+04  0.14091427887E+04  0.00000000000E+00 0. -1.
         -2   -1    0    0    0  501 -0.00000000000E+00 -0.00000000000E+00 -0.62970568111E+01  0.62970568111E+01  0.00000000000E+00 0.  1.
         23    2    1    2    0    0  0.14774896629E+02  0.11198795228E+02  0.70652015706E+03  0.71265037648E+03  0.91411794523E+02 0.  0.
         23    2    1    2    0    0 -0.14774896629E+02 -0.11198795228E+02  0.69632557484E+03  0.70278946904E+03  0.93273903304E+02 0.  0.
          5    1    3    3  502    0  0.17343239308E+02  0.49723022839E+02  0.46842731288E+03  0.47140153203E+03  0.47000000000E+01 0. -1.
         -5    1    3    3    0  502 -0.25683426796E+01 -0.38524227611E+02  0.23809284419E+03  0.24124884445E+03  0.47000000000E+01 0.  1.
          5    1    4    4  503    0 -0.51582531546E+02  0.43520048614E+00  0.49805719799E+03  0.50074345670E+03  0.47000000000E+01 0. -1.
         -5    1    4    4    0  503  0.36807634917E+02 -0.11633995714E+02  0.19826837684E+03  0.20204601234E+03  0.47000000000E+01 0.  1.
<mgrwt>
<rscale>  0 0.94638795E+02</rscale>
<asrwt>0</asrwt>
<pdfrwt beam="1">  1        2 0.21679095E+00 0.95098536E+02</pdfrwt>
<pdfrwt beam="2">  1       -2 0.96877909E-03 0.95098536E+02</pdfrwt>
<totfact> 0.31665308E+04</totfact>
</mgrwt>
</event>
<event>
 8    1  0.3466492E-004  0.9766805E+02  0.7546771E-02  0.1285985E+00
         -2   -1    0    0    0  501 -0.00000000000E+00  0.00000000000E+00  0.22914100171E+02  0.22914100171E+02  0.00000000000E+00 0.  1.
          2   -1    0    0  501    0  0.00000000000E+00 -0.00000000000E+00 -0.67374911593E+03  0.67374911593E+03  0.00000000000E+00 0. -1.
         23    2    1    2    0    0  0.27951163771E+02  0.12591261182E+02 -0.54170262116E+03  0.55020869325E+03  0.91367767550E+02 0.  0.
         23    2    1    2    0    0 -0.27951163771E+02 -0.12591261182E+02 -0.10913239460E+03  0.14645452285E+03  0.92732088821E+02 0.  0.
          5    1    3    3  502    0  0.22440517133E+01 -0.38400481206E+02 -0.24099340865E+03  0.24408921675E+03  0.47000000000E+01 0. -1.
         -5    1    3    3    0  502  0.25707112058E+02  0.50991742387E+02 -0.30070921251E+03  0.30611947650E+03  0.47000000000E+01 0.  1.
          5    1    4    4  503    0  0.16816563193E+02 -0.17031475435E+02 -0.96437803957E+02  0.99474660015E+02  0.47000000000E+01 0. -1.
         -5    1    4    4    0  503 -0.44767726964E+02  0.44402142528E+01 -0.12694590643E+02  0.46979862832E+02  0.47000000000E+01 0.  1.
<mgrwt>
<rscale>  0 0.97342823E+02</rscale>
<asrwt>0</asrwt>
<pdfrwt beam="1">  1        2 0.10365372E+00 0.97668049E+02</pdfrwt>
<pdfrwt beam="2">  1       -2 0.35252458E-02 0.97668049E+02</pdfrwt>
<totfact> 0.13556564E+04</totfact>
</mgrwt>
</event>
<event>
 8    1  0.3466492E-004  0.9640205E+02  0.7546771E-02  0.1291728E+00
          1   -1    0    0  501    0  0.00000000000E+00  0.00000000000E+00  0.83038363691E+03  0.83038363691E+03  0.00000000000E+00 0. -1.
         -1   -1    0    0    0  501 -0.00000000000E+00 -0.00000000000E+00 -0.10458825598E+02  0.10458825598E+02  0.00000000000E+00 0.  1.
         23    2    1    2    0    0  0.33705790122E+02  0.95920899940E+01  0.42431275486E+03  0.43512603862E+03  0.89806831956E+02 0.  0.
         23    2    1    2    0    0 -0.33705790122E+02 -0.95920899940E+01  0.39561205645E+03  0.40571642389E+03  0.82878398437E+02 0.  0.
          5    1    4    4  502    0  0.17443634422E+02 -0.16142243870E+02  0.43277642164E+02  0.49597346001E+02  0.47000000000E+01 0. -1.
         -5    1    3    3    0  503 -0.13068874956E+02  0.36997815899E+02  0.13188522705E+03  0.13767874560E+03  0.47000000000E+01 0.  1.
          5    1    3    3  503    0  0.46774665079E+02 -0.27405725905E+02  0.29242752781E+03  0.29744729302E+03  0.47000000000E+01 0. -1.
         -5    1    4    4    0  502 -0.51149424544E+02  0.65501538759E+01  0.35233441428E+03  0.35611907789E+03  0.47000000000E+01 0.  1.
<mgrwt>
<rscale>  0 0.94755553E+02</rscale>
<asrwt>0</asrwt>
<pdfrwt beam="1">  1        1 0.12775128E+00 0.96402052E+02</pdfrwt>
<pdfrwt beam="2">  1       -1 0.16090507E-02 0.96402052E+02</pdfrwt>
<totfact> 0.18921057E+04</totfact>
</mgrwt>
</event>
<event>
 8    1  0.3466492E-004  0.1007725E+03  0.7546771E-02  0.1280665E+00
          1   -1    0    0  501    0  0.00000000000E+00  0.00000000000E+00  0.46509054074E+03  0.46509054074E+03  0.00000000000E+00 0. -1.
         -1   -1    0    0    0  501 -0.00000000000E+00 -0.00000000000E+00 -0.23306893929E+02  0.23306893929E+02  0.00000000000E+00 0.  1.
         23    2    1    2    0    0 -0.25253270355E+02  0.17001474758E+02  0.30093730426E+03  0.31736155225E+03  0.96064124116E+02 0.  0.
         23    2    1    2    0    0  0.25253270355E+02 -0.17001474758E+02  0.14084634255E+03  0.17103588242E+03  0.92134700618E+02 0.  0.
          5    1    3    3  502    0  0.29987778366E+02 -0.89122425971E+01  0.16882394588E+03  0.17176236381E+03  0.47000000000E+01 0. -1.
         -5    1    4    4    0  503  0.43759445579E+02 -0.27855208419E+02  0.13964244480E+03  0.14903994130E+03  0.47000000000E+01 0. -1.
          5    1    4    4  503    0 -0.18506175224E+02  0.10853733662E+02  0.12038977480E+01  0.21995941117E+02  0.47000000000E+01 0.  1.
         -5    1    3    3    0  502 -0.55241048721E+02  0.25913717355E+02  0.13211335838E+03  0.14559918844E+03  0.47000000000E+01 0.  1.
<mgrwt>
<rscale>  0 0.99824551E+02</rscale>
<asrwt>0</asrwt>
<pdfrwt beam="1">  1        1 0.71552384E-01 0.10077249E+03</pdfrwt>
<pdfrwt beam="2">  1       -1 0.35856763E-02 0.10077249E+03</pdfrwt>
<totfact> 0.13288380E+04</totfact>
</mgrwt>
</event>
<event>
 8    1  0.3466492E-004  0.9229684E+02  0.7546771E-02  0.1297947E+00
          2   -1    0    0  501    0  0.00000000000E+00  0.00000000000E+00  0.72798134850E+03  0.72798134850E+03  0.00000000000E+00 0. -1.
         -2   -1    0    0    0  501 -0.00000000000E+00 -0.00000000000E+00 -0.14669433689E+02  0.14669433689E+02  0.00000000000E+00 0.  1.
         23    2    1    2    0    0 -0.53121443435E-01  0.70257917286E+01  0.18479926796E+03  0.20613952900E+03  0.91067949387E+02 0.  0.
         23    2    1    2    0    0  0.53121443435E-01 -0.70257917286E+01  0.52851264685E+03  0.53651125319E+03  0.92029029925E+02 0.  0.
          5    1    4    4  502    0 -0.32329121095E+02  0.23217825842E+02  0.35937308227E+03  0.36160108099E+03  0.47000000000E+01 0. -1.
         -5    1    4    4    0  502  0.32382242538E+02 -0.30243617571E+02  0.16913956457E+03  0.17491017220E+03  0.47000000000E+01 0.  1.
          5    1    3    3  503    0 -0.30248056974E+02 -0.12764371064E+02  0.15664167602E+03  0.16011426790E+03  0.47000000000E+01 0. -1.
         -5    1    3    3    0  503  0.30194935531E+02  0.19790162792E+02  0.28157591939E+02  0.46025261095E+02  0.47000000000E+01 0.  1.
<mgrwt>
<rscale>  0 0.92056337E+02</rscale>
<asrwt>0</asrwt>
<pdfrwt beam="1">  1        2 0.11199710E+00 0.92296841E+02</pdfrwt>
<pdfrwt beam="2">  1       -2 0.22568365E-02 0.92296841E+02</pdfrwt>
<totfact> 0.23556621E+04</totfact>
</mgrwt>
</event>
<event>
 8    1  0.3466492E-004  0.9406392E+02  0.7546771E-02  0.1295033E+00
         -2   -1    0    0    0  501 -0.00000000000E+00  0.00000000000E+00  0.32931339784E+03  0.32931339784E+03  0.00000000000E+00 0.  1.
          2   -1    0    0  501    0  0.00000000000E+00 -0.00000000000E+00 -0.26027305741E+02  0.26027305741E+02  0.00000000000E+00 0. -1.
         23    2    1    2    0    0  0.18437181107E+01 -0.24634806201E+01  0.14653622882E+03  0.17253331444E+03  0.91024228651E+02 0.  0.
         23    2    1    2    0    0 -0.18437181107E+01  0.24634806201E+01  0.15674986328E+03  0.18280738914E+03  0.94013583345E+02 0.  0.
          5    1    4    4  502    0  0.15244654406E+01 -0.36377913009E+02  0.13051685470E+03  0.13558176836E+03  0.47000000000E+01 0. -1.
         -5    1    3    3    0  503 -0.33581208961E+02 -0.25586028418E+02  0.10408156142E+03  0.11241620823E+03  0.47000000000E+01 0.  1.
          5    1    3    3  503    0  0.35424927072E+02  0.23122547798E+02  0.42454667394E+02  0.60117106204E+02  0.47000000000E+01 0. -1.
         -5    1    4    4    0  502 -0.33681835513E+01  0.38841393629E+02  0.26233008583E+02  0.47225620788E+02  0.47000000000E+01 0.  1.
<mgrwt>
<rscale>  0 0.93307934E+02</rscale>
<asrwt>0</asrwt>
<pdfrwt beam="1">  1        2 0.40042011E-02 0.94063924E+02</pdfrwt>
<pdfrwt beam="2">  1       -2 0.50663597E-01 0.94063924E+02</pdfrwt>
<totfact> 0.72004514E+03</totfact>
</mgrwt>
</event>
<event>
 8    1  0.3466492E-004  0.9301110E+02  0.7546771E-02  0.1297172E+00
         -1   -1    0    0    0  501 -0.00000000000E+00  0.00000000000E+00  0.23134934107E+02  0.23134934107E+02  0.00000000000E+00 0.  1.
          1   -1    0    0  501    0  0.00000000000E+00 -0.00000000000E+00 -0.39451814638E+03  0.39451814638E+03  0.00000000000E+00 0. -1.
         23    2    1    2    0    0 -0.51943773393E+01 -0.14650470588E+02 -0.24600508282E+03  0.26300107617E+03  0.91703039466E+02 0.  0.
         23    2    1    2    0    0  0.51943773393E+01  0.14650470588E+02 -0.12537812945E+03  0.15465200432E+03  0.89196128002E+02 0.  0.
          5    1    4    4  502    0  0.45071818698E+02  0.20805922481E+02 -0.71731055050E+02  0.87360113952E+02  0.47000000000E+01 0. -1.
         -5    1    3    3    0  503 -0.25903456052E+02 -0.46221811707E+02 -0.11746535837E+03  0.12894822732E+03  0.47000000000E+01 0.  1.
          5    1    3    3  503    0  0.20709078713E+02  0.31571341120E+02 -0.12853972446E+03  0.13405284885E+03  0.47000000000E+01 0. -1.
         -5    1    4    4    0  502 -0.39877441359E+02 -0.61554518931E+01 -0.53647074400E+02  0.67291890366E+02  0.47000000000E+01 0.  1.
<mgrwt>
<rscale>  0 0.92387182E+02</rscale>
<asrwt>0</asrwt>
<pdfrwt beam="1">  1        1 0.60695094E-01 0.93011103E+02</pdfrwt>
<pdfrwt beam="2">  1       -1 0.35592210E-02 0.93011103E+02</pdfrwt>
<totfact> 0.16395930E+04</totfact>
</mgrwt>
</event>
<event>
 8    1  0.3466492E-004  0.9215805E+02  0.7546771E-02  0.1297768E+00
         -3   -1    0    0    0  501 -0.00000000000E+00  0.00000000000E+00  0.96792599206E+03  0.96792599206E+03  0.00000000000E+00 0.  1.
          3   -1    0    0  501    0  0.00000000000E+00 -0.00000000000E+00 -0.91655608220E+01  0.91655608220E+01  0.00000000000E+00 0. -1.
         23    2    1    2    0    0  0.11184405426E+02 -0.53632438544E+01  0.37748053202E+03  0.38856744247E+03  0.91319494010E+02 0.  0.
         23    2    1    2    0    0 -0.11184405426E+02  0.53632438544E+01  0.58127989922E+03  0.58852411041E+03  0.91216511602E+02 0.  0.
          5    1    4    4  502    0 -0.23846112560E+01  0.47885525016E+02  0.28523239222E+03  0.28927204747E+03  0.47000000000E+01 0. -1.
         -5    1    4    4    0  502 -0.87997941699E+01 -0.42522281162E+02  0.29604750700E+03  0.29925206294E+03  0.47000000000E+01 0.  1.
          5    1    3    3  503    0 -0.73263960769E+00  0.34792985841E+02  0.71081319111E+02  0.79282611909E+02  0.47000000000E+01 0. -1.
         -5    1    3    3    0  503  0.11917045034E+02 -0.40156229695E+02  0.30639921291E+03  0.30928483056E+03  0.47000000000E+01 0.  1.
<mgrwt>
<rscale>  0 0.92132524E+02</rscale>
<asrwt>0</asrwt>
<pdfrwt beam="1">  1        3 0.14100870E-02 0.92158045E+02</pdfrwt>
<pdfrwt beam="2">  1       -3 0.14891161E+00 0.92158045E+02</pdfrwt>
<totfact> 0.12243506E+03</totfact>
</mgrwt>
</event>
<event>
 8    1  0.3466492E-004  0.2128398E+03  0.7546771E-02  0.1139391E+00
          1   -1    0    0  501    0  0.00000000000E+00  0.00000000000E+00  0.35978492601E+03  0.35978492601E+03  0.00000000000E+00 0. -1.
         -1   -1    0    0    0  501 -0.00000000000E+00 -0.00000000000E+00 -0.12626843148E+03  0.12626843148E+03  0.00000000000E+00 0.  1.
         23    2    1    2    0    0  0.18315953245E+03 -0.58843278780E+02  0.10117939229E+03  0.23566515689E+03  0.91054110101E+02 0.  0.
         23    2    1    2    0    0 -0.18315953245E+03  0.58843278780E+02  0.13233710224E+03  0.25038820059E+03  0.90394671197E+02 0.  0.
          5    1    4    4  502    0 -0.12416866263E+03  0.60590948572E+02  0.45987081679E+02  0.14569152862E+03  0.47000000000E+01 0. -1.
         -5    1    3    3    0  503  0.16155296060E+03 -0.14197880552E+02  0.68683630299E+02  0.17618305810E+03  0.47000000000E+01 0.  1.
          5    1    3    3  503    0  0.21606571852E+02 -0.44645398228E+02  0.32495761987E+02  0.59482098797E+02  0.47000000000E+01 0. -1.
         -5    1    4    4    0  502 -0.58990869816E+02 -0.17476697921E+01  0.86350020565E+02  0.10469667198E+03  0.47000000000E+01 0.  1.
<mgrwt>
<rscale>  0 0.21276948E+03</rscale>
<asrwt>0</asrwt>
<pdfrwt beam="1">  1        1 0.55351527E-01 0.21283984E+03</pdfrwt>
<pdfrwt beam="2">  1       -1 0.19425913E-01 0.21283984E+03</pdfrwt>
<totfact> 0.14627122E+03</totfact>
</mgrwt>
</event>
<event>
 8    1  0.3466492E-004  0.9768606E+02  0.7546771E-02  0.1288126E+00
         -1   -1    0    0    0  501 -0.00000000000E+00  0.00000000000E+00  0.12438841780E+03  0.12438841780E+03  0.00000000000E+00 0.  1.
          1   -1    0    0  501    0  0.00000000000E+00 -0.00000000000E+00 -0.11184952244E+03  0.11184952244E+03  0.00000000000E+00 0. -1.
         23    2    1    2    0    0 -0.15115118346E+02 -0.21099310789E+02  0.76236134152E+02  0.12391333069E+03  0.94174931135E+02 0.  0.
         23    2    1    2    0    0  0.15115118346E+02  0.21099310789E+02 -0.63697238795E+02  0.11232460955E+03  0.88802206968E+02 0.  0.
          5    1    3    3  502    0 -0.21426183930E+02  0.11573619389E+01 -0.16974067443E+02  0.27760219920E+02  0.47000000000E+01 0. -1.
         -5    1    4    4    0  503 -0.32156384168E+01 -0.33221113883E+02 -0.14734997564E+02  0.36785770228E+02  0.47000000000E+01 0.  1.
          5    1    4    4  503    0  0.18330756763E+02  0.54320424672E+02 -0.48962241231E+02  0.75538839324E+02  0.47000000000E+01 0. -1.
         -5    1    3    3    0  502  0.63110655834E+01 -0.22256672728E+02  0.93210201595E+02  0.96153110772E+02  0.47000000000E+01 0.  1.
<mgrwt>
<rscale>  0 0.96367446E+02</rscale>
<asrwt>0</asrwt>
<pdfrwt beam="1">  1        1 0.17207619E-01 0.97686055E+02</pdfrwt>
<pdfrwt beam="2">  1       -1 0.19136680E-01 0.97686055E+02</pdfrwt>
<totfact> 0.62436858E+03</totfact>
</mgrwt>
</event>
<event>
 8    1  0.3466492E-004  0.1297210E+03  0.7546771E-02  0.1232109E+00
         -1   -1    0    0    0  501 -0.00000000000E+00  0.00000000000E+00  0.34703768590E+03  0.34703768590E+03  0.00000000000E+00 0.  1.
          1   -1    0    0  501    0  0.00000000000E+00 -0.00000000000E+00 -0.57476618001E+02  0.57476618001E+02  0.00000000000E+00 0. -1.
         23    2    1    2    0    0 -0.71885888318E+02 -0.22259315226E+02  0.53689993780E+02  0.14039286597E+03  0.10566211871E+03 0.  0.
         23    2    1    2    0    0  0.71885888318E+02  0.22259315226E+02  0.23587107411E+03  0.26412143792E+03  0.91988653182E+02 0.  0.
          5    1    4    4  502    0  0.85035990450E+02  0.41759488490E+02  0.18968416741E+03  0.21207816464E+03  0.47000000000E+01 0. -1.
         -5    1    4    4    0  502 -0.13150102132E+02 -0.19500173263E+02  0.46186906708E+02  0.52043273289E+02  0.47000000000E+01 0.  1.
          5    1    3    3  503    0  0.15672157875E+02  0.17181987927E+02 -0.92631190351E+01  0.25470229992E+02  0.47000000000E+01 0. -1.
         -5    1    3    3    0  503 -0.87558046192E+02 -0.39441303154E+02  0.62953112815E+02  0.11492263598E+03  0.47000000000E+01 0.  1.
<mgrwt>
<rscale>  0 0.12691302E+03</rscale>
<asrwt>0</asrwt>
<pdfrwt beam="1">  1        1 0.88425568E-02 0.12972101E+03</pdfrwt>
<pdfrwt beam="2">  1       -1 0.53390412E-01 0.12972101E+03</pdfrwt>
<totfact> 0.26564147E+03</totfact>
</mgrwt>
</event>
<event>
 8    1  0.3466492E-004  0.2033958E+03  0.7546771E-02  0.1147172E+00
          1   -1    0    0  501    0  0.00000000000E+00  0.00000000000E+00  0.68234375098E+02  0.68234375098E+02  0.00000000000E+00 0. -1.
         -1   -1    0    0    0  501 -0.00000000000E+00 -0.00000000000E+00 -0.62217955973E+03  0.62217955973E+03  0.00000000000E+00 0.  1.
         23    2    1    2    0    0  0.17536212094E+03  0.40955753765E+02 -0.33757489026E+03  0.39345269909E+03  0.91754959838E+02 0.  0.
         23    2    1    2    0    0 -0.17536212094E+03 -0.40955753765E+02 -0.21637029437E+03  0.29696123574E+03  0.94554873073E+02 0.  0.
          5    1    3    3  502    0  0.14404795392E+03 -0.58557603094E+00 -0.20184856048E+03  0.24802235241E+03  0.47000000000E+01 0. -1.
         -5    1    3    3    0  502  0.31314167020E+02  0.41541329796E+02 -0.13572632979E+03  0.14543034668E+03  0.47000000000E+01 0.  1.
          5    1    4    4  503    0 -0.86286372584E+01 -0.27501432831E+02 -0.65231591231E+02  0.71470502189E+02  0.47000000000E+01 0. -1.
         -5    1    4    4    0  503 -0.16673348368E+03 -0.13454320934E+02 -0.15113870314E+03  0.22549073356E+03  0.47000000000E+01 0.  1.
<mgrwt>
<rscale>  0 0.20307348E+03</rscale>
<asrwt>0</asrwt>
<pdfrwt beam="1">  1        1 0.10497596E-01 0.20339585E+03</pdfrwt>
<pdfrwt beam="2">  1       -1 0.95719936E-01 0.20339585E+03</pdfrwt>
<totfact> 0.66605648E+02</totfact>
</mgrwt>
</event>
<event>
 8    1  0.3466492E-004  0.9308410E+02  0.7546771E-02  0.1296863E+00
          2   -1    0    0  501    0  0.00000000000E+00  0.00000000000E+00  0.57608949113E+03  0.57608949113E+03  0.00000000000E+00 0. -1.
         -2   -1    0    0    0  501 -0.00000000000E+00 -0.00000000000E+00 -0.14256871103E+03  0.14256871103E+03  0.00000000000E+00 0.  1.
         23    2    1    2    0    0  0.11435874320E+02 -0.10988287394E+02 -0.12383443524E+03  0.15358344020E+03  0.89450455953E+02 0.  0.
         23    2    1    2    0    0 -0.11435874320E+02  0.10988287394E+02  0.55735521535E+03  0.56507476196E+03  0.91723109676E+02 0.  0.
          5    1    4    4  502    0 -0.35967356881E+02 -0.27879897559E+02  0.23340131735E+03  0.23784281446E+03  0.47000000000E+01 0. -1.
         -5    1    3    3    0  503  0.23586177067E+02  0.34935181829E+02 -0.48840091222E+02  0.64685540800E+02  0.47000000000E+01 0.  1.
          5    1    3    3  503    0 -0.12150302747E+02 -0.45923469223E+02 -0.74994344020E+02  0.88897899398E+02  0.47000000000E+01 0. -1.
         -5    1    4    4    0  502  0.24531482561E+02  0.38868184953E+02  0.32395389800E+03  0.32723194750E+03  0.47000000000E+01 0.  1.
<mgrwt>
<rscale>  0 0.92519335E+02</rscale>
<asrwt>0</asrwt>
<pdfrwt beam="1">  1        2 0.88629151E-01 0.93084105E+02</pdfrwt>
<pdfrwt beam="2">  1       -2 0.21933648E-01 0.93084105E+02</pdfrwt>
<totfact> 0.94180575E+02</totfact>
</mgrwt>
</event>
<event>
 8    1  0.3466492E-004  0.1089896E+03  0.7546771E-02  0.1262500E+00
          3   -1    0    0  501    0  0.00000000000E+00  0.00000000000E+00  0.13028123419E+03  0.13028123419E+03  0.00000000000E+00 0. -1.
         -3   -1    0    0    0  501 -0.00000000000E+00 -0.00000000000E+00 -0.91208707628E+02  0.91208707628E+02  0.00000000000E+00 0.  1.
         23    2    1    2    0    0 -0.49600209008E+02  0.24251309207E+02  0.15603965753E+02  0.11010096602E+03  0.93970379585E+02 0.  0.
         23    2    1    2    0    0  0.49600209008E+02 -0.24251309207E+02  0.23468560814E+02  0.11138897580E+03  0.93853203738E+02 0.  0.
          5    1    4    4  502    0 -0.18812978887E+02  0.19530576156E+02  0.53660296891E+01  0.28040254175E+02  0.47000000000E+01 0. -1.
         -5    1    3    3    0  503  0.24107605009E+02  0.14626391460E+02  0.20928605447E+02  0.35428864960E+02  0.47000000000E+01 0.  1.
          5    1    3    3  503    0 -0.73707814017E+02  0.96249177473E+01 -0.53246396948E+01  0.74672101060E+02  0.47000000000E+01 0. -1.
         -5    1    4    4    0  502  0.68413187895E+02 -0.43781885363E+02  0.18102531125E+02  0.83348721628E+02  0.47000000000E+01 0.  1.
<mgrwt>
<rscale>  0 0.10896437E+03</rscale>
<asrwt>0</asrwt>
<pdfrwt beam="1">  1        3 0.20043267E-01 0.10898963E+03</pdfrwt>
<pdfrwt beam="2">  1       -3 0.14032109E-01 0.10898963E+03</pdfrwt>
<totfact> 0.20491958E+03</totfact>
</mgrwt>
</event>
<event>
 8    1  0.3466492E-004  0.9256280E+02  0.7546771E-02  0.1296802E+00
          1   -1    0    0  501    0  0.00000000000E+00  0.00000000000E+00  0.19193963862E+03  0.19193963862E+03  0.00000000000E+00 0. -1.
         -1   -1    0    0    0  501 -0.00000000000E+00 -0.00000000000E+00 -0.55378225986E+02  0.55378225986E+02  0.00000000000E+00 0.  1.
         23    2    1    2    0    0  0.14239860632E+01 -0.11450566372E+02  0.13717348224E+02  0.93504545983E+02  0.91770318026E+02 0.  0.
         23    2    1    2    0    0 -0.14239860632E+01  0.11450566372E+02  0.12284406441E+03  0.15381331862E+03  0.91840784069E+02 0.  0.
          5    1    3    3  502    0 -0.44378314061E+02  0.13688584025E+01  0.50698864550E+01  0.44934422005E+02  0.47000000000E+01 0. -1.
         -5    1    4    4    0  503  0.28032515099E+02 -0.24566908703E+02  0.24320739586E+02  0.44754254323E+02  0.47000000000E+01 0.  1.
          5    1    4    4  503    0 -0.29456501162E+02  0.36017475075E+02  0.98523324825E+02  0.10905906430E+03  0.47000000000E+01 0. -1.
         -5    1    3    3    0  502  0.45802300124E+02 -0.12819424775E+02  0.86474617694E+01  0.48570123978E+02  0.47000000000E+01 0.  1.
<mgrwt>
<rscale>  0 0.92545321E+02</rscale>
<asrwt>0</asrwt>
<pdfrwt beam="1">  1        1 0.29529175E-01 0.92562805E+02</pdfrwt>
<pdfrwt beam="2">  1       -1 0.85197272E-02 0.92562805E+02</pdfrwt>
<totfact> 0.10981219E+04</totfact>
</mgrwt>
</event>
<event>
 8    1  0.3466492E-004  0.1256405E+03  0.7546771E-02  0.1234790E+00
          1   -1    0    0  501    0  0.00000000000E+00  0.00000000000E+00  0.61246523017E+03  0.61246523017E+03  0.00000000000E+00 0. -1.
         -1   -1    0    0    0  501 -0.00000000000E+00 -0.00000000000E+00 -0.27962239627E+02  0.27962239627E+02  0.00000000000E+00 0.  1.
         23    2    1    2    0    0 -0.27305093889E+02 -0.80878114127E+02  0.19333675558E+03  0.22957889916E+03  0.89669015752E+02 0.  0.
         23    2    1    2    0    0  0.27305093889E+02  0.80878114127E+02  0.39116623496E+03  0.41084857063E+03  0.92188324207E+02 0.  0.
          5    1    4    4  502    0  0.50390529117E+02  0.86932197653E+02  0.33113568799E+03  0.34607708141E+03  0.47000000000E+01 0. -1.
         -5    1    4    4    0  502 -0.23085435228E+02 -0.60540835269E+01  0.60030546968E+02  0.64771489224E+02  0.47000000000E+01 0. -1.
          5    1    3    3  503    0 -0.68834222280E+01 -0.24117018199E+02  0.15687360317E+03  0.15893529954E+03  0.47000000000E+01 0. -1.
         -5    1    3    3    0  503 -0.20421671661E+02 -0.56761095928E+02  0.36463152414E+02  0.70643599627E+02  0.47000000000E+01 0.  1.
<mgrwt>
<rscale>  0 0.12517874E+03</rscale>
<asrwt>0</asrwt>
<pdfrwt beam="1">  1        1 0.94225410E-01 0.12564046E+03</pdfrwt>
<pdfrwt beam="2">  1       -1 0.43018835E-02 0.12564046E+03</pdfrwt>
<totfact> 0.72090863E+03</totfact>
</mgrwt>
</event>
<event>
 8    1  0.3466492E-004  0.9799565E+02  0.7546771E-02  0.1286552E+00
          2   -1    0    0  501    0  0.00000000000E+00  0.00000000000E+00  0.29172034671E+03  0.29172034671E+03  0.00000000000E+00 0. -1.
         -2   -1    0    0    0  501 -0.00000000000E+00 -0.00000000000E+00 -0.39363929081E+02  0.39363929081E+02  0.00000000000E+00 0.  1.
         23    2    1    2    0    0 -0.26340283940E+02 -0.21961080579E+02  0.20101265902E+03  0.22362744877E+03  0.91798949557E+02 0.  0.
         23    2    1    2    0    0  0.26340283940E+02  0.21961080579E+02  0.51343758607E+02  0.10745682702E+03  0.87947077874E+02 0.  0.
          5    1    4    4  502    0 -0.13749485131E+02  0.43934895418E+02  0.37193716763E+02  0.59369907726E+02  0.47000000000E+01 0. -1.
         -5    1    3    3    0  503  0.16533607315E+02 -0.35856452072E+02  0.15096375118E+03  0.15611274611E+03  0.47000000000E+01 0.  1.
          5    1    3    3  503    0 -0.42873891254E+02  0.13895371492E+02  0.50048907837E+02  0.67514702665E+02  0.47000000000E+01 0. -1.
         -5    1    4    4    0  502  0.40089769071E+02 -0.21973814839E+02  0.14150041843E+02  0.48086919291E+02  0.47000000000E+01 0.  1.
<mgrwt>
<rscale>  0 0.97083316E+02</rscale>
<asrwt>0</asrwt>
<pdfrwt beam="1">  1        2 0.44880052E-01 0.97995647E+02</pdfrwt>
<pdfrwt beam="2">  1       -2 0.60559893E-02 0.97995647E+02</pdfrwt>
<totfact> 0.14986896E+04</totfact>
</mgrwt>
</event>
<event>
 8    1  0.3466492E-004  0.1001492E+03  0.7546771E-02  0.1280255E+00
         -1   -1    0    0    0  501 -0.00000000000E+00  0.00000000000E+00  0.12542431371E+03  0.12542431371E+03  0.00000000000E+00 0.  1.
          1   -1    0    0  501    0  0.00000000000E+00 -0.00000000000E+00 -0.74587600925E+03  0.74587600925E+03  0.00000000000E+00 0. -1.
         23    2    1    2    0    0  0.36477177031E+02 -0.23785416028E+02  0.10162213669E+03  0.14231440025E+03  0.89610263880E+02 0.  0.
         23    2    1    2    0    0 -0.36477177031E+02  0.23785416028E+02 -0.72207383223E+03  0.72898592271E+03  0.90186062397E+02 0.  0.
          5    1    3    3  502    0 -0.11076068147E+02 -0.17014984058E+02 -0.81694506157E+01  0.22383451285E+02  0.47000000000E+01 0. -1.
         -5    1    3    3    0  502  0.47553245177E+02 -0.67704319696E+01  0.10979158731E+03  0.11993094896E+03  0.47000000000E+01 0.  1.
          5    1    4    4  503    0 -0.65238163259E+02  0.15865525041E+02 -0.56856895346E+03  0.57253862548E+03  0.47000000000E+01 0. -1.
         -5    1    4    4    0  503  0.28760986229E+02  0.79198909867E+01 -0.15350487877E+03  0.15644729722E+03  0.47000000000E+01 0.  1.
<mgrwt>
<rscale>  0 0.10001937E+03</rscale>
<asrwt>0</asrwt>
<pdfrwt beam="1">  1        1 0.11475015E+00 0.10014917E+03</pdfrwt>
<pdfrwt beam="2">  1       -1 0.19296048E-01 0.10014917E+03</pdfrwt>
<totfact> 0.55807897E+02</totfact>
</mgrwt>
</event>
<event>
 8    1  0.3466492E-004  0.1088637E+03  0.7546771E-02  0.1265253E+00
         -2   -1    0    0    0  501 -0.00000000000E+00  0.00000000000E+00  0.11612165818E+03  0.11612165818E+03  0.00000000000E+00 0.  1.
          2   -1    0    0  501    0  0.00000000000E+00 -0.00000000000E+00 -0.32652501121E+03  0.32652501121E+03  0.00000000000E+00 0. -1.
         23    2    1    2    0    0 -0.48081359463E+02 -0.66272868763E+01  0.81069659031E+02  0.13150710306E+03  0.91466335233E+02 0.  0.
         23    2    1    2    0    0  0.48081359463E+02  0.66272868763E+01 -0.29147301206E+03  0.31113956634E+03  0.97445240628E+02 0.  0.
          5    1    3    3  502    0  0.55631597505E+01 -0.19686237062E+02 -0.11265122438E+02  0.23822041467E+02  0.47000000000E+01 0. -1.
         -5    1    3    3    0  502 -0.53644519214E+02  0.13058950186E+02  0.92334781469E+02  0.10768506159E+03  0.47000000000E+01 0.  1.
          5    1    4    4  503    0  0.36993738573E+02 -0.10920645770E+02 -0.28670898185E+03  0.28933013579E+03  0.47000000000E+01 0. -1.
         -5    1    4    4    0  503  0.11087620890E+02  0.17547932647E+02 -0.47640302072E+01  0.21809430552E+02  0.47000000000E+01 0.  1.
<mgrwt>
<rscale>  0 0.10750930E+03</rscale>
<asrwt>0</asrwt>
<pdfrwt beam="1">  1        2 0.50234616E-01 0.10886374E+03</pdfrwt>
<pdfrwt beam="2">  1       -2 0.17864871E-01 0.10886374E+03</pdfrwt>
<totfact> 0.24519886E+03</totfact>
</mgrwt>
</event>
<event>
 8    1  0.3466492E-004  0.1317835E+03  0.7546771E-02  0.1225534E+00
         -1   -1    0    0    0  501 -0.00000000000E+00  0.00000000000E+00  0.56830026814E+02  0.56830026814E+02  0.00000000000E+00 0.  1.
          1   -1    0    0  501    0  0.00000000000E+00 -0.00000000000E+00 -0.30385056742E+03  0.30385056742E+03  0.00000000000E+00 0. -1.
         23    2    1    2    0    0  0.80560249834E+02 -0.48768089663E+02 -0.14130710939E+03  0.19322157520E+03  0.92187838332E+02 0.  0.
         23    2    1    2    0    0 -0.80560249834E+02  0.48768089663E+02 -0.10571343121E+03  0.16745901903E+03  0.89436642896E+02 0.  0.
          5    1    4    4  502    0 -0.71438824123E+02  0.45087415418E+00 -0.31285658906E+02  0.78131884226E+02  0.47000000000E+01 0. -1.
         -5    1    3    3    0  503  0.39772679861E+02  0.24637684208E+02 -0.41639599001E+02  0.62807863771E+02  0.47000000000E+01 0.  1.
          5    1    3    3  503    0  0.40787569973E+02 -0.73405773871E+02 -0.99667510390E+02  0.13041371143E+03  0.47000000000E+01 0. -1.
         -5    1    4    4    0  502 -0.91214257116E+01  0.48317215509E+02 -0.74427772304E+02  0.89327134801E+02  0.47000000000E+01 0.  1.
<mgrwt>
<rscale>  0 0.13130341E+03</rscale>
<asrwt>0</asrwt>
<pdfrwt beam="1">  1        1 0.46746240E-01 0.13178345E+03</pdfrwt>
<pdfrwt beam="2">  1       -1 0.87430812E-02 0.13178345E+03</pdfrwt>
<totfact> 0.61693038E+03</totfact>
</mgrwt>
</event>
<event>
 8    1  0.3466492E-004  0.1017225E+03  0.7546771E-02  0.1280636E+00
          1   -1    0    0  501    0  0.00000000000E+00  0.00000000000E+00  0.22632429493E+03  0.22632429493E+03  0.00000000000E+00 0. -1.
         -1   -1    0    0    0  501 -0.00000000000E+00 -0.00000000000E+00 -0.75185310103E+02  0.75185310103E+02  0.00000000000E+00 0.  1.
         23    2    1    2    0    0  0.41026945349E+02  0.65477268569E+01  0.17335605568E+03  0.19738916823E+03  0.84758944790E+02 0.  0.
         23    2    1    2    0    0 -0.41026945349E+02 -0.65477268569E+01 -0.22217070851E+02  0.10412043680E+03  0.92851408990E+02 0.  0.
          5    1    4    4  502    0 -0.45279344952E+02 -0.30893418565E+02  0.16952199785E+02  0.57568128921E+02  0.47000000000E+01 0. -1.
         -5    1    3    3    0  503  0.12404323393E+02  0.44585657034E+02  0.88381481358E+02  0.99875544049E+02  0.47000000000E+01 0.  1.
          5    1    3    3  503    0  0.28622621957E+02 -0.38037930177E+02  0.84974574317E+02  0.97513624178E+02  0.47000000000E+01 0. -1.
         -5    1    4    4    0  502  0.42523996024E+01  0.24345691708E+02 -0.39169270637E+02  0.46552307884E+02  0.47000000000E+01 0.  1.
<mgrwt>
<rscale>  0 0.99838597E+02</rscale>
<asrwt>0</asrwt>
<pdfrwt beam="1">  1        1 0.34819122E-01 0.10172250E+03</pdfrwt>
<pdfrwt beam="2">  1       -1 0.11566971E-01 0.10172250E+03</pdfrwt>
<totfact> 0.56919187E+03</totfact>
</mgrwt>
</event>
<event>
 8    1  0.3466492E-004  0.1376644E+03  0.7546771E-02  0.1217804E+00
         -1   -1    0    0    0  501 -0.00000000000E+00  0.00000000000E+00  0.21115283554E+03  0.21115283554E+03  0.00000000000E+00 0.  1.
          1   -1    0    0  501    0  0.00000000000E+00 -0.00000000000E+00 -0.89127731855E+02  0.89127731855E+02  0.00000000000E+00 0. -1.
         23    2    1    2    0    0 -0.55701830053E+02 -0.84443610956E+02  0.40602736024E+02  0.14352726099E+03  0.93370633343E+02 0.  0.
         23    2    1    2    0    0  0.55701830053E+02  0.84443610956E+02  0.81422367663E+02  0.15675330641E+03  0.87798518280E+02 0.  0.
          5    1    4    4  502    0  0.34400959589E+02 -0.26335757115E+01 -0.10723843511E+01  0.34836787307E+02  0.47000000000E+01 0. -1.
         -5    1    3    3    0  503 -0.61516661554E+02 -0.15646456024E+02  0.38305924293E+02  0.74286910494E+02  0.47000000000E+01 0.  1.
          5    1    3    3  503    0  0.58148315005E+01 -0.68797154932E+02  0.22968117310E+01  0.69240350492E+02  0.47000000000E+01 0. -1.
         -5    1    4    4    0  502  0.21300870464E+02  0.87077186667E+02  0.82494752014E+02  0.12191651910E+03  0.47000000000E+01 0.  1.
<mgrwt>
<rscale>  0 0.13672569E+03</rscale>
<asrwt>0</asrwt>
<pdfrwt beam="1">  1        1 0.13711959E-01 0.13766442E+03</pdfrwt>
<pdfrwt beam="2">  1       -1 0.32485052E-01 0.13766442E+03</pdfrwt>
<totfact> 0.35964894E+03</totfact>
</mgrwt>
</event>
<event>
 8    1  0.3466492E-004  0.1027723E+03  0.7546771E-02  0.1275836E+00
         -1   -1    0    0    0  501 -0.00000000000E+00  0.00000000000E+00  0.13118806341E+02  0.13118806341E+02  0.00000000000E+00 0.  1.
          1   -1    0    0  501    0  0.00000000000E+00 -0.00000000000E+00 -0.79833948665E+03  0.79833948665E+03  0.00000000000E+00 0. -1.
         23    2    1    2    0    0 -0.46891245822E+02  0.13865014204E+02 -0.33738094162E+03  0.35197752742E+03  0.87585686558E+02 0.  0.
         23    2    1    2    0    0  0.46891245822E+02 -0.13865014204E+02 -0.44783973869E+03  0.45948076557E+03  0.90394218972E+02 0.  0.
          5    1    3    3  502    0  0.23346723856E+02 -0.14429209104E+01 -0.45953866350E+02  0.51778367761E+02  0.47000000000E+01 0. -1.
         -5    1    4    4    0  503 -0.23866094583E+02 -0.19205181958E+02 -0.16110908927E+03  0.16406297002E+03  0.47000000000E+01 0.  1.
          5    1    4    4  503    0  0.70757340405E+02  0.53401677538E+01 -0.28673064942E+03  0.29541779555E+03  0.47000000000E+01 0. -1.
         -5    1    3    3    0  502 -0.70237969677E+02  0.15307935114E+02 -0.29142707527E+03  0.30019915966E+03  0.47000000000E+01 0.  1.
<mgrwt>
<rscale>  0 0.10215134E+03</rscale>
<asrwt>0</asrwt>
<pdfrwt beam="1">  1        1 0.12282147E+00 0.10277228E+03</pdfrwt>
<pdfrwt beam="2">  1       -1 0.20182777E-02 0.10277228E+03</pdfrwt>
<totfact> 0.14602783E+04</totfact>
</mgrwt>
</event>
<event>
 8    1  0.3466492E-004  0.9261981E+02  0.7546771E-02  0.1306365E+00
          1   -1    0    0  501    0  0.00000000000E+00  0.00000000000E+00  0.36094510054E+03  0.36094510054E+03  0.00000000000E+00 0. -1.
         -1   -1    0    0    0  501 -0.00000000000E+00 -0.00000000000E+00 -0.14217682216E+03  0.14217682216E+03  0.00000000000E+00 0.  1.
         23    2    1    2    0    0 -0.16042204108E+02 -0.18203252505E+02 -0.12502974983E+03  0.14706643009E+03  0.73534929138E+02 0.  0.
         23    2    1    2    0    0  0.16042204108E+02  0.18203252505E+02  0.34379802821E+03  0.35605549261E+03  0.89385227544E+02 0.  0.
          5    1    4    4  502    0  0.24856676905E+02  0.44958911408E+02  0.29530766055E+03  0.29977968991E+03  0.47000000000E+01 0. -1.
         -5    1    4    4    0  502 -0.88144727968E+01 -0.26755658903E+02  0.48490367653E+02  0.56275802696E+02  0.47000000000E+01 0. -1.
          5    1    3    3  503    0 -0.23039045486E+02  0.74224514486E+01 -0.64916274780E+01  0.25497482811E+02  0.47000000000E+01 0. -1.
         -5    1    3    3    0  503  0.69968413776E+01 -0.25625703954E+02 -0.11853812235E+03  0.12156894728E+03  0.47000000000E+01 0.  1.
<mgrwt>
<rscale>  0 0.88564872E+02</rscale>
<asrwt>0</asrwt>
<pdfrwt beam="1">  1        1 0.55530015E-01 0.92619812E+02</pdfrwt>
<pdfrwt beam="2">  1       -1 0.21873357E-01 0.92619812E+02</pdfrwt>
<totfact> 0.11823995E+03</totfact>
</mgrwt>
</event>
<event>
 8    1  0.3466492E-004  0.1030118E+03  0.7546771E-02  0.1274244E+00
          2   -1    0    0  501    0  0.00000000000E+00  0.00000000000E+00  0.23325798727E+03  0.23325798727E+03  0.00000000000E+00 0. -1.
         -2   -1    0    0    0  501 -0.00000000000E+00 -0.00000000000E+00 -0.93391068978E+02  0.93391068978E+02  0.00000000000E+00 0.  1.
         23    2    1    2    0    0  0.50100271379E+02 -0.71541432783E+01 -0.47149011227E+02  0.11328932081E+03  0.89723029328E+02 0.  0.
         23    2    1    2    0    0 -0.50100271379E+02  0.71541432783E+01  0.18701592952E+03  0.21335973544E+03  0.89365540638E+02 0.  0.
          5    1    4    4  502    0 -0.53806792781E+02 -0.29959347951E+02  0.88559384945E+02  0.10797031139E+03  0.47000000000E+01 0. -1.
         -5    1    3    3    0  503  0.26487920061E+02  0.28603164357E+02 -0.56861266485E+02  0.69101697133E+02  0.47000000000E+01 0.  1.
          5    1    3    3  503    0  0.23612351317E+02 -0.35757307635E+02  0.97122552575E+01  0.44187623677E+02  0.47000000000E+01 0. -1.
         -5    1    4    4    0  502  0.37065214029E+01  0.37113491229E+02  0.98456544577E+02  0.10538942405E+03  0.47000000000E+01 0.  1.
<mgrwt>
<rscale>  0 0.10293395E+03</rscale>
<asrwt>0</asrwt>
<pdfrwt beam="1">  1        2 0.35885844E-01 0.10301185E+03</pdfrwt>
<pdfrwt beam="2">  1       -2 0.14367857E-01 0.10301185E+03</pdfrwt>
<totfact> 0.49755930E+03</totfact>
</mgrwt>
</event>
<event>
 8    1  0.3466492E-004  0.9575517E+02  0.7546771E-02  0.1294026E+00
         -1   -1    0    0    0  501 -0.00000000000E+00  0.00000000000E+00  0.81315548257E+01  0.81315548257E+01  0.00000000000E+00 0.  1.
          1   -1    0    0  501    0  0.00000000000E+00 -0.00000000000E+00 -0.10774957577E+04  0.10774957577E+04  0.00000000000E+00 0. -1.
         23    2    1    2    0    0 -0.13174343094E+02 -0.28793084960E+02 -0.40867528333E+03  0.41803544609E+03  0.82070347409E+02 0.  0.
         23    2    1    2    0    0  0.13174343094E+02  0.28793084960E+02 -0.66068891954E+03  0.66759186643E+03  0.90368394185E+02 0.  0.
          5    1    4    4  502    0  0.50187525080E+02  0.31964367636E+01 -0.34919426849E+03  0.35282819053E+03  0.47000000000E+01 0. -1.
         -5    1    4    4    0  502 -0.37013181986E+02  0.25596648196E+02 -0.31149465105E+03  0.31476367591E+03  0.47000000000E+01 0.  1.
          5    1    3    3  503    0  0.10447155197E+02  0.25566906290E+02 -0.11105192751E+03  0.11453135096E+03  0.47000000000E+01 0. -1.
         -5    1    3    3    0  503 -0.23621498291E+02 -0.54359991250E+02 -0.29762335583E+03  0.30350409514E+03  0.47000000000E+01 0.  1.
<mgrwt>
<rscale>  0 0.93745684E+02</rscale>
<asrwt>0</asrwt>
<pdfrwt beam="1">  1        1 0.16576856E+00 0.95755166E+02</pdfrwt>
<pdfrwt beam="2">  1       -1 0.12510086E-02 0.95755166E+02</pdfrwt>
<totfact> 0.17748516E+04</totfact>
</mgrwt>
</event>
<event>
 8    1  0.3466492E-004  0.1088182E+03  0.7546771E-02  0.1263197E+00
         -1   -1    0    0    0  501 -0.00000000000E+00  0.00000000000E+00  0.23422943278E+03  0.23422943278E+03  0.00000000000E+00 0.  1.
          1   -1    0    0  501    0  0.00000000000E+00 -0.00000000000E+00 -0.78451291287E+02  0.78451291287E+02  0.00000000000E+00 0. -1.
         23    2    1    2    0    0 -0.57360900474E+02  0.18381635124E+02 -0.15824462909E+02  0.10996276406E+03  0.90626918958E+02 0.  0.
         23    2    1    2    0    0  0.57360900474E+02 -0.18381635124E+02  0.17160260440E+03  0.20271796001E+03  0.89548646328E+02 0.  0.
          5    1    4    4  502    0  0.63434620836E+02  0.30067558619E+01  0.55681381660E+02  0.84590176528E+02  0.47000000000E+01 0. -1.
         -5    1    4    4    0  502 -0.60737203616E+01 -0.21388390986E+02  0.11592122274E+03  0.11812778348E+03  0.47000000000E+01 0.  1.
          5    1    3    3  503    0 -0.50198202758E+02  0.52884177553E+02 -0.74946705329E+01  0.73449682654E+02  0.47000000000E+01 0. -1.
         -5    1    3    3    0  503 -0.71626977164E+01 -0.34502542428E+02 -0.83297923764E+01  0.36513081404E+02  0.47000000000E+01 0.  1.
<mgrwt>
<rscale>  0 0.10859339E+03</rscale>
<asrwt>0</asrwt>
<pdfrwt beam="1">  1        1 0.12069429E-01 0.10881818E+03</pdfrwt>
<pdfrwt beam="2">  1       -1 0.36035297E-01 0.10881818E+03</pdfrwt>
<totfact> 0.35097683E+03</totfact>
</mgrwt>
</event>
<event>
 8    1  0.3466492E-004  0.9338723E+02  0.7546771E-02  0.1297797E+00
         -1   -1    0    0    0  501 -0.00000000000E+00  0.00000000000E+00  0.17193714979E+03  0.17193714979E+03  0.00000000000E+00 0.  1.
          1   -1    0    0  501    0  0.00000000000E+00 -0.00000000000E+00 -0.19871029980E+03  0.19871029980E+03  0.00000000000E+00 0. -1.
         23    2    1    2    0    0 -0.13190399939E+02 -0.19355352291E+02  0.14805023450E+03  0.17244454530E+03  0.85262142579E+02 0.  0.
         23    2    1    2    0    0  0.13190399939E+02  0.19355352291E+02 -0.17482338451E+03  0.19820290429E+03  0.90402207846E+02 0.  0.
          5    1    3    3  502    0  0.35144411820E+02 -0.48670682165E+01  0.44071135520E+02  0.56772995528E+02  0.47000000000E+01 0. -1.
         -5    1    3    3    0  502 -0.48334811759E+02 -0.14488284074E+02  0.10397909898E+03  0.11567154978E+03  0.47000000000E+01 0.  1.
          5    1    4    4  503    0 -0.15539602737E+02  0.31344171869E+02 -0.15917980634E+03  0.16304673290E+03  0.47000000000E+01 0. -1.
         -5    1    4    4    0  503  0.28730002676E+02 -0.11988819578E+02 -0.15643578172E+02  0.35156171388E+02  0.47000000000E+01 0.  1.
<mgrwt>
<rscale>  0 0.92120084E+02</rscale>
<asrwt>0</asrwt>
<pdfrwt beam="1">  1        1 0.30570815E-01 0.93387234E+02</pdfrwt>
<pdfrwt beam="2">  1       -1 0.26451869E-01 0.93387234E+02</pdfrwt>
<totfact> 0.18050404E+03</totfact>
</mgrwt>
</event>
<event>
 8    1  0.3466492E-004  0.1016118E+03  0.7546771E-02  0.1276971E+00
         -2   -1    0    0    0  501 -0.00000000000E+00  0.00000000000E+00  0.75127935059E+02  0.75127935059E+02  0.00000000000E+00 0.  1.
          2   -1    0    0  501    0  0.00000000000E+00 -0.00000000000E+00 -0.13821173812E+03  0.13821173812E+03  0.00000000000E+00 0. -1.
         23    2    1    2    0    0  0.25443095334E+02  0.33924330706E+02 -0.23164463383E+02  0.10421871473E+03  0.92340331498E+02 0.  0.
         23    2    1    2    0    0 -0.25443095334E+02 -0.33924330706E+02 -0.39919339674E+02  0.10912095845E+03  0.92280109335E+02 0.  0.
          5    1    3    3  502    0  0.48208203184E+02  0.12228944206E+02 -0.43695266732E+02  0.66369754146E+02  0.47000000000E+01 0. -1.
         -5    1    4    4    0  503 -0.46460258095E+02 -0.51338737574E+02 -0.13212982870E+02  0.70646262988E+02  0.47000000000E+01 0.  1.
          5    1    4    4  503    0  0.21017162761E+02  0.17414406867E+02 -0.26706356804E+02  0.38474695461E+02  0.47000000000E+01 0. -1.
         -5    1    3    3    0  502 -0.22765107850E+02  0.21695386501E+02  0.20530803349E+02  0.37848960580E+02  0.47000000000E+01 0.  1.
<mgrwt>
<rscale>  0 0.10159807E+03</rscale>
<asrwt>0</asrwt>
<pdfrwt beam="1">  1        2 0.21263344E-01 0.10161175E+03</pdfrwt>
<pdfrwt beam="2">  1       -2 0.11558144E-01 0.10161175E+03</pdfrwt>
<totfact> 0.12403516E+04</totfact>
</mgrwt>
</event>
<event>
 8    1  0.3466492E-004  0.1070730E+03  0.7546771E-02  0.1266354E+00
         -4   -1    0    0    0  501 -0.00000000000E+00  0.00000000000E+00  0.40929027663E+03  0.40929027663E+03  0.00000000000E+00 0.  1.
          4   -1    0    0  501    0  0.00000000000E+00 -0.00000000000E+00 -0.54788811647E+02  0.54788811647E+02  0.00000000000E+00 0. -1.
         23    2    1    2    0    0  0.16784334367E+02 -0.55216672759E+02  0.34013882274E+03  0.35659366221E+03  0.90188837242E+02 0.  0.
         23    2    1    2    0    0 -0.16784334367E+02  0.55216672759E+02  0.14362642243E+02  0.10748542607E+03  0.89533437854E+02 0.  0.
          5    1    4    4  502    0 -0.24890362399E+02  0.42427300416E+01 -0.29837972132E+02  0.39369092947E+02  0.47000000000E+01 0. -1.
         -5    1    3    3    0  503  0.32372953586E+02 -0.74763725139E+02  0.26261435136E+03  0.27500183683E+03  0.47000000000E+01 0.  1.
          5    1    3    3  503    0 -0.15588619220E+02  0.19547052380E+02  0.77524471385E+02  0.81591825383E+02  0.47000000000E+01 0. -1.
         -5    1    4    4    0  502  0.81060280321E+01  0.50973942717E+02  0.44200614375E+02  0.68116333120E+02  0.47000000000E+01 0.  1.
<mgrwt>
<rscale>  0 0.10693484E+03</rscale>
<asrwt>0</asrwt>
<pdfrwt beam="1">  1        4 0.84290482E-02 0.10707297E+03</pdfrwt>
<pdfrwt beam="2">  1       -4 0.62967733E-01 0.10707297E+03</pdfrwt>
<totfact> 0.38423583E+02</totfact>
</mgrwt>
</event>
<event>
 8    1  0.3466492E-004  0.1263241E+03  0.7546771E-02  0.1237339E+00
          1   -1    0    0  501    0  0.00000000000E+00  0.00000000000E+00  0.44904969969E+03  0.44904969969E+03  0.00000000000E+00 0. -1.
         -1   -1    0    0    0  501 -0.00000000000E+00 -0.00000000000E+00 -0.74713885088E+02  0.74713885088E+02  0.00000000000E+00 0.  1.
         23    2    1    2    0    0  0.71949820403E+02  0.14036837021E+01 -0.12999929988E+02  0.11634887503E+03  0.90494837181E+02 0.  0.
         23    2    1    2    0    0 -0.71949820403E+02 -0.14036837021E+01  0.38733574459E+03  0.40741470975E+03  0.10382205787E+03 0.  0.
          5    1    3    3  502    0 -0.59961672877E+01 -0.30272330507E+02 -0.10112283409E+01  0.31232684790E+02  0.47000000000E+01 0.  1.
         -5    1    4    4    0  503  0.25736605718E+02 -0.31016665605E+01  0.55015586199E+02  0.60998343700E+02  0.47000000000E+01 0.  1.
          5    1    4    4  503    0 -0.97686426121E+02  0.16979828584E+01  0.33232015839E+03  0.34641636605E+03  0.47000000000E+01 0. -1.
         -5    1    3    3    0  502  0.77945987690E+02  0.31676014209E+02 -0.11988701647E+02  0.85116190237E+02  0.47000000000E+01 0. -1.
<mgrwt>
<rscale>  0 0.12355863E+03</rscale>
<asrwt>0</asrwt>
<pdfrwt beam="1">  1        1 0.69084567E-01 0.12632405E+03</pdfrwt>
<pdfrwt beam="2">  1       -1 0.11494444E-01 0.12632405E+03</pdfrwt>
<totfact> 0.24873521E+03</totfact>
</mgrwt>
</event>
<event>
 8    1  0.3466492E-004  0.1009711E+03  0.7546771E-02  0.1279421E+00
         -1   -1    0    0    0  501 -0.00000000000E+00  0.00000000000E+00  0.90989666237E+02  0.90989666237E+02  0.00000000000E+00 0.  1.
          1   -1    0    0  501    0  0.00000000000E+00 -0.00000000000E+00 -0.20963261582E+03  0.20963261582E+03  0.00000000000E+00 0. -1.
         23    2    1    2    0    0 -0.14308765960E+02  0.36513413925E+02 -0.16348048149E+03  0.19214847504E+03  0.93044067256E+02 0.  0.
         23    2    1    2    0    0  0.14308765960E+02 -0.36513413925E+02  0.44837531905E+02  0.10847380702E+03  0.90654246247E+02 0.  0.
          5    1    3    3  502    0  0.16936309347E+02  0.58281362112E+02 -0.82394059651E+02  0.10244230967E+03  0.47000000000E+01 0. -1.
         -5    1    3    3    0  502 -0.31245075306E+02 -0.21767948187E+02 -0.81086421838E+02  0.89706165371E+02  0.47000000000E+01 0.  1.
          5    1    4    4  503    0 -0.26523913661E+02  0.39664461257E+00 -0.11751131915E+02  0.29391400513E+02  0.47000000000E+01 0. -1.
         -5    1    4    4    0  503  0.40832679621E+02 -0.36910058538E+02  0.56588663819E+02  0.79082406508E+02  0.47000000000E+01 0.  1.
<mgrwt>
<rscale>  0 0.10041713E+03</rscale>
<asrwt>0</asrwt>
<pdfrwt beam="1">  1        1 0.32251172E-01 0.10097113E+03</pdfrwt>
<pdfrwt beam="2">  1       -1 0.13998410E-01 0.10097113E+03</pdfrwt>
<totfact> 0.46617307E+03</totfact>
</mgrwt>
</event>
<event>
 7    1  0.3466492E-004  0.1532316E+03  0.7546771E-02  0.1209704E+00
          1   -1    0    0  501    0  0.00000000000E+00  0.00000000000E+00  0.48938719578E+03  0.48938719578E+03  0.00000000000E+00 0. -1.
         -1   -1    0    0    0  501 -0.00000000000E+00 -0.00000000000E+00 -0.39196564997E+02  0.39196564997E+02  0.00000000000E+00 0.  1.
         23    2    1    2    0    0  0.52149844213E+02  0.45231931119E+02  0.13117129524E+03  0.17467237832E+03  0.92406694597E+02 0.  0.
          5    1    1    2  502    0 -0.94458718582E+02 -0.13503505346E+02  0.24373138371E+03  0.26178592701E+03  0.47000000000E+01 0. -1.
         -5    1    3    3    0  503  0.22038855386E+02 -0.13825609461E+02 -0.12959597256E+01  0.26469381090E+02  0.47000000000E+01 0.  1.
          5    1    3    3  503    0  0.30110988827E+02  0.59057540580E+02  0.13246725497E+03  0.14820299723E+03  0.47000000000E+01 0. -1.
         -5    1    1    2    0  502  0.42308874369E+02 -0.31728425772E+02  0.75287951831E+02  0.92125455458E+02  0.47000000000E+01 0.  1.
<mgrwt>
<rscale>  0 0.14272868E+03</rscale>
<asrwt>0</asrwt>
<pdfrwt beam="1">  1        1 0.75290334E-01 0.15323162E+03</pdfrwt>
<pdfrwt beam="2">  1       -1 0.60302411E-02 0.15323162E+03</pdfrwt>
<totfact> 0.59612837E+03</totfact>
</mgrwt>
</event>
<event>
 8    1  0.3466492E-004  0.1025340E+03  0.7546771E-02  0.1275515E+00
          2   -1    0    0  501    0  0.00000000000E+00  0.00000000000E+00  0.99952716226E+02  0.99952716226E+02  0.00000000000E+00 0. -1.
         -2   -1    0    0    0  501 -0.00000000000E+00 -0.00000000000E+00 -0.27980797611E+03  0.27980797611E+03  0.00000000000E+00 0.  1.
         23    2    1    2    0    0  0.37554532050E+02  0.26889677390E+02  0.60618092693E+02  0.11834022631E+03  0.90534293913E+02 0.  0.
         23    2    1    2    0    0 -0.37554532050E+02 -0.26889677390E+02 -0.24047335257E+03  0.26142046602E+03  0.91541406634E+02 0.  0.
          5    1    3    3  502    0  0.54151955058E+02  0.24244814285E+01  0.68408713748E+02  0.87407977116E+02  0.47000000000E+01 0. -1.
         -5    1    3    3    0  502 -0.16597423007E+02  0.24465195962E+02 -0.77906210557E+01  0.30932249197E+02  0.47000000000E+01 0.  1.
          5    1    4    4  503    0  0.23609594402E+02 -0.17251073281E+02 -0.30731646297E+02  0.42679462992E+02  0.47000000000E+01 0. -1.
         -5    1    4    4    0  503 -0.61164126452E+02 -0.96386041089E+01 -0.20974170628E+03  0.21874100303E+03  0.47000000000E+01 0.  1.
<mgrwt>
<rscale>  0 0.10230875E+03</rscale>
<asrwt>0</asrwt>
<pdfrwt beam="1">  1        2 0.15377341E-01 0.10253403E+03</pdfrwt>
<pdfrwt beam="2">  1       -2 0.43047380E-01 0.10253403E+03</pdfrwt>
<totfact> 0.18705722E+03</totfact>
</mgrwt>
</event>
<event>
 8    1  0.3466492E-004  0.2544592E+03  0.7546771E-02  0.1110660E+00
          1   -1    0    0  501    0  0.00000000000E+00  0.00000000000E+00  0.13272289168E+04  0.13272289168E+04  0.00000000000E+00 0. -1.
         -1   -1    0    0    0  501 -0.00000000000E+00 -0.00000000000E+00 -0.61052265871E+02  0.61052265871E+02  0.00000000000E+00 0.  1.
         23    2    1    2    0    0  0.17783850386E+03 -0.15659870069E+03  0.94734990808E+03  0.98092882067E+03  0.92735194918E+02 0.  0.
         23    2    1    2    0    0 -0.17783850386E+03  0.15659870069E+03  0.31882674288E+03  0.40735236203E+03  0.90198494228E+02 0.  0.
          5    1    4    4  502    0 -0.12957932102E+03  0.78703136709E+02  0.14025778123E+03  0.20658973682E+03  0.47000000000E+01 0. -1.
         -5    1    4    4    0  502 -0.48259182845E+02  0.77895563981E+02  0.17856896165E+03  0.20076262521E+03  0.47000000000E+01 0.  1.
          5    1    3    3  503    0  0.12602256574E+03 -0.73108332372E+02  0.69413543578E+03  0.70927611587E+03  0.47000000000E+01 0. -1.
         -5    1    3    3    0  503  0.51815938118E+02 -0.83490368318E+02  0.25321447230E+03  0.27165270480E+03  0.47000000000E+01 0.  1.
<mgrwt>
<rscale>  0 0.25423056E+03</rscale>
<asrwt>0</asrwt>
<pdfrwt beam="1">  1        1 0.20418904E+00 0.25445924E+03</pdfrwt>
<pdfrwt beam="2">  1       -1 0.93926573E-02 0.25445924E+03</pdfrwt>
<totfact> 0.63067172E+02</totfact>
</mgrwt>
</event>
<event>
 8    1  0.3466492E-004  0.1035801E+03  0.7546771E-02  0.1273064E+00
          4   -1    0    0  501    0  0.00000000000E+00  0.00000000000E+00  0.95440832271E+02  0.95440832271E+02  0.00000000000E+00 0. -1.
         -4   -1    0    0    0  501 -0.00000000000E+00 -0.00000000000E+00 -0.19313394111E+03  0.19313394111E+03  0.00000000000E+00 0.  1.
         23    2    1    2    0    0  0.59051659841E+01  0.48683753374E+02 -0.14224476655E+03  0.17581975344E+03  0.90961713153E+02 0.  0.
         23    2    1    2    0    0 -0.59051659841E+01 -0.48683753374E+02  0.44551657720E+02  0.11275501994E+03  0.91235220653E+02 0.  0.
          5    1    4    4  502    0  0.11742963010E+02 -0.71769372651E+02  0.23518285446E+02  0.76576365684E+02  0.47000000000E+01 0. -1.
         -5    1    3    3    0  503 -0.39259496572E+02  0.37462427133E+02 -0.58742797073E+02  0.80109598213E+02  0.47000000000E+01 0.  1.
          5    1    3    3  503    0  0.45164662557E+02  0.11221326241E+02 -0.83501969480E+02  0.95710155227E+02  0.47000000000E+01 0. -1.
         -5    1    4    4    0  502 -0.17648128994E+02  0.23085619277E+02  0.21033372274E+02  0.36178654254E+02  0.47000000000E+01 0.  1.
<mgrwt>
<rscale>  0 0.10351987E+03</rscale>
<asrwt>0</asrwt>
<pdfrwt beam="1">  1        4 0.14683205E-01 0.10358013E+03</pdfrwt>
<pdfrwt beam="2">  1       -4 0.29712914E-01 0.10358013E+03</pdfrwt>
<totfact> 0.66200899E+02</totfact>
</mgrwt>
</event>
<event>
 8    1  0.3466492E-004  0.1460824E+03  0.7546771E-02  0.1205526E+00
          2   -1    0    0  501    0  0.00000000000E+00  0.00000000000E+00  0.56020192724E+03  0.56020192724E+03  0.00000000000E+00 0. -1.
         -2   -1    0    0    0  501 -0.00000000000E+00 -0.00000000000E+00 -0.38085340351E+02  0.38085340351E+02  0.00000000000E+00 0.  1.
         23    2    1    2    0    0  0.77687929363E+02 -0.81663889752E+02  0.27728160146E+03  0.31318334876E+03  0.92164625383E+02 0.  0.
         23    2    1    2    0    0 -0.77687929363E+02  0.81663889752E+02  0.24483498543E+03  0.28510391883E+03  0.92928301325E+02 0.  0.
          5    1    4    4  502    0 -0.66523513245E+02  0.10173288437E+03  0.21646335695E+03  0.24830109238E+03  0.47000000000E+01 0. -1.
         -5    1    4    4    0  502 -0.11164416118E+02 -0.20068994619E+02  0.28371628480E+02  0.36802826453E+02  0.47000000000E+01 0.  1.
          5    1    3    3  503    0  0.76451924084E+01  0.19877500617E+02  0.34396734018E+02  0.40728237242E+02  0.47000000000E+01 0. -1.
         -5    1    3    3    0  503  0.70042736955E+02 -0.10154139037E+03  0.24288486745E+03  0.27245511152E+03  0.47000000000E+01 0.  1.
<mgrwt>
<rscale>  0 0.14596112E+03</rscale>
<asrwt>0</asrwt>
<pdfrwt beam="1">  1        2 0.86184906E-01 0.14608242E+03</pdfrwt>
<pdfrwt beam="2">  1       -2 0.58592835E-02 0.14608242E+03</pdfrwt>
<totfact> 0.80711920E+03</totfact>
</mgrwt>
</event>
<event>
 8    1  0.3466492E-004  0.9471249E+02  0.7546771E-02  0.1291836E+00
         -2   -1    0    0    0  501 -0.00000000000E+00  0.00000000000E+00  0.63771083771E+02  0.63771083771E+02  0.00000000000E+00 0.  1.
          2   -1    0    0  501    0  0.00000000000E+00 -0.00000000000E+00 -0.40942574378E+03  0.40942574378E+03  0.00000000000E+00 0. -1.
         23    2    1    2    0    0  0.10267626748E+02 -0.23404059499E+02  0.18881617565E+02  0.96557539939E+02  0.91179322640E+02 0.  0.
         23    2    1    2    0    0 -0.10267626748E+02  0.23404059499E+02 -0.36453627757E+03  0.37663928761E+03  0.91199129083E+02 0.  0.
          5    1    3    3  502    0  0.37677152897E+02 -0.38040638223E+02  0.31945639655E+02  0.62524170525E+02  0.47000000000E+01 0.  1.
         -5    1    3    3    0  502 -0.27409526150E+02  0.14636578724E+02 -0.13064022090E+02  0.34033369414E+02  0.47000000000E+01 0. -1.
          5    1    4    4  503    0 -0.41540553928E+02  0.15680284959E+02 -0.30943806028E+03  0.31264275476E+03  0.47000000000E+01 0. -1.
         -5    1    4    4    0  503  0.31272927181E+02  0.77237745407E+01 -0.55098217298E+02  0.63996532851E+02  0.47000000000E+01 0.  1.
<mgrwt>
<rscale>  0 0.94707719E+02</rscale>
<asrwt>0</asrwt>
<pdfrwt beam="1">  1        2 0.62988579E-01 0.94712488E+02</pdfrwt>
<pdfrwt beam="2">  1       -2 0.98109354E-02 0.94712488E+02</pdfrwt>
<totfact> 0.50111838E+03</totfact>
</mgrwt>
</event>
<event>
 8    1  0.3466492E-004  0.1308630E+03  0.7546771E-02  0.1230949E+00
         -1   -1    0    0    0  501 -0.00000000000E+00  0.00000000000E+00  0.72920641696E+02  0.72920641696E+02  0.00000000000E+00 0.  1.
          1   -1    0    0  501    0  0.00000000000E+00 -0.00000000000E+00 -0.21426989863E+03  0.21426989863E+03  0.00000000000E+00 0. -1.
         23    2    1    2    0    0  0.11856175788E+00 -0.77046582476E+02 -0.76878562195E+02  0.14130843299E+03  0.90119753558E+02 0.  0.
         23    2    1    2    0    0 -0.11856175788E+00  0.77046582476E+02 -0.64470694741E+02  0.14588210734E+03  0.10577773316E+03 0.  0.
          5    1    4    4  502    0  0.16391641533E+02  0.40816491091E+02 -0.88643175509E+02  0.99067524555E+02  0.47000000000E+01 0. -1.
         -5    1    4    4    0  502 -0.16510203291E+02  0.36230091385E+02  0.24172480768E+02  0.46814582781E+02  0.47000000000E+01 0.  1.
          5    1    3    3  503    0 -0.43533600617E+02 -0.25295140477E+02 -0.29547171484E+02  0.58567430003E+02  0.47000000000E+01 0. -1.
         -5    1    3    3    0  503  0.43652162375E+02 -0.51751441998E+02 -0.47331390711E+02  0.82741002988E+02  0.47000000000E+01 0.  1.
<mgrwt>
<rscale>  0 0.12767390E+03</rscale>
<asrwt>0</asrwt>
<pdfrwt beam="1">  1        1 0.32964599E-01 0.13086298E+03</pdfrwt>
<pdfrwt beam="2">  1       -1 0.11218561E-01 0.13086298E+03</pdfrwt>
<totfact> 0.64932566E+03</totfact>
</mgrwt>
</event>
<event>
 8    1  0.4761968E-004  0.1967212E+03  0.7546771E-02  0.1158765E+00
         -3   -1    0    0    0  501 -0.00000000000E+00  0.00000000000E+00  0.23867122351E+03  0.23867122351E+03  0.00000000000E+00 0.  1.
          3   -1    0    0  501    0  0.00000000000E+00 -0.00000000000E+00 -0.19231424726E+03  0.19231424726E+03  0.00000000000E+00 0. -1.
         23    2    1    2    0    0 -0.10455773858E+03 -0.11034214566E+03  0.13319902430E+03  0.21594883266E+03  0.76053983775E+02 0.  0.
         23    2    1    2    0    0  0.10455773858E+03  0.11034214566E+03 -0.86842048044E+02  0.21503663811E+03  0.12486594658E+03 0.  0.
          5    1    3    3  502    0 -0.49072002465E+02 -0.72078242962E+02  0.29481766853E+02  0.92166149486E+02  0.47000000000E+01 0. -1.
         -5    1    3    3    0  502 -0.55485736114E+02 -0.38263902694E+02  0.10371725744E+03  0.12378268317E+03  0.47000000000E+01 0.  1.
          5    1    4    4  503    0 -0.75878116809E+01  0.79380181970E+02 -0.42141912383E+02  0.90315109228E+02  0.47000000000E+01 0.  1.
         -5    1    4    4    0  503  0.11214555026E+03  0.30961963686E+02 -0.44700135662E+02  0.12472152888E+03  0.47000000000E+01 0.  1.
<mgrwt>
<rscale>  0 0.18966420E+03</rscale>
<asrwt>0</asrwt>
<pdfrwt beam="1">  1        3 0.29586807E-01 0.19672116E+03</pdfrwt>
<pdfrwt beam="2">  1       -3 0.36718650E-01 0.19672116E+03</pdfrwt>
<totfact> 0.19678735E+02</totfact>
</mgrwt>
</event>
<event>
 8    1  0.3466492E-004  0.1102774E+03  0.7546771E-02  0.1261416E+00
          1   -1    0    0  501    0  0.00000000000E+00  0.00000000000E+00  0.21674187492E+03  0.21674187492E+03  0.00000000000E+00 0. -1.
         -1   -1    0    0    0  501 -0.00000000000E+00 -0.00000000000E+00 -0.70421129268E+02  0.70421129268E+02  0.00000000000E+00 0.  1.
         23    2    1    2    0    0  0.34114909184E+02 -0.50318606549E+02  0.44409504763E+01  0.10746607032E+03  0.88506751356E+02 0.  0.
         23    2    1    2    0    0 -0.34114909184E+02  0.50318606549E+02  0.14187979517E+03  0.17969693387E+03  0.92007187591E+02 0.  0.
          5    1    3    3  502    0  0.26717576520E+02 -0.26194186657E+02  0.45468366904E+02  0.59071369534E+02  0.47000000000E+01 0. -1.
         -5    1    4    4    0  503  0.28840576254E+02  0.38297438299E+01  0.23423974182E+02  0.37645960513E+02  0.47000000000E+01 0.  1.
          5    1    4    4  503    0 -0.62955485438E+02  0.46488862719E+02  0.11845582099E+03  0.14205097335E+03  0.47000000000E+01 0. -1.
         -5    1    3    3    0  502  0.73973326643E+01 -0.24124419892E+02 -0.41027416427E+02  0.48394700788E+02  0.47000000000E+01 0.  1.
<mgrwt>
<rscale>  0 0.10954436E+03</rscale>
<asrwt>0</asrwt>
<pdfrwt beam="1">  1        1 0.33344903E-01 0.11027743E+03</pdfrwt>
<pdfrwt beam="2">  1       -1 0.10834020E-01 0.11027743E+03</pdfrwt>
<totfact> 0.66725039E+03</totfact>
</mgrwt>
</event>
<event>
 8    1  0.3466492E-004  0.9120496E+02  0.7546771E-02  0.1301106E+00
         -2   -1    0    0    0  501 -0.00000000000E+00  0.00000000000E+00  0.53107818472E+02  0.53107818472E+02  0.00000000000E+00 0.  1.
          2   -1    0    0  501    0  0.00000000000E+00 -0.00000000000E+00 -0.15640401189E+03  0.15640401189E+03  0.00000000000E+00 0. -1.
         23    2    1    2    0    0  0.31878826621E+01 -0.21165789253E+01 -0.37608199457E+02  0.98654558543E+02  0.91124655021E+02 0.  0.
         23    2    1    2    0    0 -0.31878826621E+01  0.21165789253E+01 -0.65687993961E+02  0.11085727182E+03  0.89217597269E+02 0.  0.
          5    1    4    4  502    0  0.37243381847E+02 -0.18632701437E+02 -0.42247232680E+02  0.59507694657E+02  0.47000000000E+01 0. -1.
         -5    1    4    4    0  502 -0.40431264509E+02  0.20749280362E+02 -0.23440761281E+02  0.51349577163E+02  0.47000000000E+01 0.  1.
          5    1    3    3  503    0  0.12117211937E+02  0.35989983770E+02 -0.44443292533E+02  0.58646415134E+02  0.47000000000E+01 0. -1.
         -5    1    3    3    0  503 -0.89293292752E+01 -0.38106562695E+02  0.68350930758E+01  0.40008143410E+02  0.47000000000E+01 0.  1.
<mgrwt>
<rscale>  0 0.90724849E+02</rscale>
<asrwt>0</asrwt>
<pdfrwt beam="1">  1        2 0.24062156E-01 0.91204963E+02</pdfrwt>
<pdfrwt beam="2">  1       -2 0.81704336E-02 0.91204963E+02</pdfrwt>
<totfact> 0.18355434E+04</totfact>
</mgrwt>
</event>
<event>
 8    1  0.3466492E-004  0.1896778E+03  0.7546771E-02  0.1158789E+00
         -1   -1    0    0    0  501 -0.00000000000E+00  0.00000000000E+00  0.20431332270E+03  0.20431332270E+03  0.00000000000E+00 0.  1.
          1   -1    0    0  501    0  0.00000000000E+00 -0.00000000000E+00 -0.19261015382E+03  0.19261015382E+03  0.00000000000E+00 0. -1.
         23    2    1    2    0    0 -0.16284356647E+03  0.33015930091E+02  0.64234808118E+02  0.20010567943E+03  0.91148744293E+02 0.  0.
         23    2    1    2    0    0  0.16284356647E+03 -0.33015930091E+02 -0.52531639241E+02  0.19681779710E+03  0.91485481651E+02 0.  0.
          5    1    4    4  502    0  0.14744018816E+03  0.32212792304E+01 -0.54038765527E+02  0.15713454077E+03  0.47000000000E+01 0. -1.
         -5    1    4    4    0  502  0.15403378307E+02 -0.36237209322E+02  0.15071262860E+01  0.39683256322E+02  0.47000000000E+01 0.  1.
          5    1    3    3  503    0 -0.67365727358E+02  0.37093057761E+02 -0.11732753792E+02  0.77934483177E+02  0.47000000000E+01 0. -1.
         -5    1    3    3    0  503 -0.95477839108E+02 -0.40771276697E+01  0.75967561910E+02  0.12217119625E+03  0.47000000000E+01 0.  1.
<mgrwt>
<rscale>  0 0.18963725E+03</rscale>
<asrwt>0</asrwt>
<pdfrwt beam="1">  1        1 0.29632331E-01 0.18967781E+03</pdfrwt>
<pdfrwt beam="2">  1       -1 0.31432819E-01 0.18967781E+03</pdfrwt>
<totfact> 0.14388346E+03</totfact>
</mgrwt>
</event>
<event>
 8    1  0.3466492E-004  0.1612255E+03  0.7546771E-02  0.1187452E+00
         -1   -1    0    0    0  501 -0.00000000000E+00  0.00000000000E+00  0.16804819092E+03  0.16804819092E+03  0.00000000000E+00 0.  1.
          1   -1    0    0  501    0  0.00000000000E+00 -0.00000000000E+00 -0.17537026379E+03  0.17537026379E+03  0.00000000000E+00 0. -1.
         23    2    1    2    0    0 -0.53999562514E+02 -0.12122657800E+03 -0.63278499938E+02  0.17275860879E+03  0.90716770171E+02 0.  0.
         23    2    1    2    0    0  0.53999562514E+02  0.12122657800E+03  0.55956427077E+02  0.17065984592E+03  0.91552309173E+02 0.  0.
          5    1    4    4  502    0 -0.14675834288E+02  0.45346292377E+02 -0.98490590400E+01  0.48895401709E+02  0.47000000000E+01 0. -1.
         -5    1    3    3    0  503  0.50352569724E+01 -0.58611695314E+02  0.97241144745E+01  0.59810810416E+02  0.47000000000E+01 0.  1.
          5    1    3    3  503    0 -0.59034819486E+02 -0.62614882684E+02 -0.73002614413E+02  0.11294779837E+03  0.47000000000E+01 0. -1.
         -5    1    4    4    0  502  0.68675396801E+02  0.75880285621E+02  0.65805486118E+02  0.12176444421E+03  0.47000000000E+01 0.  1.
<mgrwt>
<rscale>  0 0.16110712E+03</rscale>
<asrwt>0</asrwt>
<pdfrwt beam="1">  1        1 0.26980041E-01 0.16122550E+03</pdfrwt>
<pdfrwt beam="2">  1       -1 0.25853568E-01 0.16122550E+03</pdfrwt>
<totfact> 0.22365833E+03</totfact>
</mgrwt>
</event>
<event>
 7    1  0.3466492E-004  0.1347630E+03  0.7546771E-02  0.1236920E+00
          2   -1    0    0  501    0  0.00000000000E+00  0.00000000000E+00  0.52164264839E+03  0.52164264839E+03  0.00000000000E+00 0. -1.
         -2   -1    0    0    0  501 -0.00000000000E+00 -0.00000000000E+00 -0.29745567172E+02  0.29745567172E+02  0.00000000000E+00 0.  1.
         23    2    1    2    0    0  0.12210314135E+01 -0.42507385311E+02  0.10803812225E+03  0.14456052285E+03  0.86122820332E+02 0.  0.
          5    1    3    3  502    0 -0.91958885074E+01 -0.67497683389E+02  0.81952984715E+02  0.10667184883E+03  0.47000000000E+01 0. -1.
         -5    1    3    3    0  502  0.10416919921E+02  0.24990298078E+02  0.26085137539E+02  0.37888674021E+02  0.47000000000E+01 0.  1.
          5    1    1    2  503    0 -0.33855487190E+02 -0.32534354725E+02  0.20056793178E+03  0.20604432414E+03  0.47000000000E+01 0. -1.
         -5    1    1    2    0  503  0.32634455777E+02  0.75041740036E+02  0.18329102718E+03  0.20078336858E+03  0.47000000000E+01 0.  1.
<mgrwt>
<rscale>  0 0.12382315E+03</rscale>
<asrwt>0</asrwt>
<pdfrwt beam="1">  1        2 0.80252708E-01 0.13476302E+03</pdfrwt>
<pdfrwt beam="2">  1       -2 0.45762415E-02 0.13476302E+03</pdfrwt>
<totfact> 0.12610095E+04</totfact>
</mgrwt>
</event>
<event>
 8    1  0.3466492E-004  0.1223996E+03  0.7546771E-02  0.1242468E+00
         -1   -1    0    0    0  501 -0.00000000000E+00  0.00000000000E+00  0.27679002925E+03  0.27679002925E+03  0.00000000000E+00 0.  1.
          1   -1    0    0  501    0  0.00000000000E+00 -0.00000000000E+00 -0.60546889391E+02  0.60546889391E+02  0.00000000000E+00 0. -1.
         23    2    1    2    0    0  0.26753142462E+02 -0.77379099979E+02  0.17309740439E+03  0.20755551111E+03  0.80083225716E+02 0.  0.
         23    2    1    2    0    0 -0.26753142462E+02  0.77379099979E+02  0.43145735472E+02  0.12978140753E+03  0.90985732435E+02 0.  0.
          5    1    4    4  502    0 -0.12105614516E+02  0.91840964569E+02  0.14020315874E+02  0.93808144279E+02  0.47000000000E+01 0. -1.
         -5    1    4    4    0  502 -0.14647527946E+02 -0.14461864590E+02  0.29125419599E+02  0.35973263254E+02  0.47000000000E+01 0.  1.
          5    1    3    3  503    0  0.49936215005E+02 -0.65063880428E+02  0.98088313859E+02  0.12794663505E+03  0.47000000000E+01 0. -1.
         -5    1    3    3    0  503 -0.23183072543E+02 -0.12315219550E+02  0.75009090532E+02  0.79608876060E+02  0.47000000000E+01 0.  1.
<mgrwt>
<rscale>  0 0.12038227E+03</rscale>
<asrwt>0</asrwt>
<pdfrwt beam="1">  1        1 0.93149063E-02 0.12239959E+03</pdfrwt>
<pdfrwt beam="2">  1       -1 0.42583081E-01 0.12239959E+03</pdfrwt>
<totfact> 0.37170275E+03</totfact>
</mgrwt>
</event>
<event>
 8    1  0.3466492E-004  0.1222884E+03  0.7546771E-02  0.1239534E+00
         -1   -1    0    0    0  501 -0.00000000000E+00  0.00000000000E+00  0.58187473955E+02  0.58187473955E+02  0.00000000000E+00 0.  1.
          1   -1    0    0  501    0  0.00000000000E+00 -0.00000000000E+00 -0.27486997479E+03  0.27486997479E+03  0.00000000000E+00 0. -1.
         23    2    1    2    0    0 -0.81236224134E+02 -0.57951357331E+01 -0.15163523767E+03  0.19454536994E+03  0.90673854843E+02 0.  0.
         23    2    1    2    0    0  0.81236224134E+02  0.57951357331E+01 -0.65047263166E+02  0.13851207881E+03  0.91222485275E+02 0.  0.
          5    1    4    4  502    0  0.29589721923E+02  0.45629204145E+02 -0.43047217555E+02  0.69517831191E+02  0.47000000000E+01 0. -1.
         -5    1    4    4    0  502  0.51646502212E+02 -0.39834068411E+02 -0.22000045611E+02  0.68994247614E+02  0.47000000000E+01 0.  1.
          5    1    3    3  503    0 -0.70383455961E+02  0.34819306393E+02 -0.10960920661E+03  0.13491657846E+03  0.47000000000E+01 0. -1.
         -5    1    3    3    0  503 -0.10852768173E+02 -0.40614442126E+02 -0.42026031058E+02  0.59628791475E+02  0.47000000000E+01 0.  1.
<mgrwt>
<rscale>  0 0.12218608E+03</rscale>
<asrwt>0</asrwt>
<pdfrwt beam="1">  1        1 0.42287688E-01 0.12228839E+03</pdfrwt>
<pdfrwt beam="2">  1       -1 0.89519191E-02 0.12228839E+03</pdfrwt>
<totfact> 0.67030141E+03</totfact>
</mgrwt>
</event>
<event>
 8    1  0.3466492E-004  0.1519402E+03  0.7546771E-02  0.1199389E+00
          2   -1    0    0  501    0  0.00000000000E+00  0.00000000000E+00  0.27457097198E+02  0.27457097198E+02  0.00000000000E+00 0. -1.
         -2   -1    0    0    0  501 -0.00000000000E+00 -0.00000000000E+00 -0.84397869711E+03  0.84397869711E+03  0.00000000000E+00 0.  1.
         23    2    1    2    0    0 -0.17932351779E+02 -0.11784270997E+03 -0.47940294972E+03  0.50165910978E+03  0.87328120854E+02 0.  0.
         23    2    1    2    0    0  0.17932351779E+02  0.11784270997E+03 -0.33711865019E+03  0.36977668453E+03  0.94219629483E+02 0.  0.
          5    1    4    4  502    0 -0.15045870890E+02  0.11755451524E+03 -0.26063634001E+03  0.28635438537E+03  0.47000000000E+01 0. -1.
         -5    1    3    3    0  503 -0.25040274238E+02 -0.90353118693E+02 -0.45292655631E+03  0.46255297730E+03  0.47000000000E+01 0.  1.
          5    1    3    3  503    0  0.71079224594E+01 -0.27489591275E+02 -0.26476393412E+02  0.39106132489E+02  0.47000000000E+01 0. -1.
         -5    1    4    4    0  502  0.32978222669E+02  0.28819472602E+00 -0.76482310178E+02  0.83422299158E+02  0.47000000000E+01 0.  1.
<mgrwt>
<rscale>  0 0.15088559E+03</rscale>
<asrwt>0</asrwt>
<pdfrwt beam="1">  1        2 0.42241694E-02 0.15194016E+03</pdfrwt>
<pdfrwt beam="2">  1       -2 0.12984286E+00 0.15194016E+03</pdfrwt>
<totfact> 0.87956147E+02</totfact>
</mgrwt>
</event>
<event>
 8    1  0.3466492E-004  0.9227969E+02  0.7546771E-02  0.1297476E+00
          1   -1    0    0  501    0  0.00000000000E+00  0.00000000000E+00  0.16375275772E+03  0.16375275772E+03  0.00000000000E+00 0. -1.
         -1   -1    0    0    0  501 -0.00000000000E+00 -0.00000000000E+00 -0.55050738771E+02  0.55050738771E+02  0.00000000000E+00 0.  1.
         23    2    1    2    0    0 -0.14238103167E+02 -0.96683034723E+01  0.80283996168E+02  0.12224716218E+03  0.90568476556E+02 0.  0.
         23    2    1    2    0    0  0.14238103167E+02  0.96683034723E+01  0.28418022784E+02  0.96556334318E+02  0.90660586829E+02 0.  0.
          5    1    3    3  502    0  0.94744421663E+01 -0.36004467465E+02  0.36718103810E+01  0.37704892564E+02  0.47000000000E+01 0.  1.
         -5    1    3    3    0  502 -0.23712545333E+02  0.26336163993E+02  0.76612185787E+02  0.84542269612E+02  0.47000000000E+01 0. -1.
          5    1    4    4  503    0  0.33132203455E+02  0.34484166613E+02 -0.76331413701E+01  0.48654449950E+02  0.47000000000E+01 0. -1.
         -5    1    4    4    0  503 -0.18894100288E+02 -0.24815863141E+02  0.36051164154E+02  0.47901884368E+02  0.47000000000E+01 0.  1.
<mgrwt>
<rscale>  0 0.92257061E+02</rscale>
<asrwt>0</asrwt>
<pdfrwt beam="1">  1        1 0.25192732E-01 0.92279693E+02</pdfrwt>
<pdfrwt beam="2">  1       -1 0.84693445E-02 0.92279693E+02</pdfrwt>
<totfact> 0.13474928E+04</totfact>
</mgrwt>
</event>
<event>
 8    1  0.3466492E-004  0.9706645E+02  0.7546771E-02  0.1288938E+00
          1   -1    0    0  501    0  0.00000000000E+00  0.00000000000E+00  0.19156842042E+03  0.19156842042E+03  0.00000000000E+00 0. -1.
         -1   -1    0    0    0  501 -0.00000000000E+00 -0.00000000000E+00 -0.69297690729E+02  0.69297690729E+02  0.00000000000E+00 0.  1.
         23    2    1    2    0    0 -0.17659853780E+02  0.23217908128E+02 -0.13621490335E+02  0.93867332731E+02  0.88173632463E+02 0.  0.
         23    2    1    2    0    0  0.17659853780E+02 -0.23217908128E+02  0.13589222003E+03  0.16699877842E+03  0.92579451479E+02 0.  0.
          5    1    3    3  502    0 -0.34293860133E+01  0.51511701142E+02 -0.27831530399E+02  0.58837914029E+02  0.47000000000E+01 0. -1.
         -5    1    4    4    0  503  0.53209491146E+02  0.11873209811E+01  0.81045779811E+02  0.97073003993E+02  0.47000000000E+01 0.  1.
          5    1    4    4  503    0 -0.35549637365E+02 -0.24405229109E+02  0.54846440219E+02  0.69925774428E+02  0.47000000000E+01 0. -1.
         -5    1    3    3    0  502 -0.14230467767E+02 -0.28293793014E+02  0.14210040065E+02  0.35029418702E+02  0.47000000000E+01 0.  1.
<mgrwt>
<rscale>  0 0.96000856E+02</rscale>
<asrwt>0</asrwt>
<pdfrwt beam="1">  1        1 0.29472065E-01 0.97066454E+02</pdfrwt>
<pdfrwt beam="2">  1       -1 0.10661183E-01 0.97066454E+02</pdfrwt>
<totfact> 0.78819471E+03</totfact>
</mgrwt>
</event>
<event>
 8    1  0.3466492E-004  0.1260207E+03  0.7546771E-02  0.1234318E+00
         -2   -1    0    0    0  501 -0.00000000000E+00  0.00000000000E+00  0.24161583524E+02  0.24161583524E+02  0.00000000000E+00 0.  1.
          2   -1    0    0  501    0  0.00000000000E+00 -0.00000000000E+00 -0.79145389753E+03  0.79145389753E+03  0.00000000000E+00 0. -1.
         23    2    1    2    0    0 -0.73980870738E+02  0.40039341721E+02 -0.21161460197E+03  0.24629645922E+03  0.93834364370E+02 0.  0.
         23    2    1    2    0    0  0.73980870738E+02 -0.40039341721E+02 -0.55567771204E+03  0.56931902184E+03  0.90940149816E+02 0.  0.
          5    1    4    4  502    0  0.74771598128E+02 -0.15526870741E+02 -0.52098792533E+03  0.52657609511E+03  0.47000000000E+01 0. -1.
         -5    1    4    4    0  502 -0.79072739046E+00 -0.24512470980E+02 -0.34689786711E+02  0.42742926729E+02  0.47000000000E+01 0.  1.
          5    1    3    3  503    0  0.20315329416E+02 -0.18863398288E+01 -0.22018969228E+02  0.30384138840E+02  0.47000000000E+01 0. -1.
         -5    1    3    3    0  503 -0.94296200153E+02  0.41925681550E+02 -0.18959563274E+03  0.21591232038E+03  0.47000000000E+01 0.  1.
<mgrwt>
<rscale>  0 0.12548223E+03</rscale>
<asrwt>0</asrwt>
<pdfrwt beam="1">  1        2 0.12176213E+00 0.12602066E+03</pdfrwt>
<pdfrwt beam="2">  1       -2 0.37171670E-02 0.12602066E+03</pdfrwt>
<totfact> 0.10538618E+04</totfact>
</mgrwt>
</event>
<event>
 8    1  0.3466492E-004  0.8919668E+02  0.7546771E-02  0.1305179E+00
         -4   -1    0    0    0  501 -0.00000000000E+00  0.00000000000E+00  0.26098233796E+02  0.26098233796E+02  0.00000000000E+00 0.  1.
          4   -1    0    0  501    0  0.00000000000E+00 -0.00000000000E+00 -0.31465297003E+03  0.31465297003E+03  0.00000000000E+00 0. -1.
         23    2    1    2    0    0 -0.14984562299E+01  0.34173685961E+01 -0.11167772470E+03  0.14292641883E+03  0.89118590786E+02 0.  0.
         23    2    1    2    0    0  0.14984562299E+01 -0.34173685961E+01 -0.17687701153E+03  0.19782478500E+03  0.88516916880E+02 0.  0.
          5    1    4    4  502    0  0.20103887655E+02 -0.40956540835E+02 -0.80924505529E+02  0.93018654748E+02  0.47000000000E+01 0. -1.
         -5    1    4    4    0  502 -0.18605431425E+02  0.37539172239E+02 -0.95952505998E+02  0.10480613025E+03  0.47000000000E+01 0.  1.
          5    1    3    3  503    0  0.77849056162E+01  0.36209590555E+02 -0.99760173242E+02  0.10651723508E+03  0.47000000000E+01 0. -1.
         -5    1    3    3    0  503 -0.92833618461E+01 -0.32792221959E+02 -0.11917551463E+02  0.36409183746E+02  0.47000000000E+01 0.  1.
<mgrwt>
<rscale>  0 0.89046009E+02</rscale>
<asrwt>0</asrwt>
<pdfrwt beam="1">  1        4 0.48408149E-01 0.89196676E+02</pdfrwt>
<pdfrwt beam="2">  1       -4 0.40151129E-02 0.89196676E+02</pdfrwt>
<totfact> 0.20878603E+03</totfact>
</mgrwt>
</event>
<event>
 8    1  0.3466492E-004  0.1026236E+03  0.7546771E-02  0.1276077E+00
         -2   -1    0    0    0  501 -0.00000000000E+00  0.00000000000E+00  0.93373430727E+02  0.93373430727E+02  0.00000000000E+00 0.  1.
          2   -1    0    0  501    0  0.00000000000E+00 -0.00000000000E+00 -0.12227548092E+03  0.12227548092E+03  0.00000000000E+00 0. -1.
         23    2    1    2    0    0  0.41589239394E+02  0.11816121587E+02  0.19535756398E+02  0.10216839751E+03  0.90484529671E+02 0.  0.
         23    2    1    2    0    0 -0.41589239394E+02 -0.11816121587E+02 -0.48437806595E+02  0.11348051414E+03  0.93071587597E+02 0.  0.
          5    1    3    3  502    0  0.21249738771E+02  0.15273547515E+02 -0.34836692330E+02  0.43823712577E+02  0.47000000000E+01 0. -1.
         -5    1    3    3    0  502  0.20339500623E+02 -0.34574259285E+01  0.54372448729E+02  0.58344684937E+02  0.47000000000E+01 0.  1.
          5    1    4    4  503    0 -0.71106940546E+02 -0.14108356925E+02 -0.34521985977E+02  0.80430717047E+02  0.47000000000E+01 0. -1.
         -5    1    4    4    0  503  0.29517701151E+02  0.22922353377E+01 -0.13915820618E+02  0.33049797088E+02  0.47000000000E+01 0.  1.
<mgrwt>
<rscale>  0 0.10203346E+03</rscale>
<asrwt>0</asrwt>
<pdfrwt beam="1">  1        2 0.18811612E-01 0.10262361E+03</pdfrwt>
<pdfrwt beam="2">  1       -2 0.14365143E-01 0.10262361E+03</pdfrwt>
<totfact> 0.10064498E+04</totfact>
</mgrwt>
</event>
<event>
 8    1  0.3466492E-004  0.9533755E+02  0.7546771E-02  0.1291390E+00
         -1   -1    0    0    0  501 -0.00000000000E+00  0.00000000000E+00  0.26980672474E+03  0.26980672474E+03  0.00000000000E+00 0.  1.
          1   -1    0    0  501    0  0.00000000000E+00 -0.00000000000E+00 -0.39300443753E+02  0.39300443753E+02  0.00000000000E+00 0. -1.
         23    2    1    2    0    0 -0.26210540647E+02 -0.96488886978E+01  0.17583936263E+03  0.19920848336E+03  0.89355721125E+02 0.  0.
         23    2    1    2    0    0  0.26210540647E+02  0.96488886978E+01  0.54666918360E+02  0.10989868514E+03  0.91154569484E+02 0.  0.
          5    1    3    3  502    0 -0.41771043359E+02 -0.36036818459E+02  0.71906228965E+02  0.90752785698E+02  0.47000000000E+01 0. -1.
         -5    1    4    4    0  503  0.26479291283E+02  0.45545777010E+02  0.12553328162E+02  0.54362180955E+02  0.47000000000E+01 0.  1.
          5    1    4    4  503    0 -0.26875063531E+00 -0.35896888312E+02  0.42113590198E+02  0.55536504182E+02  0.47000000000E+01 0. -1.
         -5    1    3    3    0  502  0.15560502712E+02  0.26387929761E+02  0.10393313366E+03  0.10845569766E+03  0.47000000000E+01 0.  1.
<mgrwt>
<rscale>  0 0.94905008E+02</rscale>
<asrwt>0</asrwt>
<pdfrwt beam="1">  1        1 0.60462223E-02 0.95337553E+02</pdfrwt>
<pdfrwt beam="2">  1       -1 0.41508726E-01 0.95337553E+02</pdfrwt>
<totfact> 0.67985582E+03</totfact>
</mgrwt>
</event>
<event>
 8    1  0.3466492E-004  0.1093918E+03  0.7546771E-02  0.1264798E+00
          1   -1    0    0  501    0  0.00000000000E+00  0.00000000000E+00  0.52730052926E+02  0.52730052926E+02  0.00000000000E+00 0. -1.
         -1   -1    0    0    0  501 -0.00000000000E+00 -0.00000000000E+00 -0.24841773034E+03  0.24841773034E+03  0.00000000000E+00 0.  1.
         23    2    1    2    0    0  0.38943397804E+02 -0.42543384957E+02 -0.44206376493E+02  0.11798628346E+03  0.92951769896E+02 0.  0.
         23    2    1    2    0    0 -0.38943397804E+02  0.42543384957E+02 -0.15148130092E+03  0.18316149980E+03  0.85293743294E+02 0.  0.
          5    1    3    3  502    0  0.10580436056E+02 -0.52868597628E+02  0.10686196343E+02  0.55166285307E+02  0.47000000000E+01 0. -1.
         -5    1    3    3    0  502  0.28362961748E+02  0.10325212671E+02 -0.54892572836E+02  0.62819998157E+02  0.47000000000E+01 0.  1.
          5    1    4    4  503    0 -0.43366121243E+02 -0.75500600169E+01 -0.35793184067E+02  0.56928603563E+02  0.47000000000E+01 0. -1.
         -5    1    4    4    0  503  0.44227234391E+01  0.50093444974E+02 -0.11568811685E+03  0.12623289624E+03  0.47000000000E+01 0.  1.
<mgrwt>
<rscale>  0 0.10774811E+03</rscale>
<asrwt>0</asrwt>
<pdfrwt beam="1">  1        1 0.81123157E-02 0.10939177E+03</pdfrwt>
<pdfrwt beam="2">  1       -1 0.38218113E-01 0.10939177E+03</pdfrwt>
<totfact> 0.53559800E+03</totfact>
</mgrwt>
</event>
<event>
 8    1  0.3466492E-004  0.9683051E+02  0.7546771E-02  0.1289141E+00
         -1   -1    0    0    0  501 -0.00000000000E+00  0.00000000000E+00  0.82802386531E+03  0.82802386531E+03  0.00000000000E+00 0.  1.
          1   -1    0    0  501    0  0.00000000000E+00 -0.00000000000E+00 -0.15096633195E+02  0.15096633195E+02  0.00000000000E+00 0. -1.
         23    2    1    2    0    0  0.17684620323E+02  0.17807185376E+02  0.62301637930E+03  0.62994855211E+03  0.89754820392E+02 0.  0.
         23    2    1    2    0    0 -0.17684620323E+02 -0.17807185376E+02  0.18991085282E+03  0.21317194640E+03  0.93521682329E+02 0.  0.
          5    1    3    3  502    0  0.21560803363E+02 -0.34197247471E+02  0.25556537692E+03  0.25878576440E+03  0.47000000000E+01 0. -1.
         -5    1    4    4    0  503  0.33828124326E+02  0.82571856547E+01  0.10211010975E+03  0.10798651593E+03  0.47000000000E+01 0.  1.
          5    1    4    4  503    0 -0.51512744649E+02 -0.26064371030E+02  0.87800743072E+02  0.10518543047E+03  0.47000000000E+01 0. -1.
         -5    1    3    3    0  502 -0.38761830398E+01  0.52004432847E+02  0.36745100238E+03  0.37116278771E+03  0.47000000000E+01 0.  1.
<mgrwt>
<rscale>  0 0.95909182E+02</rscale>
<asrwt>0</asrwt>
<pdfrwt beam="1">  1        1 0.23225596E-02 0.96830505E+02</pdfrwt>
<pdfrwt beam="2">  1       -1 0.12738825E+00 0.96830505E+02</pdfrwt>
<totfact> 0.26456332E+03</totfact>
</mgrwt>
</event>
<event>
 8    1  0.3466492E-004  0.9330477E+02  0.7546771E-02  0.1297353E+00
          1   -1    0    0  501    0  0.00000000000E+00  0.00000000000E+00  0.59861925641E+02  0.59861925641E+02  0.00000000000E+00 0. -1.
         -1   -1    0    0    0  501 -0.00000000000E+00 -0.00000000000E+00 -0.18667666455E+03  0.18667666455E+03  0.00000000000E+00 0.  1.
         23    2    1    2    0    0  0.78978991257E+01  0.25836679241E+01 -0.23920741175E+01  0.93335425619E+02  0.92933995428E+02 0.  0.
         23    2    1    2    0    0 -0.78978991257E+01 -0.25836679241E+01 -0.12442266479E+03  0.15320316457E+03  0.89000887468E+02 0.  0.
          5    1    3    3  502    0 -0.71035348703E+01  0.46176353718E+02 -0.56432979794E+00  0.46958751245E+02  0.47000000000E+01 0. -1.
         -5    1    3    3    0  502  0.15001433996E+02 -0.43592685794E+02 -0.18277443196E+01  0.46376674374E+02  0.47000000000E+01 0.  1.
          5    1    4    4  503    0 -0.21353926219E+02  0.34094739185E+02 -0.28507900181E+02  0.49530109810E+02  0.47000000000E+01 0. -1.
         -5    1    4    4    0  503  0.13456027094E+02 -0.36678407109E+02 -0.95914764608E+02  0.10367305476E+03  0.47000000000E+01 0.  1.
<mgrwt>
<rscale>  0 0.92309766E+02</rscale>
<asrwt>0</asrwt>
<pdfrwt beam="1">  1        1 0.92095271E-02 0.93304768E+02</pdfrwt>
<pdfrwt beam="2">  1       -1 0.28719487E-01 0.93304768E+02</pdfrwt>
<totfact> 0.72450606E+03</totfact>
</mgrwt>
</event>
<event>
 8    1  0.7123860E-004  0.1032350E+03  0.7546771E-02  0.1275100E+00
         -1   -1    0    0    0  501 -0.00000000000E+00  0.00000000000E+00  0.59558663069E+02  0.59558663069E+02  0.00000000000E+00 0.  1.
          1   -1    0    0  501    0  0.00000000000E+00 -0.00000000000E+00 -0.42152558307E+03  0.42152558307E+03  0.00000000000E+00 0. -1.
         23    2    1    2    0    0 -0.17834533289E+02 -0.34894985784E+02 -0.36424745848E+03  0.37782404322E+03  0.92407066913E+02 0.  0.
         23    2    1    2    0    0  0.17834533289E+02  0.34894985784E+02  0.22805384758E+01  0.10326020292E+03  0.95507790474E+02 0.  0.
          5    1    3    3  502    0 -0.23842280526E+02 -0.64513141639E+02 -0.27380203852E+03  0.28234738548E+03  0.47000000000E+01 0. -1.
         -5    1    3    3    0  502  0.60077472375E+01  0.29618155855E+02 -0.90445419955E+02  0.95476657744E+02  0.47000000000E+01 0.  1.
          5    1    4    4  503    0 -0.29068559321E+01 -0.30086653729E+02 -0.12938284294E+02  0.33213637929E+02  0.47000000000E+01 0. -1.
         -5    1    4    4    0  503  0.20741389221E+02  0.64981639514E+02  0.15218822769E+02  0.70046564992E+02  0.47000000000E+01 0.  1.
<mgrwt>
<rscale>  0 0.10251202E+03</rscale>
<asrwt>0</asrwt>
<pdfrwt beam="1">  1        1 0.64850090E-01 0.10323502E+03</pdfrwt>
<pdfrwt beam="2">  1       -1 0.91628713E-02 0.10323502E+03</pdfrwt>
<totfact> 0.37706049E+03</totfact>
</mgrwt>
</event>
<event>
 8    1  0.3466492E-004  0.1151448E+03  0.7546771E-02  0.1255405E+00
         -2   -1    0    0    0  501 -0.00000000000E+00  0.00000000000E+00  0.58093707718E+02  0.58093707718E+02  0.00000000000E+00 0.  1.
          2   -1    0    0  501    0  0.00000000000E+00 -0.00000000000E+00 -0.23792851412E+03  0.23792851412E+03  0.00000000000E+00 0. -1.
         23    2    1    2    0    0 -0.18345412155E+02 -0.47119231556E+02 -0.13662327410E+03  0.17303620750E+03  0.93374696534E+02 0.  0.
         23    2    1    2    0    0  0.18345412155E+02  0.47119231556E+02 -0.43211532311E+02  0.12298601434E+03  0.10344828210E+03 0.  0.
          5    1    3    3  502    0 -0.48997437130E+02 -0.72108268180E+01 -0.96264020480E+02  0.10835864759E+03  0.47000000000E+01 0. -1.
         -5    1    3    3    0  502  0.30652024975E+02 -0.39908404738E+02 -0.40359253615E+02  0.64677559912E+02  0.47000000000E+01 0.  1.
          5    1    4    4  503    0 -0.38345873504E+02  0.43323574007E+02 -0.19427097340E+02  0.61211438397E+02  0.47000000000E+01 0. -1.
         -5    1    4    4    0  503  0.56691285659E+02  0.37956575497E+01 -0.23784434971E+02  0.61774575942E+02  0.47000000000E+01 0.  1.
<mgrwt>
<rscale>  0 0.11283679E+03</rscale>
<asrwt>0</asrwt>
<pdfrwt beam="1">  1        2 0.36604386E-01 0.11514479E+03</pdfrwt>
<pdfrwt beam="2">  1       -2 0.89374936E-02 0.11514479E+03</pdfrwt>
<totfact> 0.10404694E+04</totfact>
</mgrwt>
</event>
<event>
 8    1  0.3466492E-004  0.1974388E+03  0.7546771E-02  0.1152710E+00
          2   -1    0    0  501    0  0.00000000000E+00  0.00000000000E+00  0.12813565745E+04  0.12813565745E+04  0.00000000000E+00 0.  1.
         -2   -1    0    0    0  501 -0.00000000000E+00 -0.00000000000E+00 -0.39540613323E+02  0.39540613323E+02  0.00000000000E+00 0. -1.
         23    2    1    2    0    0 -0.16284161939E+03  0.66046642188E+02  0.28978104957E+03  0.34860477178E+03  0.81686463205E+02 0.  0.
         23    2    1    2    0    0  0.16284161939E+03 -0.66046642188E+02  0.95203491163E+03  0.97229241606E+03  0.90013984591E+02 0.  0.
          5    1    4    4  502    0  0.99637607837E+02 -0.68861570500E+01  0.34841395315E+03  0.36247681968E+03  0.47000000000E+01 0. -1.
         -5    1    4    4    0  502  0.63204011551E+02 -0.59160485138E+02  0.60362095848E+03  0.60981559638E+03  0.47000000000E+01 0.  1.
          5    1    3    3  503    0 -0.11269386109E+03  0.17823319386E+02  0.22987335315E+03  0.25667377258E+03  0.47000000000E+01 0. -1.
         -5    1    3    3    0  503 -0.50147758300E+02  0.48223322801E+02  0.59907696418E+02  0.91930999204E+02  0.47000000000E+01 0.  1.
<mgrwt>
<rscale>  0 0.19651866E+03</rscale>
<asrwt>0</asrwt>
<pdfrwt beam="1">  1        2 0.19713175E+00 0.19743877E+03</pdfrwt>
<pdfrwt beam="2">  1       -2 0.60831723E-02 0.19743877E+03</pdfrwt>
<totfact> 0.25977889E+03</totfact>
</mgrwt>
</event>
<event>
 8    1  0.3466492E-004  0.9295700E+02  0.7546771E-02  0.1295979E+00
          1   -1    0    0  501    0  0.00000000000E+00  0.00000000000E+00  0.45664950505E+03  0.45664950505E+03  0.00000000000E+00 0. -1.
         -1   -1    0    0    0  501 -0.00000000000E+00 -0.00000000000E+00 -0.20894764940E+02  0.20894764940E+02  0.00000000000E+00 0.  1.
         23    2    1    2    0    0 -0.18836633532E+02  0.33011089807E+01  0.29234895784E+03  0.30677176563E+03  0.90968604217E+02 0.  0.
         23    2    1    2    0    0  0.18836633532E+02 -0.33011089807E+01  0.14340578227E+03  0.17077250437E+03  0.90732098920E+02 0.  0.
          5    1    4    4  502    0  0.36934085921E+02  0.34289948856E+02  0.73960831305E+02  0.89622663778E+02  0.47000000000E+01 0. -1.
         -5    1    3    3    0  503  0.40196330641E+01  0.27318076894E+02  0.25652348957E+02  0.37981150353E+02  0.47000000000E+01 0.  1.
          5    1    3    3  503    0 -0.22856266596E+02 -0.24016967913E+02  0.26669660888E+03  0.26879061527E+03  0.47000000000E+01 0. -1.
         -5    1    4    4    0  502 -0.18097452389E+02 -0.37591057837E+02  0.69444950970E+02  0.81149840588E+02  0.47000000000E+01 0.  1.
<mgrwt>
<rscale>  0 0.92899083E+02</rscale>
<asrwt>0</asrwt>
<pdfrwt beam="1">  1        1 0.70253763E-01 0.92956996E+02</pdfrwt>
<pdfrwt beam="2">  1       -1 0.32145796E-02 0.92956996E+02</pdfrwt>
<totfact> 0.15815891E+04</totfact>
</mgrwt>
</event>
<event>
 8    1  0.3466492E-004  0.9181852E+02  0.7546771E-02  0.1299621E+00
          1   -1    0    0  501    0  0.00000000000E+00  0.00000000000E+00  0.47842090354E+03  0.47842090354E+03  0.00000000000E+00 0. -1.
         -1   -1    0    0    0  501 -0.00000000000E+00 -0.00000000000E+00 -0.26368913908E+02  0.26368913908E+02  0.00000000000E+00 0.  1.
         23    2    1    2    0    0 -0.12877835943E+02 -0.12658265507E+01  0.79249610221E+02  0.12128949124E+03  0.90902139633E+02 0.  0.
         23    2    1    2    0    0  0.12877835943E+02  0.12658265507E+01  0.37280237942E+03  0.38350032621E+03  0.89013735634E+02 0.  0.
          5    1    3    3  502    0  0.28923493161E+02 -0.88624053679E+01  0.71593389103E+02  0.77864074186E+02  0.47000000000E+01 0. -1.
         -5    1    4    4    0  503 -0.78071954697E+01  0.36433665173E+02  0.86969863061E+02  0.94732314128E+02  0.47000000000E+01 0.  1.
          5    1    4    4  503    0  0.20685031412E+02 -0.35167838623E+02  0.28583251635E+03  0.28876801208E+03  0.47000000000E+01 0. -1.
         -5    1    3    3    0  502 -0.41801329104E+02  0.75965788172E+01  0.76562211175E+01  0.43425417055E+02  0.47000000000E+01 0.  1.
<mgrwt>
<rscale>  0 0.91347615E+02</rscale>
<asrwt>0</asrwt>
<pdfrwt beam="1">  1        1 0.73603210E-01 0.91818516E+02</pdfrwt>
<pdfrwt beam="2">  1       -1 0.40567563E-02 0.91818516E+02</pdfrwt>
<totfact> 0.10630527E+04</totfact>
</mgrwt>
</event>
<event>
 8    1  0.3466492E-004  0.1148385E+03  0.7546771E-02  0.1257866E+00
         -3   -1    0    0    0  501 -0.00000000000E+00  0.00000000000E+00  0.56064123068E+03  0.56064123068E+03  0.00000000000E+00 0.  1.
          3   -1    0    0  501    0  0.00000000000E+00 -0.00000000000E+00 -0.94397640819E+02  0.94397640819E+02  0.00000000000E+00 0. -1.
         23    2    1    2    0    0  0.67186143538E+01  0.43256319199E+02  0.51881545453E+03  0.52873892827E+03  0.92082188725E+02 0.  0.
         23    2    1    2    0    0 -0.67186143538E+01 -0.43256319199E+02 -0.52571864673E+02  0.12629994323E+03  0.10616791311E+03 0.  0.
          5    1    4    4  502    0 -0.11012013734E+02 -0.76158661656E+02 -0.51608581213E+02  0.92773605333E+02  0.47000000000E+01 0. -1.
         -5    1    4    4    0  502  0.42933993802E+01  0.32902342458E+02 -0.96328346011E+00  0.33526337892E+02  0.47000000000E+01 0.  1.
          5    1    3    3  503    0  0.12297937525E+02 -0.27476074834E+02  0.17738433154E+03  0.17998184640E+03  0.47000000000E+01 0. -1.
         -5    1    3    3    0  503 -0.55793231713E+01  0.70732394033E+02  0.34143112299E+03  0.34875708187E+03  0.47000000000E+01 0.  1.
<mgrwt>
<rscale>  0 0.11147323E+03</rscale>
<asrwt>0</asrwt>
<pdfrwt beam="1">  1        3 0.14522714E-01 0.11483847E+03</pdfrwt>
<pdfrwt beam="2">  1       -3 0.86252495E-01 0.11483847E+03</pdfrwt>
<totfact> 0.11414740E+02</totfact>
</mgrwt>
</event>
<event>
 8    1  0.3466492E-004  0.1800580E+03  0.7546771E-02  0.1168074E+00
         -2   -1    0    0    0  501 -0.00000000000E+00  0.00000000000E+00  0.17606221218E+03  0.17606221218E+03  0.00000000000E+00 0.  1.
          2   -1    0    0  501    0  0.00000000000E+00 -0.00000000000E+00 -0.21134780359E+03  0.21134780359E+03  0.00000000000E+00 0. -1.
         23    2    1    2    0    0  0.69666548795E+02 -0.13749043451E+03 -0.88931065700E+02  0.20082235830E+03  0.93079737554E+02 0.  0.
         23    2    1    2    0    0 -0.69666548795E+02  0.13749043451E+03  0.53645474290E+02  0.18658765748E+03  0.90443736154E+02 0.  0.
          5    1    4    4  502    0 -0.50933606957E+02  0.14809042851E+03  0.46659956892E+02  0.16347553001E+03  0.47000000000E+01 0. -1.
         -5    1    3    3    0  503 -0.12217996966E+02 -0.68335321223E+02 -0.16898793156E+02  0.71600661915E+02  0.47000000000E+01 0.  1.
          5    1    3    3  503    0  0.81884545761E+02 -0.69155113286E+02 -0.72032272544E+02  0.12922169638E+03  0.47000000000E+01 0. -1.
         -5    1    4    4    0  502 -0.18732941837E+02 -0.10599994005E+02  0.69855173980E+01  0.23112127468E+02  0.47000000000E+01 0.  1.
<mgrwt>
<rscale>  0 0.17971995E+03</rscale>
<asrwt>0</asrwt>
<pdfrwt beam="1">  1        2 0.32515047E-01 0.18005800E+03</pdfrwt>
<pdfrwt beam="2">  1       -2 0.27086494E-01 0.18005800E+03</pdfrwt>
<totfact> 0.19455314E+03</totfact>
</mgrwt>
</event>
<event>
 8    1  0.3466492E-004  0.9689182E+02  0.7546771E-02  0.1288922E+00
         -2   -1    0    0    0  501 -0.00000000000E+00  0.00000000000E+00  0.60234227515E+03  0.60234227515E+03  0.00000000000E+00 0.  1.
          2   -1    0    0  501    0  0.00000000000E+00 -0.00000000000E+00 -0.16430974243E+02  0.16430974243E+02  0.00000000000E+00 0. -1.
         23    2    1    2    0    0 -0.23242700886E+02  0.51940730070E+00  0.37837146668E+03  0.38973000471E+03  0.90465556143E+02 0.  0.
         23    2    1    2    0    0  0.23242700886E+02 -0.51940730070E+00  0.20753983423E+03  0.22904324468E+03  0.94061321563E+02 0.  0.
          5    1    3    3  502    0 -0.44557754325E+02  0.22226801389E+02  0.12720979337E+03  0.13668886458E+03  0.47000000000E+01 0. -1.
         -5    1    3    3    0  502  0.21315053439E+02 -0.21707394089E+02  0.25116167331E+03  0.25304114013E+03  0.47000000000E+01 0.  1.
          5    1    4    4  503    0  0.18584943586E+02  0.36979341331E+02  0.17194793985E+03  0.17692104406E+03  0.47000000000E+01 0. -1.
         -5    1    4    4    0  503  0.46577573006E+01 -0.37498748632E+02  0.35591894381E+02  0.52122200622E+02  0.47000000000E+01 0.  1.
<mgrwt>
<rscale>  0 0.96008121E+02</rscale>
<asrwt>0</asrwt>
<pdfrwt beam="1">  1        2 0.25278427E-02 0.96891822E+02</pdfrwt>
<pdfrwt beam="2">  1       -2 0.92668025E-01 0.96891822E+02</pdfrwt>
<totfact> 0.37335545E+03</totfact>
</mgrwt>
</event>
<event>
 8    1  0.3466492E-004  0.1880371E+03  0.7546771E-02  0.1161461E+00
         -1   -1    0    0    0  501 -0.00000000000E+00  0.00000000000E+00  0.18881034186E+02  0.18881034186E+02  0.00000000000E+00 0.  1.
          1   -1    0    0  501    0  0.00000000000E+00 -0.00000000000E+00 -0.18269428228E+04  0.18269428228E+04  0.00000000000E+00 0. -1.
         23    2    1    2    0    0  0.98113580391E+02  0.12510858504E+03 -0.97035342907E+03  0.98840463685E+03  0.10039679348E+03 0.  0.
         23    2    1    2    0    0 -0.98113580391E+02 -0.12510858504E+03 -0.83770835958E+03  0.85741922017E+03  0.90188639504E+02 0.  0.
          5    1    4    4  502    0 -0.65104326383E+02 -0.65588162953E+02 -0.67008872926E+03  0.67644761476E+03  0.47000000000E+01 0. -1.
         -5    1    3    3    0  503  0.58198165720E+02  0.13457585405E+03 -0.76648479674E+03  0.78039651500E+03  0.47000000000E+01 0.  1.
          5    1    3    3  503    0  0.39915414670E+02 -0.94672690101E+01 -0.20386863233E+03  0.20800812185E+03  0.47000000000E+01 0. -1.
         -5    1    4    4    0  502 -0.33009254008E+02 -0.59520422085E+02 -0.16761963033E+03  0.18097160542E+03  0.47000000000E+01 0.  1.
<mgrwt>
<rscale>  0 0.18671153E+03</rscale>
<asrwt>0</asrwt>
<pdfrwt beam="1">  1        1 0.28106810E+00 0.18803709E+03</pdfrwt>
<pdfrwt beam="2">  1       -1 0.29047748E-02 0.18803709E+03</pdfrwt>
<totfact> 0.17338534E+03</totfact>
</mgrwt>
</event>
<event>
 8    1  0.3466492E-004  0.1308546E+03  0.7546771E-02  0.1228250E+00
          1   -1    0    0  501    0  0.00000000000E+00  0.00000000000E+00  0.80522894911E+02  0.80522894911E+02  0.00000000000E+00 0. -1.
         -1   -1    0    0    0  501 -0.00000000000E+00 -0.00000000000E+00 -0.26277154767E+03  0.26277154767E+03  0.00000000000E+00 0.  1.
         23    2    1    2    0    0 -0.87160399423E+02  0.21626405972E+01 -0.17389443145E+03  0.21762855223E+03  0.97577155201E+02 0.  0.
         23    2    1    2    0    0  0.87160399423E+02 -0.21626405972E+01 -0.83542213139E+01  0.12566589035E+03  0.90113876520E+02 0.  0.
          5    1    3    3  502    0 -0.36163924169E+02 -0.46081293718E+02 -0.96918781465E+02  0.11334308644E+03  0.47000000000E+01 0. -1.
         -5    1    3    3    0  502 -0.50996475254E+02  0.48243934315E+02 -0.76975649980E+02  0.10428546580E+03  0.47000000000E+01 0.  1.
          5    1    4    4  503    0  0.84993108454E+02  0.22072642418E+02  0.17706913130E+02  0.89703148219E+02  0.47000000000E+01 0. -1.
         -5    1    4    4    0  503  0.21672909692E+01 -0.24235283015E+02 -0.26061134444E+02  0.35962742129E+02  0.47000000000E+01 0.  1.
<mgrwt>
<rscale>  0 0.12946594E+03</rscale>
<asrwt>0</asrwt>
<pdfrwt beam="1">  1        1 0.12388138E-01 0.13085455E+03</pdfrwt>
<pdfrwt beam="2">  1       -1 0.40426392E-01 0.13085455E+03</pdfrwt>
<totfact> 0.28081587E+03</totfact>
</mgrwt>
</event>
<event>
 8    1  0.3466492E-004  0.1005670E+03  0.7546771E-02  0.1279449E+00
          4   -1    0    0  501    0  0.00000000000E+00  0.00000000000E+00  0.26378139013E+02  0.26378139013E+02  0.00000000000E+00 0. -1.
         -4   -1    0    0    0  501 -0.00000000000E+00 -0.00000000000E+00 -0.38542543340E+03  0.38542543340E+03  0.00000000000E+00 0.  1.
         23    2    1    2    0    0  0.40266010701E+00 -0.44328580494E+02 -0.15671591315E+03  0.18585730700E+03  0.89542592907E+02 0.  0.
         23    2    1    2    0    0 -0.40266010701E+00  0.44328580494E+02 -0.20233138123E+03  0.22594626542E+03  0.90269274067E+02 0.  0.
          5    1    4    4  502    0  0.76960099385E+01 -0.26957668845E+02 -0.50469590883E+02  0.57924209813E+02  0.47000000000E+01 0. -1.
         -5    1    4    4    0  502 -0.80986700455E+01  0.71286249339E+02 -0.15186179035E+03  0.16802205560E+03  0.47000000000E+01 0.  1.
          5    1    3    3  503    0 -0.25211866803E+02 -0.19454098186E+02 -0.14417254065E+03  0.14772241415E+03  0.47000000000E+01 0. -1.
         -5    1    3    3    0  503  0.25614526910E+02 -0.24874482307E+02 -0.12543372505E+02  0.38134892850E+02  0.47000000000E+01 0.  1.
<mgrwt>
<rscale>  0 0.10040369E+03</rscale>
<asrwt>0</asrwt>
<pdfrwt beam="1">  1        4 0.40581753E-02 0.10056703E+03</pdfrwt>
<pdfrwt beam="2">  1       -4 0.59296220E-01 0.10056703E+03</pdfrwt>
<totfact> 0.13979939E+03</totfact>
</mgrwt>
</event>
<event>
 8    1  0.3466492E-004  0.9109716E+02  0.7546771E-02  0.1301218E+00
          1   -1    0    0  501    0  0.00000000000E+00  0.00000000000E+00  0.77031313333E+02  0.77031313333E+02  0.00000000000E+00 0. -1.
         -1   -1    0    0    0  501 -0.00000000000E+00 -0.00000000000E+00 -0.11594664023E+03  0.11594664023E+03  0.00000000000E+00 0.  1.
         23    2    1    2    0    0 -0.10736450228E+02  0.67295074101E+01  0.92899085068E+01  0.89912741893E+02  0.88529323510E+02 0.  0.
         23    2    1    2    0    0  0.10736450228E+02 -0.67295074101E+01 -0.48205235400E+02  0.10306521167E+03  0.90211615119E+02 0.  0.
          5    1    3    3  502    0  0.10195791703E+01 -0.37696175000E+02  0.19336434566E+02  0.42638349558E+02  0.47000000000E+01 0. -1.
         -5    1    3    3    0  502 -0.11756029398E+02  0.44425682410E+02 -0.10046526059E+02  0.47274392335E+02  0.47000000000E+01 0.  1.
          5    1    4    4  503    0  0.40288699656E+02 -0.26636893490E+02 -0.80750384544E+01  0.49193492057E+02  0.47000000000E+01 0.  1.
         -5    1    4    4    0  503 -0.29552249428E+02  0.19907386080E+02 -0.40130196946E+02  0.53871719609E+02  0.47000000000E+01 0. -1.
<mgrwt>
<rscale>  0 0.90677869E+02</rscale>
<asrwt>0</asrwt>
<pdfrwt beam="1">  1        1 0.11850971E-01 0.91097163E+02</pdfrwt>
<pdfrwt beam="2">  1       -1 0.17837945E-01 0.91097163E+02</pdfrwt>
<totfact> 0.11193389E+04</totfact>
</mgrwt>
</event>
<event>
 8    1  0.3466492E-004  0.9326902E+02  0.7546771E-02  0.1296326E+00
         -1   -1    0    0    0  501 -0.00000000000E+00  0.00000000000E+00  0.11474318280E+03  0.11474318280E+03  0.00000000000E+00 0.  1.
          1   -1    0    0  501    0  0.00000000000E+00 -0.00000000000E+00 -0.62756525269E+03  0.62756525269E+03  0.00000000000E+00 0. -1.
         23    2    1    2    0    0 -0.39134603935E+01 -0.19464177066E+02  0.91786762167E+02  0.13085839488E+03  0.91131445952E+02 0.  0.
         23    2    1    2    0    0  0.39134603935E+01  0.19464177066E+02 -0.60460883205E+03  0.61145004060E+03  0.89023272254E+02 0.  0.
          5    1    3    3  502    0  0.38959066110E+02 -0.19952134326E+01  0.17078362634E+02  0.42843321289E+02  0.47000000000E+01 0. -1.
         -5    1    3    3    0  502 -0.42872526503E+02 -0.17468963633E+02  0.74708399533E+02  0.88015073595E+02  0.47000000000E+01 0.  1.
          5    1    4    4  503    0 -0.41249248217E+02  0.18145606262E+02 -0.33311362406E+03  0.33618081450E+03  0.47000000000E+01 0. -1.
         -5    1    4    4    0  503  0.45162708611E+02  0.13185708034E+01 -0.27149520799E+03  0.27526922611E+03  0.47000000000E+01 0.  1.
<mgrwt>
<rscale>  0 0.92750014E+02</rscale>
<asrwt>0</asrwt>
<pdfrwt beam="1">  1        1 0.96548500E-01 0.93269018E+02</pdfrwt>
<pdfrwt beam="2">  1       -1 0.17652797E-01 0.93269018E+02</pdfrwt>
<totfact> 0.81805452E+02</totfact>
</mgrwt>
</event>
<event>
 8    1  0.3466492E-004  0.1109789E+03  0.7546771E-02  0.1259007E+00
         -2   -1    0    0    0  501 -0.00000000000E+00  0.00000000000E+00  0.24708373646E+02  0.24708373646E+02  0.00000000000E+00 0.  1.
          2   -1    0    0  501    0  0.00000000000E+00 -0.00000000000E+00 -0.56859150566E+03  0.56859150566E+03  0.00000000000E+00 0. -1.
         23    2    1    2    0    0  0.57347447349E+02 -0.25373525809E+02 -0.16659954128E+03  0.20017922936E+03  0.91562935647E+02 0.  0.
         23    2    1    2    0    0 -0.57347447349E+02  0.25373525809E+02 -0.37728359073E+03  0.39312064994E+03  0.90930699134E+02 0.  0.
          5    1    3    3  502    0  0.17637200161E+02 -0.40903512001E+02 -0.14576209145E+03  0.15248883706E+03  0.47000000000E+01 0. -1.
         -5    1    4    4    0  503 -0.39786120632E+02 -0.28900926396E+02 -0.12459832180E+03  0.13403369254E+03  0.47000000000E+01 0.  1.
          5    1    4    4  503    0 -0.17561326717E+02  0.54274452205E+02 -0.25268526893E+03  0.25908695740E+03  0.47000000000E+01 0. -1.
         -5    1    3    3    0  502  0.39710247188E+02  0.15529986192E+02 -0.20837449832E+02  0.47690392307E+02  0.47000000000E+01 0.  1.
<mgrwt>
<rscale>  0 0.11084841E+03</rscale>
<asrwt>0</asrwt>
<pdfrwt beam="1">  1        2 0.87475615E-01 0.11097890E+03</pdfrwt>
<pdfrwt beam="2">  1       -2 0.38012883E-02 0.11097890E+03</pdfrwt>
<totfact> 0.14866408E+04</totfact>
</mgrwt>
</event>
<event>
 8    1  0.3466492E-004  0.1516228E+03  0.7546771E-02  0.1199145E+00
         -1   -1    0    0    0  501 -0.00000000000E+00  0.00000000000E+00  0.33179410148E+03  0.33179410148E+03  0.00000000000E+00 0.  1.
          1   -1    0    0  501    0  0.00000000000E+00 -0.00000000000E+00 -0.10983307774E+03  0.10983307774E+03  0.00000000000E+00 0. -1.
         23    2    1    2    0    0 -0.67488913650E+02  0.98894633585E+02  0.24625031242E+03  0.28807115249E+03  0.89503466488E+02 0.  0.
         23    2    1    2    0    0  0.67488913650E+02 -0.98894633585E+02 -0.24289288671E+02  0.15355602673E+03  0.93030004745E+02 0.  0.
          5    1    3    3  502    0 -0.34079125786E+02  0.77457379386E+01  0.17160790363E+02  0.39216909573E+02  0.47000000000E+01 0. -1.
         -5    1    3    3    0  502 -0.33409787864E+02  0.91148895646E+02  0.22908952205E+03  0.24885424292E+03  0.47000000000E+01 0.  1.
          5    1    4    4  503    0  0.11434891299E+02 -0.92472372900E+02 -0.26211265177E+02  0.96907259331E+02  0.47000000000E+01 0. -1.
         -5    1    4    4    0  503  0.56054022351E+02 -0.64222606848E+01  0.19219765055E+01  0.56648767398E+02  0.47000000000E+01 0.  1.
<mgrwt>
<rscale>  0 0.15108553E+03</rscale>
<asrwt>0</asrwt>
<pdfrwt beam="1">  1        1 0.16897397E-01 0.15162283E+03</pdfrwt>
<pdfrwt beam="2">  1       -1 0.51045246E-01 0.15162283E+03</pdfrwt>
<totfact> 0.12416393E+03</totfact>
</mgrwt>
</event>
<event>
 8    1  0.3466492E-004  0.9836445E+02  0.7546771E-02  0.1284072E+00
          1   -1    0    0  501    0  0.00000000000E+00  0.00000000000E+00  0.36856514927E+03  0.36856514927E+03  0.00000000000E+00 0. -1.
         -1   -1    0    0    0  501 -0.00000000000E+00 -0.00000000000E+00 -0.26540852193E+02  0.26540852193E+02  0.00000000000E+00 0.  1.
         23    2    1    2    0    0 -0.15698627472E+02  0.32495310118E+02  0.14520086386E+03  0.17507184724E+03  0.90909123572E+02 0.  0.
         23    2    1    2    0    0  0.15698627472E+02 -0.32495310118E+02  0.19682343322E+03  0.22003415422E+03  0.91505043981E+02 0.  0.
          5    1    4    4  502    0  0.28068517398E+02  0.13875214493E+02  0.21678087320E+02  0.38371769779E+02  0.47000000000E+01 0. -1.
         -5    1    3    3    0  503 -0.30083806208E+02  0.26030197359E+01  0.50530729648E+01  0.30974742195E+02  0.47000000000E+01 0.  1.
          5    1    3    3  503    0  0.14385178736E+02  0.29892290383E+02  0.14014779089E+03  0.14409710505E+03  0.47000000000E+01 0. -1.
         -5    1    4    4    0  502 -0.12369889927E+02 -0.46370524611E+02  0.17514534590E+03  0.18166238444E+03  0.47000000000E+01 0.  1.
<mgrwt>
<rscale>  0 0.98225627E+02</rscale>
<asrwt>0</asrwt>
<pdfrwt beam="1">  1        1 0.56702327E-01 0.98364451E+02</pdfrwt>
<pdfrwt beam="2">  1       -1 0.40832083E-02 0.98364451E+02</pdfrwt>
<totfact> 0.14690728E+04</totfact>
</mgrwt>
</event>
<event>
 8    1  0.3466492E-004  0.1081235E+03  0.7546771E-02  0.1266167E+00
         -2   -1    0    0    0  501 -0.00000000000E+00  0.00000000000E+00  0.86850217408E+02  0.86850217408E+02  0.00000000000E+00 0.  1.
          2   -1    0    0  501    0  0.00000000000E+00 -0.00000000000E+00 -0.39726442145E+03  0.39726442145E+03  0.00000000000E+00 0. -1.
         23    2    1    2    0    0  0.26190261148E+01  0.49222416304E+02  0.42552207719E+02  0.11619547741E+03  0.96234053346E+02 0.  0.
         23    2    1    2    0    0 -0.26190261148E+01 -0.49222416304E+02 -0.35296641176E+03  0.36791916145E+03  0.91375685865E+02 0.  0.
          5    1    3    3  502    0  0.13951978067E+02 -0.22216082657E+02 -0.79973924517E+01  0.27825533358E+02  0.47000000000E+01 0. -1.
         -5    1    3    3    0  502 -0.11332951952E+02  0.71438498961E+02  0.50549600170E+02  0.88369944049E+02  0.47000000000E+01 0.  1.
          5    1    4    4  503    0 -0.57192067934E+01  0.25246268351E+02 -0.13426418617E+03  0.13681756130E+03  0.47000000000E+01 0. -1.
         -5    1    4    4    0  503  0.31001806786E+01 -0.74468684655E+02 -0.21870222559E+03  0.23110160015E+03  0.47000000000E+01 0.  1.
<mgrwt>
<rscale>  0 0.10703199E+03</rscale>
<asrwt>0</asrwt>
<pdfrwt beam="1">  1        2 0.61117603E-01 0.10812353E+03</pdfrwt>
<pdfrwt beam="2">  1       -2 0.13361572E-01 0.10812353E+03</pdfrwt>
<totfact> 0.32006583E+03</totfact>
</mgrwt>
</event>
<event>
 8    1  0.3466492E-004  0.9585932E+02  0.7546771E-02  0.1290662E+00
         -1   -1    0    0    0  501 -0.00000000000E+00  0.00000000000E+00  0.19134111509E+03  0.19134111509E+03  0.00000000000E+00 0.  1.
          1   -1    0    0  501    0  0.00000000000E+00 -0.00000000000E+00 -0.15735323058E+03  0.15735323058E+03  0.00000000000E+00 0. -1.
         23    2    1    2    0    0 -0.22291947414E+02 -0.10063688003E+02 -0.12908624677E+03  0.16078640573E+03  0.92686570915E+02 0.  0.
         23    2    1    2    0    0  0.22291947414E+02  0.10063688003E+02  0.16307413128E+03  0.18790793994E+03  0.90100015897E+02 0.  0.
          5    1    3    3  502    0  0.30042286400E+02 -0.11367804337E+01 -0.89110810947E+02  0.94162932567E+02  0.47000000000E+01 0. -1.
         -5    1    3    3    0  502 -0.52334233814E+02 -0.89269075692E+01 -0.39975435824E+02  0.66623473168E+02  0.47000000000E+01 0.  1.
          5    1    4    4  503    0  0.35938061121E+02 -0.32313112618E+02  0.82215498824E+02  0.95483819211E+02  0.47000000000E+01 0. -1.
         -5    1    4    4    0  503 -0.13646113708E+02  0.42376800621E+02  0.80858632453E+02  0.92424120728E+02  0.47000000000E+01 0.  1.
<mgrwt>
<rscale>  0 0.95228466E+02</rscale>
<asrwt>0</asrwt>
<pdfrwt beam="1">  1        1 0.24208189E-01 0.95859320E+02</pdfrwt>
<pdfrwt beam="2">  1       -1 0.29437095E-01 0.95859320E+02</pdfrwt>
<totfact> 0.20213080E+03</totfact>
</mgrwt>
</event>
<event>
 8    1  0.3466492E-004  0.1040598E+03  0.7546771E-02  0.1272405E+00
          2   -1    0    0  501    0  0.00000000000E+00  0.00000000000E+00  0.89928624743E+02  0.89928624743E+02  0.00000000000E+00 0. -1.
         -2   -1    0    0    0  501 -0.00000000000E+00 -0.00000000000E+00 -0.12506856397E+03  0.12506856397E+03  0.00000000000E+00 0.  1.
         23    2    1    2    0    0  0.14798970671E+02 -0.48522314324E+02 -0.40309877432E+02  0.11080906560E+03  0.89890701860E+02 0.  0.
         23    2    1    2    0    0 -0.14798970671E+02  0.48522314324E+02  0.51699382071E+01  0.10418812311E+03  0.90857097772E+02 0.  0.
          5    1    3    3  502    0 -0.28243111444E+02 -0.49696260545E+02 -0.10705132863E+02  0.58344507247E+02  0.47000000000E+01 0. -1.
         -5    1    4    4    0  503  0.35126753165E+02  0.31243551883E+02 -0.11435333047E+02  0.48609722938E+02  0.47000000000E+01 0.  1.
          5    1    4    4  503    0 -0.49925723837E+02  0.17278762441E+02  0.16605271254E+02  0.55578400170E+02  0.47000000000E+01 0. -1.
         -5    1    3    3    0  502  0.43042082115E+02  0.11739462218E+01 -0.29604744569E+02  0.52464558356E+02  0.47000000000E+01 0.  1.
<mgrwt>
<rscale>  0 0.10384845E+03</rscale>
<asrwt>0</asrwt>
<pdfrwt beam="1">  1        2 0.13835173E-01 0.10405977E+03</pdfrwt>
<pdfrwt beam="2">  1       -2 0.19241318E-01 0.10405977E+03</pdfrwt>
<totfact> 0.88801933E+03</totfact>
</mgrwt>
</event>
<event>
 8    1  0.3466492E-004  0.1465254E+03  0.7546771E-02  0.1206038E+00
          1   -1    0    0  501    0  0.00000000000E+00  0.00000000000E+00  0.15392177103E+03  0.15392177103E+03  0.00000000000E+00 0. -1.
         -1   -1    0    0    0  501 -0.00000000000E+00 -0.00000000000E+00 -0.15362596290E+03  0.15362596290E+03  0.00000000000E+00 0.  1.
         23    2    1    2    0    0  0.54400997690E+02  0.95040036019E+02 -0.52130230692E+02  0.15552255824E+03  0.97353110752E+02 0.  0.
         23    2    1    2    0    0 -0.54400997690E+02 -0.95040036019E+02  0.52426038820E+02  0.15202517568E+03  0.91493647316E+02 0.  0.
          5    1    3    3  502    0 -0.26166767259E+02  0.28207652907E+02 -0.63170678866E+00  0.38766744057E+02  0.47000000000E+01 0. -1.
         -5    1    4    4    0  503 -0.66924970604E+02 -0.48879487294E+02  0.61253843229E+02  0.10316142340E+03  0.47000000000E+01 0. -1.
          5    1    4    4  503    0  0.12523972914E+02 -0.46160548725E+02 -0.88278044089E+01  0.48863752280E+02  0.47000000000E+01 0.  1.
         -5    1    3    3    0  502  0.80567764949E+02  0.66832383112E+02 -0.51498523903E+02  0.11675581418E+03  0.47000000000E+01 0.  1.
<mgrwt>
<rscale>  0 0.14555946E+03</rscale>
<asrwt>0</asrwt>
<pdfrwt beam="1">  1        1 0.23680272E-01 0.14652544E+03</pdfrwt>
<pdfrwt beam="2">  1       -1 0.23634763E-01 0.14652544E+03</pdfrwt>
<totfact> 0.30428083E+03</totfact>
</mgrwt>
</event>
<event>
 8    1  0.3466492E-004  0.1037691E+03  0.7546771E-02  0.1273716E+00
         -2   -1    0    0    0  501 -0.00000000000E+00  0.00000000000E+00  0.31224306567E+03  0.31224306567E+03  0.00000000000E+00 0.  1.
          2   -1    0    0  501    0  0.00000000000E+00 -0.00000000000E+00 -0.61811504000E+03  0.61811504000E+03  0.00000000000E+00 0. -1.
         23    2    1    2    0    0  0.34352389597E+02  0.29385089530E+02  0.29927721683E+03  0.31675681449E+03  0.93404801037E+02 0.  0.
         23    2    1    2    0    0 -0.34352389597E+02 -0.29385089530E+02 -0.60514919116E+03  0.61360129118E+03  0.90870406725E+02 0.  0.
          5    1    3    3  502    0  0.32725257238E+01  0.54481185109E+02  0.10578295507E+03  0.11912612031E+03  0.47000000000E+01 0. -1.
         -5    1    3    3    0  502  0.31079863874E+02 -0.25096095579E+02  0.19349426175E+03  0.19763069418E+03  0.47000000000E+01 0.  1.
          5    1    4    4  503    0 -0.65281199772E+02 -0.15615394526E+02 -0.40787023056E+03  0.41338322482E+03  0.47000000000E+01 0. -1.
         -5    1    4    4    0  503  0.30928810175E+02 -0.13769695004E+02 -0.19727896060E+03  0.20021806635E+03  0.47000000000E+01 0.  1.
<mgrwt>
<rscale>  0 0.10319555E+03</rscale>
<asrwt>0</asrwt>
<pdfrwt beam="1">  1        2 0.95094620E-01 0.10376910E+03</pdfrwt>
<pdfrwt beam="2">  1       -2 0.48037396E-01 0.10376910E+03</pdfrwt>
<totfact> 0.20976159E+02</totfact>
</mgrwt>
</event>
<event>
 8    1  0.3466492E-004  0.9228972E+02  0.7546771E-02  0.1297957E+00
          1   -1    0    0  501    0  0.00000000000E+00  0.00000000000E+00  0.45492549376E+02  0.45492549376E+02  0.00000000000E+00 0. -1.
         -1   -1    0    0    0  501 -0.00000000000E+00 -0.00000000000E+00 -0.28185793747E+03  0.28185793747E+03  0.00000000000E+00 0.  1.
         23    2    1    2    0    0  0.55134013534E+01 -0.10151519313E+02 -0.22789993487E+02  0.95061956598E+02  0.91563862142E+02 0.  0.
         23    2    1    2    0    0 -0.55134013534E+01  0.10151519313E+02 -0.21357539461E+03  0.23228853025E+03  0.90609387837E+02 0.  0.
          5    1    3    3  502    0  0.75214541350E+01  0.28440646680E+02  0.21015679926E+02  0.36458078099E+02  0.47000000000E+01 0. -1.
         -5    1    4    4    0  503 -0.26795126764E+02 -0.30401830420E+02 -0.13693685771E+03  0.14288471965E+03  0.47000000000E+01 0.  1.
          5    1    4    4  503    0  0.21281725410E+02  0.40553349733E+02 -0.76638536904E+02  0.89403810600E+02  0.47000000000E+01 0. -1.
         -5    1    3    3    0  502 -0.20080527816E+01 -0.38592165993E+02 -0.43805673413E+02  0.58603878499E+02  0.47000000000E+01 0.  1.
<mgrwt>
<rscale>  0 0.92052078E+02</rscale>
<asrwt>0</asrwt>
<pdfrwt beam="1">  1        1 0.69988537E-02 0.92289717E+02</pdfrwt>
<pdfrwt beam="2">  1       -1 0.43362760E-01 0.92289717E+02</pdfrwt>
<totfact> 0.51633894E+03</totfact>
</mgrwt>
</event>
<event>
 8    1  0.3466492E-004  0.9705394E+02  0.7546771E-02  0.1290636E+00
         -1   -1    0    0    0  501 -0.00000000000E+00  0.00000000000E+00  0.34776058708E+03  0.34776058708E+03  0.00000000000E+00 0.  1.
          1   -1    0    0  501    0  0.00000000000E+00 -0.00000000000E+00 -0.27264411430E+02  0.27264411430E+02  0.00000000000E+00 0. -1.
         23    2    1    2    0    0 -0.12863908867E+02  0.27528763343E+02  0.11367638168E+03  0.14947169232E+03  0.92174584842E+02 0.  0.
         23    2    1    2    0    0  0.12863908867E+02 -0.27528763343E+02  0.20681979397E+03  0.22555330619E+03  0.84714542983E+02 0.  0.
          5    1    3    3  502    0  0.35782612631E+02  0.30711372783E+02  0.47027550467E+02  0.66762746258E+02  0.47000000000E+01 0. -1.
         -5    1    3    3    0  502 -0.48646521498E+02 -0.31826094399E+01  0.66648831215E+02  0.82708946064E+02  0.47000000000E+01 0.  1.
          5    1    4    4  503    0  0.44645358042E+02 -0.50479949697E+01  0.70717207152E+02  0.83914859443E+02  0.47000000000E+01 0. -1.
         -5    1    4    4    0  503 -0.31781449176E+02 -0.22480768374E+02  0.13610258681E+03  0.14163844674E+03  0.47000000000E+01 0.  1.
<mgrwt>
<rscale>  0 0.95240049E+02</rscale>
<asrwt>0</asrwt>
<pdfrwt beam="1">  1        1 0.41945251E-02 0.97053939E+02</pdfrwt>
<pdfrwt beam="2">  1       -1 0.53501625E-01 0.97053939E+02</pdfrwt>
<totfact> 0.70893502E+03</totfact>
</mgrwt>
</event>
<event>
 8    1  0.3466492E-004  0.1095024E+03  0.7546771E-02  0.1261651E+00
         -1   -1    0    0    0  501 -0.00000000000E+00  0.00000000000E+00  0.79120245352E+02  0.79120245352E+02  0.00000000000E+00 0.  1.
          1   -1    0    0  501    0  0.00000000000E+00 -0.00000000000E+00 -0.55193447032E+03  0.55193447032E+03  0.00000000000E+00 0. -1.
         23    2    1    2    0    0 -0.56793477446E+02  0.17275569412E+02  0.32587650624E+02  0.11392627831E+03  0.91614941676E+02 0.  0.
         23    2    1    2    0    0  0.56793477446E+02 -0.17275569412E+02 -0.50540187559E+03  0.51712843735E+03  0.92015327493E+02 0.  0.
          5    1    3    3  502    0 -0.49645473508E+02 -0.16684678218E+02 -0.15146885039E+02  0.54722661242E+02  0.47000000000E+01 0. -1.
         -5    1    3    3    0  502 -0.71480039382E+01  0.33960247630E+02  0.47734535663E+02  0.59203617071E+02  0.47000000000E+01 0.  1.
          5    1    4    4  503    0  0.13693583208E+02 -0.45609810838E+02 -0.35156754473E+03  0.35480924111E+03  0.47000000000E+01 0. -1.
         -5    1    4    4    0  503  0.43099894238E+02  0.28334241426E+02 -0.15383433086E+03  0.16231919625E+03  0.47000000000E+01 0.  1.
<mgrwt>
<rscale>  0 0.10941820E+03</rscale>
<asrwt>0</asrwt>
<pdfrwt beam="1">  1        1 0.84912994E-01 0.10950235E+03</pdfrwt>
<pdfrwt beam="2">  1       -1 0.12172346E-01 0.10950235E+03</pdfrwt>
<totfact> 0.17351542E+03</totfact>
</mgrwt>
</event>
<event>
 8    1  0.3466492E-004  0.1004008E+03  0.7546771E-02  0.1284101E+00
         -1   -1    0    0    0  501 -0.00000000000E+00  0.00000000000E+00  0.14358341980E+02  0.14358341980E+02  0.00000000000E+00 0.  1.
          1   -1    0    0  501    0  0.00000000000E+00 -0.00000000000E+00 -0.87444534534E+03  0.87444534534E+03  0.00000000000E+00 0. -1.
         23    2    1    2    0    0  0.16560816548E+02 -0.89273155149E+01 -0.67194236589E+03  0.67940184478E+03  0.98622340291E+02 0.  0.
         23    2    1    2    0    0 -0.16560816548E+02  0.89273155149E+01 -0.18814463747E+03  0.20940184254E+03  0.89982050676E+02 0.  0.
          5    1    3    3  502    0  0.56614528208E+02 -0.16146930981E+02 -0.42500714346E+03  0.42909100454E+03  0.47000000000E+01 0. -1.
         -5    1    3    3    0  502 -0.40053711659E+02  0.72196154661E+01 -0.24693522242E+03  0.25031084023E+03  0.47000000000E+01 0.  1.
          5    1    4    4  503    0  0.68959666143E+01  0.38821083700E+02 -0.15071541048E+03  0.15585844813E+03  0.47000000000E+01 0. -1.
         -5    1    4    4    0  503 -0.23456783162E+02 -0.29893768185E+02 -0.37429226987E+02  0.53543394415E+02  0.47000000000E+01 0.  1.
<mgrwt>
<rscale>  0 0.98212030E+02</rscale>
<asrwt>0</asrwt>
<pdfrwt beam="1">  1        1 0.13453006E+00 0.10040081E+03</pdfrwt>
<pdfrwt beam="2">  1       -1 0.22089756E-02 0.10040081E+03</pdfrwt>
<totfact> 0.11153580E+04</totfact>
</mgrwt>
</event>
<event>
 8    1  0.3466492E-004  0.1836621E+03  0.7546771E-02  0.1164737E+00
         -3   -1    0    0    0  501 -0.00000000000E+00  0.00000000000E+00  0.66905512695E+03  0.66905512695E+03  0.00000000000E+00 0.  1.
          3   -1    0    0  501    0  0.00000000000E+00 -0.00000000000E+00 -0.52556008346E+02  0.52556008346E+02  0.00000000000E+00 0. -1.
         23    2    1    2    0    0  0.15750410271E+03 -0.13558685789E+02  0.38761972906E+03  0.42815324817E+03  0.89859719722E+02 0.  0.
         23    2    1    2    0    0 -0.15750410271E+03  0.13558685789E+02  0.22887938954E+03  0.29345788713E+03  0.93489979294E+02 0.  0.
          5    1    4    4  502    0 -0.77532402521E+02 -0.74033157638E+01  0.41007542704E+02  0.88146418439E+02  0.47000000000E+01 0. -1.
         -5    1    3    3    0  503  0.70735402288E+02 -0.49596273664E+02  0.16077158489E+03  0.18257294435E+03  0.47000000000E+01 0.  1.
          5    1    3    3  503    0  0.86768700424E+02  0.36037587875E+02  0.22684814417E+03  0.24558030382E+03  0.47000000000E+01 0. -1.
         -5    1    4    4    0  502 -0.79971700191E+02  0.20962001553E+02  0.18787184684E+03  0.20531146869E+03  0.47000000000E+01 0.  1.
<mgrwt>
<rscale>  0 0.18320510E+03</rscale>
<asrwt>0</asrwt>
<pdfrwt beam="1">  1        3 0.80855402E-02 0.18366207E+03</pdfrwt>
<pdfrwt beam="2">  1       -3 0.10293155E+00 0.18366207E+03</pdfrwt>
<totfact> 0.21484268E+02</totfact>
</mgrwt>
</event>
<event>
 8    1  0.3466492E-004  0.9894865E+02  0.7546771E-02  0.1284351E+00
          2   -1    0    0  501    0  0.00000000000E+00  0.00000000000E+00  0.19926003294E+03  0.19926003294E+03  0.00000000000E+00 0. -1.
         -2   -1    0    0    0  501 -0.00000000000E+00 -0.00000000000E+00 -0.47551014482E+02  0.47551014482E+02  0.00000000000E+00 0.  1.
         23    2    1    2    0    0 -0.34403320952E+02 -0.20298448839E+02  0.72363181965E+02  0.12258575093E+03  0.90527458317E+02 0.  0.
         23    2    1    2    0    0  0.34403320952E+02  0.20298448839E+02  0.79345836490E+02  0.12422529649E+03  0.86836323053E+02 0.  0.
          5    1    3    3  502    0 -0.16524995544E+02  0.16527319543E+02  0.77479587387E+02  0.81064198205E+02  0.47000000000E+01 0. -1.
         -5    1    4    4    0  503  0.27592888345E+02 -0.20816411304E+02  0.74175898975E+02  0.81968557725E+02  0.47000000000E+01 0.  1.
          5    1    4    4  503    0  0.68104326062E+01  0.41114860144E+02  0.51699375151E+01  0.42256738762E+02  0.47000000000E+01 0. -1.
         -5    1    3    3    0  502 -0.17878325407E+02 -0.36825768382E+02 -0.51164054218E+01  0.41521552726E+02  0.47000000000E+01 0.  1.
<mgrwt>
<rscale>  0 0.98096361E+02</rscale>
<asrwt>0</asrwt>
<pdfrwt beam="1">  1        2 0.30655389E-01 0.98948654E+02</pdfrwt>
<pdfrwt beam="2">  1       -2 0.73155408E-02 0.98948654E+02</pdfrwt>
<totfact> 0.16862566E+04</totfact>
</mgrwt>
</event>
<event>
 8    1  0.3466492E-004  0.1204251E+03  0.7546771E-02  0.1242823E+00
         -1   -1    0    0    0  501 -0.00000000000E+00  0.00000000000E+00  0.72888133226E+02  0.72888133226E+02  0.00000000000E+00 0.  1.
          1   -1    0    0  501    0  0.00000000000E+00 -0.00000000000E+00 -0.21450114693E+03  0.21450114693E+03  0.00000000000E+00 0. -1.
         23    2    1    2    0    0  0.73921298225E+02 -0.14320410104E+02 -0.30353614891E+02  0.12419155667E+03  0.93982808720E+02 0.  0.
         23    2    1    2    0    0 -0.73921298225E+02  0.14320410104E+02 -0.11125939882E+03  0.16319772349E+03  0.92657491061E+02 0.  0.
          5    1    4    4  502    0 -0.69930518635E+02 -0.20387294970E+02 -0.10423829233E+03  0.12725419765E+03  0.47000000000E+01 0. -1.
         -5    1    3    3    0  503  0.24127717476E+02  0.21308315739E+02  0.25382034499E+02  0.41261710405E+02  0.47000000000E+01 0.  1.
          5    1    3    3  503    0  0.49793580750E+02 -0.35628725842E+02 -0.55735649390E+02  0.82929846267E+02  0.47000000000E+01 0. -1.
         -5    1    4    4    0  502 -0.39907795903E+01  0.34707705074E+02 -0.70211064903E+01  0.35943525837E+02  0.47000000000E+01 0.  1.
<mgrwt>
<rscale>  0 0.12016639E+03</rscale>
<asrwt>0</asrwt>
<pdfrwt beam="1">  1        1 0.33000176E-01 0.12042508E+03</pdfrwt>
<pdfrwt beam="2">  1       -1 0.11213559E-01 0.12042508E+03</pdfrwt>
<totfact> 0.64517889E+03</totfact>
</mgrwt>
</event>
<event>
 7    1  0.3466492E-004  0.1307032E+03  0.7546771E-02  0.1243022E+00
         -1   -1    0    0    0  501 -0.00000000000E+00  0.00000000000E+00  0.51408558532E+02  0.51408558532E+02  0.00000000000E+00 0.  1.
          1   -1    0    0  501    0  0.00000000000E+00 -0.00000000000E+00 -0.24595385498E+03  0.24595385498E+03  0.00000000000E+00 0. -1.
         23    2    1    2    0    0  0.16090554224E+02  0.12345668097E+02 -0.66063611589E+02  0.11408431763E+03  0.90771742832E+02 0.  0.
          5    1    3    3  502    0  0.48748008301E+02 -0.95052514075E+01 -0.52064481085E+02  0.72107685501E+02  0.47000000000E+01 0. -1.
         -5    1    1    2    0  503 -0.34323892564E+02  0.56957114827E+01  0.14464945261E+02  0.37972297421E+02  0.47000000000E+01 0.  1.
          5    1    1    2  503    0  0.18233338340E+02 -0.18041379579E+02 -0.14294663012E+03  0.14530579846E+03  0.47000000000E+01 0. -1.
         -5    1    3    3    0  502 -0.32657454077E+02  0.21850919504E+02 -0.13999130504E+02  0.41976632128E+02  0.47000000000E+01 0.  1.
<mgrwt>
<rscale>  0 0.12004575E+03</rscale>
<asrwt>0</asrwt>
<pdfrwt beam="1">  1        1 0.37839054E-01 0.13070316E+03</pdfrwt>
<pdfrwt beam="2">  1       -1 0.79090090E-02 0.13070316E+03</pdfrwt>
<totfact> 0.93133393E+03</totfact>
</mgrwt>
</event>
<event>
 8    1  0.3466492E-004  0.1498731E+03  0.7546771E-02  0.1200694E+00
         -2   -1    0    0    0  501 -0.00000000000E+00  0.00000000000E+00  0.10746130686E+03  0.10746130686E+03  0.00000000000E+00 0.  1.
          2   -1    0    0  501    0  0.00000000000E+00 -0.00000000000E+00 -0.43731764686E+03  0.43731764686E+03  0.00000000000E+00 0. -1.
         23    2    1    2    0    0 -0.11587893109E+03  0.28435023940E+02 -0.36180570397E+03  0.39153826967E+03  0.90345846248E+02 0.  0.
         23    2    1    2    0    0  0.11587893109E+03 -0.28435023940E+02  0.31949363973E+02  0.15324068405E+03  0.90694366594E+02 0.  0.
          5    1    3    3  502    0 -0.28519751060E+02 -0.92104032105E+01 -0.21104099788E+03  0.21321022610E+03  0.47000000000E+01 0. -1.
         -5    1    3    3    0  502 -0.87359180034E+02  0.37645427150E+02 -0.15076470609E+03  0.17832804357E+03  0.47000000000E+01 0.  1.
          5    1    4    4  503    0  0.41879608298E+02 -0.42421904700E+02  0.47295842011E+02  0.76239794472E+02  0.47000000000E+01 0. -1.
         -5    1    4    4    0  503  0.73999322796E+02  0.13986880760E+02 -0.15346478038E+02  0.77000889578E+02  0.47000000000E+01 0.  1.
<mgrwt>
<rscale>  0 0.14982041E+03</rscale>
<asrwt>0</asrwt>
<pdfrwt beam="1">  1        2 0.67279637E-01 0.14987310E+03</pdfrwt>
<pdfrwt beam="2">  1       -2 0.16532509E-01 0.14987310E+03</pdfrwt>
<totfact> 0.20672436E+03</totfact>
</mgrwt>
</event>
<event>
 8    1  0.3466492E-004  0.1111870E+03  0.7546771E-02  0.1258391E+00
          1   -1    0    0  501    0  0.00000000000E+00  0.00000000000E+00  0.60403683391E+03  0.60403683391E+03  0.00000000000E+00 0. -1.
         -1   -1    0    0    0  501 -0.00000000000E+00 -0.00000000000E+00 -0.25985171764E+02  0.25985171764E+02  0.00000000000E+00 0.  1.
         23    2    1    2    0    0 -0.45806301814E+01  0.63246250127E+02  0.43422259655E+03  0.44823187135E+03  0.91331685722E+02 0.  0.
         23    2    1    2    0    0  0.45806301814E+01 -0.63246250127E+02  0.14382906560E+03  0.18179013432E+03  0.91322409612E+02 0.  0.
          5    1    3    3  502    0  0.43134699323E+02  0.32312643787E+02  0.20629976880E+03  0.21327539436E+03  0.47000000000E+01 0. -1.
         -5    1    4    4    0  503  0.36265353464E+02 -0.59297715779E+02  0.59928235386E+02  0.91896019255E+02  0.47000000000E+01 0.  1.
          5    1    4    4  503    0 -0.31684723283E+02 -0.39485343479E+01  0.83900830213E+02  0.89894115066E+02  0.47000000000E+01 0. -1.
         -5    1    3    3    0  502 -0.47715329505E+02  0.30933606340E+02  0.22792282775E+03  0.23495647699E+03  0.47000000000E+01 0.  1.
<mgrwt>
<rscale>  0 0.11118509E+03</rscale>
<asrwt>0</asrwt>
<pdfrwt beam="1">  1        1 0.92928733E-01 0.11118699E+03</pdfrwt>
<pdfrwt beam="2">  1       -1 0.39977192E-02 0.11118699E+03</pdfrwt>
<totfact> 0.81158816E+03</totfact>
</mgrwt>
</event>
<event>
 8    1  0.3466492E-004  0.1608430E+03  0.7546771E-02  0.1187890E+00
         -2   -1    0    0    0  501 -0.00000000000E+00  0.00000000000E+00  0.50215692690E+03  0.50215692690E+03  0.00000000000E+00 0.  1.
          2   -1    0    0  501    0  0.00000000000E+00 -0.00000000000E+00 -0.71417853660E+02  0.71417853660E+02  0.00000000000E+00 0. -1.
         23    2    1    2    0    0  0.13215784579E+03 -0.78283256260E+01  0.63128392906E+02  0.17231664301E+03  0.90448065651E+02 0.  0.
         23    2    1    2    0    0 -0.13215784579E+03  0.78283256260E+01  0.36761068033E+03  0.40125813755E+03  0.91342770744E+02 0.  0.
          5    1    3    3  502    0  0.47807582478E+02  0.23667329019E+02 -0.12089621095E+02  0.54899511323E+02  0.47000000000E+01 0. -1.
         -5    1    4    4    0  503 -0.94465269200E+02 -0.35219092363E+02  0.19879355634E+03  0.22294627065E+03  0.47000000000E+01 0.  1.
          5    1    4    4  503    0 -0.37692576595E+02  0.43047417989E+02  0.16881712399E+03  0.17831186690E+03  0.47000000000E+01 0. -1.
         -5    1    3    3    0  502  0.84350263317E+02 -0.31495654645E+02  0.75218014002E+02  0.11741713169E+03  0.47000000000E+01 0.  1.
<mgrwt>
<rscale>  0 0.16071628E+03</rscale>
<asrwt>0</asrwt>
<pdfrwt beam="1">  1        2 0.10987362E-01 0.16084303E+03</pdfrwt>
<pdfrwt beam="2">  1       -2 0.77254910E-01 0.16084303E+03</pdfrwt>
<totfact> 0.86351364E+02</totfact>
</mgrwt>
</event>
<event>
 8    1  0.3466492E-004  0.1005088E+03  0.7546771E-02  0.1282384E+00
          1   -1    0    0  501    0  0.00000000000E+00  0.00000000000E+00  0.10966208270E+02  0.10966208270E+02  0.00000000000E+00 0. -1.
         -1   -1    0    0    0  501 -0.00000000000E+00 -0.00000000000E+00 -0.95672822049E+03  0.95672822049E+03  0.00000000000E+00 0.  1.
         23    2    1    2    0    0  0.13575039702E+02  0.21293880497E+02 -0.60700031636E+03  0.61433694680E+03  0.91229321422E+02 0.  0.
         23    2    1    2    0    0 -0.13575039702E+02 -0.21293880497E+02 -0.33876169586E+03  0.35335748196E+03  0.97284697814E+02 0.  0.
          5    1    3    3  502    0  0.49523534913E+02  0.22771416621E+02 -0.27726180149E+03  0.28260805808E+03  0.47000000000E+01 0. -1.
         -5    1    4    4    0  503 -0.54943314607E+02 -0.63894925079E+01 -0.16651490155E+03  0.17552463039E+03  0.47000000000E+01 0.  1.
          5    1    4    4  503    0  0.41368274904E+02 -0.14904387989E+02 -0.17224679431E+03  0.17783285157E+03  0.47000000000E+01 0. -1.
         -5    1    3    3    0  502 -0.35948495210E+02 -0.14775361249E+01 -0.32973851487E+03  0.33172888872E+03  0.47000000000E+01 0.  1.
<mgrwt>
<rscale>  0 0.99013559E+02</rscale>
<asrwt>0</asrwt>
<pdfrwt beam="1">  1        1 0.16871087E-02 0.10050882E+03</pdfrwt>
<pdfrwt beam="2">  1       -1 0.14718898E+00 0.10050882E+03</pdfrwt>
<totfact> 0.28893189E+03</totfact>
</mgrwt>
</event>
<event>
 8    1  0.3466492E-004  0.9830838E+02  0.7546771E-02  0.1285454E+00
         -1   -1    0    0    0  501 -0.00000000000E+00  0.00000000000E+00  0.24915361469E+03  0.24915361469E+03  0.00000000000E+00 0.  1.
          1   -1    0    0  501    0  0.00000000000E+00 -0.00000000000E+00 -0.39091651781E+02  0.39091651781E+02  0.00000000000E+00 0. -1.
         23    2    1    2    0    0  0.18857497190E+02 -0.20222264684E+02  0.79053776874E+02  0.12615085045E+03  0.94339770202E+02 0.  0.
         23    2    1    2    0    0 -0.18857497190E+02  0.20222264684E+02  0.13100818604E+03  0.16209441602E+03  0.91361423521E+02 0.  0.
          5    1    4    4  502    0 -0.48847635994E+02  0.16728669989E+02  0.11799344107E+03  0.12888165920E+03  0.47000000000E+01 0. -1.
         -5    1    3    3    0  503  0.55563568616E+02 -0.36286690725E+01  0.57673750226E+02  0.80304600501E+02  0.47000000000E+01 0.  1.
          5    1    3    3  503    0 -0.36706071425E+02 -0.16593595611E+02  0.21380026648E+02  0.45846249947E+02  0.47000000000E+01 0. -1.
         -5    1    4    4    0  502  0.29990138804E+02  0.34935946948E+01  0.13014744965E+02  0.33212756824E+02  0.47000000000E+01 0.  1.
<mgrwt>
<rscale>  0 0.97586865E+02</rscale>
<asrwt>0</asrwt>
<pdfrwt beam="1">  1        1 0.60141004E-02 0.98308379E+02</pdfrwt>
<pdfrwt beam="2">  1       -1 0.38331324E-01 0.98308379E+02</pdfrwt>
<totfact> 0.78840504E+03</totfact>
</mgrwt>
</event>
<event>
 8    1  0.3466492E-004  0.9845720E+02  0.7546771E-02  0.1283983E+00
          4   -1    0    0  501    0  0.00000000000E+00  0.00000000000E+00  0.52633006885E+02  0.52633006885E+02  0.00000000000E+00 0. -1.
         -4   -1    0    0    0  501 -0.00000000000E+00 -0.00000000000E+00 -0.18408802170E+03  0.18408802170E+03  0.00000000000E+00 0.  1.
         23    2    1    2    0    0 -0.20221440308E+02 -0.17969340206E+02 -0.55423152249E+02  0.11232382486E+03  0.93878176328E+02 0.  0.
         23    2    1    2    0    0  0.20221440308E+02  0.17969340206E+02 -0.76031862562E+02  0.12439720372E+03  0.94667926635E+02 0.  0.
          5    1    4    4  502    0 -0.55691916228E+00  0.53999730357E+02 -0.56191436647E+02  0.78075915557E+02  0.47000000000E+01 0. -1.
         -5    1    3    3    0  503  0.31287054755E+02 -0.10348961915E+02 -0.49579185647E+02  0.59717388233E+02  0.47000000000E+01 0.  1.
          5    1    3    3  503    0 -0.51508495064E+02 -0.76203782909E+01 -0.58439666021E+01  0.52606436628E+02  0.47000000000E+01 0. -1.
         -5    1    4    4    0  502  0.20778359471E+02 -0.36030390151E+02 -0.19840425915E+02  0.46321288164E+02  0.47000000000E+01 0.  1.
<mgrwt>
<rscale>  0 0.98266870E+02</rscale>
<asrwt>0</asrwt>
<pdfrwt beam="1">  1        4 0.80973858E-02 0.98457200E+02</pdfrwt>
<pdfrwt beam="2">  1       -4 0.28321234E-01 0.98457200E+02</pdfrwt>
<totfact> 0.19524409E+03</totfact>
</mgrwt>
</event>
<event>
 8    1  0.3466492E-004  0.9579669E+02  0.7546771E-02  0.1290333E+00
         -1   -1    0    0    0  501 -0.00000000000E+00  0.00000000000E+00  0.20341984719E+03  0.20341984719E+03  0.00000000000E+00 0.  1.
          1   -1    0    0  501    0  0.00000000000E+00 -0.00000000000E+00 -0.55735992579E+02  0.55735992579E+02  0.00000000000E+00 0. -1.
         23    2    1    2    0    0  0.10306203695E+01 -0.27552962128E+02  0.15740070674E+02  0.97081178549E+02  0.91742997025E+02 0.  0.
         23    2    1    2    0    0 -0.10306203695E+01  0.27552962128E+02  0.13194378394E+03  0.16207466122E+03  0.89993365254E+02 0.  0.
          5    1    3    3  502    0  0.33322746454E+02 -0.35694850545E+02 -0.15224129591E+02  0.51365279212E+02  0.47000000000E+01 0. -1.
         -5    1    4    4    0  503 -0.41725423509E+02  0.23269501025E+02  0.96309569749E+02  0.10761089104E+03  0.47000000000E+01 0.  1.
          5    1    4    4  503    0  0.40694803139E+02  0.42834611029E+01  0.35634214187E+02  0.54463770181E+02  0.47000000000E+01 0. -1.
         -5    1    3    3    0  502 -0.32292126085E+02  0.81418884172E+01  0.30964200265E+02  0.45715899337E+02  0.47000000000E+01 0.  1.
<mgrwt>
<rscale>  0 0.95375354E+02</rscale>
<asrwt>0</asrwt>
<pdfrwt beam="1">  1        1 0.85747682E-02 0.95796688E+02</pdfrwt>
<pdfrwt beam="2">  1       -1 0.31295361E-01 0.95796688E+02</pdfrwt>
<totfact> 0.69162889E+03</totfact>
</mgrwt>
</event>
<event>
 8    1  0.3466492E-004  0.9590876E+02  0.7546771E-02  0.1290669E+00
          1   -1    0    0  501    0  0.00000000000E+00  0.00000000000E+00  0.34569447911E+03  0.34569447911E+03  0.00000000000E+00 0. -1.
         -1   -1    0    0    0  501 -0.00000000000E+00 -0.00000000000E+00 -0.10281868695E+03  0.10281868695E+03  0.00000000000E+00 0.  1.
         23    2    1    2    0    0 -0.68009030707E+01 -0.17088547409E+02 -0.73005511172E+02  0.11839275065E+03  0.91371593013E+02 0.  0.
         23    2    1    2    0    0  0.68009030707E+01  0.17088547409E+02  0.31588130333E+03  0.33012041542E+03  0.94128742406E+02 0.  0.
          5    1    4    4  502    0  0.43080838591E+02  0.34493963725E+02  0.18449932711E+03  0.19263406732E+03  0.47000000000E+01 0. -1.
         -5    1    3    3    0  503 -0.44773124018E+02 -0.28462815104E+02 -0.43093502645E+02  0.68512075200E+02  0.47000000000E+01 0.  1.
          5    1    3    3  503    0  0.37972220947E+02  0.11374267695E+02 -0.29912008528E+02  0.49880675450E+02  0.47000000000E+01 0. -1.
         -5    1    4    4    0  502 -0.36279935520E+02 -0.17405416316E+02  0.13138197622E+03  0.13748634810E+03  0.47000000000E+01 0.  1.
<mgrwt>
<rscale>  0 0.95225374E+02</rscale>
<asrwt>0</asrwt>
<pdfrwt beam="1">  1        1 0.53183766E-01 0.95908763E+02</pdfrwt>
<pdfrwt beam="2">  1       -1 0.15818260E-01 0.95908763E+02</pdfrwt>
<totfact> 0.20832974E+03</totfact>
</mgrwt>
</event>
<event>
 8    1  0.3466492E-004  0.1010371E+03  0.7546771E-02  0.1278305E+00
         -3   -1    0    0    0  501 -0.00000000000E+00  0.00000000000E+00  0.52829474113E+02  0.52829474113E+02  0.00000000000E+00 0.  1.
          3   -1    0    0  501    0  0.00000000000E+00 -0.00000000000E+00 -0.20843337177E+03  0.20843337177E+03  0.00000000000E+00 0. -1.
         23    2    1    2    0    0  0.27765849110E+02 -0.32856676798E+02 -0.11393715806E+03  0.15228320344E+03  0.91422067785E+02 0.  0.
         23    2    1    2    0    0 -0.27765849110E+02  0.32856676798E+02 -0.41666739605E+02  0.10897964244E+03  0.91049116915E+02 0.  0.
          5    1    4    4  502    0 -0.41155338958E+02  0.16179247287E+01 -0.57748528915E+02  0.71087004417E+02  0.47000000000E+01 0. -1.
         -5    1    3    3    0  503  0.53113625597E+02 -0.26194093114E+02 -0.34943486103E+02  0.68922601222E+02  0.47000000000E+01 0.  1.
          5    1    3    3  503    0 -0.25347776487E+02 -0.66625836837E+01 -0.78993671953E+02  0.83360602222E+02  0.47000000000E+01 0. -1.
         -5    1    4    4    0  502  0.13389489849E+02  0.31238752069E+02  0.16081789309E+02  0.37892638027E+02  0.47000000000E+01 0.  1.
<mgrwt>
<rscale>  0 0.10095267E+03</rscale>
<asrwt>0</asrwt>
<pdfrwt beam="1">  1        3 0.32066672E-01 0.10103711E+03</pdfrwt>
<pdfrwt beam="2">  1       -3 0.81276115E-02 0.10103711E+03</pdfrwt>
<totfact> 0.21359873E+03</totfact>
</mgrwt>
</event>
<event>
 8    1  0.3466492E-004  0.1074692E+03  0.7546771E-02  0.1265807E+00
          2   -1    0    0  501    0  0.00000000000E+00  0.00000000000E+00  0.62228178862E+03  0.62228178862E+03  0.00000000000E+00 0. -1.
         -2   -1    0    0    0  501 -0.00000000000E+00 -0.00000000000E+00 -0.24084594862E+02  0.24084594862E+02  0.00000000000E+00 0.  1.
         23    2    1    2    0    0 -0.16724671663E+02 -0.51777263654E+02  0.14086930520E+03  0.17658087215E+03  0.91520727639E+02 0.  0.
         23    2    1    2    0    0  0.16724671663E+02  0.51777263654E+02  0.45732788856E+03  0.46978551134E+03  0.92677016203E+02 0.  0.
          5    1    4    4  502    0  0.86694923513E+01  0.76075716761E+02  0.39253599688E+03  0.39996159019E+03  0.47000000000E+01 0. -1.
         -5    1    4    4    0  502  0.80551793119E+01 -0.24298453107E+02  0.64791891684E+02  0.69823921153E+02  0.47000000000E+01 0.  1.
          5    1    3    3  503    0 -0.34005059718E+02 -0.26371817772E+02  0.13883997652E+03  0.14543192888E+03  0.47000000000E+01 0. -1.
         -5    1    3    3    0  503  0.17280388054E+02 -0.25405445882E+02  0.20293286836E+01  0.31148943268E+02  0.47000000000E+01 0.  1.
<mgrwt>
<rscale>  0 0.10721945E+03</rscale>
<asrwt>0</asrwt>
<pdfrwt beam="1">  1        2 0.95735648E-01 0.10746920E+03</pdfrwt>
<pdfrwt beam="2">  1       -2 0.37053228E-02 0.10746920E+03</pdfrwt>
<totfact> 0.13909620E+04</totfact>
</mgrwt>
</event>
<event>
 8    1  0.3466492E-004  0.9249422E+02  0.7546771E-02  0.1297636E+00
          1   -1    0    0  501    0  0.00000000000E+00  0.00000000000E+00  0.81261638842E+02  0.81261638842E+02  0.00000000000E+00 0. -1.
         -1   -1    0    0    0  501 -0.00000000000E+00 -0.00000000000E+00 -0.10542954825E+03  0.10542954825E+03  0.00000000000E+00 0.  1.
         23    2    1    2    0    0 -0.40515923426E+01 -0.20924813822E+01 -0.76537813438E+00  0.91282281855E+02  0.91165099123E+02 0.  0.
         23    2    1    2    0    0  0.40515923426E+01  0.20924813822E+01 -0.23402531271E+02  0.95408905234E+02  0.92381745216E+02 0.  0.
          5    1    3    3  502    0 -0.32232931375E+02  0.19357537599E+02  0.26586035935E+02  0.46288048496E+02  0.47000000000E+01 0. -1.
         -5    1    4    4    0  503  0.46181640690E+02 -0.81602335548E+01 -0.21363366217E+02  0.51747625690E+02  0.47000000000E+01 0.  1.
          5    1    4    4  503    0 -0.42130048347E+02  0.10252714937E+02 -0.20391650546E+01  0.43661279544E+02  0.47000000000E+01 0. -1.
         -5    1    3    3    0  502  0.28181339032E+02 -0.21450018981E+02 -0.27351414069E+02  0.44994233358E+02  0.47000000000E+01 0.  1.
<mgrwt>
<rscale>  0 0.92188925E+02</rscale>
<asrwt>0</asrwt>
<pdfrwt beam="1">  1        1 0.12501791E-01 0.92494220E+02</pdfrwt>
<pdfrwt beam="2">  1       -1 0.16219931E-01 0.92494220E+02</pdfrwt>
<totfact> 0.12139348E+04</totfact>
</mgrwt>
</event>
<event>
 8    1  0.3466492E-004  0.1043821E+03  0.7546771E-02  0.1276067E+00
         -2   -1    0    0    0  501 -0.00000000000E+00  0.00000000000E+00  0.99618265576E+03  0.99618265576E+03  0.00000000000E+00 0.  1.
          2   -1    0    0  501    0  0.00000000000E+00 -0.00000000000E+00 -0.15532050608E+02  0.15532050608E+02  0.00000000000E+00 0. -1.
         23    2    1    2    0    0  0.27664979227E+02 -0.88423731462E+01  0.80613349971E+03  0.81286336099E+03  0.10026009003E+03 0.  0.
         23    2    1    2    0    0 -0.27664979227E+02  0.88423731462E+01  0.17451710544E+03  0.19885134538E+03  0.90786005677E+02 0.  0.
          5    1    4    4  502    0  0.23957827326E+02  0.26503489877E+02  0.10059683336E+03  0.10685609645E+03  0.47000000000E+01 0. -1.
         -5    1    4    4    0  502 -0.51622806552E+02 -0.17661116731E+02  0.73920272085E+02  0.91995248930E+02  0.47000000000E+01 0.  1.
          5    1    3    3  503    0  0.56626545554E+02  0.20545833063E+02  0.56012298756E+03  0.56337247724E+03  0.47000000000E+01 0. -1.
         -5    1    3    3    0  503 -0.28961566328E+02 -0.29388206209E+02  0.24601051214E+03  0.24949088375E+03  0.47000000000E+01 0.  1.
<mgrwt>
<rscale>  0 0.10203848E+03</rscale>
<asrwt>0</asrwt>
<pdfrwt beam="1">  1        2 0.23895470E-02 0.10438211E+03</pdfrwt>
<pdfrwt beam="2">  1       -2 0.15325882E+00 0.10438211E+03</pdfrwt>
<totfact> 0.12171915E+03</totfact>
</mgrwt>
</event>
<event>
 8    1  0.3466492E-004  0.9534056E+02  0.7546771E-02  0.1291118E+00
         -1   -1    0    0    0  501 -0.00000000000E+00  0.00000000000E+00  0.46571967169E+02  0.46571967169E+02  0.00000000000E+00 0.  1.
          1   -1    0    0  501    0  0.00000000000E+00 -0.00000000000E+00 -0.19697281850E+03  0.19697281850E+03  0.00000000000E+00 0. -1.
         23    2    1    2    0    0 -0.13037876576E+02 -0.24501244762E+02 -0.57585276910E+02  0.11138171835E+03  0.91211434838E+02 0.  0.
         23    2    1    2    0    0  0.13037876576E+02  0.24501244762E+02 -0.92815574418E+02  0.13216306732E+03  0.89900212943E+02 0.  0.
          5    1    4    4  502    0 -0.24709894627E+02  0.41577631513E+02 -0.68205130899E+02  0.83745496689E+02  0.47000000000E+01 0. -1.
         -5    1    4    4    0  502  0.37747771202E+02 -0.17076386751E+02 -0.24610443519E+02  0.48417570627E+02  0.47000000000E+01 0.  1.
          5    1    3    3  503    0 -0.44165861586E+02  0.11642774738E+02 -0.18378028584E+02  0.49457248891E+02  0.47000000000E+01 0. -1.
         -5    1    3    3    0  503  0.31127985011E+02 -0.36144019500E+02 -0.39207248326E+02  0.61924469458E+02  0.47000000000E+01 0.  1.
<mgrwt>
<rscale>  0 0.95025591E+02</rscale>
<asrwt>0</asrwt>
<pdfrwt beam="1">  1        1 0.30303510E-01 0.95340564E+02</pdfrwt>
<pdfrwt beam="2">  1       -1 0.71649181E-02 0.95340564E+02</pdfrwt>
<totfact> 0.13811868E+04</totfact>
</mgrwt>
</event>
<event>
 8    1  0.3466492E-004  0.1055850E+03  0.7546771E-02  0.1269545E+00
          1   -1    0    0  501    0  0.00000000000E+00  0.00000000000E+00  0.14268102785E+03  0.14268102785E+03  0.00000000000E+00 0. -1.
         -1   -1    0    0    0  501 -0.00000000000E+00 -0.00000000000E+00 -0.16406859449E+03  0.16406859449E+03  0.00000000000E+00 0.  1.
         23    2    1    2    0    0  0.38781586566E+02  0.37887125375E+02 -0.12222028579E+03  0.16075156007E+03  0.89240238010E+02 0.  0.
         23    2    1    2    0    0 -0.38781586566E+02 -0.37887125375E+02  0.10083271915E+03  0.14599806227E+03  0.90602158967E+02 0.  0.
          5    1    4    4  502    0 -0.19793702516E+02 -0.54788190214E+02  0.10465319295E+03  0.11986624730E+03  0.47000000000E+01 0. -1.
         -5    1    4    4    0  502 -0.18987884050E+02  0.16901064839E+02 -0.38204738074E+01  0.26131814967E+02  0.47000000000E+01 0.  1.
          5    1    3    3  503    0  0.46702015499E+02  0.10259003302E+02 -0.16044435339E+02  0.50654114401E+02  0.47000000000E+01 0. -1.
         -5    1    3    3    0  503 -0.79204289327E+01  0.27628122073E+02 -0.10617585045E+03  0.11009744566E+03  0.47000000000E+01 0.  1.
<mgrwt>
<rscale>  0 0.10529223E+03</rscale>
<asrwt>0</asrwt>
<pdfrwt beam="1">  1        1 0.21950927E-01 0.10558502E+03</pdfrwt>
<pdfrwt beam="2">  1       -1 0.25241322E-01 0.10558502E+03</pdfrwt>
<totfact> 0.29566879E+03</totfact>
</mgrwt>
</event>
<event>
 8    1  0.3466492E-004  0.9705209E+02  0.7546771E-02  0.1287803E+00
          1   -1    0    0  501    0  0.00000000000E+00  0.00000000000E+00  0.36248117635E+03  0.36248117635E+03  0.00000000000E+00 0. -1.
         -1   -1    0    0    0  501 -0.00000000000E+00 -0.00000000000E+00 -0.29236764431E+02  0.29236764431E+02  0.00000000000E+00 0.  1.
         23    2    1    2    0    0 -0.22590613298E+02  0.56314697705E+01  0.94214463696E+02  0.13373649904E+03  0.92016502577E+02 0.  0.
         23    2    1    2    0    0  0.22590613298E+02 -0.56314697705E+01  0.23902994822E+03  0.25798144173E+03  0.94218145130E+02 0.  0.
          5    1    4    4  502    0  0.17285024837E+02  0.30070906976E+02  0.20560674147E+03  0.20856474695E+03  0.47000000000E+01 0. -1.
         -5    1    3    3    0  503  0.30189716105E+02  0.23334902301E+02  0.31118536047E+02  0.49460993819E+02  0.47000000000E+01 0.  1.
          5    1    3    3  503    0 -0.52780329403E+02 -0.17703432530E+02  0.63095927648E+02  0.84275505226E+02  0.47000000000E+01 0. -1.
         -5    1    4    4    0  502  0.53055884610E+01 -0.35702376746E+02  0.33423206745E+02  0.49416694784E+02  0.47000000000E+01 0.  1.
<mgrwt>
<rscale>  0 0.96513654E+02</rscale>
<asrwt>0</asrwt>
<pdfrwt beam="1">  1        1 0.55766332E-01 0.97052090E+02</pdfrwt>
<pdfrwt beam="2">  1       -1 0.44979640E-02 0.97052090E+02</pdfrwt>
<totfact> 0.13006883E+04</totfact>
</mgrwt>
</event>
<event>
 8    1  0.3466492E-004  0.1161164E+03  0.7546771E-02  0.1251606E+00
         -1   -1    0    0    0  501 -0.00000000000E+00  0.00000000000E+00  0.28999801515E+02  0.28999801515E+02  0.00000000000E+00 0.  1.
          1   -1    0    0  501    0  0.00000000000E+00 -0.00000000000E+00 -0.48584947857E+03  0.48584947857E+03  0.00000000000E+00 0. -1.
         23    2    1    2    0    0  0.48256584507E+02 -0.41611526181E+02 -0.29684567279E+03  0.31715176505E+03  0.91693356137E+02 0.  0.
         23    2    1    2    0    0 -0.48256584507E+02  0.41611526181E+02 -0.16000400426E+03  0.19769751503E+03  0.97071154373E+02 0.  0.
          5    1    3    3  502    0  0.28296959719E+02 -0.58243440078E+02 -0.10466571100E+03  0.12316662413E+03  0.47000000000E+01 0. -1.
         -5    1    4    4    0  503 -0.73595891216E+02  0.38523184753E+02 -0.14640462585E+03  0.16839476072E+03  0.47000000000E+01 0.  1.
          5    1    4    4  503    0  0.25339306709E+02  0.30883414286E+01 -0.13599378412E+02  0.29302754315E+02  0.47000000000E+01 0. -1.
         -5    1    3    3    0  502  0.19959624788E+02  0.16631913897E+02 -0.19217996180E+03  0.19398514092E+03  0.47000000000E+01 0.  1.
<mgrwt>
<rscale>  0 0.11498584E+03</rscale>
<asrwt>0</asrwt>
<pdfrwt beam="1">  1        1 0.74746071E-01 0.11611643E+03</pdfrwt>
<pdfrwt beam="2">  1       -1 0.44615081E-02 0.11611643E+03</pdfrwt>
<totfact> 0.92379112E+03</totfact>
</mgrwt>
</event>
<event>
 8    1  0.3466492E-004  0.2117234E+03  0.7546771E-02  0.1140319E+00
          2   -1    0    0  501    0  0.00000000000E+00  0.00000000000E+00  0.45416480523E+03  0.45416480523E+03  0.00000000000E+00 0. -1.
         -2   -1    0    0    0  501 -0.00000000000E+00 -0.00000000000E+00 -0.10152762146E+03  0.10152762146E+03  0.00000000000E+00 0.  1.
         23    2    1    2    0    0 -0.94862819709E+02  0.16573196697E+03  0.12762493943E+03  0.24673077242E+03  0.90121636995E+02 0.  0.
         23    2    1    2    0    0  0.94862819709E+02 -0.16573196697E+03  0.22501224434E+03  0.30896165427E+03  0.91437160228E+02 0.  0.
          5    1    4    4  502    0  0.19242309965E+02 -0.69302731472E+02  0.14671430230E+03  0.16346348700E+03  0.47000000000E+01 0. -1.
         -5    1    3    3    0  503 -0.89979696645E+02  0.94016508659E+02  0.46584076664E+02  0.13830262437E+03  0.47000000000E+01 0.  1.
          5    1    3    3  503    0 -0.48831230646E+01  0.71715458311E+02  0.81040862764E+02  0.10842814805E+03  0.47000000000E+01 0. -1.
         -5    1    4    4    0  502  0.75620509744E+02 -0.96429235498E+02  0.78297942034E+02  0.14549816727E+03  0.47000000000E+01 0.  1.
<mgrwt>
<rscale>  0 0.21158205E+03</rscale>
<asrwt>0</asrwt>
<pdfrwt beam="1">  1        2 0.69871507E-01 0.21172339E+03</pdfrwt>
<pdfrwt beam="2">  1       -2 0.15619634E-01 0.21172339E+03</pdfrwt>
<totfact> 0.22005988E+03</totfact>
</mgrwt>
</event>
<event>
 8    1  0.3466492E-004  0.1512425E+03  0.7546771E-02  0.1200704E+00
          1   -1    0    0  501    0  0.00000000000E+00  0.00000000000E+00  0.16271410371E+03  0.16271410371E+03  0.00000000000E+00 0. -1.
         -1   -1    0    0    0  501 -0.00000000000E+00 -0.00000000000E+00 -0.19525007347E+03  0.19525007347E+03  0.00000000000E+00 0.  1.
         23    2    1    2    0    0 -0.94296667490E+02  0.72353440082E+02 -0.11557557491E+03  0.19034704720E+03  0.93527552466E+02 0.  0.
         23    2    1    2    0    0  0.94296667490E+02 -0.72353440082E+02  0.83039605153E+02  0.16761712999E+03  0.84101393861E+02 0.  0.
          5    1    3    3  502    0 -0.38442193640E+02  0.99129214568E+01  0.82016799852E+01  0.40809628989E+02  0.47000000000E+01 0. -1.
         -5    1    3    3    0  502 -0.55854473850E+02  0.62440518625E+02 -0.12377725490E+03  0.14953741821E+03  0.47000000000E+01 0.  1.
          5    1    4    4  503    0  0.66597383387E+02 -0.86541596201E+02  0.81062844653E+02  0.13608061629E+03  0.47000000000E+01 0. -1.
         -5    1    4    4    0  503  0.27699284103E+02  0.14188156120E+02  0.19767604995E+01  0.31536513694E+02  0.47000000000E+01 0.  1.
<mgrwt>
<rscale>  0 0.14981218E+03</rscale>
<asrwt>0</asrwt>
<pdfrwt beam="1">  1        1 0.25032939E-01 0.15124247E+03</pdfrwt>
<pdfrwt beam="2">  1       -1 0.30038473E-01 0.15124247E+03</pdfrwt>
<totfact> 0.19083822E+03</totfact>
</mgrwt>
</event>
<event>
 8    1  0.3466492E-004  0.1992418E+03  0.7546771E-02  0.1151249E+00
          1   -1    0    0  501    0  0.00000000000E+00  0.00000000000E+00  0.15545008249E+03  0.15545008249E+03  0.00000000000E+00 0. -1.
         -1   -1    0    0    0  501 -0.00000000000E+00 -0.00000000000E+00 -0.25085205077E+03  0.25085205077E+03  0.00000000000E+00 0.  1.
         23    2    1    2    0    0 -0.73878414007E+02 -0.15514215239E+03 -0.57548797012E+02  0.20349645768E+03  0.92584214346E+02 0.  0.
         23    2    1    2    0    0  0.73878414007E+02  0.15514215239E+03 -0.37853171269E+02  0.20280567558E+03  0.10084727051E+03 0.  0.
          5    1    3    3  502    0 -0.41289879250E+02 -0.11320806156E+03 -0.80977960757E+02  0.14525990313E+03  0.47000000000E+01 0. -1.
         -5    1    4    4    0  503  0.56103697492E+02  0.88233251815E+02 -0.70424495933E+02  0.12615241268E+03  0.47000000000E+01 0.  1.
          5    1    4    4  503    0  0.17774716515E+02  0.66908900570E+02  0.32571324663E+02  0.76653262899E+02  0.47000000000E+01 0. -1.
         -5    1    3    3    0  502 -0.32588534757E+02 -0.41934090826E+02  0.23429163744E+02  0.58236554541E+02  0.47000000000E+01 0.  1.
<mgrwt>
<rscale>  0 0.19822088E+03</rscale>
<asrwt>0</asrwt>
<pdfrwt beam="1">  1        1 0.23915398E-01 0.19924176E+03</pdfrwt>
<pdfrwt beam="2">  1       -1 0.38592623E-01 0.19924176E+03</pdfrwt>
<totfact> 0.13241662E+03</totfact>
</mgrwt>
</event>
<event>
 8    1  0.3466492E-004  0.1120612E+03  0.7546771E-02  0.1257927E+00
          1   -1    0    0  501    0  0.00000000000E+00  0.00000000000E+00  0.26494485136E+02  0.26494485136E+02  0.00000000000E+00 0. -1.
         -1   -1    0    0    0  501 -0.00000000000E+00 -0.00000000000E+00 -0.55839785617E+03  0.55839785617E+03  0.00000000000E+00 0.  1.
         23    2    1    2    0    0  0.28165763395E+01  0.64440415874E+02 -0.38398536731E+03  0.39931907069E+03  0.88602808136E+02 0.  0.
         23    2    1    2    0    0 -0.28165763395E+01 -0.64440415874E+02 -0.14791800373E+03  0.18557327062E+03  0.91636251782E+02 0.  0.
          5    1    4    4  502    0 -0.43347361274E+02 -0.47823067877E+02 -0.65261502754E+02  0.91908613809E+02  0.47000000000E+01 0. -1.
         -5    1    3    3    0  503  0.84865967717E+01  0.83959580182E+02 -0.34385551385E+03  0.35409029616E+03  0.47000000000E+01 0.  1.
          5    1    3    3  503    0 -0.56700204322E+01 -0.19519164308E+02 -0.40129853457E+02  0.45228774530E+02  0.47000000000E+01 0. -1.
         -5    1    4    4    0  502  0.40530784934E+02 -0.16617347997E+02 -0.82656500980E+02  0.93664656814E+02  0.47000000000E+01 0.  1.
<mgrwt>
<rscale>  0 0.11143934E+03</rscale>
<asrwt>0</asrwt>
<pdfrwt beam="1">  1        1 0.40760748E-02 0.11206116E+03</pdfrwt>
<pdfrwt beam="2">  1       -1 0.85907359E-01 0.11206116E+03</pdfrwt>
<totfact> 0.29621851E+03</totfact>
</mgrwt>
</event>
<event>
 8    1  0.3466492E-004  0.1536805E+03  0.7546771E-02  0.1197023E+00
          2   -1    0    0  501    0  0.00000000000E+00  0.00000000000E+00  0.64272943694E+03  0.64272943694E+03  0.00000000000E+00 0. -1.
         -2   -1    0    0    0  501 -0.00000000000E+00 -0.00000000000E+00 -0.50594239801E+02  0.50594239801E+02  0.00000000000E+00 0.  1.
         23    2    1    2    0    0  0.93873451243E+02 -0.81991519808E+02  0.10730223196E+03  0.18471703550E+03  0.84093876429E+02 0.  0.
         23    2    1    2    0    0 -0.93873451243E+02  0.81991519808E+02  0.48483296518E+03  0.50860664124E+03  0.89904823115E+02 0.  0.
          5    1    3    3  502    0  0.45689171439E+02 -0.90101207582E+02  0.68537504586E+02  0.12216876659E+03  0.47000000000E+01 0. -1.
         -5    1    4    4    0  503 -0.41935654641E+02  0.73647456530E+02  0.17728399026E+03  0.19655597214E+03  0.47000000000E+01 0.  1.
          5    1    4    4  503    0 -0.51937796602E+02  0.83440632776E+01  0.30754897492E+03  0.31205066909E+03  0.47000000000E+01 0. -1.
         -5    1    3    3    0  502  0.48184279804E+02  0.81096877742E+01  0.38764727376E+02  0.62548268917E+02  0.47000000000E+01 0.  1.
<mgrwt>
<rscale>  0 0.15284232E+03</rscale>
<asrwt>0</asrwt>
<pdfrwt beam="1">  1        2 0.98881446E-01 0.15368055E+03</pdfrwt>
<pdfrwt beam="2">  1       -2 0.77837297E-02 0.15368055E+03</pdfrwt>
<totfact> 0.44772990E+03</totfact>
</mgrwt>
</event>
<event>
 8    1  0.3466492E-004  0.1088643E+03  0.7546771E-02  0.1266620E+00
          2   -1    0    0  501    0  0.00000000000E+00  0.00000000000E+00  0.44662643422E+03  0.44662643422E+03  0.00000000000E+00 0. -1.
         -2   -1    0    0    0  501 -0.00000000000E+00 -0.00000000000E+00 -0.32112642063E+02  0.32112642063E+02  0.00000000000E+00 0.  1.
         23    2    1    2    0    0  0.43234548271E+02 -0.24582478018E+01  0.31678563747E+03  0.33244404252E+03  0.91052908523E+02 0.  0.
         23    2    1    2    0    0 -0.43234548271E+02  0.24582478018E+01  0.97728154679E+02  0.14629503376E+03  0.99880806661E+02 0.  0.
          5    1    3    3  502    0 -0.16812887281E+02  0.21460444532E+02  0.16647351294E+03  0.16875646468E+03  0.47000000000E+01 0. -1.
         -5    1    3    3    0  502  0.60047435552E+02 -0.23918692334E+02  0.15031212453E+03  0.16368757784E+03  0.47000000000E+01 0.  1.
          5    1    4    4  503    0 -0.51228012391E+02 -0.38765889841E+02  0.72921746540E+02  0.97297351388E+02  0.47000000000E+01 0. -1.
         -5    1    4    4    0  503  0.79934641198E+01  0.41224137643E+02  0.24806408140E+02  0.48997682372E+02  0.47000000000E+01 0.  1.
<mgrwt>
<rscale>  0 0.10679661E+03</rscale>
<asrwt>0</asrwt>
<pdfrwt beam="1">  1        2 0.68711755E-01 0.10886434E+03</pdfrwt>
<pdfrwt beam="2">  1       -2 0.49404068E-02 0.10886434E+03</pdfrwt>
<totfact> 0.13095023E+04</totfact>
</mgrwt>
</event>
<event>
 8    1  0.3466492E-004  0.9174269E+02  0.7546771E-02  0.1300813E+00
         -1   -1    0    0    0  501 -0.00000000000E+00  0.00000000000E+00  0.15540283954E+03  0.15540283954E+03  0.00000000000E+00 0.  1.
          1   -1    0    0  501    0  0.00000000000E+00 -0.00000000000E+00 -0.71246856074E+02  0.71246856074E+02  0.00000000000E+00 0. -1.
         23    2    1    2    0    0  0.82904117866E+01  0.96291666764E+00  0.10021824242E+03  0.13351153538E+03  0.87817855976E+02 0.  0.
         23    2    1    2    0    0 -0.82904117866E+01 -0.96291666764E+00 -0.16062258961E+02  0.93138160234E+02  0.91362260221E+02 0.  0.
          5    1    4    4  502    0 -0.33532965225E+02 -0.35260477907E+02 -0.77870976561E+01  0.49502423667E+02  0.47000000000E+01 0. -1.
         -5    1    3    3    0  503  0.32481181182E+02  0.33626459865E+02  0.59113792514E+02  0.75513551098E+02  0.47000000000E+01 0.  1.
          5    1    3    3  503    0 -0.24190769395E+02 -0.32663543197E+02  0.41104449909E+02  0.57997984279E+02  0.47000000000E+01 0. -1.
         -5    1    4    4    0  502  0.25242553438E+02  0.34297561240E+02 -0.82751613046E+01  0.43635736566E+02  0.47000000000E+01 0.  1.
<mgrwt>
<rscale>  0 0.90847388E+02</rscale>
<asrwt>0</asrwt>
<pdfrwt beam="1">  1        1 0.10961055E-01 0.91742688E+02</pdfrwt>
<pdfrwt beam="2">  1       -1 0.23908129E-01 0.91742688E+02</pdfrwt>
<totfact> 0.77725513E+03</totfact>
</mgrwt>
</event>
<event>
 8    1  0.3466492E-004  0.1033795E+03  0.7546771E-02  0.1274416E+00
          2   -1    0    0  501    0  0.00000000000E+00  0.00000000000E+00  0.16706765796E+02  0.16706765796E+02  0.00000000000E+00 0. -1.
         -2   -1    0    0    0  501 -0.00000000000E+00 -0.00000000000E+00 -0.64256262125E+03  0.64256262125E+03  0.00000000000E+00 0.  1.
         23    2    1    2    0    0 -0.19137484075E+02  0.43695795733E+02 -0.26434950260E+03  0.28384497928E+03  0.91715575989E+02 0.  0.
         23    2    1    2    0    0  0.19137484075E+02 -0.43695795733E+02 -0.36150635286E+03  0.37542440777E+03  0.89336873280E+02 0.  0.
          5    1    3    3  502    0  0.13464218539E+02  0.59794590726E+02 -0.11895619551E+03  0.13390050303E+03  0.47000000000E+01 0. -1.
         -5    1    4    4    0  503 -0.53767321873E+01 -0.66034446463E+02 -0.20974521113E+03  0.22001045648E+03  0.47000000000E+01 0.  1.
          5    1    4    4  503    0  0.24514216262E+02  0.22338650729E+02 -0.15176114173E+03  0.15541395128E+03  0.47000000000E+01 0. -1.
         -5    1    3    3    0  502 -0.32601702614E+02 -0.16098794992E+02 -0.14539330708E+03  0.14994447625E+03  0.47000000000E+01 0.  1.
<mgrwt>
<rscale>  0 0.10284930E+03</rscale>
<asrwt>0</asrwt>
<pdfrwt beam="1">  1        2 0.25702719E-02 0.10337946E+03</pdfrwt>
<pdfrwt beam="2">  1       -2 0.98855778E-01 0.10337946E+03</pdfrwt>
<totfact> 0.31727669E+03</totfact>
</mgrwt>
</event>
<event>
 8    1  0.3466492E-004  0.1091423E+03  0.7546771E-02  0.1262431E+00
          3   -1    0    0  501    0  0.00000000000E+00  0.00000000000E+00  0.13914492831E+03  0.13914492831E+03  0.00000000000E+00 0. -1.
         -3   -1    0    0    0  501 -0.00000000000E+00 -0.00000000000E+00 -0.48003090772E+03  0.48003090772E+03  0.00000000000E+00 0.  1.
         23    2    1    2    0    0 -0.49707837897E+02 -0.26878344913E+02 -0.45114901907E+03  0.46403083567E+03  0.92713885004E+02 0.  0.
         23    2    1    2    0    0  0.49707837897E+02  0.26878344913E+02  0.11026303966E+03  0.15514500035E+03  0.93374079094E+02 0.  0.
          5    1    3    3  502    0 -0.32162124036E+02  0.31833821009E+02 -0.15336290572E+03  0.15996895084E+03  0.47000000000E+01 0. -1.
         -5    1    3    3    0  502 -0.17545713861E+02 -0.58712165922E+02 -0.29778611335E+03  0.30406188483E+03  0.47000000000E+01 0.  1.
          5    1    4    4  503    0  0.70995103788E+02  0.18340816817E+02  0.10931475534E+03  0.13171368971E+03  0.47000000000E+01 0. -1.
         -5    1    4    4    0  503 -0.21287265891E+02  0.85375280960E+01  0.94828431767E+00  0.23431310639E+02  0.47000000000E+01 0.  1.
<mgrwt>
<rscale>  0 0.10900092E+03</rscale>
<asrwt>0</asrwt>
<pdfrwt beam="1">  1        3 0.21406912E-01 0.10914226E+03</pdfrwt>
<pdfrwt beam="2">  1       -3 0.73850909E-01 0.10914226E+03</pdfrwt>
<totfact> 0.81095903E+01</totfact>
</mgrwt>
</event>
<event>
 8    1  0.3466492E-004  0.1330436E+03  0.7546771E-02  0.1223129E+00
          1   -1    0    0  501    0  0.00000000000E+00  0.00000000000E+00  0.44596602603E+03  0.44596602603E+03  0.00000000000E+00 0. -1.
         -1   -1    0    0    0  501 -0.00000000000E+00 -0.00000000000E+00 -0.50945690896E+02  0.50945690896E+02  0.00000000000E+00 0.  1.
         23    2    1    2    0    0  0.50224888449E+02  0.82703932048E+02  0.80406655273E+02  0.15545364184E+03  0.91313332827E+02 0.  0.
         23    2    1    2    0    0 -0.50224888449E+02 -0.82703932048E+02  0.31461367986E+03  0.34145807509E+03  0.90826040830E+02 0.  0.
          5    1    3    3  502    0 -0.12890612269E+02  0.21732033988E+02  0.59943363302E+02  0.65220748155E+02  0.47000000000E+01 0. -1.
         -5    1    3    3    0  502  0.63115500717E+02  0.60971898060E+02  0.20463291971E+02  0.90232893681E+02  0.47000000000E+01 0.  1.
          5    1    4    4  503    0 -0.19664818392E+02 -0.20680700192E+02  0.23124114289E+03  0.23304281282E+03  0.47000000000E+01 0. -1.
         -5    1    4    4    0  503 -0.30560070056E+02 -0.62023231856E+02  0.83372536968E+02  0.10841526227E+03  0.47000000000E+01 0.  1.
<mgrwt>
<rscale>  0 0.13296005E+03</rscale>
<asrwt>0</asrwt>
<pdfrwt beam="1">  1        1 0.68610155E-01 0.13304362E+03</pdfrwt>
<pdfrwt beam="2">  1       -1 0.78377989E-02 0.13304362E+03</pdfrwt>
<totfact> 0.45018731E+03</totfact>
</mgrwt>
</event>
<event>
 8    1  0.3466492E-004  0.1986618E+03  0.7546771E-02  0.1151098E+00
          1   -1    0    0  501    0  0.00000000000E+00  0.00000000000E+00  0.14271724157E+04  0.14271724157E+04  0.00000000000E+00 0. -1.
         -1   -1    0    0    0  501 -0.00000000000E+00 -0.00000000000E+00 -0.27755702587E+02  0.27755702587E+02  0.00000000000E+00 0.  1.
         23    2    1    2    0    0 -0.16720013492E+03  0.57827583548E+02  0.76670120074E+03  0.79175738431E+03  0.88029028538E+02 0.  0.
         23    2    1    2    0    0  0.16720013492E+03 -0.57827583548E+02  0.63271551239E+03  0.66317073399E+03  0.90369177629E+02 0.  0.
          5    1    4    4  502    0  0.52635741206E+02 -0.46971122425E+01  0.34320102295E+03  0.34727743415E+03  0.47000000000E+01 0. -1.
         -5    1    3    3    0  503 -0.36494710718E+02 -0.22822325609E+02  0.14330659783E+03  0.14970502142E+03  0.47000000000E+01 0.  1.
          5    1    3    3  503    0 -0.13070542420E+03  0.80649909157E+02  0.62339460291E+03  0.64205236290E+03  0.47000000000E+01 0. -1.
         -5    1    4    4    0  502  0.11456439371E+03 -0.53130471305E+02  0.28951448944E+03  0.31589329984E+03  0.47000000000E+01 0.  1.
<mgrwt>
<rscale>  0 0.19839787E+03</rscale>
<asrwt>0</asrwt>
<pdfrwt beam="1">  1        1 0.21956493E+00 0.19866178E+03</pdfrwt>
<pdfrwt beam="2">  1       -1 0.42701092E-02 0.19866178E+03</pdfrwt>
<totfact> 0.17863196E+03</totfact>
</mgrwt>
</event>
<event>
 8    1  0.3466492E-004  0.1050268E+03  0.7546771E-02  0.1273161E+00
          1   -1    0    0  501    0  0.00000000000E+00  0.00000000000E+00  0.17047103087E+03  0.17047103087E+03  0.00000000000E+00 0. -1.
         -1   -1    0    0    0  501 -0.00000000000E+00 -0.00000000000E+00 -0.61169275778E+02  0.61169275778E+02  0.00000000000E+00 0.  1.
         23    2    1    2    0    0 -0.49827985216E+02 -0.20993884067E+02  0.47150408354E+02  0.10960172685E+03  0.82860160764E+02 0.  0.
         23    2    1    2    0    0  0.49827985216E+02  0.20993884067E+02  0.62151346737E+02  0.12203857980E+03  0.90039179130E+02 0.  0.
          5    1    4    4  502    0  0.71857085673E+02  0.48447247195E+01  0.60665246414E+02  0.94282947778E+02  0.47000000000E+01 0. -1.
         -5    1    4    4    0  502 -0.22029100457E+02  0.16149159348E+02  0.14861003229E+01  0.27755632019E+02  0.47000000000E+01 0.  1.
          5    1    3    3  503    0 -0.23275515435E+02  0.14860584403E+02  0.57142984438E+02  0.63639588764E+02  0.47000000000E+01 0. -1.
         -5    1    3    3    0  503 -0.26552469781E+02 -0.35854468470E+02 -0.99925760836E+01  0.45962138087E+02  0.47000000000E+01 0.  1.
<mgrwt>
<rscale>  0 0.10347119E+03</rscale>
<asrwt>0</asrwt>
<pdfrwt beam="1">  1        1 0.26226312E-01 0.10502678E+03</pdfrwt>
<pdfrwt beam="2">  1       -1 0.94106579E-02 0.10502678E+03</pdfrwt>
<totfact> 0.11073589E+04</totfact>
</mgrwt>
</event>
<event>
 8    1  0.3466492E-004  0.1146303E+03  0.7546771E-02  0.1252877E+00
         -2   -1    0    0    0  501 -0.00000000000E+00  0.00000000000E+00  0.11455526427E+02  0.11455526427E+02  0.00000000000E+00 0.  1.
          2   -1    0    0  501    0  0.00000000000E+00 -0.00000000000E+00 -0.13375753202E+04  0.13375753202E+04  0.00000000000E+00 0. -1.
         23    2    1    2    0    0  0.42642928204E+02 -0.53884550579E+02 -0.39524221412E+03  0.41112191157E+03  0.89904695260E+02 0.  0.
         23    2    1    2    0    0 -0.42642928204E+02  0.53884550579E+02 -0.93087757965E+03  0.93790893506E+03  0.91750411713E+02 0.  0.
          5    1    4    4  502    0 -0.54395750890E+02  0.73061850612E+02 -0.77452800472E+03  0.77987989577E+03  0.47000000000E+01 0. -1.
         -5    1    4    4    0  502  0.11752822686E+02 -0.19177300033E+02 -0.15634957493E+03  0.15802903929E+03  0.47000000000E+01 0.  1.
          5    1    3    3  503    0  0.97104404534E+01  0.18868428326E+02 -0.18330932905E+03  0.18459336488E+03  0.47000000000E+01 0. -1.
         -5    1    3    3    0  503  0.32932487751E+02 -0.72752978904E+02 -0.21193288507E+03  0.22652854669E+03  0.47000000000E+01 0.  1.
<mgrwt>
<rscale>  0 0.11426052E+03</rscale>
<asrwt>0</asrwt>
<pdfrwt beam="1">  1        2 0.20578078E+00 0.11463028E+03</pdfrwt>
<pdfrwt beam="2">  1       -2 0.17623890E-02 0.11463028E+03</pdfrwt>
<totfact> 0.14890365E+04</totfact>
</mgrwt>
</event>
<event>
 8    1  0.3466492E-004  0.1059761E+03  0.7546771E-02  0.1268463E+00
         -1   -1    0    0    0  501 -0.00000000000E+00  0.00000000000E+00  0.22531203545E+02  0.22531203545E+02  0.00000000000E+00 0.  1.
          1   -1    0    0  501    0  0.00000000000E+00 -0.00000000000E+00 -0.80565870974E+03  0.80565870974E+03  0.00000000000E+00 0. -1.
         23    2    1    2    0    0  0.30361323061E+02  0.43055501804E+02 -0.13424693575E+03  0.17071221911E+03  0.91350072916E+02 0.  0.
         23    2    1    2    0    0 -0.30361323061E+02 -0.43055501804E+02 -0.64888057044E+03  0.65747769417E+03  0.91952908943E+02 0.  0.
          5    1    3    3  502    0  0.17829154249E+02 -0.27406649176E+02 -0.51790808020E+02  0.61427851628E+02  0.47000000000E+01 0. -1.
         -5    1    3    3    0  502  0.12532168812E+02  0.70462150980E+02 -0.82456127734E+02  0.10928436749E+03  0.47000000000E+01 0.  1.
          5    1    4    4  503    0 -0.57091905017E+02 -0.34215266924E+02 -0.56384158951E+03  0.56777601056E+03  0.47000000000E+01 0. -1.
         -5    1    4    4    0  503  0.26730581955E+02 -0.88402348803E+01 -0.85038980926E+02  0.89701683603E+02  0.47000000000E+01 0.  1.
<mgrwt>
<rscale>  0 0.10584515E+03</rscale>
<asrwt>0</asrwt>
<pdfrwt beam="1">  1        1 0.12394749E+00 0.10597605E+03</pdfrwt>
<pdfrwt beam="2">  1       -1 0.34663392E-02 0.10597605E+03</pdfrwt>
<totfact> 0.66194281E+03</totfact>
</mgrwt>
</event>
<event>
 8    1  0.3466492E-004  0.1053392E+03  0.7546771E-02  0.1278089E+00
          1   -1    0    0  501    0  0.00000000000E+00  0.00000000000E+00  0.15765752737E+03  0.15765752737E+03  0.00000000000E+00 0. -1.
         -1   -1    0    0    0  501 -0.00000000000E+00 -0.00000000000E+00 -0.66682434948E+02  0.66682434948E+02  0.00000000000E+00 0.  1.
         23    2    1    2    0    0  0.21731106882E+02  0.43537856978E+02  0.67715039687E+01  0.89482289621E+02  0.74789310020E+02 0.  0.
         23    2    1    2    0    0 -0.21731106882E+02 -0.43537856978E+02  0.84203588458E+02  0.13485767270E+03  0.93426771221E+02 0.  0.
          5    1    3    3  502    0  0.40642304129E+02  0.74146610231E+00  0.10696414089E+02  0.42294797922E+02  0.47000000000E+01 0. -1.
         -5    1    3    3    0  502 -0.18911197248E+02  0.42796390876E+02 -0.39249101200E+01  0.47187491699E+02  0.47000000000E+01 0.  1.
          5    1    4    4  503    0  0.77587084524E+01 -0.64518428548E+02  0.70179110877E+02  0.95760235915E+02  0.47000000000E+01 0. -1.
         -5    1    4    4    0  503 -0.29489815334E+02  0.20980571570E+02  0.14024477581E+02  0.39097436786E+02  0.47000000000E+01 0.  1.
<mgrwt>
<rscale>  0 0.10105668E+03</rscale>
<asrwt>0</asrwt>
<pdfrwt beam="1">  1        1 0.24255004E-01 0.10533920E+03</pdfrwt>
<pdfrwt beam="2">  1       -1 0.10258836E-01 0.10533920E+03</pdfrwt>
<totfact> 0.10712463E+04</totfact>
</mgrwt>
</event>
<event>
 8    1  0.3466492E-004  0.2443755E+03  0.7546771E-02  0.1117257E+00
         -2   -1    0    0    0  501 -0.00000000000E+00  0.00000000000E+00  0.28253278140E+03  0.28253278140E+03  0.00000000000E+00 0.  1.
          2   -1    0    0  501    0  0.00000000000E+00 -0.00000000000E+00 -0.56382307264E+03  0.56382307264E+03  0.00000000000E+00 0. -1.
         23    2    1    2    0    0  0.22238550602E+03  0.30402902450E+02  0.19457198481E+03  0.31237420717E+03  0.96642321306E+02 0.  0.
         23    2    1    2    0    0 -0.22238550602E+03 -0.30402902450E+02 -0.47586227605E+03  0.53398164687E+03  0.91169313153E+02 0.  0.
          5    1    3    3  502    0  0.84541011566E+02  0.42689822831E+02  0.34948836217E+02  0.10105995628E+03  0.47000000000E+01 0. -1.
         -5    1    4    4    0  503 -0.99091970227E+02 -0.13479408244E+02 -0.31511181023E+03  0.33063341628E+03  0.47000000000E+01 0.  1.
          5    1    4    4  503    0 -0.12329353580E+03 -0.16923494207E+02 -0.16075046581E+03  0.20334823059E+03  0.47000000000E+01 0. -1.
         -5    1    3    3    0  502  0.13784449446E+03 -0.12286920381E+02  0.15962314859E+03  0.21131425089E+03  0.47000000000E+01 0.  1.
<mgrwt>
<rscale>  0 0.24384573E+03</rscale>
<asrwt>0</asrwt>
<pdfrwt beam="1">  1        2 0.86742011E-01 0.24437551E+03</pdfrwt>
<pdfrwt beam="2">  1       -2 0.43466582E-01 0.24437551E+03</pdfrwt>
<totfact> 0.27794897E+02</totfact>
</mgrwt>
</event>
<event>
 8    1  0.3466492E-004  0.1617435E+03  0.7546771E-02  0.1187520E+00
          1   -1    0    0  501    0  0.00000000000E+00  0.00000000000E+00  0.21978988822E+03  0.21978988822E+03  0.00000000000E+00 0. -1.
         -1   -1    0    0    0  501 -0.00000000000E+00 -0.00000000000E+00 -0.14649045756E+03  0.14649045756E+03  0.00000000000E+00 0.  1.
         23    2    1    2    0    0  0.12009411665E+03  0.54305020473E+02  0.11907257820E+03  0.20084630273E+03  0.93751407128E+02 0.  0.
         23    2    1    2    0    0 -0.12009411665E+03 -0.54305020473E+02 -0.45773147542E+02  0.16543404306E+03  0.88890997653E+02 0.  0.
          5    1    4    4  502    0 -0.61654864591E+02 -0.59676938647E+02  0.72011376420E+01  0.86235756606E+02  0.47000000000E+01 0. -1.
         -5    1    3    3    0  503  0.10293978875E+03  0.69420879695E+02  0.61324558118E+02  0.13855919340E+03  0.47000000000E+01 0. -1.
          5    1    3    3  503    0  0.17154327894E+02 -0.15115859222E+02  0.57748020082E+02  0.62287109332E+02  0.47000000000E+01 0.  1.
         -5    1    4    4    0  502 -0.58439252056E+02  0.53719181745E+01 -0.52974285184E+02  0.79198286449E+02  0.47000000000E+01 0.  1.
<mgrwt>
<rscale>  0 0.16104704E+03</rscale>
<asrwt>0</asrwt>
<pdfrwt beam="1">  1        1 0.33813829E-01 0.16174350E+03</pdfrwt>
<pdfrwt beam="2">  1       -1 0.22536993E-01 0.16174350E+03</pdfrwt>
<totfact> 0.21136944E+03</totfact>
</mgrwt>
</event>
<event>
 8    1  0.3466492E-004  0.1025133E+03  0.7546771E-02  0.1275197E+00
          1   -1    0    0  501    0  0.00000000000E+00  0.00000000000E+00  0.14800020468E+03  0.14800020468E+03  0.00000000000E+00 0. -1.
         -1   -1    0    0    0  501 -0.00000000000E+00 -0.00000000000E+00 -0.72800101340E+02  0.72800101340E+02  0.00000000000E+00 0.  1.
         23    2    1    2    0    0 -0.21972678035E+01  0.45449312467E+02  0.19667102634E+02  0.10438284220E+03  0.91861389220E+02 0.  0.
         23    2    1    2    0    0  0.21972678035E+01 -0.45449312467E+02  0.55533000704E+02  0.11641746382E+03  0.91644114517E+02 0.  0.
          5    1    3    3  502    0 -0.22137149898E+02  0.12634520141E+02  0.49269802488E+02  0.55671248792E+02  0.47000000000E+01 0. -1.
         -5    1    4    4    0  503 -0.21823187953E+02  0.18310171148E+02  0.77910419536E+00  0.28882709416E+02  0.47000000000E+01 0.  1.
          5    1    4    4  503    0  0.24020455756E+02 -0.63759483615E+02  0.54753896509E+02  0.87534754404E+02  0.47000000000E+01 0. -1.
         -5    1    3    3    0  502  0.19939882095E+02  0.32814792326E+02 -0.29602699855E+02  0.48711593405E+02  0.47000000000E+01 0.  1.
<mgrwt>
<rscale>  0 0.10246463E+03</rscale>
<asrwt>0</asrwt>
<pdfrwt beam="1">  1        1 0.22769262E-01 0.10251333E+03</pdfrwt>
<pdfrwt beam="2">  1       -1 0.11200016E-01 0.10251333E+03</pdfrwt>
<totfact> 0.10118649E+04</totfact>
</mgrwt>
</event>
<event>
 8    1  0.3466492E-004  0.9369864E+02  0.7546771E-02  0.1294272E+00
          2   -1    0    0  501    0  0.00000000000E+00  0.00000000000E+00  0.46635032259E+03  0.46635032259E+03  0.00000000000E+00 0. -1.
         -2   -1    0    0    0  501 -0.00000000000E+00 -0.00000000000E+00 -0.28551352813E+02  0.28551352813E+02  0.00000000000E+00 0.  1.
         23    2    1    2    0    0  0.12531629350E+01 -0.10760690427E+02  0.36386108635E+03  0.37573172006E+03  0.93070255301E+02 0.  0.
         23    2    1    2    0    0 -0.12531629350E+01  0.10760690427E+02  0.73937883430E+02  0.11916995535E+03  0.92829439166E+02 0.  0.
          5    1    4    4  502    0  0.30779184986E+01 -0.35649905482E+02  0.60475227391E+02  0.70425368094E+02  0.47000000000E+01 0. -1.
         -5    1    4    4    0  502 -0.43310814336E+01  0.46410595909E+02  0.13462656039E+02  0.48744587255E+02  0.47000000000E+01 0.  1.
          5    1    3    3  503    0  0.36776668588E+02 -0.28174788558E+02  0.26644625036E+03  0.27048481731E+03  0.47000000000E+01 0. -1.
         -5    1    3    3    0  503 -0.35523505653E+02  0.17414098131E+02  0.97414835987E+02  0.10524690275E+03  0.47000000000E+01 0.  1.
<mgrwt>
<rscale>  0 0.93638784E+02</rscale>
<asrwt>0</asrwt>
<pdfrwt beam="1">  1        2 0.71746198E-01 0.93698641E+02</pdfrwt>
<pdfrwt beam="2">  1       -2 0.43925162E-02 0.93698641E+02</pdfrwt>
<totfact> 0.14693223E+04</totfact>
</mgrwt>
</event>
<event>
 8    1  0.3466492E-004  0.1579233E+03  0.7546771E-02  0.1191098E+00
          1   -1    0    0  501    0  0.00000000000E+00  0.00000000000E+00  0.21286067971E+03  0.21286067971E+03  0.00000000000E+00 0. -1.
         -1   -1    0    0    0  501 -0.00000000000E+00 -0.00000000000E+00 -0.17606255935E+03  0.17606255935E+03  0.00000000000E+00 0.  1.
         23    2    1    2    0    0  0.12603382546E+03 -0.29711749154E+02  0.13096734116E+03  0.20516383220E+03  0.90401550843E+02 0.  0.
         23    2    1    2    0    0 -0.12603382546E+03  0.29711749154E+02 -0.94169220799E+02  0.18375940687E+03  0.90179622250E+02 0.  0.
          5    1    4    4  502    0 -0.20984073957E+02  0.35975608889E+02  0.81239769191E+00  0.41920469758E+02  0.47000000000E+01 0. -1.
         -5    1    4    4    0  502 -0.10504975150E+03 -0.62638597349E+01 -0.94981618491E+02  0.14183893711E+03  0.47000000000E+01 0.  1.
          5    1    3    3  503    0  0.48427470099E+02  0.67005018575E+01  0.10426630781E+03  0.11525480263E+03  0.47000000000E+01 0. -1.
         -5    1    3    3    0  503  0.77606355356E+02 -0.36412251012E+02  0.26701033348E+02  0.89909029564E+02  0.47000000000E+01 0.  1.
<mgrwt>
<rscale>  0 0.15789151E+03</rscale>
<asrwt>0</asrwt>
<pdfrwt beam="1">  1        1 0.32747797E-01 0.15792325E+03</pdfrwt>
<pdfrwt beam="2">  1       -1 0.27086548E-01 0.15792325E+03</pdfrwt>
<totfact> 0.16236140E+03</totfact>
</mgrwt>
</event>
<event>
 8    1  0.3466492E-004  0.9006551E+02  0.7546771E-02  0.1302732E+00
          2   -1    0    0  501    0  0.00000000000E+00  0.00000000000E+00  0.68826885923E+03  0.68826885923E+03  0.00000000000E+00 0. -1.
         -2   -1    0    0    0  501 -0.00000000000E+00 -0.00000000000E+00 -0.11903985862E+02  0.11903985862E+02  0.00000000000E+00 0.  1.
         23    2    1    2    0    0  0.11589608591E+01 -0.78889186673E+01  0.30194925859E+03  0.31507694851E+03  0.89646809697E+02 0.  0.
         23    2    1    2    0    0 -0.11589608591E+01  0.78889186673E+01  0.37441561478E+03  0.38509589658E+03  0.89711865157E+02 0.  0.
          5    1    4    4  502    0  0.30243008668E+02 -0.27813438139E+02  0.14645835247E+03  0.15218530127E+03  0.47000000000E+01 0. -1.
         -5    1    3    3    0  503  0.31825675309E+02  0.23417102709E+02  0.87175848603E+02  0.95827725048E+02  0.47000000000E+01 0.  1.
          5    1    3    3  503    0 -0.30666714450E+02 -0.31306021377E+02  0.21477340999E+03  0.21924922346E+03  0.47000000000E+01 0. -1.
         -5    1    4    4    0  502 -0.31401969527E+02  0.35702356806E+02  0.22795726231E+03  0.23291059532E+03  0.47000000000E+01 0.  1.
<mgrwt>
<rscale>  0 0.90049311E+02</rscale>
<asrwt>0</asrwt>
<pdfrwt beam="1">  1        2 0.10588749E+00 0.90065515E+02</pdfrwt>
<pdfrwt beam="2">  1       -2 0.18313830E-02 0.90065515E+02</pdfrwt>
<totfact> 0.33878760E+04</totfact>
</mgrwt>
</event>
<event>
 7    1  0.3466492E-004  0.1842830E+03  0.7546771E-02  0.1174145E+00
          2   -1    0    0  501    0  0.00000000000E+00  0.00000000000E+00  0.78404385664E+02  0.78404385664E+02  0.00000000000E+00 0. -1.
         -2   -1    0    0    0  501 -0.00000000000E+00 -0.00000000000E+00 -0.38932698505E+03  0.38932698505E+03  0.00000000000E+00 0.  1.
         23    2    1    2    0    0 -0.76165568434E+02  0.82093009206E+02 -0.61508373271E+02  0.15762220910E+03  0.92309397377E+02 0.  0.
          5    1    1    2  502    0 -0.76373041487E+00 -0.56544877838E+02 -0.10413878902E+02  0.57692680365E+02  0.47000000000E+01 0. -1.
         -5    1    3    3    0  503 -0.70223778853E+02  0.82239883760E+01 -0.30936085200E+02  0.77318461370E+02  0.47000000000E+01 0.  1.
          5    1    3    3  503    0 -0.59417895816E+01  0.73869020830E+02 -0.30572288071E+02  0.80303747731E+02  0.47000000000E+01 0. -1.
         -5    1    1    2    0  502  0.76929298849E+02 -0.25548131367E+02 -0.23900034722E+03  0.25241648125E+03  0.47000000000E+01 0.  1.
<mgrwt>
<rscale>  0 0.17360016E+03</rscale>
<asrwt>0</asrwt>
<pdfrwt beam="1">  1        2 0.12062213E-01 0.18428303E+03</pdfrwt>
<pdfrwt beam="2">  1       -2 0.59896459E-01 0.18428303E+03</pdfrwt>
<totfact> 0.13282856E+03</totfact>
</mgrwt>
</event>
<event>
 8    1  0.3466492E-004  0.9694931E+02  0.7546771E-02  0.1288550E+00
          1   -1    0    0  501    0  0.00000000000E+00  0.00000000000E+00  0.17626037771E+03  0.17626037771E+03  0.00000000000E+00 0. -1.
         -1   -1    0    0    0  501 -0.00000000000E+00 -0.00000000000E+00 -0.52857522498E+02  0.52857522498E+02  0.00000000000E+00 0.  1.
         23    2    1    2    0    0  0.53834687322E+01 -0.12641603153E+02  0.45401016112E+02  0.10705335711E+03  0.95970709792E+02 0.  0.
         23    2    1    2    0    0 -0.53834687322E+01  0.12641603153E+02  0.78001839099E+02  0.12206454310E+03  0.92879889716E+02 0.  0.
          5    1    3    3  502    0  0.43184980410E+02  0.11219357870E+02  0.42836961670E+02  0.62031538826E+02  0.47000000000E+01 0. -1.
         -5    1    4    4    0  503  0.55458989167E+01 -0.36720553936E+02  0.13097080441E+02  0.39658285291E+02  0.47000000000E+01 0.  1.
          5    1    4    4  503    0 -0.10929367649E+02  0.49362157089E+02  0.64904758658E+02  0.82406257810E+02  0.47000000000E+01 0. -1.
         -5    1    3    3    0  502 -0.37801511678E+02 -0.23860961023E+02  0.25640544414E+01  0.45021818280E+02  0.47000000000E+01 0.  1.
<mgrwt>
<rscale>  0 0.96175445E+02</rscale>
<asrwt>0</asrwt>
<pdfrwt beam="1">  1        1 0.27116981E-01 0.96949312E+02</pdfrwt>
<pdfrwt beam="2">  1       -1 0.81319266E-02 0.96949312E+02</pdfrwt>
<totfact> 0.13134998E+04</totfact>
</mgrwt>
</event>
<event>
 8    1  0.3466492E-004  0.1214273E+03  0.7546771E-02  0.1240993E+00
         -2   -1    0    0    0  501 -0.00000000000E+00  0.00000000000E+00  0.27197736701E+02  0.27197736701E+02  0.00000000000E+00 0.  1.
          2   -1    0    0  501    0  0.00000000000E+00 -0.00000000000E+00 -0.66432827775E+03  0.66432827775E+03  0.00000000000E+00 0. -1.
         23    2    1    2    0    0  0.72420803522E+02 -0.33885244150E+02 -0.46778507807E+03  0.48314541779E+03  0.90629095289E+02 0.  0.
         23    2    1    2    0    0 -0.72420803522E+02  0.33885244150E+02 -0.16934546298E+03  0.20838059666E+03  0.91387114404E+02 0.  0.
          5    1    4    4  502    0 -0.41813242596E+02 -0.13435048335E+02 -0.19619720037E+02  0.48330851374E+02  0.47000000000E+01 0. -1.
         -5    1    4    4    0  502 -0.30607560925E+02  0.47320292485E+02 -0.14972574294E+03  0.16004974529E+03  0.47000000000E+01 0.  1.
          5    1    3    3  503    0  0.36997375080E+02  0.83336792596E+01 -0.35975404616E+03  0.36177799781E+03  0.47000000000E+01 0. -1.
         -5    1    3    3    0  503  0.35423428441E+02 -0.42218923410E+02 -0.10803103191E+03  0.12136741997E+03  0.47000000000E+01 0.  1.
<mgrwt>
<rscale>  0 0.12128468E+03</rscale>
<asrwt>0</asrwt>
<pdfrwt beam="1">  1        2 0.10220436E+00 0.12142729E+03</pdfrwt>
<pdfrwt beam="2">  1       -2 0.41842669E-02 0.12142729E+03</pdfrwt>
<totfact> 0.10878268E+04</totfact>
</mgrwt>
</event>
<event>
 8    1  0.3466492E-004  0.1013422E+03  0.7546771E-02  0.1278629E+00
          1   -1    0    0  501    0  0.00000000000E+00  0.00000000000E+00  0.23451964048E+03  0.23451964048E+03  0.00000000000E+00 0. -1.
         -1   -1    0    0    0  501 -0.00000000000E+00 -0.00000000000E+00 -0.44089402411E+02  0.44089402411E+02  0.00000000000E+00 0.  1.
         23    2    1    2    0    0 -0.31963190495E+02 -0.22305380875E+02  0.11944596109E+03  0.15664477172E+03  0.93547160965E+02 0.  0.
         23    2    1    2    0    0  0.31963190495E+02  0.22305380875E+02  0.70984276980E+02  0.12196427117E+03  0.91199453404E+02 0.  0.
          5    1    3    3  502    0 -0.32897248985E+02  0.30237677291E+02  0.76047558995E+02  0.88328179806E+02  0.47000000000E+01 0. -1.
         -5    1    3    3    0  502  0.93405849042E+00 -0.52543058166E+02  0.43398402098E+02  0.68316591919E+02  0.47000000000E+01 0.  1.
          5    1    4    4  503    0 -0.20159862476E+02 -0.23483866414E+01  0.59423527031E+02  0.62969679527E+02  0.47000000000E+01 0. -1.
         -5    1    4    4    0  503  0.52123052971E+02  0.24653767517E+02  0.11560749949E+02  0.58994591643E+02  0.47000000000E+01 0.  1.
<mgrwt>
<rscale>  0 0.10079709E+03</rscale>
<asrwt>0</asrwt>
<pdfrwt beam="1">  1        1 0.36079944E-01 0.10134223E+03</pdfrwt>
<pdfrwt beam="2">  1       -1 0.67829851E-02 0.10134223E+03</pdfrwt>
<totfact> 0.12164375E+04</totfact>
</mgrwt>
</event>
<event>
 8    1  0.3727810E-004  0.9884744E+02  0.7546771E-02  0.1283155E+00
         -1   -1    0    0    0  501 -0.00000000000E+00  0.00000000000E+00  0.20071978046E+03  0.20071978046E+03  0.00000000000E+00 0.  1.
          1   -1    0    0  501    0  0.00000000000E+00 -0.00000000000E+00 -0.11882340586E+03  0.11882340586E+03  0.00000000000E+00 0. -1.
         23    2    1    2    0    0 -0.33356487885E+02 -0.16506596481E+02 -0.82076124713E+02  0.12848076600E+03  0.91573434869E+02 0.  0.
         23    2    1    2    0    0  0.33356487885E+02  0.16506596481E+02  0.16397249932E+03  0.19106242031E+03  0.90734474766E+02 0.  0.
          5    1    4    4  502    0 -0.16625464855E+02  0.31499691765E+02  0.28651181321E+02  0.45952332411E+02  0.47000000000E+01 0. -1.
         -5    1    4    4    0  502  0.49981952740E+02 -0.14993095284E+02  0.13532131799E+03  0.14511008790E+03  0.47000000000E+01 0.  1.
          5    1    3    3  503    0 -0.55424803095E+02  0.14550394801E+02 -0.64052215592E+02  0.86072057656E+02  0.47000000000E+01 0. -1.
         -5    1    3    3    0  503  0.22068315210E+02 -0.31056991282E+02 -0.18023909122E+02  0.42408708348E+02  0.47000000000E+01 0.  1.
<mgrwt>
<rscale>  0 0.98652690E+02</rscale>
<asrwt>0</asrwt>
<pdfrwt beam="1">  1        1 0.18280524E-01 0.98847443E+02</pdfrwt>
<pdfrwt beam="2">  1       -1 0.30879966E-01 0.98847443E+02</pdfrwt>
<totfact> 0.26587770E+03</totfact>
</mgrwt>
</event>
<event>
 8    1  0.3466492E-004  0.9393691E+02  0.7546771E-02  0.1294736E+00
         -2   -1    0    0    0  501 -0.00000000000E+00  0.00000000000E+00  0.15216649789E+02  0.15216649789E+02  0.00000000000E+00 0.  1.
          2   -1    0    0  501    0  0.00000000000E+00 -0.00000000000E+00 -0.62428433974E+03  0.62428433974E+03  0.00000000000E+00 0. -1.
         23    2    1    2    0    0 -0.17234996849E+02  0.11707617171E+02 -0.20532713469E+03  0.22497646812E+03  0.89560401692E+02 0.  0.
         23    2    1    2    0    0  0.17234996849E+02 -0.11707617171E+02 -0.40374055526E+03  0.41452452141E+03  0.91597104051E+02 0.  0.
          5    1    4    4  502    0 -0.20647473419E+02 -0.39791715829E+02 -0.23349362276E+03  0.23780466916E+03  0.47000000000E+01 0. -1.
         -5    1    3    3    0  503  0.20563066382E+02  0.14254966004E+02 -0.17326150291E+03  0.17512190653E+03  0.47000000000E+01 0.  1.
          5    1    3    3  503    0 -0.37798063231E+02 -0.25473488322E+01 -0.32065631778E+02  0.49854561591E+02  0.47000000000E+01 0. -1.
         -5    1    4    4    0  502  0.37882470268E+02  0.28084098657E+02 -0.17024693251E+03  0.17671985225E+03  0.47000000000E+01 0.  1.
<mgrwt>
<rscale>  0 0.93436713E+02</rscale>
<asrwt>0</asrwt>
<pdfrwt beam="1">  1        2 0.96043740E-01 0.93936909E+02</pdfrwt>
<pdfrwt beam="2">  1       -2 0.23410232E-02 0.93936909E+02</pdfrwt>
<totfact> 0.26732309E+04</totfact>
</mgrwt>
</event>
<event>
 8    1  0.3466492E-004  0.1449664E+03  0.7546771E-02  0.1206811E+00
          2   -1    0    0  501    0  0.00000000000E+00  0.00000000000E+00  0.92527660956E+03  0.92527660956E+03  0.00000000000E+00 0. -1.
         -2   -1    0    0    0  501 -0.00000000000E+00 -0.00000000000E+00 -0.41642433383E+02  0.41642433383E+02  0.00000000000E+00 0.  1.
         23    2    1    2    0    0  0.10684570686E+03 -0.34310193314E+02  0.76786415440E+03  0.78142857166E+03  0.91771774266E+02 0.  0.
         23    2    1    2    0    0 -0.10684570686E+03  0.34310193314E+02  0.11577002177E+03  0.18549047128E+03  0.91710536780E+02 0.  0.
          5    1    4    4  502    0 -0.27425736877E+02 -0.29623549328E+02  0.48377763749E+02  0.63184046589E+02  0.47000000000E+01 0. -1.
         -5    1    3    3    0  503  0.57494554455E+02  0.18673931890E+02  0.20119981288E+03  0.21013756025E+03  0.47000000000E+01 0.  1.
          5    1    3    3  503    0  0.49351152401E+02 -0.52984125204E+02  0.56666434152E+03  0.57129101141E+03  0.47000000000E+01 0. -1.
         -5    1    4    4    0  502 -0.79419969979E+02  0.63933742642E+02  0.67392258026E+02  0.12230642469E+03  0.47000000000E+01 0.  1.
<mgrwt>
<rscale>  0 0.14495670E+03</rscale>
<asrwt>0</asrwt>
<pdfrwt beam="1">  1        2 0.14235023E+00 0.14496639E+03</pdfrwt>
<pdfrwt beam="2">  1       -2 0.64065289E-02 0.14496639E+03</pdfrwt>
<totfact> 0.38393454E+03</totfact>
</mgrwt>
</event>
<event>
 8    1  0.3466492E-004  0.1148661E+03  0.7546771E-02  0.1251840E+00
         -1   -1    0    0    0  501 -0.00000000000E+00  0.00000000000E+00  0.21250108614E+02  0.21250108614E+02  0.00000000000E+00 0.  1.
          1   -1    0    0  501    0  0.00000000000E+00 -0.00000000000E+00 -0.95089736960E+03  0.95089736960E+03  0.00000000000E+00 0. -1.
         23    2    1    2    0    0 -0.62824528292E+02  0.26065268385E+02 -0.75122665740E+03  0.75994916581E+03  0.92492833475E+02 0.  0.
         23    2    1    2    0    0  0.62824528292E+02 -0.26065268385E+02 -0.17842060358E+03  0.21219831241E+03  0.92562910689E+02 0.  0.
          5    1    4    4  502    0  0.85352687185E+02 -0.14700229505E+02 -0.15413136574E+03  0.17686080929E+03  0.47000000000E+01 0. -1.
         -5    1    4    4    0  502 -0.22528158892E+02 -0.11365038880E+02 -0.24289237842E+02  0.35337503120E+02  0.47000000000E+01 0.  1.
          5    1    3    3  503    0  0.88588451931E+01  0.40116742698E+02 -0.24711307390E+03  0.25054898418E+03  0.47000000000E+01 0. -1.
         -5    1    3    3    0  503 -0.71683373485E+02 -0.14051474312E+02 -0.50411358350E+03  0.50940018162E+03  0.47000000000E+01 0.  1.
<mgrwt>
<rscale>  0 0.11485194E+03</rscale>
<asrwt>0</asrwt>
<pdfrwt beam="1">  1        1 0.14629191E+00 0.11486606E+03</pdfrwt>
<pdfrwt beam="2">  1       -1 0.32692473E-02 0.11486606E+03</pdfrwt>
<totfact> 0.55893537E+03</totfact>
</mgrwt>
</event>
<event>
 8    1  0.3466492E-004  0.1365376E+03  0.7546771E-02  0.1218357E+00
         -1   -1    0    0    0  501 -0.00000000000E+00  0.00000000000E+00  0.24751564543E+02  0.24751564543E+02  0.00000000000E+00 0.  1.
          1   -1    0    0  501    0  0.00000000000E+00 -0.00000000000E+00 -0.76981564810E+03  0.76981564810E+03  0.00000000000E+00 0. -1.
         23    2    1    2    0    0 -0.10418479692E+03 -0.40472045736E+01 -0.43740037612E+03  0.45796732424E+03  0.86856947169E+02 0.  0.
         23    2    1    2    0    0  0.10418479692E+03  0.40472045736E+01 -0.30766370744E+03  0.33659988840E+03  0.88157111013E+02 0.  0.
          5    1    3    3  502    0 -0.19892164966E+02  0.22900233271E+02 -0.23526367130E+03  0.23725767415E+03  0.47000000000E+01 0. -1.
         -5    1    3    3    0  502 -0.84292631954E+02 -0.26947437844E+02 -0.20213670482E+03  0.22070965009E+03  0.47000000000E+01 0.  1.
          5    1    4    4  503    0 -0.10192486043E+02  0.17866683872E+02 -0.53174422063E+02  0.57207642200E+02  0.47000000000E+01 0. -1.
         -5    1    4    4    0  503  0.11437728296E+03 -0.13819479299E+02 -0.25448928537E+03  0.27939224620E+03  0.47000000000E+01 0.  1.
<mgrwt>
<rscale>  0 0.13632820E+03</rscale>
<asrwt>0</asrwt>
<pdfrwt beam="1">  1        1 0.11843319E+00 0.13653764E+03</pdfrwt>
<pdfrwt beam="2">  1       -1 0.38079325E-02 0.13653764E+03</pdfrwt>
<totfact> 0.62610722E+03</totfact>
</mgrwt>
</event>
<event>
 8    1  0.3466492E-004  0.1217955E+03  0.7546771E-02  0.1240401E+00
          3   -1    0    0  501    0  0.00000000000E+00  0.00000000000E+00  0.46652882665E+03  0.46652882665E+03  0.00000000000E+00 0. -1.
         -3   -1    0    0    0  501 -0.00000000000E+00 -0.00000000000E+00 -0.33362197148E+02  0.33362197148E+02  0.00000000000E+00 0.  1.
         23    2    1    2    0    0  0.66059043995E+02 -0.46731592467E+02  0.15937866257E+03  0.20023456415E+03  0.90247900633E+02 0.  0.
         23    2    1    2    0    0 -0.66059043995E+02  0.46731592467E+02  0.27378796693E+03  0.29965645965E+03  0.91030236438E+02 0.  0.
          5    1    4    4  502    0 -0.63236779051E+02  0.71967804152E+02  0.21205456020E+03  0.23273908473E+03  0.47000000000E+01 0. -1.
         -5    1    4    4    0  502 -0.28222649436E+01 -0.25236211685E+02  0.61733406733E+02  0.66917374922E+02  0.47000000000E+01 0.  1.
          5    1    3    3  503    0 -0.47152206597E+01 -0.25436518163E+02  0.10530133934E+03  0.10853438086E+03  0.47000000000E+01 0. -1.
         -5    1    3    3    0  503  0.70774264654E+02 -0.21295074303E+02  0.54077323230E+02  0.91700183286E+02  0.47000000000E+01 0.  1.
<mgrwt>
<rscale>  0 0.12164933E+03</rscale>
<asrwt>0</asrwt>
<pdfrwt beam="1">  1        3 0.71773661E-01 0.12179550E+03</pdfrwt>
<pdfrwt beam="2">  1       -3 0.51326461E-02 0.12179550E+03</pdfrwt>
<totfact> 0.93623324E+02</totfact>
</mgrwt>
</event>
<event>
 8    1  0.3466492E-004  0.2768798E+03  0.7546771E-02  0.1097593E+00
          2   -1    0    0  501    0  0.00000000000E+00  0.00000000000E+00  0.10080436703E+04  0.10080436703E+04  0.00000000000E+00 0. -1.
         -2   -1    0    0    0  501 -0.00000000000E+00 -0.00000000000E+00 -0.12840042150E+03  0.12840042150E+03  0.00000000000E+00 0.  1.
         23    2    1    2    0    0 -0.16935009490E+03 -0.19761105229E+03  0.80328830552E+03  0.84922905358E+03  0.90489231546E+02 0.  0.
         23    2    1    2    0    0  0.16935009490E+03  0.19761105229E+03  0.76354943281E+02  0.28721503822E+03  0.94513587305E+02 0.  0.
          5    1    3    3  502    0 -0.63549338261E+02 -0.13269593655E+03  0.36182475004E+03  0.39062254122E+03  0.47000000000E+01 0. -1.
         -5    1    3    3    0  502 -0.10580075663E+03 -0.64915115741E+02  0.44146355548E+03  0.45860651236E+03  0.47000000000E+01 0.  1.
          5    1    4    4  503    0  0.13371118017E+03  0.11892997138E+03  0.88790038091E+02  0.19982186732E+03  0.47000000000E+01 0. -1.
         -5    1    4    4    0  503  0.35638914725E+02  0.78681080916E+02 -0.12435094810E+02  0.87393170899E+02  0.47000000000E+01 0.  1.
<mgrwt>
<rscale>  0 0.27654220E+03</rscale>
<asrwt>0</asrwt>
<pdfrwt beam="1">  1        2 0.15508364E+00 0.27687976E+03</pdfrwt>
<pdfrwt beam="2">  1       -2 0.19753912E-01 0.27687976E+03</pdfrwt>
<totfact> 0.55972508E+02</totfact>
</mgrwt>
</event>
<event>
 8    1  0.3466492E-004  0.1011877E+03  0.7546771E-02  0.1278817E+00
          2   -1    0    0  501    0  0.00000000000E+00  0.00000000000E+00  0.62229991579E+03  0.62229991579E+03  0.00000000000E+00 0. -1.
         -2   -1    0    0    0  501 -0.00000000000E+00 -0.00000000000E+00 -0.57564793596E+02  0.57564793596E+02  0.00000000000E+00 0.  1.
         23    2    1    2    0    0  0.44436405887E+02  0.88248142383E+01 -0.52255558170E+01  0.10132251180E+03  0.90479132668E+02 0.  0.
         23    2    1    2    0    0 -0.44436405887E+02 -0.88248142383E+01  0.56996067801E+03  0.57854219759E+03  0.88337016026E+02 0.  0.
          5    1    4    4  502    0 -0.65741386410E+02  0.74526995127E+01  0.30176687760E+03  0.30897056661E+03  0.47000000000E+01 0. -1.
         -5    1    3    3    0  503  0.15051202220E+02  0.47501748878E+02 -0.13468145807E+02  0.51830838178E+02  0.47000000000E+01 0.  1.
          5    1    3    3  503    0  0.29385203667E+02 -0.38676934640E+02  0.82425899895E+01  0.49491673617E+02  0.47000000000E+01 0. -1.
         -5    1    4    4    0  502  0.21304980523E+02 -0.16277513751E+02  0.26819380041E+03  0.26957163098E+03  0.47000000000E+01 0.  1.
<mgrwt>
<rscale>  0 0.10070655E+03</rscale>
<asrwt>0</asrwt>
<pdfrwt beam="1">  1        2 0.95738444E-01 0.10118767E+03</pdfrwt>
<pdfrwt beam="2">  1       -2 0.88561225E-02 0.10118767E+03</pdfrwt>
<totfact> 0.37364218E+03</totfact>
</mgrwt>
</event>
<event>
 8    1  0.3466492E-004  0.9156081E+02  0.7546771E-02  0.1300295E+00
         -1   -1    0    0    0  501 -0.00000000000E+00  0.00000000000E+00  0.29739285192E+03  0.29739285192E+03  0.00000000000E+00 0.  1.
          1   -1    0    0  501    0  0.00000000000E+00 -0.00000000000E+00 -0.37914920097E+02  0.37914920097E+02  0.00000000000E+00 0. -1.
         23    2    1    2    0    0  0.10702219860E+02  0.31619084226E+01  0.41210873263E+02  0.98614107850E+02  0.88892468844E+02 0.  0.
         23    2    1    2    0    0 -0.10702219860E+02 -0.31619084226E+01  0.21826705856E+03  0.23669366417E+03  0.90878196667E+02 0.  0.
          5    1    3    3  502    0  0.38372639568E+02  0.24345069632E+02  0.16941883536E+01  0.45717635077E+02  0.47000000000E+01 0. -1.
         -5    1    3    3    0  502 -0.27670419709E+02 -0.21183161209E+02  0.39516684910E+02  0.52896472774E+02  0.47000000000E+01 0.  1.
          5    1    4    4  503    0 -0.79906748032E+01  0.40145535817E+02  0.15089743354E+03  0.15642135525E+03  0.47000000000E+01 0. -1.
         -5    1    4    4    0  503 -0.27115450563E+01 -0.43307444240E+02  0.67369625020E+02  0.80272308915E+02  0.47000000000E+01 0.  1.
<mgrwt>
<rscale>  0 0.91064133E+02</rscale>
<asrwt>0</asrwt>
<pdfrwt beam="1">  1        1 0.58330648E-02 0.91560809E+02</pdfrwt>
<pdfrwt beam="2">  1       -1 0.45752745E-01 0.91560809E+02</pdfrwt>
<totfact> 0.59895366E+03</totfact>
</mgrwt>
</event>
<event>
 8    1  0.3466492E-004  0.1089995E+03  0.7546771E-02  0.1265157E+00
         -1   -1    0    0    0  501 -0.00000000000E+00  0.00000000000E+00  0.59752450839E+03  0.59752450839E+03  0.00000000000E+00 0.  1.
          1   -1    0    0  501    0  0.00000000000E+00 -0.00000000000E+00 -0.26734756500E+02  0.26734756500E+02  0.00000000000E+00 0. -1.
         23    2    1    2    0    0  0.39067930754E+02  0.31039325851E+02  0.12146447459E+03  0.16320083149E+03  0.96907945227E+02 0.  0.
         23    2    1    2    0    0 -0.39067930754E+02 -0.31039325851E+02  0.44932527730E+03  0.46105843341E+03  0.90509288075E+02 0.  0.
          5    1    4    4  502    0  0.11173764856E+01 -0.55732536205E+02  0.24661976412E+03  0.25288487930E+03  0.47000000000E+01 0. -1.
         -5    1    4    4    0  502 -0.40185307240E+02  0.24693210354E+02  0.20270551319E+03  0.20817355411E+03  0.47000000000E+01 0.  1.
          5    1    3    3  503    0  0.54512711309E+01 -0.26128316401E+02  0.28852370394E+01  0.27254721933E+02  0.47000000000E+01 0. -1.
         -5    1    3    3    0  503  0.33616659623E+02  0.57167642252E+02  0.11857923755E+03  0.13594610955E+03  0.47000000000E+01 0.  1.
<mgrwt>
<rscale>  0 0.10755939E+03</rscale>
<asrwt>0</asrwt>
<pdfrwt beam="1">  1        1 0.41130399E-02 0.10899951E+03</pdfrwt>
<pdfrwt beam="2">  1       -1 0.91926838E-01 0.10899951E+03</pdfrwt>
<totfact> 0.25333313E+03</totfact>
</mgrwt>
</event>
<event>
 8    1  0.3466492E-004  0.9601650E+02  0.7546771E-02  0.1290804E+00
          1   -1    0    0  501    0  0.00000000000E+00  0.00000000000E+00  0.33166967185E+02  0.33166967185E+02  0.00000000000E+00 0. -1.
         -1   -1    0    0    0  501 -0.00000000000E+00 -0.00000000000E+00 -0.62980000383E+03  0.62980000383E+03  0.00000000000E+00 0.  1.
         23    2    1    2    0    0 -0.13142581334E+02 -0.12782908758E+02 -0.49465040732E+02  0.10800907002E+03  0.94249874017E+02 0.  0.
         23    2    1    2    0    0  0.13142581334E+02  0.12782908758E+02 -0.54716799592E+03  0.55495790100E+03  0.90825799863E+02 0.  0.
          5    1    3    3  502    0 -0.35598742103E+02  0.30365442069E+02 -0.21536638341E+02  0.51722792871E+02  0.47000000000E+01 0. -1.
         -5    1    4    4    0  503  0.49029623947E+02  0.34552499250E+00 -0.39463793306E+03  0.39769990146E+03  0.47000000000E+01 0.  1.
          5    1    4    4  503    0 -0.35887042613E+02  0.12437383765E+02 -0.15253006285E+03  0.15725799953E+03  0.47000000000E+01 0. -1.
         -5    1    3    3    0  502  0.22456160769E+02 -0.43148350827E+02 -0.27928402391E+02  0.56286277152E+02  0.47000000000E+01 0.  1.
<mgrwt>
<rscale>  0 0.95165566E+02</rscale>
<asrwt>0</asrwt>
<pdfrwt beam="1">  1        1 0.51026104E-02 0.96016504E+02</pdfrwt>
<pdfrwt beam="2">  1       -1 0.96892307E-01 0.96016504E+02</pdfrwt>
<totfact> 0.16769570E+03</totfact>
</mgrwt>
</event>
<event>
 8    1  0.3466492E-004  0.1104192E+03  0.7546771E-02  0.1262951E+00
          1   -1    0    0  501    0  0.00000000000E+00  0.00000000000E+00  0.40552892539E+02  0.40552892539E+02  0.00000000000E+00 0. -1.
         -1   -1    0    0    0  501 -0.00000000000E+00 -0.00000000000E+00 -0.30527675138E+03  0.30527675138E+03  0.00000000000E+00 0.  1.
         23    2    1    2    0    0  0.77188678726E-01  0.50952002851E+02 -0.89345123158E+02  0.14203858434E+03  0.97960685266E+02 0.  0.
         23    2    1    2    0    0 -0.77188678726E-01 -0.50952002851E+02 -0.17537873568E+03  0.20379105958E+03  0.90426669077E+02 0.  0.
          5    1    4    4  502    0  0.44083601204E+02 -0.31297174408E+02 -0.78651114665E+02  0.95556082271E+02  0.47000000000E+01 0. -1.
         -5    1    3    3    0  503 -0.46314432718E+01 -0.20200723860E+02  0.67375961134E+01  0.22293602504E+02  0.47000000000E+01 0.  1.
          5    1    3    3  503    0  0.47086319506E+01  0.71152726711E+02 -0.96082719271E+02  0.11974498184E+03  0.47000000000E+01 0. -1.
         -5    1    4    4    0  502 -0.44160789882E+02 -0.19654828443E+02 -0.96727621018E+02  0.10823497730E+03  0.47000000000E+01 0.  1.
<mgrwt>
<rscale>  0 0.10872418E+03</rscale>
<asrwt>0</asrwt>
<pdfrwt beam="1">  1        1 0.62389066E-02 0.11041924E+03</pdfrwt>
<pdfrwt beam="2">  1       -1 0.46965653E-01 0.11041924E+03</pdfrwt>
<totfact> 0.53002440E+03</totfact>
</mgrwt>
</event>
<event>
 8    1  0.3466492E-004  0.1374460E+03  0.7546771E-02  0.1221455E+00
          2   -1    0    0  501    0  0.00000000000E+00  0.00000000000E+00  0.13639823606E+04  0.13639823606E+04  0.00000000000E+00 0. -1.
         -2   -1    0    0    0  501 -0.00000000000E+00 -0.00000000000E+00 -0.14565360729E+02  0.14565360729E+02  0.00000000000E+00 0.  1.
         23    2    1    2    0    0 -0.10086574936E+03 -0.20265751905E+02  0.44965347176E+03  0.47019107425E+03  0.91141656428E+02 0.  0.
         23    2    1    2    0    0  0.10086574936E+03  0.20265751905E+02  0.89976352808E+03  0.90835664705E+03  0.70376073304E+02 0.  0.
          5    1    4    4  502    0  0.56304736100E+02  0.45416573659E+02  0.57538137596E+03  0.57992991497E+03  0.47000000000E+01 0. -1.
         -5    1    3    3    0  503 -0.53571969607E+02 -0.36847613780E+02  0.37187173637E+03  0.37754255506E+03  0.47000000000E+01 0.  1.
          5    1    3    3  503    0 -0.47293779755E+02  0.16581861875E+02  0.77781735392E+02  0.92648519186E+02  0.47000000000E+01 0. -1.
         -5    1    4    4    0  502  0.44561013261E+02 -0.25150821754E+02  0.32438215212E+03  0.32842673209E+03  0.47000000000E+01 0.  1.
<mgrwt>
<rscale>  0 0.13412858E+03</rscale>
<asrwt>0</asrwt>
<pdfrwt beam="1">  1        2 0.20984334E+00 0.13744600E+03</pdfrwt>
<pdfrwt beam="2">  1       -2 0.22408258E-02 0.13744600E+03</pdfrwt>
<totfact> 0.10279848E+04</totfact>
</mgrwt>
</event>
<event>
 8    1  0.3466492E-004  0.9357701E+02  0.7546771E-02  0.1296544E+00
         -1   -1    0    0    0  501 -0.00000000000E+00  0.00000000000E+00  0.13147647358E+03  0.13147647358E+03  0.00000000000E+00 0.  1.
          1   -1    0    0  501    0  0.00000000000E+00 -0.00000000000E+00 -0.18540833414E+03  0.18540833414E+03  0.00000000000E+00 0. -1.
         23    2    1    2    0    0 -0.11681793367E+02  0.20186165984E+02  0.10139893326E+03  0.13554448604E+03  0.86871275102E+02 0.  0.
         23    2    1    2    0    0  0.11681793367E+02 -0.20186165984E+02 -0.15533079382E+03  0.18134032167E+03  0.90624009850E+02 0.  0.
          5    1    3    3  502    0 -0.29452778925E+02 -0.18425678001E+02  0.13082850111E+02  0.37419550549E+02  0.47000000000E+01 0. -1.
         -5    1    3    3    0  502  0.17770985558E+02  0.38611843985E+02  0.88316083147E+02  0.98124935496E+02  0.47000000000E+01 0.  1.
          5    1    4    4  503    0  0.34891759655E+02 -0.17921450210E+02 -0.15232203609E+03  0.15736170420E+03  0.47000000000E+01 0. -1.
         -5    1    4    4    0  503 -0.23209966288E+02 -0.22647157739E+01 -0.30087577253E+01  0.23978617468E+02  0.47000000000E+01 0.  1.
<mgrwt>
<rscale>  0 0.92656144E+02</rscale>
<asrwt>0</asrwt>
<pdfrwt beam="1">  1        1 0.28524359E-01 0.93577010E+02</pdfrwt>
<pdfrwt beam="2">  1       -1 0.20227150E-01 0.93577010E+02</pdfrwt>
<totfact> 0.30305837E+03</totfact>
</mgrwt>
</event>
<event>
 8    1  0.3466492E-004  0.9660328E+02  0.7546771E-02  0.1289662E+00
          3   -1    0    0  501    0  0.00000000000E+00  0.00000000000E+00  0.35006318447E+02  0.35006318447E+02  0.00000000000E+00 0. -1.
         -3   -1    0    0    0  501 -0.00000000000E+00 -0.00000000000E+00 -0.28547771281E+03  0.28547771281E+03  0.00000000000E+00 0.  1.
         23    2    1    2    0    0  0.33260007480E+01  0.25621097693E+02 -0.17403142828E+03  0.19729611723E+03  0.89282231809E+02 0.  0.
         23    2    1    2    0    0 -0.33260007480E+01 -0.25621097693E+02 -0.76439966080E+02  0.12318791402E+03  0.93084321016E+02 0.  0.
          5    1    4    4  502    0 -0.45394048763E+02 -0.29041504114E+02 -0.41016469132E+02  0.67885708101E+02  0.47000000000E+01 0. -1.
         -5    1    3    3    0  503  0.15309715085E+02  0.47631539246E+02 -0.16100148377E+03  0.16866155069E+03  0.47000000000E+01 0.  1.
          5    1    3    3  503    0 -0.11983714337E+02 -0.22010441553E+02 -0.13029944510E+02  0.28634566535E+02  0.47000000000E+01 0. -1.
         -5    1    4    4    0  502  0.42068048015E+02  0.34204064214E+01 -0.35423496947E+02  0.55302205922E+02  0.47000000000E+01 0.  1.
<mgrwt>
<rscale>  0 0.95675493E+02</rscale>
<asrwt>0</asrwt>
<pdfrwt beam="1">  1        3 0.53855872E-02 0.96603280E+02</pdfrwt>
<pdfrwt beam="2">  1       -3 0.43919650E-01 0.96603280E+02</pdfrwt>
<totfact> 0.22489530E+03</totfact>
</mgrwt>
</event>
<event>
 8    1  0.3466492E-004  0.9330374E+02  0.7546771E-02  0.1296829E+00
         -1   -1    0    0    0  501 -0.00000000000E+00  0.00000000000E+00  0.46637499102E+02  0.46637499102E+02  0.00000000000E+00 0.  1.
          1   -1    0    0  501    0  0.00000000000E+00 -0.00000000000E+00 -0.19883515144E+03  0.19883515144E+03  0.00000000000E+00 0. -1.
         23    2    1    2    0    0  0.36555349134E+01  0.48481457306E+01 -0.40110494627E+02  0.10156002996E+03  0.93105963579E+02 0.  0.
         23    2    1    2    0    0 -0.36555349134E+01 -0.48481457306E+01 -0.11208715771E+03  0.14391262058E+03  0.90058003452E+02 0.  0.
          5    1    4    4  502    0  0.11280346618E+02  0.25836783800E+02 -0.10489730282E+03  0.10872129394E+03  0.47000000000E+01 0. -1.
         -5    1    4    4    0  502 -0.14935881532E+02 -0.30684929531E+02 -0.71898548934E+01  0.35191326642E+02  0.47000000000E+01 0.  1.
          5    1    3    3  503    0 -0.11573108124E+02 -0.28799749091E+02  0.15206082535E+02  0.34880902016E+02  0.47000000000E+01 0. -1.
         -5    1    3    3    0  503  0.15228643038E+02  0.33647894822E+02 -0.55316577162E+02  0.66679127946E+02  0.47000000000E+01 0.  1.
<mgrwt>
<rscale>  0 0.92533945E+02</rscale>
<asrwt>0</asrwt>
<pdfrwt beam="1">  1        1 0.30590023E-01 0.93303740E+02</pdfrwt>
<pdfrwt beam="2">  1       -1 0.71749999E-02 0.93303740E+02</pdfrwt>
<totfact> 0.13596261E+04</totfact>
</mgrwt>
</event>
<event>
 8    1  0.3466492E-004  0.1018308E+03  0.7546771E-02  0.1281070E+00
          1   -1    0    0  501    0  0.00000000000E+00  0.00000000000E+00  0.17828635029E+03  0.17828635029E+03  0.00000000000E+00 0. -1.
         -1   -1    0    0    0  501 -0.00000000000E+00 -0.00000000000E+00 -0.55990322668E+02  0.55990322668E+02  0.00000000000E+00 0.  1.
         23    2    1    2    0    0 -0.34423253396E+02 -0.28705205609E+02  0.88852782062E+02  0.13514556666E+03  0.91436087539E+02 0.  0.
         23    2    1    2    0    0  0.34423253396E+02  0.28705205609E+02  0.33443245558E+02  0.99131106295E+02  0.81850939874E+02 0.  0.
          5    1    3    3  502    0 -0.15134211367E+02 -0.60197119251E+02  0.69095229111E+02  0.92999882826E+02  0.47000000000E+01 0. -1.
         -5    1    4    4    0  503  0.48722418798E+02 -0.34777316127E+01  0.39619409827E+02  0.63069456520E+02  0.47000000000E+01 0. -1.
          5    1    4    4  503    0 -0.14299165402E+02  0.32182937221E+02 -0.61761642684E+01  0.36061649775E+02  0.47000000000E+01 0.  1.
         -5    1    3    3    0  502 -0.19289042029E+02  0.31491913642E+02  0.19757552951E+02  0.42145683835E+02  0.47000000000E+01 0.  1.
<mgrwt>
<rscale>  0 0.99632809E+02</rscale>
<asrwt>0</asrwt>
<pdfrwt beam="1">  1        1 0.27428669E-01 0.10183078E+03</pdfrwt>
<pdfrwt beam="2">  1       -1 0.86138959E-02 0.10183078E+03</pdfrwt>
<totfact> 0.11934513E+04</totfact>
</mgrwt>
</event>
<event>
 8    1  0.3466492E-004  0.1385944E+03  0.7546771E-02  0.1217099E+00
         -1   -1    0    0    0  501 -0.00000000000E+00  0.00000000000E+00  0.39318130777E+02  0.39318130777E+02  0.00000000000E+00 0.  1.
          1   -1    0    0  501    0  0.00000000000E+00 -0.00000000000E+00 -0.49104485238E+03  0.49104485238E+03  0.00000000000E+00 0. -1.
         23    2    1    2    0    0 -0.34742011550E+02 -0.91352350145E+02 -0.17501089522E+03  0.22324254247E+03  0.98265762491E+02 0.  0.
         23    2    1    2    0    0  0.34742011550E+02  0.91352350145E+02 -0.27671582638E+03  0.30712044069E+03  0.90548645906E+02 0.  0.
          5    1    4    4  502    0  0.50143221889E+02  0.54887506759E+02 -0.24531618379E+03  0.25637687324E+03  0.47000000000E+01 0. -1.
         -5    1    3    3    0  503  0.88816555998E+01 -0.83580471627E+02 -0.15035343152E+03  0.17231605675E+03  0.47000000000E+01 0.  1.
          5    1    3    3  503    0 -0.43623667149E+02 -0.77718785178E+01 -0.24657463693E+02  0.50926485713E+02  0.47000000000E+01 0. -1.
         -5    1    4    4    0  502 -0.15401210339E+02  0.36464843386E+02 -0.31399642587E+02  0.50743567451E+02  0.47000000000E+01 0.  1.
<mgrwt>
<rscale>  0 0.13723446E+03</rscale>
<asrwt>0</asrwt>
<pdfrwt beam="1">  1        1 0.75545367E-01 0.13859444E+03</pdfrwt>
<pdfrwt beam="2">  1       -1 0.60489428E-02 0.13859444E+03</pdfrwt>
<totfact> 0.58751741E+03</totfact>
</mgrwt>
</event>
<event>
 8    1  0.3466492E-004  0.9591427E+02  0.7546771E-02  0.1289198E+00
          3   -1    0    0  501    0  0.00000000000E+00  0.00000000000E+00  0.14239806774E+03  0.14239806774E+03  0.00000000000E+00 0. -1.
         -3   -1    0    0    0  501 -0.00000000000E+00 -0.00000000000E+00 -0.74258348565E+02  0.74258348565E+02  0.00000000000E+00 0.  1.
         23    2    1    2    0    0  0.28606161917E+02 -0.15381433791E+02  0.73275131103E+02  0.12060476639E+03  0.90118609800E+02 0.  0.
         23    2    1    2    0    0 -0.28606161917E+02  0.15381433791E+02 -0.51354119266E+01  0.96051649919E+02  0.90247692443E+02 0.  0.
          5    1    4    4  502    0 -0.21503122584E+02 -0.35674100478E+02  0.79429559692E+01  0.42663875531E+02  0.47000000000E+01 0. -1.
         -5    1    4    4    0  502 -0.71030393333E+01  0.51055534269E+02 -0.13078367896E+02  0.53387774388E+02  0.47000000000E+01 0.  1.
          5    1    3    3  503    0  0.22880718744E+02  0.26565320826E+02  0.69322027065E+02  0.77825940388E+02  0.47000000000E+01 0. -1.
         -5    1    3    3    0  503  0.57254431734E+01 -0.41946754617E+02  0.39531040381E+01  0.42778826000E+02  0.47000000000E+01 0.  1.
<mgrwt>
<rscale>  0 0.95883893E+02</rscale>
<asrwt>0</asrwt>
<pdfrwt beam="1">  1        3 0.21907395E-01 0.95914269E+02</pdfrwt>
<pdfrwt beam="2">  1       -3 0.11424361E-01 0.95914269E+02</pdfrwt>
<totfact> 0.24108915E+03</totfact>
</mgrwt>
</event>
<event>
 8    1  0.3466492E-004  0.1378130E+03  0.7546771E-02  0.1216671E+00
          1   -1    0    0  501    0  0.00000000000E+00  0.00000000000E+00  0.11577149881E+04  0.11577149881E+04  0.00000000000E+00 0. -1.
         -1   -1    0    0    0  501 -0.00000000000E+00 -0.00000000000E+00 -0.17437159798E+02  0.17437159798E+02  0.00000000000E+00 0.  1.
         23    2    1    2    0    0  0.50924502042E+02  0.89520347310E+02  0.71955653327E+03  0.73243458183E+03  0.89953402376E+02 0.  0.
         23    2    1    2    0    0 -0.50924502042E+02 -0.89520347310E+02  0.42072129507E+03  0.44271756610E+03  0.91570943653E+02 0.  0.
          5    1    4    4  502    0 -0.20218575545E+02 -0.74777340997E+02  0.38646947156E+03  0.39418420056E+03  0.47000000000E+01 0. -1.
         -5    1    3    3    0  503  0.23989869640E+02  0.98922633117E+02  0.45324945964E+03  0.46456255106E+03  0.47000000000E+01 0.  1.
          5    1    3    3  503    0  0.26934632402E+02 -0.94022858064E+01  0.26630707364E+03  0.26787203077E+03  0.47000000000E+01 0. -1.
         -5    1    4    4    0  502 -0.30705926498E+02 -0.14743006313E+02  0.34251823508E+02  0.48533365542E+02  0.47000000000E+01 0.  1.
<mgrwt>
<rscale>  0 0.13754490E+03</rscale>
<asrwt>0</asrwt>
<pdfrwt beam="1">  1        1 0.17810994E+00 0.13781304E+03</pdfrwt>
<pdfrwt beam="2">  1       -1 0.26826409E-02 0.13781304E+03</pdfrwt>
<totfact> 0.53402221E+03</totfact>
</mgrwt>
</event>
<event>
 8    1  0.3466492E-004  0.9507327E+02  0.7546771E-02  0.1292114E+00
          2   -1    0    0  501    0  0.00000000000E+00  0.00000000000E+00  0.50771050599E+03  0.50771050599E+03  0.00000000000E+00 0. -1.
         -2   -1    0    0    0  501 -0.00000000000E+00 -0.00000000000E+00 -0.54321024759E+02  0.54321024759E+02  0.00000000000E+00 0.  1.
         23    2    1    2    0    0  0.22775897338E+02 -0.44185103858E+01 -0.55958433113E+01  0.93302979577E+02  0.90199045460E+02 0.  0.
         23    2    1    2    0    0 -0.22775897338E+02  0.44185103858E+01  0.45898532454E+03  0.46872855117E+03  0.92199033644E+02 0.  0.
          5    1    4    4  502    0 -0.75209491631E+01 -0.36040770554E+02  0.34041739007E+03  0.34243479858E+03  0.47000000000E+01 0. -1.
         -5    1    4    4    0  502 -0.15254948175E+02  0.40459280940E+02  0.11856793447E+03  0.12629375259E+03  0.47000000000E+01 0.  1.
          5    1    3    3  503    0 -0.28791998842E+02 -0.16759425451E+02  0.14187892631E+02  0.36513611655E+02  0.47000000000E+01 0. -1.
         -5    1    3    3    0  503  0.51567896180E+02  0.12340915065E+02 -0.19783735942E+02  0.56789367922E+02  0.47000000000E+01 0.  1.
<mgrwt>
<rscale>  0 0.94584959E+02</rscale>
<asrwt>0</asrwt>
<pdfrwt beam="1">  1        2 0.78109305E-01 0.95073269E+02</pdfrwt>
<pdfrwt beam="2">  1       -2 0.83570811E-02 0.95073269E+02</pdfrwt>
<totfact> 0.51014549E+03</totfact>
</mgrwt>
</event>
<event>
 8    1  0.3632992E-004  0.9274792E+02  0.7546771E-02  0.1299203E+00
         -1   -1    0    0    0  501 -0.00000000000E+00  0.00000000000E+00  0.20969677029E+03  0.20969677029E+03  0.00000000000E+00 0.  1.
          1   -1    0    0  501    0  0.00000000000E+00 -0.00000000000E+00 -0.79794574000E+02  0.79794574000E+02  0.00000000000E+00 0. -1.
         23    2    1    2    0    0 -0.22145644916E+01  0.16066479650E+01 -0.37777784677E+02  0.10014657636E+03  0.92707551623E+02 0.  0.
         23    2    1    2    0    0  0.22145644916E+01 -0.16066479650E+01  0.16767998097E+03  0.18934476793E+03  0.87905514683E+02 0.  0.
          5    1    4    4  502    0 -0.10719986447E+02 -0.30713232137E+02  0.20617842474E+02  0.38799563993E+02  0.47000000000E+01 0. -1.
         -5    1    3    3    0  503  0.55532115973E+01  0.42284605829E+02  0.14226231917E+01  0.42929475957E+02  0.47000000000E+01 0.  1.
          5    1    3    3  503    0 -0.77677760889E+01 -0.40677957864E+02 -0.39200407869E+02  0.57217100403E+02  0.47000000000E+01 0. -1.
         -5    1    4    4    0  502  0.12934550939E+02  0.29106584173E+02  0.14706213849E+03  0.15054520394E+03  0.47000000000E+01 0.  1.
<mgrwt>
<rscale>  0 0.91523940E+02</rscale>
<asrwt>0</asrwt>
<pdfrwt beam="1">  1        1 0.12276088E-01 0.92747915E+02</pdfrwt>
<pdfrwt beam="2">  1       -1 0.32261041E-01 0.92747915E+02</pdfrwt>
<totfact> 0.40987159E+03</totfact>
</mgrwt>
</event>
<event>
 8    1  0.3466492E-004  0.1065991E+03  0.7546771E-02  0.1269384E+00
         -1   -1    0    0    0  501 -0.00000000000E+00  0.00000000000E+00  0.85768766181E+03  0.85768766181E+03  0.00000000000E+00 0.  1.
          1   -1    0    0  501    0  0.00000000000E+00 -0.00000000000E+00 -0.16278902167E+02  0.16278902167E+02  0.00000000000E+00 0. -1.
         23    2    1    2    0    0 -0.20430020723E+02  0.46172261912E+02  0.20706841963E+03  0.23073174869E+03  0.88377293056E+02 0.  0.
         23    2    1    2    0    0  0.20430020723E+02 -0.46172261912E+02  0.63434034001E+03  0.64323481529E+03  0.93883423010E+02 0.  0.
          5    1    3    3  502    0  0.34595615861E+02  0.18090454420E+02  0.69427935906E+02  0.79790033602E+02  0.47000000000E+01 0. -1.
         -5    1    3    3    0  502 -0.55025636585E+02  0.28081807492E+02  0.13764048372E+03  0.15094171509E+03  0.47000000000E+01 0.  1.
          5    1    4    4  503    0  0.33510025592E+02  0.12533349209E+02  0.11832561706E+03  0.12370549021E+03  0.47000000000E+01 0. -1.
         -5    1    4    4    0  503 -0.13080004869E+02 -0.58705611121E+02  0.51601472296E+03  0.51952932508E+03  0.47000000000E+01 0.  1.
<mgrwt>
<rscale>  0 0.10537413E+03</rscale>
<asrwt>0</asrwt>
<pdfrwt beam="1">  1        1 0.25044472E-02 0.10659906E+03</pdfrwt>
<pdfrwt beam="2">  1       -1 0.13195191E+00 0.10659906E+03</pdfrwt>
<totfact> 0.22039927E+03</totfact>
</mgrwt>
</event>
<event>
 8    1  0.3466492E-004  0.1059940E+03  0.7546771E-02  0.1269838E+00
         -1   -1    0    0    0  501 -0.00000000000E+00  0.00000000000E+00  0.34652112957E+02  0.34652112957E+02  0.00000000000E+00 0.  1.
          1   -1    0    0  501    0  0.00000000000E+00 -0.00000000000E+00 -0.37775107409E+03  0.37775107409E+03  0.00000000000E+00 0. -1.
         23    2    1    2    0    0 -0.26743881336E+02  0.43364156161E+02 -0.89154684354E+02  0.13850370105E+03  0.92946394412E+02 0.  0.
         23    2    1    2    0    0  0.26743881336E+02 -0.43364156161E+02 -0.25394427678E+03  0.27389948600E+03  0.89092914936E+02 0.  0.
          5    1    4    4  502    0  0.19906352213E+00 -0.36225891288E+02 -0.23991959062E+03  0.24268468182E+03  0.47000000000E+01 0. -1.
         -5    1    3    3    0  503 -0.46981560986E+02 -0.10142324248E+02 -0.35551884121E+02  0.59967993783E+02  0.47000000000E+01 0.  1.
          5    1    3    3  503    0  0.20237679650E+02  0.53506480409E+02 -0.53602800233E+02  0.78535707268E+02  0.47000000000E+01 0. -1.
         -5    1    4    4    0  502  0.26544817814E+02 -0.71382648727E+01 -0.14024686164E+02  0.31214804183E+02  0.47000000000E+01 0.  1.
<mgrwt>
<rscale>  0 0.10514316E+03</rscale>
<asrwt>0</asrwt>
<pdfrwt beam="1">  1        1 0.58115548E-01 0.10599395E+03</pdfrwt>
<pdfrwt beam="2">  1       -1 0.53310945E-02 0.10599395E+03</pdfrwt>
<totfact> 0.97045016E+03</totfact>
</mgrwt>
</event>
<event>
 8    1  0.3466492E-004  0.1004918E+03  0.7546771E-02  0.1279832E+00
         -1   -1    0    0    0  501 -0.00000000000E+00  0.00000000000E+00  0.62013675219E+02  0.62013675219E+02  0.00000000000E+00 0.  1.
          1   -1    0    0  501    0  0.00000000000E+00 -0.00000000000E+00 -0.16141778835E+03  0.16141778835E+03  0.00000000000E+00 0. -1.
         23    2    1    2    0    0 -0.38584469917E+02 -0.14868588029E+02 -0.44483645425E+02  0.10891134326E+03  0.90404921059E+02 0.  0.
         23    2    1    2    0    0  0.38584469917E+02  0.14868588029E+02 -0.54920467710E+02  0.11452012031E+03  0.91590195731E+02 0.  0.
          5    1    4    4  502    0 -0.98451327809E+01 -0.19488870371E+02  0.11651038593E+02  0.25190859615E+02  0.47000000000E+01 0. -1.
         -5    1    4    4    0  502  0.48429602698E+02  0.34357458401E+02 -0.66571506304E+02  0.89329260698E+02  0.47000000000E+01 0.  1.
          5    1    3    3  503    0 -0.49357730076E+02  0.26377384006E+02 -0.29813415602E+02  0.63583658711E+02  0.47000000000E+01 0. -1.
         -5    1    3    3    0  503  0.10773260159E+02 -0.41245972035E+02 -0.14670229823E+02  0.45327684550E+02  0.47000000000E+01 0.  1.
<mgrwt>
<rscale>  0 0.10022093E+03</rscale>
<asrwt>0</asrwt>
<pdfrwt beam="1">  1        1 0.24833506E-01 0.10049179E+03</pdfrwt>
<pdfrwt beam="2">  1       -1 0.95405654E-02 0.10049179E+03</pdfrwt>
<totfact> 0.11561276E+04</totfact>
</mgrwt>
</event>
<event>
 8    1  0.3466492E-004  0.1028779E+03  0.7546771E-02  0.1274692E+00
         -1   -1    0    0    0  501 -0.00000000000E+00  0.00000000000E+00  0.31925541741E+02  0.31925541741E+02  0.00000000000E+00 0.  1.
          1   -1    0    0  501    0  0.00000000000E+00 -0.00000000000E+00 -0.36183686387E+03  0.36183686387E+03  0.00000000000E+00 0. -1.
         23    2    1    2    0    0 -0.76749025721E+01 -0.48146362615E+02 -0.10649227943E+03  0.14806912296E+03  0.90591849707E+02 0.  0.
         23    2    1    2    0    0  0.76749025721E+01  0.48146362615E+02 -0.22341904270E+03  0.24569328265E+03  0.89845111925E+02 0.  0.
          5    1    4    4  502    0  0.34545806783E+02  0.31918327694E+02 -0.47783555516E+02  0.67212726375E+02  0.47000000000E+01 0.  1.
         -5    1    4    4    0  502 -0.26870904210E+02  0.16228034921E+02 -0.17563548718E+03  0.17848055628E+03  0.47000000000E+01 0. -1.
          5    1    3    3  503    0 -0.36555828760E+02 -0.14321548930E+02 -0.93465710873E+02  0.10148578466E+03  0.47000000000E+01 0. -1.
         -5    1    3    3    0  503  0.28880926188E+02 -0.33824813685E+02 -0.13026568557E+02  0.46583338295E+02  0.47000000000E+01 0.  1.
<mgrwt>
<rscale>  0 0.10271326E+03</rscale>
<asrwt>0</asrwt>
<pdfrwt beam="1">  1        1 0.55667209E-01 0.10287789E+03</pdfrwt>
<pdfrwt beam="2">  1       -1 0.49116219E-02 0.10287789E+03</pdfrwt>
<totfact> 0.11519041E+04</totfact>
</mgrwt>
</event>
<event>
 8    1  0.3466492E-004  0.9521975E+02  0.7546771E-02  0.1292769E+00
         -2   -1    0    0    0  501 -0.00000000000E+00  0.00000000000E+00  0.79186888717E+02  0.79186888717E+02  0.00000000000E+00 0.  1.
          2   -1    0    0  501    0  0.00000000000E+00 -0.00000000000E+00 -0.47478961110E+03  0.47478961110E+03  0.00000000000E+00 0. -1.
         23    2    1    2    0    0 -0.23101707440E+02  0.94277936341E+01  0.44029892247E+02  0.10490677991E+03  0.91892485441E+02 0.  0.
         23    2    1    2    0    0  0.23101707440E+02 -0.94277936341E+01 -0.43963261463E+03  0.44906971991E+03  0.88114728119E+02 0.  0.
          5    1    4    4  502    0  0.13021585484E+02  0.37589416347E+02 -0.14203174008E+03  0.14757246051E+03  0.47000000000E+01 0. -1.
         -5    1    4    4    0  502  0.10080121956E+02 -0.47017209981E+02 -0.29760087455E+03  0.30149725940E+03  0.47000000000E+01 0.  1.
          5    1    3    3  503    0 -0.11328065842E+02  0.34976938321E+02 -0.14497924576E+02  0.39799385762E+02  0.47000000000E+01 0. -1.
         -5    1    3    3    0  503 -0.11773641597E+02 -0.25549144687E+02  0.58527816823E+02  0.65107394148E+02  0.47000000000E+01 0.  1.
<mgrwt>
<rscale>  0 0.94296304E+02</rscale>
<asrwt>0</asrwt>
<pdfrwt beam="1">  1        2 0.73044558E-01 0.95219751E+02</pdfrwt>
<pdfrwt beam="2">  1       -2 0.12182598E-01 0.95219751E+02</pdfrwt>
<totfact> 0.30480433E+03</totfact>
</mgrwt>
</event>
<event>
 8    1  0.3466492E-004  0.9417246E+02  0.7546771E-02  0.1293750E+00
          1   -1    0    0  501    0  0.00000000000E+00  0.00000000000E+00  0.44581218750E+02  0.44581218750E+02  0.00000000000E+00 0. -1.
         -1   -1    0    0    0  501 -0.00000000000E+00 -0.00000000000E+00 -0.29811239932E+03  0.29811239932E+03  0.00000000000E+00 0.  1.
         23    2    1    2    0    0  0.31411821771E+02 -0.16152529085E+02 -0.27206245217E+02  0.98023631498E+02  0.87297455922E+02 0.  0.
         23    2    1    2    0    0 -0.31411821771E+02  0.16152529085E+02 -0.22632493535E+03  0.24466998657E+03  0.85981505126E+02 0.  0.
          5    1    4    4  502    0 -0.55328919771E+02  0.18935720454E+02 -0.99619531355E+02  0.11561138309E+03  0.47000000000E+01 0. -1.
         -5    1    3    3    0  503  0.54665314173E+02 -0.31806410958E+02 -0.28592503768E+02  0.69566986591E+02  0.47000000000E+01 0.  1.
          5    1    3    3  503    0 -0.23253492402E+02  0.15653881873E+02  0.13862585519E+01  0.28456644907E+02  0.47000000000E+01 0. -1.
         -5    1    4    4    0  502  0.23917098001E+02 -0.27831913685E+01 -0.12670540399E+03  0.12905860348E+03  0.47000000000E+01 0.  1.
<mgrwt>
<rscale>  0 0.93866330E+02</rscale>
<asrwt>0</asrwt>
<pdfrwt beam="1">  1        1 0.68586487E-02 0.94172462E+02</pdfrwt>
<pdfrwt beam="2">  1       -1 0.45863448E-01 0.94172462E+02</pdfrwt>
<totfact> 0.48112973E+03</totfact>
</mgrwt>
</event>
<event>
 8    1  0.3466492E-004  0.9471493E+02  0.7546771E-02  0.1294137E+00
         -1   -1    0    0    0  501 -0.00000000000E+00  0.00000000000E+00  0.99913652091E+02  0.99913652091E+02  0.00000000000E+00 0.  1.
          1   -1    0    0  501    0  0.00000000000E+00 -0.00000000000E+00 -0.90943494362E+02  0.90943494362E+02  0.00000000000E+00 0. -1.
         23    2    1    2    0    0  0.90908168726E+01  0.24165388523E+01 -0.17780443141E+02  0.92437063498E+02  0.90221859537E+02 0.  0.
         23    2    1    2    0    0 -0.90908168726E+01 -0.24165388523E+01  0.26750600870E+02  0.98420082955E+02  0.94246673525E+02 0.  0.
          5    1    3    3  502    0 -0.20848554643E+02 -0.35660768612E+02 -0.35105364213E+01  0.41722494109E+02  0.47000000000E+01 0. -1.
         -5    1    4    4    0  503  0.96888653964E+01 -0.26208640102E+02 -0.25311730626E+02  0.37993955255E+02  0.47000000000E+01 0.  1.
          5    1    4    4  503    0 -0.18779682269E+02  0.23792101250E+02  0.52062331496E+02  0.60426127700E+02  0.47000000000E+01 0. -1.
         -5    1    3    3    0  502  0.29939371516E+02  0.38077307464E+02 -0.14269906720E+02  0.50714569389E+02  0.47000000000E+01 0.  1.
<mgrwt>
<rscale>  0 0.93697650E+02</rscale>
<asrwt>0</asrwt>
<pdfrwt beam="1">  1        1 0.13991307E-01 0.94714931E+02</pdfrwt>
<pdfrwt beam="2">  1       -1 0.15371331E-01 0.94714931E+02</pdfrwt>
<totfact> 0.11441655E+04</totfact>
</mgrwt>
</event>
<event>
 8    1  0.3466492E-004  0.9822500E+02  0.7546771E-02  0.1284089E+00
         -1   -1    0    0    0  501 -0.00000000000E+00  0.00000000000E+00  0.26628045802E+03  0.26628045802E+03  0.00000000000E+00 0.  1.
          1   -1    0    0  501    0  0.00000000000E+00 -0.00000000000E+00 -0.36237809175E+02  0.36237809175E+02  0.00000000000E+00 0. -1.
         23    2    1    2    0    0 -0.25488660228E+02 -0.19340559813E+02  0.11189657951E+03  0.14889256371E+03  0.92867766045E+02 0.  0.
         23    2    1    2    0    0  0.25488660228E+02  0.19340559813E+02  0.11814606934E+03  0.15362570348E+03  0.92836598470E+02 0.  0.
          5    1    4    4  502    0 -0.64105794540E+01  0.29578476143E+02  0.11572476407E+03  0.11970920097E+03  0.47000000000E+01 0. -1.
         -5    1    4    4    0  502  0.31899239682E+02 -0.10237916330E+02  0.24213052736E+01  0.33916502506E+02  0.47000000000E+01 0.  1.
          5    1    3    3  503    0 -0.37925371458E+02  0.18309216184E+02  0.16494929548E+02  0.45472342125E+02  0.47000000000E+01 0. -1.
         -5    1    3    3    0  503  0.12436711231E+02 -0.37649775997E+02  0.95401649959E+02  0.10342022159E+03  0.47000000000E+01 0.  1.
<mgrwt>
<rscale>  0 0.98217634E+02</rscale>
<asrwt>0</asrwt>
<pdfrwt beam="1">  1        1 0.55750477E-02 0.98225002E+02</pdfrwt>
<pdfrwt beam="2">  1       -1 0.40966223E-01 0.98225002E+02</pdfrwt>
<totfact> 0.77794596E+03</totfact>
</mgrwt>
</event>
<event>
 8    1  0.3466492E-004  0.9412331E+02  0.7546771E-02  0.1293781E+00
         -2   -1    0    0    0  501 -0.00000000000E+00  0.00000000000E+00  0.65098806302E+02  0.65098806302E+02  0.00000000000E+00 0.  1.
          2   -1    0    0  501    0  0.00000000000E+00 -0.00000000000E+00 -0.30887761980E+03  0.30887761980E+03  0.00000000000E+00 0. -1.
         23    2    1    2    0    0  0.47756764218E+01 -0.22303350282E+02 -0.26267727659E+03  0.27903144855E+03  0.91317857641E+02 0.  0.
         23    2    1    2    0    0 -0.47756764218E+01  0.22303350282E+02  0.18898463091E+02  0.94944977552E+02  0.90206154647E+02 0.  0.
          5    1    4    4  502    0  0.33800426085E+01 -0.28346430843E+02 -0.15672081356E+02  0.32903631465E+02  0.47000000000E+01 0. -1.
         -5    1    3    3    0  503 -0.29655604017E+01  0.27444772949E+02 -0.30471265166E+02  0.41383548803E+02  0.47000000000E+01 0.  1.
          5    1    3    3  503    0  0.77412368235E+01 -0.49748123232E+02 -0.23220601142E+03  0.23764789974E+03  0.47000000000E+01 0. -1.
         -5    1    4    4    0  502 -0.81557190303E+01  0.50649781125E+02  0.34570544447E+02  0.62041346087E+02  0.47000000000E+01 0.  1.
<mgrwt>
<rscale>  0 0.93852601E+02</rscale>
<asrwt>0</asrwt>
<pdfrwt beam="1">  1        2 0.47519634E-01 0.94123311E+02</pdfrwt>
<pdfrwt beam="2">  1       -2 0.10015201E-01 0.94123311E+02</pdfrwt>
<totfact> 0.65207685E+03</totfact>
</mgrwt>
</event>
<event>
 8    1  0.3466492E-004  0.1068744E+03  0.7546771E-02  0.1268510E+00
         -1   -1    0    0    0  501 -0.00000000000E+00  0.00000000000E+00  0.21460801494E+02  0.21460801494E+02  0.00000000000E+00 0.  1.
          1   -1    0    0  501    0  0.00000000000E+00 -0.00000000000E+00 -0.63615242016E+03  0.63615242016E+03  0.00000000000E+00 0. -1.
         23    2    1    2    0    0  0.24377241411E+02  0.41304271260E+02 -0.15708000779E+03  0.18768713826E+03  0.90840741389E+02 0.  0.
         23    2    1    2    0    0 -0.24377241411E+02 -0.41304271260E+02 -0.45761161087E+03  0.46992608339E+03  0.95508348990E+02 0.  0.
          5    1    4    4  502    0 -0.57851327421E+02 -0.70023561689E+01 -0.26690486557E+03  0.27323269632E+03  0.47000000000E+01 0. -1.
         -5    1    3    3    0  503  0.24925075013E+02  0.69459483135E+02 -0.11878593339E+03  0.13992164641E+03  0.47000000000E+01 0.  1.
          5    1    3    3  503    0 -0.54783360184E+00 -0.28155211875E+02 -0.38294074396E+02  0.47765491845E+02  0.47000000000E+01 0. -1.
         -5    1    4    4    0  502  0.33474086010E+02 -0.34301915091E+02 -0.19070674530E+03  0.19669338707E+03  0.47000000000E+01 0.  1.
<mgrwt>
<rscale>  0 0.10582148E+03</rscale>
<asrwt>0</asrwt>
<pdfrwt beam="1">  1        1 0.97869605E-01 0.10687440E+03</pdfrwt>
<pdfrwt beam="2">  1       -1 0.33016617E-02 0.10687440E+03</pdfrwt>
<totfact> 0.99631042E+03</totfact>
</mgrwt>
</event>
<event>
 8    1  0.3466492E-004  0.1032738E+03  0.7546771E-02  0.1277329E+00
         -2   -1    0    0    0  501 -0.00000000000E+00  0.00000000000E+00  0.10763764598E+02  0.10763764598E+02  0.00000000000E+00 0. -1.
          2   -1    0    0  501    0  0.00000000000E+00 -0.00000000000E+00 -0.10835224340E+04  0.10835224340E+04  0.00000000000E+00 0.  1.
         23    2    1    2    0    0  0.26923222702E+02  0.38921040873E+02 -0.73036729057E+03  0.73665883501E+03  0.83607133203E+02 0.  0.
         23    2    1    2    0    0 -0.26923222702E+02 -0.38921040873E+02 -0.34239137881E+03  0.35762736357E+03  0.91791979736E+02 0.  0.
          5    1    3    3  502    0  0.77128067733E+01  0.63412419174E+02 -0.52499831196E+03  0.52889123632E+03  0.47000000000E+01 0. -1.
         -5    1    3    3    0  502  0.19210415929E+02 -0.24491378300E+02 -0.20536897861E+03  0.20776759869E+03  0.47000000000E+01 0.  1.
          5    1    4    4  503    0  0.12996812102E+02  0.15484026792E+02 -0.22288849361E+02  0.30455787896E+02  0.47000000000E+01 0. -1.
         -5    1    4    4    0  503 -0.39920034804E+02 -0.54405067665E+02 -0.32010252945E+03  0.32717157567E+03  0.47000000000E+01 0.  1.
<mgrwt>
<rscale>  0 0.10142429E+03</rscale>
<asrwt>0</asrwt>
<pdfrwt beam="1">  1        2 0.16669581E+00 0.10327379E+03</pdfrwt>
<pdfrwt beam="2">  1       -2 0.16559633E-02 0.10327379E+03</pdfrwt>
<totfact> 0.22263972E+04</totfact>
</mgrwt>
</event>
<event>
 8    1  0.3466492E-004  0.9284478E+02  0.7546771E-02  0.1296290E+00
         -1   -1    0    0    0  501 -0.00000000000E+00  0.00000000000E+00  0.13384020470E+03  0.13384020470E+03  0.00000000000E+00 0.  1.
          1   -1    0    0  501    0  0.00000000000E+00 -0.00000000000E+00 -0.21577648654E+03  0.21577648654E+03  0.00000000000E+00 0. -1.
         23    2    1    2    0    0 -0.14717012221E+02  0.39256925244E+01  0.10557258263E+03  0.14038063660E+03  0.91264184756E+02 0.  0.
         23    2    1    2    0    0  0.14717012221E+02 -0.39256925244E+01 -0.18750886447E+03  0.20923605464E+03  0.91586848395E+02 0.  0.
          5    1    3    3  502    0 -0.16652518064E+02 -0.38232707023E+02  0.23812936473E+02  0.48251343894E+02  0.47000000000E+01 0. -1.
         -5    1    4    4    0  503  0.16670594645E+02  0.25932435077E+02 -0.17275107919E+03  0.17554322908E+03  0.47000000000E+01 0.  1.
          5    1    4    4  503    0 -0.19535824237E+01 -0.29858127601E+02 -0.14757785276E+02  0.33692825562E+02  0.47000000000E+01 0. -1.
         -5    1    3    3    0  502  0.19355058427E+01  0.42158399547E+02  0.81759646153E+02  0.92129292705E+02  0.47000000000E+01 0.  1.
<mgrwt>
<rscale>  0 0.92765104E+02</rscale>
<asrwt>0</asrwt>
<pdfrwt beam="1">  1        1 0.33196382E-01 0.92844775E+02</pdfrwt>
<pdfrwt beam="2">  1       -1 0.20590801E-01 0.92844775E+02</pdfrwt>
<totfact> 0.24441593E+03</totfact>
</mgrwt>
</event>
<event>
 8    1  0.3466492E-004  0.1718351E+03  0.7546771E-02  0.1176032E+00
         -1   -1    0    0    0  501 -0.00000000000E+00  0.00000000000E+00  0.32778641615E+02  0.32778641615E+02  0.00000000000E+00 0.  1.
          1   -1    0    0  501    0  0.00000000000E+00 -0.00000000000E+00 -0.92106301859E+03  0.92106301859E+03  0.00000000000E+00 0. -1.
         23    2    1    2    0    0  0.65272415529E+02  0.13086598073E+03 -0.51823453137E+03  0.54598017004E+03  0.90227065965E+02 0.  0.
         23    2    1    2    0    0 -0.65272415529E+02 -0.13086598073E+03 -0.37004984560E+03  0.40786149016E+03  0.89597509917E+02 0.  0.
          5    1    4    4  502    0  0.52797439880E-01 -0.77006179205E+02 -0.24430382213E+03  0.25619602247E+03  0.47000000000E+01 0. -1.
         -5    1    3    3    0  503  0.25823478495E+02  0.12241401380E+03 -0.44454527166E+03  0.46183831735E+03  0.47000000000E+01 0.  1.
          5    1    3    3  503    0  0.39448937034E+02  0.84519669337E+01 -0.73689259714E+02  0.84141852697E+02  0.47000000000E+01 0. -1.
         -5    1    4    4    0  502 -0.65325212968E+02 -0.53859801528E+02 -0.12574602347E+03  0.15166546769E+03  0.47000000000E+01 0.  1.
<mgrwt>
<rscale>  0 0.17175265E+03</rscale>
<asrwt>0</asrwt>
<pdfrwt beam="1">  1        1 0.14170198E+00 0.17183514E+03</pdfrwt>
<pdfrwt beam="2">  1       -1 0.50428688E-02 0.17183514E+03</pdfrwt>
<totfact> 0.31580442E+03</totfact>
</mgrwt>
</event>
<event>
 8    1  0.3466492E-004  0.1077134E+03  0.7546771E-02  0.1268588E+00
          1   -1    0    0  501    0  0.00000000000E+00  0.00000000000E+00  0.49168267861E+03  0.49168267861E+03  0.00000000000E+00 0. -1.
         -1   -1    0    0    0  501 -0.00000000000E+00 -0.00000000000E+00 -0.27235354970E+02  0.27235354970E+02  0.00000000000E+00 0.  1.
         23    2    1    2    0    0 -0.22012514983E+02  0.34187531871E+02  0.12506610920E+03  0.16505670840E+03  0.99743907914E+02 0.  0.
         23    2    1    2    0    0  0.22012514983E+02 -0.34187531871E+02  0.33938121444E+03  0.35386132518E+03  0.91569048222E+02 0.  0.
          5    1    3    3  502    0 -0.52631622339E+02 -0.53218429579E+01  0.87486167097E+02  0.10234416992E+03  0.47000000000E+01 0. -1.
         -5    1    4    4    0  503  0.42518126136E+02 -0.45928518294E+02  0.30783191970E+03  0.31416524415E+03  0.47000000000E+01 0.  1.
          5    1    4    4  503    0 -0.20505611152E+02  0.11740986423E+02  0.31549294738E+02  0.39696081033E+02  0.47000000000E+01 0. -1.
         -5    1    3    3    0  502  0.30619107355E+02  0.39509374829E+02  0.37579942103E+02  0.62712538484E+02  0.47000000000E+01 0.  1.
<mgrwt>
<rscale>  0 0.10578146E+03</rscale>
<asrwt>0</asrwt>
<pdfrwt beam="1">  1        1 0.75643483E-01 0.10771344E+03</pdfrwt>
<pdfrwt beam="2">  1       -1 0.41900550E-02 0.10771344E+03</pdfrwt>
<totfact> 0.99174977E+03</totfact>
</mgrwt>
</event>
<event>
 7    1  0.3466492E-004  0.2020796E+03  0.7546771E-02  0.1154069E+00
          4   -1    0    0  501    0  0.00000000000E+00  0.00000000000E+00  0.78352801698E+03  0.78352801698E+03  0.00000000000E+00 0. -1.
         -4   -1    0    0    0  501 -0.00000000000E+00 -0.00000000000E+00 -0.61792444241E+02  0.61792444241E+02  0.00000000000E+00 0.  1.
         23    2    1    2    0    0  0.54188236535E+02  0.13947438688E+03  0.12444350678E+03  0.21476991376E+03  0.90832042272E+02 0.  0.
          5    1    1    2  502    0  0.24096889890E+02 -0.10866751362E+03  0.41557569807E+03  0.43024939215E+03  0.47000000000E+01 0. -1.
         -5    1    1    2    0  502 -0.78285126425E+02 -0.30806873258E+02  0.18171636788E+03  0.20030115530E+03  0.47000000000E+01 0.  1.
          5    1    3    3  503    0  0.33659227960E+02  0.17799778368E+02  0.69984915597E+02  0.79810739553E+02  0.47000000000E+01 0. -1.
         -5    1    3    3    0  503  0.20529008576E+02  0.12167460851E+03  0.54458591182E+02  0.13495917421E+03  0.47000000000E+01 0.  1.
<mgrwt>
<rscale>  0 0.19495209E+03</rscale>
<asrwt>0</asrwt>
<pdfrwt beam="1">  1        4 0.12054276E+00 0.20207964E+03</pdfrwt>
<pdfrwt beam="2">  1       -4 0.95065305E-02 0.20207964E+03</pdfrwt>
<totfact> 0.80677880E+01</totfact>
</mgrwt>
</event>
<event>
 8    1  0.3466492E-004  0.9513265E+02  0.7546771E-02  0.1291742E+00
          1   -1    0    0  501    0  0.00000000000E+00  0.00000000000E+00  0.75227584653E+03  0.75227584653E+03  0.00000000000E+00 0. -1.
         -1   -1    0    0    0  501 -0.00000000000E+00 -0.00000000000E+00 -0.34236303756E+02  0.34236303756E+02  0.00000000000E+00 0.  1.
         23    2    1    2    0    0 -0.64970244953E+01 -0.18244019969E+02  0.41946888679E+02  0.10397000421E+03  0.93140564280E+02 0.  0.
         23    2    1    2    0    0  0.64970244953E+01  0.18244019969E+02  0.67609265409E+03  0.68254214607E+03  0.91583015090E+02 0.  0.
          5    1    4    4  502    0  0.36326173288E+01 -0.36763140961E+02  0.32451987736E+03  0.32664960622E+03  0.47000000000E+01 0. -1.
         -5    1    4    4    0  502  0.28644071666E+01  0.55007160929E+02  0.35157277673E+03  0.35589253985E+03  0.47000000000E+01 0.  1.
          5    1    3    3  503    0  0.38653594003E+02 -0.91153753019E+01  0.41544684359E+02  0.57664904359E+02  0.47000000000E+01 0. -1.
         -5    1    3    3    0  503 -0.45150618498E+02 -0.91286446667E+01  0.40220432000E+00  0.46305099855E+02  0.47000000000E+01 0.  1.
<mgrwt>
<rscale>  0 0.94749235E+02</rscale>
<asrwt>0</asrwt>
<pdfrwt beam="1">  1        1 0.11573473E+00 0.95132646E+02</pdfrwt>
<pdfrwt beam="2">  1       -1 0.52671242E-02 0.95132646E+02</pdfrwt>
<totfact> 0.39532180E+03</totfact>
</mgrwt>
</event>
<event>
 8    1  0.3466492E-004  0.1076517E+03  0.7546771E-02  0.1269716E+00
          2   -1    0    0  501    0  0.00000000000E+00  0.00000000000E+00  0.74986389798E+02  0.74986389798E+02  0.00000000000E+00 0. -1.
         -2   -1    0    0    0  501 -0.00000000000E+00 -0.00000000000E+00 -0.15620985387E+03  0.15620985387E+03  0.00000000000E+00 0.  1.
         23    2    1    2    0    0  0.69201757920E+01 -0.40306747352E+02 -0.74642468641E+02  0.12334358048E+03  0.89272717029E+02 0.  0.
         23    2    1    2    0    0 -0.69201757920E+01  0.40306747352E+02 -0.65809954314E+01  0.10785266319E+03  0.99580945672E+02 0.  0.
          5    1    4    4  502    0  0.24836795758E+02  0.28567222514E+01  0.35048503822E+02  0.43307215400E+02  0.47000000000E+01 0. -1.
         -5    1    3    3    0  503  0.34321792701E+02 -0.55333582970E+02 -0.59377034986E+02  0.88246887437E+02  0.47000000000E+01 0.  1.
          5    1    3    3  503    0 -0.27401616909E+02  0.15026835618E+02 -0.15265433655E+02  0.35096693043E+02  0.47000000000E+01 0. -1.
         -5    1    4    4    0  502 -0.31756971550E+02  0.37450025101E+02 -0.41629499253E+02  0.64545447788E+02  0.47000000000E+01 0.  1.
<mgrwt>
<rscale>  0 0.10520523E+03</rscale>
<asrwt>0</asrwt>
<pdfrwt beam="1">  1        2 0.11536368E-01 0.10765170E+03</pdfrwt>
<pdfrwt beam="2">  1       -2 0.24032285E-01 0.10765170E+03</pdfrwt>
<totfact> 0.75720767E+03</totfact>
</mgrwt>
</event>
<event>
 8    1  0.3466492E-004  0.1141834E+03  0.7546771E-02  0.1253608E+00
         -2   -1    0    0    0  501 -0.00000000000E+00  0.00000000000E+00  0.62240562974E+02  0.62240562974E+02  0.00000000000E+00 0.  1.
          2   -1    0    0  501    0  0.00000000000E+00 -0.00000000000E+00 -0.39919057706E+03  0.39919057706E+03  0.00000000000E+00 0. -1.
         23    2    1    2    0    0  0.51419762212E+02 -0.43341619274E+02 -0.89154991912E+01  0.11453095797E+03  0.92278742414E+02 0.  0.
         23    2    1    2    0    0 -0.51419762212E+02  0.43341619274E+02 -0.32803451490E+03  0.34690018206E+03  0.90612391227E+02 0.  0.
          5    1    4    4  502    0 -0.37939300862E+02  0.25510432020E+02 -0.31906820146E+03  0.32236125679E+03  0.47000000000E+01 0. -1.
         -5    1    3    3    0  503  0.72291592363E+02 -0.50610405052E+02 -0.17984689388E+02  0.90183293787E+02  0.47000000000E+01 0.  1.
          5    1    3    3  503    0 -0.20871830151E+02  0.72687857780E+01  0.90691901966E+01  0.24347664187E+02  0.47000000000E+01 0. -1.
         -5    1    4    4    0  502 -0.13480461350E+02  0.17831187254E+02 -0.89663134330E+01  0.24538925275E+02  0.47000000000E+01 0.  1.
<mgrwt>
<rscale>  0 0.11384633E+03</rscale>
<asrwt>0</asrwt>
<pdfrwt beam="1">  1        2 0.61413937E-01 0.11418342E+03</pdfrwt>
<pdfrwt beam="2">  1       -2 0.95754710E-02 0.11418342E+03</pdfrwt>
<totfact> 0.54077485E+03</totfact>
</mgrwt>
</event>
<event>
 8    1  0.3466492E-004  0.1151531E+03  0.7546771E-02  0.1251443E+00
         -1   -1    0    0    0  501 -0.00000000000E+00  0.00000000000E+00  0.40104067462E+02  0.40104067462E+02  0.00000000000E+00 0.  1.
          1   -1    0    0  501    0  0.00000000000E+00 -0.00000000000E+00 -0.34908661889E+03  0.34908661889E+03  0.00000000000E+00 0. -1.
         23    2    1    2    0    0  0.15946344681E+02  0.68282644881E+02 -0.20041643366E+03  0.23114275727E+03  0.91342333305E+02 0.  0.
         23    2    1    2    0    0 -0.15946344681E+02 -0.68282644881E+02 -0.10856611776E+03  0.15804792908E+03  0.90971096843E+02 0.  0.
          5    1    4    4  502    0 -0.11419626691E+01 -0.45403528296E+02  0.36464000199E+00  0.45661881508E+02  0.47000000000E+01 0.  1.
         -5    1    4    4    0  502 -0.14804382012E+02 -0.22879116585E+02 -0.10893075777E+03  0.11238604758E+03  0.47000000000E+01 0. -1.
          5    1    3    3  503    0 -0.21842979515E+02  0.67066972809E+02 -0.16333736790E+03  0.17797831427E+03  0.47000000000E+01 0. -1.
         -5    1    3    3    0  503  0.37789324197E+02  0.12156720723E+01 -0.37079065764E+02  0.53164443002E+02  0.47000000000E+01 0.  1.
<mgrwt>
<rscale>  0 0.11507943E+03</rscale>
<asrwt>0</asrwt>
<pdfrwt beam="1">  1        1 0.53705636E-01 0.11515306E+03</pdfrwt>
<pdfrwt beam="2">  1       -1 0.61698563E-02 0.11515306E+03</pdfrwt>
<totfact> 0.86788073E+03</totfact>
</mgrwt>
</event>
<event>
 8    1  0.3466492E-004  0.1168606E+03  0.7546771E-02  0.1252242E+00
         -3   -1    0    0    0  501 -0.00000000000E+00  0.00000000000E+00  0.84957484078E+03  0.84957484078E+03  0.00000000000E+00 0.  1.
          3   -1    0    0  501    0  0.00000000000E+00 -0.00000000000E+00 -0.58595486687E+02  0.58595486687E+02  0.00000000000E+00 0. -1.
         23    2    1    2    0    0  0.26545240778E+02  0.50566858453E+02  0.79142665433E+03  0.80000784727E+03  0.10195464447E+03 0.  0.
         23    2    1    2    0    0 -0.26545240778E+02 -0.50566858453E+02 -0.44730023044E+00  0.10816248020E+03  0.91854586518E+02 0.  0.
          5    1    3    3  502    0 -0.31949959720E+02  0.26982104475E+02  0.16071849436E+03  0.16613656527E+03  0.47000000000E+01 0. -1.
         -5    1    3    3    0  502  0.58495200498E+02  0.23584753978E+02  0.63070815996E+03  0.63387128200E+03  0.47000000000E+01 0.  1.
          5    1    4    4  503    0  0.33054869803E+01 -0.21500318588E+02 -0.43003551185E+02  0.48420918600E+02  0.47000000000E+01 0. -1.
         -5    1    4    4    0  503 -0.29850727759E+02 -0.29066539865E+02  0.42556250955E+02  0.59741561603E+02  0.47000000000E+01 0. -1.
<mgrwt>
<rscale>  0 0.11462237E+03</rscale>
<asrwt>0</asrwt>
<pdfrwt beam="1">  1        3 0.90146909E-02 0.11686063E+03</pdfrwt>
<pdfrwt beam="2">  1       -3 0.13070381E+00 0.11686063E+03</pdfrwt>
<totfact> 0.97633869E+01</totfact>
</mgrwt>
</event>
<event>
 8    1  0.3466492E-004  0.1103100E+03  0.7546771E-02  0.1265650E+00
         -2   -1    0    0    0  501 -0.00000000000E+00  0.00000000000E+00  0.20205876541E+02  0.20205876541E+02  0.00000000000E+00 0.  1.
          2   -1    0    0  501    0  0.00000000000E+00 -0.00000000000E+00 -0.54096073280E+03  0.54096073280E+03  0.00000000000E+00 0. -1.
         23    2    1    2    0    0 -0.76522897122E+01 -0.37109500385E+02 -0.24140721196E+03  0.26082780163E+03  0.91203221213E+02 0.  0.
         23    2    1    2    0    0  0.76522897122E+01  0.37109500385E+02 -0.27934764430E+03  0.30033880771E+03  0.10359836141E+03 0.  0.
          5    1    3    3  502    0  0.27701208721E+02  0.17675522988E+02 -0.73702748217E+02  0.80832952267E+02  0.47000000000E+01 0. -1.
         -5    1    4    4    0  503  0.44036727541E+02 -0.14810055470E+02 -0.12226900175E+03  0.13088303903E+03  0.47000000000E+01 0.  1.
          5    1    4    4  503    0 -0.36384437829E+02  0.51919555856E+02 -0.15707864255E+03  0.16945576868E+03  0.47000000000E+01 0. -1.
         -5    1    3    3    0  502 -0.35353498433E+02 -0.54785023373E+02 -0.16770446375E+03  0.17999484937E+03  0.47000000000E+01 0.  1.
<mgrwt>
<rscale>  0 0.10730187E+03</rscale>
<asrwt>0</asrwt>
<pdfrwt beam="1">  1        2 0.83224708E-01 0.11030999E+03</pdfrwt>
<pdfrwt beam="2">  1       -2 0.31085971E-02 0.11030999E+03</pdfrwt>
<totfact> 0.21102427E+04</totfact>
</mgrwt>
</event>
<event>
 8    1  0.3466492E-004  0.9727887E+02  0.7546771E-02  0.1286620E+00
         -1   -1    0    0    0  501 -0.00000000000E+00  0.00000000000E+00  0.29084505739E+02  0.29084505739E+02  0.00000000000E+00 0.  1.
          1   -1    0    0  501    0  0.00000000000E+00 -0.00000000000E+00 -0.40469764861E+03  0.40469764861E+03  0.00000000000E+00 0. -1.
         23    2    1    2    0    0 -0.26837706442E+02  0.56286182819E+01 -0.28494272322E+03  0.30079980938E+03  0.92391698615E+02 0.  0.
         23    2    1    2    0    0  0.26837706442E+02 -0.56286182819E+01 -0.90670419649E+02  0.13298234497E+03  0.93333998330E+02 0.  0.
          5    1    4    4  502    0  0.35330258440E+02 -0.36882044926E+02 -0.85708013413E+02  0.99882260500E+02  0.47000000000E+01 0. -1.
         -5    1    4    4    0  502 -0.84925519983E+01  0.31253426644E+02 -0.49624062363E+01  0.33100084473E+02  0.47000000000E+01 0.  1.
          5    1    3    3  503    0 -0.48695008084E+02 -0.78943213482E+01 -0.79342412568E+02  0.93545884752E+02  0.47000000000E+01 0. -1.
         -5    1    3    3    0  503  0.21857301643E+02  0.13522939630E+02 -0.20560031065E+03  0.20725392462E+03  0.47000000000E+01 0.  1.
<mgrwt>
<rscale>  0 0.97052151E+02</rscale>
<asrwt>0</asrwt>
<pdfrwt beam="1">  1        1 0.62261176E-01 0.97278873E+02</pdfrwt>
<pdfrwt beam="2">  1       -1 0.44745394E-02 0.97278873E+02</pdfrwt>
<totfact> 0.11434127E+04</totfact>
</mgrwt>
</event>
<event>
 8    1  0.3466492E-004  0.1179552E+03  0.7546771E-02  0.1246712E+00
          1   -1    0    0  501    0  0.00000000000E+00  0.00000000000E+00  0.12210724681E+03  0.12210724681E+03  0.00000000000E+00 0. -1.
         -1   -1    0    0    0  501 -0.00000000000E+00 -0.00000000000E+00 -0.16068191799E+03  0.16068191799E+03  0.00000000000E+00 0.  1.
         23    2    1    2    0    0  0.10153335279E+02  0.74553638924E+02  0.57373913241E+02  0.13073802381E+03  0.90218233490E+02 0.  0.
         23    2    1    2    0    0 -0.10153335279E+02 -0.74553638924E+02 -0.95948584423E+02  0.15205114099E+03  0.90840978257E+02 0.  0.
          5    1    4    4  502    0  0.31232086805E+02  0.87953248215E+00 -0.29645502160E+02  0.43326234799E+02  0.47000000000E+01 0. -1.
         -5    1    4    4    0  502 -0.41385422084E+02 -0.75433171406E+02 -0.66303082262E+02  0.10872490619E+03  0.47000000000E+01 0.  1.
          5    1    3    3  503    0  0.34278997315E+02  0.83852021562E+02  0.49327374294E+02  0.10325449642E+03  0.47000000000E+01 0. -1.
         -5    1    3    3    0  503 -0.24125662036E+02 -0.92983826382E+01  0.80465389466E+01  0.27483527382E+02  0.47000000000E+01 0.  1.
<mgrwt>
<rscale>  0 0.11783524E+03</rscale>
<asrwt>0</asrwt>
<pdfrwt beam="1">  1        1 0.18785730E-01 0.11795516E+03</pdfrwt>
<pdfrwt beam="2">  1       -1 0.24720295E-01 0.11795516E+03</pdfrwt>
<totfact> 0.37470479E+03</totfact>
</mgrwt>
</event>
<event>
 8    1  0.3466492E-004  0.9527711E+02  0.7546771E-02  0.1292555E+00
         -2   -1    0    0    0  501 -0.00000000000E+00  0.00000000000E+00  0.86372222880E+03  0.86372222880E+03  0.00000000000E+00 0. -1.
          2   -1    0    0  501    0  0.00000000000E+00 -0.00000000000E+00 -0.13630866493E+02  0.13630866493E+02  0.00000000000E+00 0.  1.
         23    2    1    2    0    0 -0.94417553087E+01  0.31606654666E+02  0.20859076892E+03  0.22932037957E+03  0.89384563799E+02 0.  0.
         23    2    1    2    0    0  0.94417553087E+01 -0.31606654666E+02  0.64150059339E+03  0.64803271572E+03  0.85646143909E+02 0.  0.
          5    1    4    4  502    0  0.44819798705E+02 -0.33258199514E+02  0.40126160520E+03  0.40515168517E+03  0.47000000000E+01 0. -1.
         -5    1    3    3    0  503 -0.33684343971E+02  0.29608458190E+02  0.44442000397E+02  0.63312536076E+02  0.47000000000E+01 0.  1.
          5    1    3    3  503    0  0.24242588662E+02  0.19981964764E+01  0.16414876852E+03  0.16600784349E+03  0.47000000000E+01 0. -1.
         -5    1    4    4    0  502 -0.35378043396E+02  0.16515448480E+01  0.24023898819E+03  0.24288103055E+03  0.47000000000E+01 0.  1.
<mgrwt>
<rscale>  0 0.94390283E+02</rscale>
<asrwt>0</asrwt>
<pdfrwt beam="1">  1        2 0.20970571E-02 0.95277110E+02</pdfrwt>
<pdfrwt beam="2">  1       -2 0.13288030E+00 0.95277110E+02</pdfrwt>
<totfact> 0.20587396E+03</totfact>
</mgrwt>
</event>
<event>
 8    1  0.3466492E-004  0.9593687E+02  0.7546771E-02  0.1289135E+00
         -2   -1    0    0    0  501 -0.00000000000E+00  0.00000000000E+00  0.28067498571E+02  0.28067498571E+02  0.00000000000E+00 0.  1.
          2   -1    0    0  501    0  0.00000000000E+00 -0.00000000000E+00 -0.45077959735E+03  0.45077959735E+03  0.00000000000E+00 0. -1.
         23    2    1    2    0    0 -0.19586746796E+01  0.32216417882E+02 -0.86268967267E+02  0.12902022447E+03  0.90344615891E+02 0.  0.
         23    2    1    2    0    0  0.19586746796E+01 -0.32216417882E+02 -0.33644313151E+03  0.34982687146E+03  0.90239266745E+02 0.  0.
          5    1    4    4  502    0  0.24060791585E+02  0.20230663981E+02 -0.63946000204E+02  0.71409960082E+02  0.47000000000E+01 0. -1.
         -5    1    3    3    0  503  0.41008084658E+02  0.10776855710E+00 -0.29208477490E+02  0.50565796529E+02  0.47000000000E+01 0.  1.
          5    1    3    3  503    0 -0.42966759337E+02  0.32108649324E+02 -0.57060489777E+02  0.78454427937E+02  0.47000000000E+01 0. -1.
         -5    1    4    4    0  502 -0.22102116905E+02 -0.52447081862E+02 -0.27249713131E+03  0.27841691138E+03  0.47000000000E+01 0.  1.
<mgrwt>
<rscale>  0 0.95912063E+02</rscale>
<asrwt>0</asrwt>
<pdfrwt beam="1">  1        2 0.69350704E-01 0.95936873E+02</pdfrwt>
<pdfrwt beam="2">  1       -2 0.43180769E-02 0.95936873E+02</pdfrwt>
<totfact> 0.15659696E+04</totfact>
</mgrwt>
</event>
<event>
 8    1  0.3466492E-004  0.1010531E+03  0.7546771E-02  0.1280260E+00
         -1   -1    0    0    0  501 -0.00000000000E+00  0.00000000000E+00  0.25188904340E+02  0.25188904340E+02  0.00000000000E+00 0.  1.
          1   -1    0    0  501    0  0.00000000000E+00 -0.00000000000E+00 -0.51160176102E+03  0.51160176102E+03  0.00000000000E+00 0. -1.
         23    2    1    2    0    0  0.30326704369E+02 -0.11382131803E+02 -0.37065470943E+03  0.38312972496E+03  0.91401370913E+02 0.  0.
         23    2    1    2    0    0 -0.30326704369E+02  0.11382131803E+02 -0.11575814725E+03  0.15366094040E+03  0.95720812923E+02 0.  0.
          5    1    4    4  502    0 -0.33388989321E+02 -0.38315131557E+02 -0.58875864512E+02  0.77918748297E+02  0.47000000000E+01 0. -1.
         -5    1    3    3    0  503  0.59630504891E+02 -0.24215347011E+02 -0.23833710835E+03  0.24691870597E+03  0.47000000000E+01 0.  1.
          5    1    3    3  503    0 -0.29303800522E+02  0.12833215208E+02 -0.13231760109E+03  0.13621101899E+03  0.47000000000E+01 0. -1.
         -5    1    4    4    0  502  0.30622849524E+01  0.49697263360E+02 -0.56882282738E+02  0.75742192100E+02  0.47000000000E+01 0.  1.
<mgrwt>
<rscale>  0 0.10001690E+03</rscale>
<asrwt>0</asrwt>
<pdfrwt beam="1">  1        1 0.78707966E-01 0.10105313E+03</pdfrwt>
<pdfrwt beam="2">  1       -1 0.38752159E-02 0.10105313E+03</pdfrwt>
<totfact> 0.10505250E+04</totfact>
</mgrwt>
</event>
<event>
 8    1  0.3466492E-004  0.9397183E+02  0.7546771E-02  0.1293608E+00
          2   -1    0    0  501    0  0.00000000000E+00  0.00000000000E+00  0.29901048814E+02  0.29901048814E+02  0.00000000000E+00 0. -1.
         -2   -1    0    0    0  501 -0.00000000000E+00 -0.00000000000E+00 -0.33814656487E+03  0.33814656487E+03  0.00000000000E+00 0.  1.
         23    2    1    2    0    0  0.21348518399E+02 -0.14003068561E+01 -0.88098572898E+02  0.12868307538E+03  0.91324997920E+02 0.  0.
         23    2    1    2    0    0 -0.21348518399E+02  0.14003068561E+01 -0.22014694316E+03  0.23936453831E+03  0.91504019143E+02 0.  0.
          5    1    4    4  502    0 -0.49778141031E+00  0.39774236483E+02 -0.52360639415E+02  0.65923927629E+02  0.47000000000E+01 0. -1.
         -5    1    3    3    0  503  0.10003491030E+02 -0.40023421166E+02 -0.75633278464E+02  0.86281092284E+02  0.47000000000E+01 0.  1.
          5    1    3    3  503    0  0.11345027369E+02  0.38623114310E+02 -0.12465294435E+02  0.42401983094E+02  0.47000000000E+01 0. -1.
         -5    1    4    4    0  502 -0.20850736989E+02 -0.38373929627E+02 -0.16778630374E+03  0.17344061068E+03  0.47000000000E+01 0.  1.
<mgrwt>
<rscale>  0 0.93928226E+02</rscale>
<asrwt>0</asrwt>
<pdfrwt beam="1">  1        2 0.46001615E-02 0.93971834E+02</pdfrwt>
<pdfrwt beam="2">  1       -2 0.52022547E-01 0.93971834E+02</pdfrwt>
<totfact> 0.57023203E+03</totfact>
</mgrwt>
</event>
<event>
 8    1  0.3466492E-004  0.1152472E+03  0.7546771E-02  0.1251651E+00
          2   -1    0    0  501    0  0.00000000000E+00  0.00000000000E+00  0.33909556651E+03  0.33909556651E+03  0.00000000000E+00 0. -1.
         -2   -1    0    0    0  501 -0.00000000000E+00 -0.00000000000E+00 -0.40917117745E+02  0.40917117745E+02  0.00000000000E+00 0.  1.
         23    2    1    2    0    0 -0.56750864640E+02  0.38947449149E+02  0.10496194423E+03  0.15503594184E+03  0.91003126823E+02 0.  0.
         23    2    1    2    0    0  0.56750864640E+02 -0.38947449149E+02  0.19321650453E+03  0.22497674241E+03  0.92435667210E+02 0.  0.
          5    1    4    4  502    0  0.71056726893E+02 -0.83001841439E+00  0.96488661358E+02  0.11992455603E+03  0.47000000000E+01 0. -1.
         -5    1    4    4    0  502 -0.14305862253E+02 -0.38117430735E+02  0.96727843169E+02  0.10505218639E+03  0.47000000000E+01 0.  1.
          5    1    3    3  503    0  0.21041717893E+02  0.16876967778E+02  0.50452261631E+02  0.57403019406E+02  0.47000000000E+01 0. -1.
         -5    1    3    3    0  503 -0.77792582533E+02  0.22070481371E+02  0.54509682602E+02  0.97632922431E+02  0.47000000000E+01 0.  1.
<mgrwt>
<rscale>  0 0.11495968E+03</rscale>
<asrwt>0</asrwt>
<pdfrwt beam="1">  1        2 0.52168547E-01 0.11524720E+03</pdfrwt>
<pdfrwt beam="2">  1       -2 0.62949414E-02 0.11524720E+03</pdfrwt>
<totfact> 0.12244319E+04</totfact>
</mgrwt>
</event>
<event>
 8    1  0.3466492E-004  0.1030758E+03  0.7546771E-02  0.1274363E+00
          1   -1    0    0  501    0  0.00000000000E+00  0.00000000000E+00  0.31469575946E+02  0.31469575946E+02  0.00000000000E+00 0. -1.
         -1   -1    0    0    0  501 -0.00000000000E+00 -0.00000000000E+00 -0.48703616098E+03  0.48703616098E+03  0.00000000000E+00 0.  1.
         23    2    1    2    0    0  0.44828845578E+02 -0.14846878587E+02 -0.82327221754E+02  0.13129487433E+03  0.90722198963E+02 0.  0.
         23    2    1    2    0    0 -0.44828845578E+02  0.14846878587E+02 -0.37323936328E+03  0.38721086260E+03  0.91621911187E+02 0.  0.
          5    1    4    4  502    0 -0.53821245032E+02 -0.17552647309E+02 -0.13355565827E+03  0.14513450899E+03  0.47000000000E+01 0. -1.
         -5    1    3    3    0  503  0.70968734847E+02  0.86961404422E+00 -0.52810953435E+02  0.88591220542E+02  0.47000000000E+01 0.  1.
          5    1    3    3  503    0 -0.26139889269E+02 -0.15716492631E+02 -0.29516268319E+02  0.42703653791E+02  0.47000000000E+01 0. -1.
         -5    1    4    4    0  502  0.89923994535E+01  0.32399525896E+02 -0.23968370501E+03  0.24207635360E+03  0.47000000000E+01 0.  1.
<mgrwt>
<rscale>  0 0.10287554E+03</rscale>
<asrwt>0</asrwt>
<pdfrwt beam="1">  1        1 0.48414730E-02 0.10307584E+03</pdfrwt>
<pdfrwt beam="2">  1       -1 0.74928643E-01 0.10307584E+03</pdfrwt>
<totfact> 0.30791091E+03</totfact>
</mgrwt>
</event>
<event>
 8    1  0.3466492E-004  0.9798667E+02  0.7546771E-02  0.1287212E+00
         -1   -1    0    0    0  501 -0.00000000000E+00  0.00000000000E+00  0.15191772026E+03  0.15191772026E+03  0.00000000000E+00 0.  1.
          1   -1    0    0  501    0  0.00000000000E+00 -0.00000000000E+00 -0.60478645636E+02  0.60478645636E+02  0.00000000000E+00 0. -1.
         23    2    1    2    0    0 -0.21387961699E+02  0.56757713857E+01  0.51961638730E+02  0.10675614429E+03  0.90593615432E+02 0.  0.
         23    2    1    2    0    0  0.21387961699E+02 -0.56757713857E+01  0.39477435897E+02  0.10564022161E+03  0.95455378009E+02 0.  0.
          5    1    3    3  502    0  0.36781059304E+01 -0.33764365714E+02 -0.30488545623E+01  0.34423049973E+02  0.47000000000E+01 0. -1.
         -5    1    4    4    0  503 -0.43108646355E+01 -0.21076390942E+02  0.63335256996E+02  0.67054027380E+02  0.47000000000E+01 0.  1.
          5    1    4    4  503    0  0.25698826335E+02  0.15400619557E+02 -0.23857821100E+02  0.38586194232E+02  0.47000000000E+01 0. -1.
         -5    1    3    3    0  502 -0.25066067630E+02  0.39440137100E+02  0.55010493292E+02  0.72333094314E+02  0.47000000000E+01 0.  1.
<mgrwt>
<rscale>  0 0.96782222E+02</rscale>
<asrwt>0</asrwt>
<pdfrwt beam="1">  1        1 0.93044071E-02 0.97986675E+02</pdfrwt>
<pdfrwt beam="2">  1       -1 0.23371957E-01 0.97986675E+02</pdfrwt>
<totfact> 0.10054049E+04</totfact>
</mgrwt>
</event>
<event>
 8    1  0.3466492E-004  0.9046938E+02  0.7546771E-02  0.1304073E+00
         -1   -1    0    0    0  501 -0.00000000000E+00  0.00000000000E+00  0.52019103496E+02  0.52019103496E+02  0.00000000000E+00 0.  1.
          1   -1    0    0  501    0  0.00000000000E+00 -0.00000000000E+00 -0.22394403091E+03  0.22394403091E+03  0.00000000000E+00 0. -1.
         23    2    1    2    0    0 -0.84965654112E+01 -0.42030859605E+01 -0.83446742020E+01  0.90853413004E+02  0.89971392740E+02 0.  0.
         23    2    1    2    0    0  0.84965654112E+01  0.42030859605E+01 -0.16358025322E+03  0.18510972141E+03  0.86123470444E+02 0.  0.
          5    1    3    3  502    0 -0.64319285371E+01 -0.46715026714E+02 -0.95034687694E+00  0.47398909110E+02  0.47000000000E+01 0. -1.
         -5    1    3    3    0  502 -0.20646368742E+01  0.42511940754E+02 -0.73943273251E+01  0.43454503894E+02  0.47000000000E+01 0.  1.
          5    1    4    4  503    0  0.27641378598E+02 -0.23033322924E+02 -0.13847135979E+03  0.14314673331E+03  0.47000000000E+01 0. -1.
         -5    1    4    4    0  503 -0.19144813187E+02  0.27236408884E+02 -0.25108893430E+02  0.41962988099E+02  0.47000000000E+01 0.  1.
<mgrwt>
<rscale>  0 0.89497378E+02</rscale>
<asrwt>0</asrwt>
<pdfrwt beam="1">  1        1 0.34452928E-01 0.90469382E+02</pdfrwt>
<pdfrwt beam="2">  1       -1 0.80029391E-02 0.90469382E+02</pdfrwt>
<totfact> 0.99605484E+03</totfact>
</mgrwt>
</event>
<event>
 8    1  0.3466492E-004  0.2750262E+03  0.7546771E-02  0.1098579E+00
          2   -1    0    0  501    0  0.00000000000E+00  0.00000000000E+00  0.98474348520E+03  0.98474348520E+03  0.00000000000E+00 0. -1.
         -2   -1    0    0    0  501 -0.00000000000E+00 -0.00000000000E+00 -0.76575105728E+02  0.76575105728E+02  0.00000000000E+00 0.  1.
         23    2    1    2    0    0  0.25191667766E+03  0.63904334198E+02  0.44170314332E+03  0.52032783124E+03  0.89964485977E+02 0.  0.
         23    2    1    2    0    0 -0.25191667766E+03 -0.63904334198E+02  0.46646523615E+03  0.54099075969E+03  0.86806734285E+02 0.  0.
          5    1    4    4  502    0 -0.24678419894E+02 -0.20667013434E+02  0.12034336595E+03  0.12466260699E+03  0.47000000000E+01 0. -1.
         -5    1    3    3    0  503  0.42941235310E+02  0.46947014133E+02  0.12743016936E+03  0.14250792921E+03  0.47000000000E+01 0.  1.
          5    1    3    3  503    0  0.20897544234E+03  0.16957320065E+02  0.31427297397E+03  0.37781990203E+03  0.47000000000E+01 0. -1.
         -5    1    4    4    0  502 -0.22723825776E+03 -0.43237320764E+02  0.34612187020E+03  0.41632815270E+03  0.47000000000E+01 0.  1.
<mgrwt>
<rscale>  0 0.27477163E+03</rscale>
<asrwt>0</asrwt>
<pdfrwt beam="1">  1        2 0.15149899E+00 0.27502615E+03</pdfrwt>
<pdfrwt beam="2">  1       -2 0.11780786E-01 0.27502615E+03</pdfrwt>
<totfact> 0.13676541E+03</totfact>
</mgrwt>
</event>
<event>
 8    1  0.3466492E-004  0.9881861E+02  0.7546771E-02  0.1283436E+00
         -1   -1    0    0    0  501 -0.00000000000E+00  0.00000000000E+00  0.16072045278E+02  0.16072045278E+02  0.00000000000E+00 0.  1.
          1   -1    0    0  501    0  0.00000000000E+00 -0.00000000000E+00 -0.62630077737E+03  0.62630077737E+03  0.00000000000E+00 0. -1.
         23    2    1    2    0    0 -0.39396151228E+02 -0.16548414543E+02 -0.36875111831E+03  0.38145797998E+03  0.87788931407E+02 0.  0.
         23    2    1    2    0    0  0.39396151228E+02  0.16548414543E+02 -0.24147761378E+03  0.26091484267E+03  0.89102246960E+02 0.  0.
          5    1    3    3  502    0 -0.49600963297E+02  0.24143255859E+02 -0.21566389818E+03  0.22265704422E+03  0.47000000000E+01 0. -1.
         -5    1    4    4    0  503  0.65709267879E+02  0.23176324636E+02 -0.19174720364E+03  0.20406844443E+03  0.47000000000E+01 0.  1.
          5    1    4    4  503    0 -0.26313116651E+02 -0.66279100929E+01 -0.49730410146E+02  0.56846398244E+02  0.47000000000E+01 0. -1.
         -5    1    3    3    0  502  0.10204812069E+02 -0.40691670402E+02 -0.15308722013E+03  0.15880093576E+03  0.47000000000E+01 0.  1.
<mgrwt>
<rscale>  0 0.98521638E+02</rscale>
<asrwt>0</asrwt>
<pdfrwt beam="1">  1        1 0.96353954E-01 0.98818607E+02</pdfrwt>
<pdfrwt beam="2">  1       -1 0.24726226E-02 0.98818607E+02</pdfrwt>
<totfact> 0.15353009E+04</totfact>
</mgrwt>
</event>
<event>
 8    1  0.3466492E-004  0.9875156E+02  0.7546771E-02  0.1287296E+00
         -3   -1    0    0    0  501 -0.00000000000E+00  0.00000000000E+00  0.67601569272E+02  0.67601569272E+02  0.00000000000E+00 0.  1.
          3   -1    0    0  501    0  0.00000000000E+00 -0.00000000000E+00 -0.61188242981E+03  0.61188242981E+03  0.00000000000E+00 0. -1.
         23    2    1    2    0    0 -0.24511584399E+02  0.87943685554E+01  0.25901187886E+02  0.10209182959E+03  0.95256031023E+02 0.  0.
         23    2    1    2    0    0  0.24511584399E+02 -0.87943685554E+01 -0.57018204842E+03  0.57739216949E+03  0.87154978988E+02 0.  0.
          5    1    3    3  502    0 -0.49644547165E+02  0.47453495643E+01 -0.16219214780E+02  0.52652182612E+02  0.47000000000E+01 0. -1.
         -5    1    4    4    0  503 -0.84214195063E+01  0.34786189607E+02 -0.21829748525E+03  0.22126201970E+03  0.47000000000E+01 0.  1.
          5    1    4    4  503    0  0.32933003905E+02 -0.43580558162E+02 -0.35188456317E+03  0.35613014979E+03  0.47000000000E+01 0. -1.
         -5    1    3    3    0  502  0.25132962766E+02  0.40490189911E+01  0.42120402667E+02  0.49439646975E+02  0.47000000000E+01 0.  1.
<mgrwt>
<rscale>  0 0.96743854E+02</rscale>
<asrwt>0</asrwt>
<pdfrwt beam="1">  1        3 0.94135762E-01 0.98751558E+02</pdfrwt>
<pdfrwt beam="2">  1       -3 0.10400241E-01 0.98751558E+02</pdfrwt>
<totfact> 0.16155137E+02</totfact>
</mgrwt>
</event>
<event>
 8    1  0.3466492E-004  0.1009304E+03  0.7546771E-02  0.1279619E+00
          3   -1    0    0  501    0  0.00000000000E+00  0.00000000000E+00  0.96332396280E+03  0.96332396280E+03  0.00000000000E+00 0. -1.
         -3   -1    0    0    0  501 -0.00000000000E+00 -0.00000000000E+00 -0.10865442443E+02  0.10865442443E+02  0.00000000000E+00 0.  1.
         23    2    1    2    0    0 -0.41712078320E+02  0.10394388907E+02  0.59042376361E+03  0.59898844723E+03  0.91318116922E+02 0.  0.
         23    2    1    2    0    0  0.41712078320E+02 -0.10394388907E+02  0.36203475674E+03  0.37520095801E+03  0.88649044010E+02 0.  0.
          5    1    3    3  502    0  0.22957426915E+02  0.25143068484E+02  0.19120309640E+03  0.19426767981E+03  0.47000000000E+01 0. -1.
         -5    1    4    4    0  503 -0.26847460926E+02 -0.12000985183E+02  0.11052511184E+03  0.11446702648E+03  0.47000000000E+01 0.  1.
          5    1    4    4  503    0  0.68559539246E+02  0.16065962765E+01  0.25150964491E+03  0.26073393154E+03  0.47000000000E+01 0. -1.
         -5    1    3    3    0  502 -0.64669505235E+02 -0.14748679577E+02  0.39922066721E+03  0.40472076742E+03  0.47000000000E+01 0.  1.
<mgrwt>
<rscale>  0 0.10032282E+03</rscale>
<asrwt>0</asrwt>
<pdfrwt beam="1">  1        3 0.14820362E+00 0.10093037E+03</pdfrwt>
<pdfrwt beam="2">  1       -3 0.16716073E-02 0.10093037E+03</pdfrwt>
<totfact> 0.97938754E+02</totfact>
</mgrwt>
</event>
<event>
 8    1  0.3466492E-004  0.1051516E+03  0.7546771E-02  0.1269937E+00
         -1   -1    0    0    0  501 -0.00000000000E+00  0.00000000000E+00  0.33906704477E+03  0.33906704477E+03  0.00000000000E+00 0.  1.
          1   -1    0    0  501    0  0.00000000000E+00 -0.00000000000E+00 -0.37487085884E+02  0.37487085884E+02  0.00000000000E+00 0. -1.
         23    2    1    2    0    0  0.34522751718E+02  0.36688168385E+02  0.82227781428E+02  0.13330070352E+03  0.92031665390E+02 0.  0.
         23    2    1    2    0    0 -0.34522751718E+02 -0.36688168385E+02  0.21935217745E+03  0.24325342713E+03  0.92298483037E+02 0.  0.
          5    1    4    4  502    0 -0.41997898746E+02 -0.62448200035E+02  0.13520677513E+03  0.15481137952E+03  0.47000000000E+01 0. -1.
         -5    1    3    3    0  503 -0.30762959374E+01  0.41515721913E+02  0.85245528954E+02  0.94983730024E+02  0.47000000000E+01 0.  1.
          5    1    3    3  503    0  0.37599047656E+02 -0.48275535285E+01 -0.30177475259E+01  0.38316973495E+02  0.47000000000E+01 0. -1.
         -5    1    4    4    0  502  0.74751470280E+01  0.25760031651E+02  0.84145402325E+02  0.88442047614E+02  0.47000000000E+01 0.  1.
<mgrwt>
<rscale>  0 0.10509299E+03</rscale>
<asrwt>0</asrwt>
<pdfrwt beam="1">  1        1 0.57672442E-02 0.10515157E+03</pdfrwt>
<pdfrwt beam="2">  1       -1 0.52164159E-01 0.10515157E+03</pdfrwt>
<totfact> 0.48545737E+03</totfact>
</mgrwt>
</event>
<event>
 8    1  0.3466492E-004  0.1023292E+03  0.7546771E-02  0.1278450E+00
          2   -1    0    0  501    0  0.00000000000E+00  0.00000000000E+00  0.38546259925E+02  0.38546259925E+02  0.00000000000E+00 0. -1.
         -2   -1    0    0    0  501 -0.00000000000E+00 -0.00000000000E+00 -0.29804848867E+03  0.29804848867E+03  0.00000000000E+00 0.  1.
         23    2    1    2    0    0  0.19692855726E+02  0.36462786414E+02 -0.18913545790E+03  0.21240641934E+03  0.87332251673E+02 0.  0.
         23    2    1    2    0    0 -0.19692855726E+02 -0.36462786414E+02 -0.70366770842E+02  0.12418832925E+03  0.93562360616E+02 0.  0.
          5    1    4    4  502    0 -0.47133831559E+02 -0.27975512714E+02 -0.82980670063E+01  0.55634299718E+02  0.47000000000E+01 0. -1.
         -5    1    3    3    0  503 -0.97072888108E+01 -0.24006101516E+02 -0.79156526241E+02  0.83416844897E+02  0.47000000000E+01 0.  1.
          5    1    3    3  503    0  0.29400144536E+02  0.60468887930E+02 -0.10997893166E+03  0.12898957444E+03  0.47000000000E+01 0. -1.
         -5    1    4    4    0  502  0.27440975833E+02 -0.84872737001E+01 -0.62068703835E+02  0.68554029534E+02  0.47000000000E+01 0.  1.
<mgrwt>
<rscale>  0 0.10088294E+03</rscale>
<asrwt>0</asrwt>
<pdfrwt beam="1">  1        2 0.59301939E-02 0.10232917E+03</pdfrwt>
<pdfrwt beam="2">  1       -2 0.45853613E-01 0.10232917E+03</pdfrwt>
<totfact> 0.53019691E+03</totfact>
</mgrwt>
</event>
<event>
 8    1  0.3466492E-004  0.1142339E+03  0.7546771E-02  0.1252952E+00
         -2   -1    0    0    0  501 -0.00000000000E+00  0.00000000000E+00  0.53312866615E+02  0.53312866615E+02  0.00000000000E+00 0.  1.
          2   -1    0    0  501    0  0.00000000000E+00 -0.00000000000E+00 -0.27416619150E+03  0.27416619150E+03  0.00000000000E+00 0. -1.
         23    2    1    2    0    0 -0.48752375868E+01  0.68777706015E+02 -0.16419486008E+03  0.20002335304E+03  0.91078257001E+02 0.  0.
         23    2    1    2    0    0  0.48752375868E+01 -0.68777706015E+02 -0.56658464804E+02  0.12745570507E+03  0.90997990834E+02 0.  0.
          5    1    4    4  502    0 -0.23681672526E+02 -0.70899215453E+02 -0.62861618516E+02  0.97781355318E+02  0.47000000000E+01 0. -1.
         -5    1    4    4    0  502  0.28556910113E+02  0.21215094381E+01  0.62031537114E+01  0.29674349756E+02  0.47000000000E+01 0.  1.
          5    1    3    3  503    0 -0.34354051997E+02  0.34542717900E+02 -0.14052476344E+03  0.14880423176E+03  0.47000000000E+01 0. -1.
         -5    1    3    3    0  503  0.29478814410E+02  0.34234988115E+02 -0.23670096642E+02  0.51219121286E+02  0.47000000000E+01 0.  1.
<mgrwt>
<rscale>  0 0.11421793E+03</rscale>
<asrwt>0</asrwt>
<pdfrwt beam="1">  1        2 0.42179414E-01 0.11423393E+03</pdfrwt>
<pdfrwt beam="2">  1       -2 0.82019796E-02 0.11423393E+03</pdfrwt>
<totfact> 0.10219502E+04</totfact>
</mgrwt>
</event>
<event>
 8    1  0.3466492E-004  0.1009597E+03  0.7546771E-02  0.1278485E+00
         -2   -1    0    0    0  501 -0.00000000000E+00  0.00000000000E+00  0.10704221321E+02  0.10704221321E+02  0.00000000000E+00 0.  1.
          2   -1    0    0  501    0  0.00000000000E+00 -0.00000000000E+00 -0.95046330769E+03  0.95046330769E+03  0.00000000000E+00 0. -1.
         23    2    1    2    0    0  0.25690861183E+02 -0.34123055983E+02 -0.48969131101E+03  0.49991502752E+03  0.91066192192E+02 0.  0.
         23    2    1    2    0    0 -0.25690861183E+02  0.34123055983E+02 -0.45006777536E+03  0.46125250150E+03  0.91479311433E+02 0.  0.
          5    1    3    3  502    0  0.50348363695E+02  0.38006949860E+01 -0.33002160475E+03  0.33389482268E+03  0.47000000000E+01 0. -1.
         -5    1    4    4    0  503 -0.45267958714E+02 -0.10474404856E+02 -0.14641753083E+03  0.15368501742E+03  0.47000000000E+01 0.  1.
          5    1    4    4  503    0  0.19577097530E+02  0.44597460838E+02 -0.30365024453E+03  0.30756748408E+03  0.47000000000E+01 0. -1.
         -5    1    3    3    0  502 -0.24657502512E+02 -0.37923750969E+02 -0.15966970626E+03  0.16602020484E+03  0.47000000000E+01 0.  1.
<mgrwt>
<rscale>  0 0.10086606E+03</rscale>
<asrwt>0</asrwt>
<pdfrwt beam="1">  1        2 0.14622511E+00 0.10095973E+03</pdfrwt>
<pdfrwt beam="2">  1       -2 0.16468035E-02 0.10095973E+03</pdfrwt>
<totfact> 0.26797899E+04</totfact>
</mgrwt>
</event>
<event>
 8    1  0.3466492E-004  0.1204421E+03  0.7546771E-02  0.1243342E+00
          1   -1    0    0  501    0  0.00000000000E+00  0.00000000000E+00  0.43979595419E+02  0.43979595419E+02  0.00000000000E+00 0. -1.
         -1   -1    0    0    0  501 -0.00000000000E+00 -0.00000000000E+00 -0.35786326987E+03  0.35786326987E+03  0.00000000000E+00 0.  1.
         23    2    1    2    0    0 -0.13168747216E+02 -0.76608048754E+02 -0.22063540817E+03  0.25136882754E+03  0.92000516735E+02 0.  0.
         23    2    1    2    0    0  0.13168747216E+02  0.76608048754E+02 -0.93248266273E+02  0.15047403775E+03  0.88909998516E+02 0.  0.
          5    1    3    3  502    0 -0.46298907135E+02 -0.15040073468E+02 -0.71948324647E+02  0.86996804719E+02  0.47000000000E+01 0. -1.
         -5    1    3    3    0  502  0.33130159919E+02 -0.61567975287E+02 -0.14868708353E+03  0.16437202282E+03  0.47000000000E+01 0.  1.
          5    1    4    4  503    0  0.30968190971E+02  0.20435705066E+02  0.30032490023E+01  0.37520079933E+02  0.47000000000E+01 0. -1.
         -5    1    4    4    0  503 -0.17799443755E+02  0.56172343688E+02 -0.96251515276E+02  0.11295395782E+03  0.47000000000E+01 0.  1.
<mgrwt>
<rscale>  0 0.11985183E+03</rscale>
<asrwt>0</asrwt>
<pdfrwt beam="1">  1        1 0.67660916E-02 0.12044212E+03</pdfrwt>
<pdfrwt beam="2">  1       -1 0.55055887E-01 0.12044212E+03</pdfrwt>
<totfact> 0.35766742E+03</totfact>
</mgrwt>
</event>
<event>
 8    1  0.3466492E-004  0.9611238E+02  0.7546771E-02  0.1289353E+00
         -1   -1    0    0    0  501 -0.00000000000E+00  0.00000000000E+00  0.52944455869E+02  0.52944455869E+02  0.00000000000E+00 0.  1.
          1   -1    0    0  501    0  0.00000000000E+00 -0.00000000000E+00 -0.26018076215E+03  0.26018076215E+03  0.00000000000E+00 0. -1.
         23    2    1    2    0    0 -0.11718576159E+02  0.30851419276E+02 -0.12215746197E+02  0.95707170121E+02  0.89002825005E+02 0.  0.
         23    2    1    2    0    0  0.11718576159E+02 -0.30851419276E+02 -0.19502056008E+03  0.21741804790E+03  0.90268785288E+02 0.  0.
          5    1    4    4  502    0  0.44738389619E+02 -0.34889653318E+02 -0.15523814424E+03  0.16534746094E+03  0.47000000000E+01 0. -1.
         -5    1    3    3    0  503  0.28035398605E+02 -0.75083165562E+01  0.16025980867E+02  0.33485526056E+02  0.47000000000E+01 0. -1.
          5    1    3    3  503    0 -0.39753974764E+02  0.38359735832E+02 -0.28241727064E+02  0.62221644066E+02  0.47000000000E+01 0.  1.
         -5    1    4    4    0  502 -0.33019813460E+02  0.40382340416E+01 -0.39782415846E+02  0.52070586953E+02  0.47000000000E+01 0.  1.
<mgrwt>
<rscale>  0 0.95813990E+02</rscale>
<asrwt>0</asrwt>
<pdfrwt beam="1">  1        1 0.40027809E-01 0.96112375E+02</pdfrwt>
<pdfrwt beam="2">  1       -1 0.81453011E-02 0.96112375E+02</pdfrwt>
<totfact> 0.81177024E+03</totfact>
</mgrwt>
</event>
<event>
 8    1  0.3466492E-004  0.2113352E+03  0.7546771E-02  0.1140526E+00
         -2   -1    0    0    0  501 -0.00000000000E+00  0.00000000000E+00  0.63054925479E+02  0.63054925479E+02  0.00000000000E+00 0.  1.
          2   -1    0    0  501    0  0.00000000000E+00 -0.00000000000E+00 -0.76153247372E+03  0.76153247372E+03  0.00000000000E+00 0. -1.
         23    2    1    2    0    0  0.19185427182E+03 -0.62821164945E+01 -0.24006922510E+03  0.31983714217E+03  0.88402703957E+02 0.  0.
         23    2    1    2    0    0 -0.19185427182E+03  0.62821164945E+01 -0.45840832314E+03  0.50475025703E+03  0.88244572906E+02 0.  0.
          5    1    3    3  502    0  0.68012608820E+01  0.18928029090E+02 -0.85816376458E+01  0.22366536153E+02  0.47000000000E+01 0. -1.
         -5    1    3    3    0  502  0.18505301094E+03 -0.25210145584E+02 -0.23148758746E+03  0.29747060602E+03  0.47000000000E+01 0.  1.
          5    1    4    4  503    0 -0.15574336007E+03 -0.26862357094E+02 -0.30368211755E+03  0.34237771387E+03  0.47000000000E+01 0. -1.
         -5    1    4    4    0  503 -0.36110911745E+02  0.33144473589E+02 -0.15472620559E+03  0.16237254316E+03  0.47000000000E+01 0.  1.
<mgrwt>
<rscale>  0 0.21131867E+03</rscale>
<asrwt>0</asrwt>
<pdfrwt beam="1">  1        2 0.11715884E+00 0.21133520E+03</pdfrwt>
<pdfrwt beam="2">  1       -2 0.97007583E-02 0.21133520E+03</pdfrwt>
<totfact> 0.26135434E+03</totfact>
</mgrwt>
</event>
<event>
 8    1  0.3466492E-004  0.2361593E+03  0.7546771E-02  0.1122483E+00
          2   -1    0    0  501    0  0.00000000000E+00  0.00000000000E+00  0.19270333955E+04  0.19270333955E+04  0.00000000000E+00 0. -1.
         -2   -1    0    0    0  501 -0.00000000000E+00 -0.00000000000E+00 -0.30392947993E+02  0.30392947993E+02  0.00000000000E+00 0.  1.
         23    2    1    2    0    0 -0.54457547519E+02 -0.21066802137E+03  0.11665076527E+04  0.11900508653E+04  0.90190456522E+02 0.  0.
         23    2    1    2    0    0  0.54457547519E+02  0.21066802137E+03  0.73013279488E+03  0.76737547828E+03  0.91785547881E+02 0.  0.
          5    1    4    4  502    0  0.28690520406E+02  0.69212153559E+01  0.11645156408E+03  0.12022523013E+03  0.47000000000E+01 0. -1.
         -5    1    4    4    0  502  0.25767027113E+02  0.20374680601E+03  0.61368123080E+03  0.64715024816E+03  0.47000000000E+01 0.  1.
          5    1    3    3  503    0 -0.13737258772E+02 -0.16573405105E+03  0.69493326786E+03  0.71457037774E+03  0.47000000000E+01 0. -1.
         -5    1    3    3    0  503 -0.40720288746E+02 -0.44933970315E+02  0.47157438481E+03  0.47548048752E+03  0.47000000000E+01 0.  1.
<mgrwt>
<rscale>  0 0.23600533E+03</rscale>
<asrwt>0</asrwt>
<pdfrwt beam="1">  1        2 0.29646658E+00 0.23615932E+03</pdfrwt>
<pdfrwt beam="2">  1       -2 0.46758397E-02 0.23615932E+03</pdfrwt>
<totfact> 0.17640563E+03</totfact>
</mgrwt>
</event>
<event>
 8    1  0.3466492E-004  0.1287814E+03  0.7546771E-02  0.1229847E+00
          1   -1    0    0  501    0  0.00000000000E+00  0.00000000000E+00  0.67821322967E+03  0.67821322967E+03  0.00000000000E+00 0. -1.
         -1   -1    0    0    0  501 -0.00000000000E+00 -0.00000000000E+00 -0.28040883118E+02  0.28040883118E+02  0.00000000000E+00 0.  1.
         23    2    1    2    0    0  0.81676160771E+02  0.34793312747E+02  0.45468023761E+03  0.47215624830E+03  0.91191197431E+02 0.  0.
         23    2    1    2    0    0 -0.81676160771E+02 -0.34793312747E+02  0.19549210894E+03  0.23409786448E+03  0.93290276271E+02 0.  0.
          5    1    3    3  502    0  0.11471331922E+02  0.38939784405E+02  0.29223867887E+03  0.29508207958E+03  0.47000000000E+01 0.  1.
         -5    1    4    4    0  503 -0.31282459207E+02 -0.35480182901E+02  0.20207857115E+02  0.51651554883E+02  0.47000000000E+01 0.  1.
          5    1    4    4  503    0 -0.50393701564E+02  0.68687015337E+00  0.17528425183E+03  0.18244630960E+03  0.47000000000E+01 0. -1.
         -5    1    3    3    0  502  0.70204828849E+02 -0.41464716572E+01  0.16244155874E+03  0.17707416872E+03  0.47000000000E+01 0. -1.
<mgrwt>
<rscale>  0 0.12840162E+03</rscale>
<asrwt>0</asrwt>
<pdfrwt beam="1">  1        1 0.10434048E+00 0.12878139E+03</pdfrwt>
<pdfrwt beam="2">  1       -1 0.43139825E-02 0.12878139E+03</pdfrwt>
<totfact> 0.62412828E+03</totfact>
</mgrwt>
</event>
<event>
 8    1  0.3466492E-004  0.9833717E+02  0.7546771E-02  0.1288330E+00
          3   -1    0    0  501    0  0.00000000000E+00  0.00000000000E+00  0.50786464854E+02  0.50786464854E+02  0.00000000000E+00 0. -1.
         -3   -1    0    0    0  501 -0.00000000000E+00 -0.00000000000E+00 -0.17716168041E+03  0.17716168041E+03  0.00000000000E+00 0.  1.
         23    2    1    2    0    0  0.30116595621E+02 -0.12703612446E+02 -0.77677481913E+02  0.12531556421E+03  0.92745934336E+02 0.  0.
         23    2    1    2    0    0 -0.30116595621E+02  0.12703612446E+02 -0.48697733646E+02  0.10263258106E+03  0.84223431012E+02 0.  0.
          5    1    4    4  502    0 -0.53818795399E+01  0.31385157067E+02  0.11970898904E+02  0.34342177160E+02  0.47000000000E+01 0. -1.
         -5    1    4    4    0  502 -0.24734716081E+02 -0.18681544621E+02 -0.60668632551E+02  0.68290403898E+02  0.47000000000E+01 0.  1.
          5    1    3    3  503    0 -0.16703487315E+02 -0.31886894867E+02 -0.62506688652E+02  0.72283861816E+02  0.47000000000E+01 0. -1.
         -5    1    3    3    0  503  0.46820082936E+02  0.19183282422E+02 -0.15170793261E+02  0.53031702394E+02  0.47000000000E+01 0.  1.
<mgrwt>
<rscale>  0 0.96274819E+02</rscale>
<asrwt>0</asrwt>
<pdfrwt beam="1">  1        3 0.78133024E-02 0.98337172E+02</pdfrwt>
<pdfrwt beam="2">  1       -3 0.27255643E-01 0.98337172E+02</pdfrwt>
<totfact> 0.30494269E+03</totfact>
</mgrwt>
</event>
<event>
 7    1  0.3466492E-004  0.2561663E+03  0.7546771E-02  0.1130208E+00
          1   -1    0    0  501    0  0.00000000000E+00  0.00000000000E+00  0.51371186320E+03  0.51371186320E+03  0.00000000000E+00 0. -1.
         -1   -1    0    0    0  501 -0.00000000000E+00 -0.00000000000E+00 -0.15217458432E+03  0.15217458432E+03  0.00000000000E+00 0.  1.
         23    2    1    2    0    0  0.11158566594E+03 -0.48072182741E+02 -0.67066135284E+02  0.16656485657E+03  0.92106945149E+02 0.  0.
          5    1    3    3  502    0  0.38744533332E+01 -0.19657560572E+02  0.17189657664E+02  0.26814276177E+02  0.47000000000E+01 0. -1.
         -5    1    3    3    0  502  0.10771121261E+03 -0.28414622169E+02 -0.84255792948E+02  0.13975058039E+03  0.47000000000E+01 0.  1.
          5    1    1    2  503    0 -0.54335306275E+02  0.94787793028E+02  0.40809438974E+03  0.42249280722E+03  0.47000000000E+01 0. -1.
         -5    1    1    2    0  503 -0.57250359667E+02 -0.46715610287E+02  0.20509024428E+02  0.76828783731E+02  0.47000000000E+01 0.  1.
<mgrwt>
<rscale>  0 0.22500127E+03</rscale>
<asrwt>0</asrwt>
<pdfrwt beam="1">  1        1 0.79032593E-01 0.25616628E+03</pdfrwt>
<pdfrwt beam="2">  1       -1 0.23411475E-01 0.25616628E+03</pdfrwt>
<totfact> 0.67948266E+02</totfact>
</mgrwt>
</event>
<event>
 8    1  0.3466492E-004  0.9481454E+02  0.7546771E-02  0.1292052E+00
         -2   -1    0    0    0  501 -0.00000000000E+00  0.00000000000E+00  0.79458715124E+02  0.79458715124E+02  0.00000000000E+00 0.  1.
          2   -1    0    0  501    0  0.00000000000E+00 -0.00000000000E+00 -0.12133008761E+03  0.12133008761E+03  0.00000000000E+00 0. -1.
         23    2    1    2    0    0 -0.10804690267E+02 -0.19724711419E+02 -0.48592821498E+02  0.10654134933E+03  0.92108583988E+02 0.  0.
         23    2    1    2    0    0  0.10804690267E+02  0.19724711419E+02  0.67214490095E+01  0.94247453403E+02  0.91277593219E+02 0.  0.
          5    1    3    3  502    0 -0.22076341139E+02 -0.19909719168E+00 -0.70944005017E+02  0.74448279535E+02  0.47000000000E+01 0. -1.
         -5    1    3    3    0  502  0.11271650873E+02 -0.19525614228E+02  0.22351183520E+02  0.32093069799E+02  0.47000000000E+01 0.  1.
          5    1    4    4  503    0 -0.36882028721E+02  0.15480879253E+02  0.19101484608E+02  0.44574638296E+02  0.47000000000E+01 0. -1.
         -5    1    4    4    0  503  0.47686718988E+02  0.42438321668E+01 -0.12380035598E+02  0.49672815107E+02  0.47000000000E+01 0.  1.
<mgrwt>
<rscale>  0 0.94612125E+02</rscale>
<asrwt>0</asrwt>
<pdfrwt beam="1">  1        2 0.18666167E-01 0.94814539E+02</pdfrwt>
<pdfrwt beam="2">  1       -2 0.12224418E-01 0.94814539E+02</pdfrwt>
<totfact> 0.13047021E+04</totfact>
</mgrwt>
</event>
<event>
 8    1  0.3466492E-004  0.1753905E+03  0.7546771E-02  0.1173013E+00
          2   -1    0    0  501    0  0.00000000000E+00  0.00000000000E+00  0.47743657447E+03  0.47743657447E+03  0.00000000000E+00 0. -1.
         -2   -1    0    0    0  501 -0.00000000000E+00 -0.00000000000E+00 -0.65000107391E+02  0.65000107391E+02  0.00000000000E+00 0.  1.
         23    2    1    2    0    0  0.50403408184E+02  0.14141447533E+03  0.24647763492E+03  0.30097416778E+03  0.85414681200E+02 0.  0.
         23    2    1    2    0    0 -0.50403408184E+02 -0.14141447533E+03  0.16595883216E+03  0.24146251408E+03  0.90682161119E+02 0.  0.
          5    1    4    4  502    0  0.22105448215E+02 -0.10056405478E+02  0.17228368957E+02  0.30144465973E+02  0.47000000000E+01 0. -1.
         -5    1    3    3    0  503  0.19544411115E+02  0.28621304862E+02  0.88304278520E+01  0.36072559569E+02  0.47000000000E+01 0.  1.
          5    1    3    3  503    0  0.30858997069E+02  0.11279317047E+03  0.23764720707E+03  0.26490160821E+03  0.47000000000E+01 0. -1.
         -5    1    4    4    0  502 -0.72508856399E+02 -0.13135806985E+03  0.14873046320E+03  0.21131804811E+03  0.47000000000E+01 0.  1.
<mgrwt>
<rscale>  0 0.17472048E+03</rscale>
<asrwt>0</asrwt>
<pdfrwt beam="1">  1        2 0.73451779E-01 0.17539046E+03</pdfrwt>
<pdfrwt beam="2">  1       -2 0.10000017E-01 0.17539046E+03</pdfrwt>
<totfact> 0.42567362E+03</totfact>
</mgrwt>
</event>
<event>
 8    1  0.3466492E-004  0.1008562E+03  0.7546771E-02  0.1280737E+00
         -3   -1    0    0    0  501 -0.00000000000E+00  0.00000000000E+00  0.39041451645E+02  0.39041451645E+02  0.00000000000E+00 0.  1.
          3   -1    0    0  501    0  0.00000000000E+00 -0.00000000000E+00 -0.30544160275E+03  0.30544160275E+03  0.00000000000E+00 0. -1.
         23    2    1    2    0    0 -0.41326435773E+01 -0.35489302944E+02 -0.62024192951E+02  0.11840172037E+03  0.94315415014E+02 0.  0.
         23    2    1    2    0    0  0.41326435773E+01  0.35489302944E+02 -0.20437595815E+03  0.22608133402E+03  0.89814631082E+02 0.  0.
          5    1    4    4  502    0 -0.31497224732E+02  0.45428837850E+02 -0.89452864015E+02  0.10526043585E+03  0.47000000000E+01 0. -1.
         -5    1    4    4    0  502  0.35629868309E+02 -0.99395349061E+01 -0.11492309414E+03  0.12082089818E+03  0.47000000000E+01 0.  1.
          5    1    3    3  503    0 -0.87456158939E+01 -0.55932100055E+02 -0.74405031048E+02  0.93611346851E+02  0.47000000000E+01 0. -1.
         -5    1    3    3    0  503  0.46129723167E+01  0.20442797111E+02  0.12380838097E+02  0.24790373521E+02  0.47000000000E+01 0.  1.
<mgrwt>
<rscale>  0 0.99790460E+02</rscale>
<asrwt>0</asrwt>
<pdfrwt beam="1">  1        3 0.46991017E-01 0.10085617E+03</pdfrwt>
<pdfrwt beam="2">  1       -3 0.60063770E-02 0.10085617E+03</pdfrwt>
<totfact> 0.16735266E+03</totfact>
</mgrwt>
</event>
<event>
 8    1  0.3466492E-004  0.9414815E+02  0.7546771E-02  0.1294318E+00
         -1   -1    0    0    0  501 -0.00000000000E+00  0.00000000000E+00  0.38908016187E+02  0.38908016187E+02  0.00000000000E+00 0.  1.
          1   -1    0    0  501    0  0.00000000000E+00 -0.00000000000E+00 -0.26591686638E+03  0.26591686638E+03  0.00000000000E+00 0. -1.
         23    2    1    2    0    0  0.11659775643E+02  0.18490130200E+02 -0.17382840500E+03  0.19669517430E+03  0.89413879924E+02 0.  0.
         23    2    1    2    0    0 -0.11659775643E+02 -0.18490130200E+02 -0.53180445191E+02  0.10812970827E+03  0.91575317511E+02 0.  0.
          5    1    4    4  502    0 -0.46289232220E+02 -0.30401231924E+02 -0.21895268806E+02  0.59736259659E+02  0.47000000000E+01 0. -1.
         -5    1    4    4    0  502  0.34629456577E+02  0.11911101724E+02 -0.31285176384E+02  0.48393448612E+02  0.47000000000E+01 0.  1.
          5    1    3    3  503    0 -0.68146063525E+01 -0.29193294800E+02 -0.11342061581E+03  0.11740959677E+03  0.47000000000E+01 0. -1.
         -5    1    3    3    0  503  0.18474381995E+02  0.47683425000E+02 -0.60407789188E+02  0.79285577531E+02  0.47000000000E+01 0.  1.
<mgrwt>
<rscale>  0 0.93618445E+02</rscale>
<asrwt>0</asrwt>
<pdfrwt beam="1">  1        1 0.40910285E-01 0.94148150E+02</pdfrwt>
<pdfrwt beam="2">  1       -1 0.59858489E-02 0.94148150E+02</pdfrwt>
<totfact> 0.12467363E+04</totfact>
</mgrwt>
</event>
<event>
 8    1  0.3466492E-004  0.9978291E+02  0.7546771E-02  0.1281709E+00
          2   -1    0    0  501    0  0.00000000000E+00  0.00000000000E+00  0.14135142320E+03  0.14135142320E+03  0.00000000000E+00 0. -1.
         -2   -1    0    0    0  501 -0.00000000000E+00 -0.00000000000E+00 -0.82011972761E+02  0.82011972761E+02  0.00000000000E+00 0.  1.
         23    2    1    2    0    0 -0.85878381165E+00  0.39301576233E+02 -0.14281936491E+02  0.10079981998E+03  0.91713023032E+02 0.  0.
         23    2    1    2    0    0  0.85878381165E+00 -0.39301576233E+02  0.73621386931E+02  0.12256357598E+03  0.89757284608E+02 0.  0.
          5    1    3    3  502    0 -0.44876336601E+02  0.30452402405E+02 -0.11003220191E+02  0.55537332071E+02  0.47000000000E+01 0. -1.
         -5    1    4    4    0  503  0.15754936976E+02  0.24885965398E+02  0.35218397670E+02  0.46151433860E+02  0.47000000000E+01 0.  1.
          5    1    4    4  503    0 -0.14896153164E+02 -0.64187541631E+02  0.38402989261E+02  0.76412142124E+02  0.47000000000E+01 0. -1.
         -5    1    3    3    0  502  0.44017552790E+02  0.88491738286E+01 -0.32787162995E+01  0.45262487908E+02  0.47000000000E+01 0.  1.
<mgrwt>
<rscale>  0 0.99331222E+02</rscale>
<asrwt>0</asrwt>
<pdfrwt beam="1">  1        2 0.21746373E-01 0.99782914E+02</pdfrwt>
<pdfrwt beam="2">  1       -2 0.12617227E-01 0.99782914E+02</pdfrwt>
<totfact> 0.10509931E+04</totfact>
</mgrwt>
</event>
<event>
 8    1  0.3466492E-004  0.2513386E+03  0.7546771E-02  0.1112649E+00
          2   -1    0    0  501    0  0.00000000000E+00  0.00000000000E+00  0.32794763929E+03  0.32794763929E+03  0.00000000000E+00 0. -1.
         -2   -1    0    0    0  501 -0.00000000000E+00 -0.00000000000E+00 -0.37819559985E+03  0.37819559985E+03  0.00000000000E+00 0.  1.
         23    2    1    2    0    0 -0.21598284467E+03 -0.87335607279E+02  0.22276994259E+03  0.33585341376E+03  0.94313152462E+02 0.  0.
         23    2    1    2    0    0  0.21598284467E+03  0.87335607279E+02 -0.27301790315E+03  0.37028982538E+03  0.91102589692E+02 0.  0.
          5    1    4    4  502    0  0.25540223534E+02 -0.46298234744E+01 -0.78866938447E+02  0.83161422929E+02  0.47000000000E+01 0. -1.
         -5    1    3    3    0  503 -0.16911392744E+03 -0.83809527714E+02  0.12262590837E+03  0.22512832072E+03  0.47000000000E+01 0.  1.
          5    1    3    3  503    0 -0.46868917233E+02 -0.35260795646E+01  0.10014403422E+03  0.11072509304E+03  0.47000000000E+01 0. -1.
         -5    1    4    4    0  502  0.19044262113E+03  0.91965430753E+02 -0.19415096470E+03  0.28712840245E+03  0.47000000000E+01 0.  1.
<mgrwt>
<rscale>  0 0.25104127E+03</rscale>
<asrwt>0</asrwt>
<pdfrwt beam="1">  1        2 0.50453483E-01 0.25133855E+03</pdfrwt>
<pdfrwt beam="2">  1       -2 0.58183939E-01 0.25133855E+03</pdfrwt>
<totfact> 0.28182420E+02</totfact>
</mgrwt>
</event>
<event>
 8    1  0.3466492E-004  0.1056640E+03  0.7546771E-02  0.1270419E+00
          3   -1    0    0  501    0  0.00000000000E+00  0.00000000000E+00  0.18061241510E+03  0.18061241510E+03  0.00000000000E+00 0. -1.
         -3   -1    0    0    0  501 -0.00000000000E+00 -0.00000000000E+00 -0.16861666057E+03  0.16861666057E+03  0.00000000000E+00 0.  1.
         23    2    1    2    0    0  0.45650531688E+02 -0.12008395732E+01 -0.13421048725E+03  0.16883740858E+03  0.91696251760E+02 0.  0.
         23    2    1    2    0    0 -0.45650531688E+02  0.12008395732E+01  0.14620624179E+03  0.18039166709E+03  0.95286281062E+02 0.  0.
          5    1    4    4  502    0 -0.71284608198E+02 -0.11907483261E+02  0.79264533917E+02  0.10736964124E+03  0.47000000000E+01 0. -1.
         -5    1    4    4    0  502  0.25634076511E+02  0.13108322834E+02  0.66941707870E+02  0.73022025846E+02  0.47000000000E+01 0.  1.
          5    1    3    3  503    0  0.11053074293E+02 -0.16781958520E+02  0.75778443486E+01  0.21984501542E+02  0.47000000000E+01 0. -1.
         -5    1    3    3    0  503  0.34597457395E+02  0.15581118946E+02 -0.14178833160E+03  0.14685290703E+03  0.47000000000E+01 0.  1.
<mgrwt>
<rscale>  0 0.10484821E+03</rscale>
<asrwt>0</asrwt>
<pdfrwt beam="1">  1        3 0.27786526E-01 0.10566404E+03</pdfrwt>
<pdfrwt beam="2">  1       -3 0.25941025E-01 0.10566404E+03</pdfrwt>
<totfact> 0.38954677E+02</totfact>
</mgrwt>
</event>
<event>
 8    1  0.3466492E-004  0.1167487E+03  0.7546771E-02  0.1248763E+00
         -2   -1    0    0    0  501 -0.00000000000E+00  0.00000000000E+00  0.43654397282E+02  0.43654397282E+02  0.00000000000E+00 0.  1.
          2   -1    0    0  501    0  0.00000000000E+00 -0.00000000000E+00 -0.37162720421E+03  0.37162720421E+03  0.00000000000E+00 0. -1.
         23    2    1    2    0    0 -0.51813658815E+02  0.45283961948E+02 -0.24816028826E+03  0.27425131478E+03  0.94313109058E+02 0.  0.
         23    2    1    2    0    0  0.51813658815E+02 -0.45283961948E+02 -0.79812518676E+02  0.14103028672E+03  0.93724122749E+02 0.  0.
          5    1    4    4  502    0  0.16197940089E+02  0.16747702138E+02 -0.63094879584E+02  0.67423383330E+02  0.47000000000E+01 0. -1.
         -5    1    3    3    0  503  0.20743975735E+02 -0.99824144844E+01 -0.32999360390E+02  0.40509368230E+02  0.47000000000E+01 0.  1.
          5    1    3    3  503    0 -0.72557634550E+02  0.55266376433E+02 -0.21516092787E+03  0.23374194655E+03  0.47000000000E+01 0. -1.
         -5    1    4    4    0  502  0.35615718726E+02 -0.62031664086E+02 -0.16717639092E+02  0.73606903388E+02  0.47000000000E+01 0.  1.
<mgrwt>
<rscale>  0 0.11662968E+03</rscale>
<asrwt>0</asrwt>
<pdfrwt beam="1">  1        2 0.57173415E-01 0.11674868E+03</pdfrwt>
<pdfrwt beam="2">  1       -2 0.67160613E-02 0.11674868E+03</pdfrwt>
<totfact> 0.10084096E+04</totfact>
</mgrwt>
</event>
<event>
 8    1  0.3466492E-004  0.1225918E+03  0.7546771E-02  0.1240318E+00
          4   -1    0    0  501    0  0.00000000000E+00  0.00000000000E+00  0.26256336397E+03  0.26256336397E+03  0.00000000000E+00 0. -1.
         -4   -1    0    0    0  501 -0.00000000000E+00 -0.00000000000E+00 -0.73400175885E+02  0.73400175885E+02  0.00000000000E+00 0.  1.
         23    2    1    2    0    0  0.51757389750E+02  0.58036018609E+02  0.17624363686E+03  0.21269282562E+03  0.90163250206E+02 0.  0.
         23    2    1    2    0    0 -0.51757389750E+02 -0.58036018609E+02  0.12919551228E+02  0.12327071424E+03  0.94772080986E+02 0.  0.
          5    1    3    3  502    0  0.29805662822E+02  0.77153372196E+02  0.15689937119E+03  0.17742751494E+03  0.47000000000E+01 0. -1.
         -5    1    4    4    0  503 -0.50363381858E+02  0.62497660006E+01 -0.14829166142E+02  0.53080353953E+02  0.47000000000E+01 0.  1.
          5    1    4    4  503    0 -0.13940078916E+01 -0.64285784610E+02  0.27748717371E+02  0.70190360283E+02  0.47000000000E+01 0. -1.
         -5    1    3    3    0  502  0.21951726928E+02 -0.19117353587E+02  0.19344265670E+02  0.35265310684E+02  0.47000000000E+01 0.  1.
<mgrwt>
<rscale>  0 0.12170038E+03</rscale>
<asrwt>0</asrwt>
<pdfrwt beam="1">  1        4 0.40394363E-01 0.12259182E+03</pdfrwt>
<pdfrwt beam="2">  1       -4 0.11292335E-01 0.12259182E+03</pdfrwt>
<totfact> 0.59711785E+02</totfact>
</mgrwt>
</event>
<event>
 8    1  0.3466492E-004  0.1454757E+03  0.7546771E-02  0.1206167E+00
          1   -1    0    0  501    0  0.00000000000E+00  0.00000000000E+00  0.11633756795E+04  0.11633756795E+04  0.00000000000E+00 0. -1.
         -1   -1    0    0    0  501 -0.00000000000E+00 -0.00000000000E+00 -0.20620700449E+02  0.20620700449E+02  0.00000000000E+00 0.  1.
         23    2    1    2    0    0 -0.10082191249E+03 -0.53453820160E+02  0.36769402681E+03  0.39540100726E+03  0.90114872592E+02 0.  0.
         23    2    1    2    0    0  0.10082191249E+03  0.53453820160E+02  0.77506095226E+03  0.78859537271E+03  0.90226455175E+02 0.  0.
          5    1    4    4  502    0  0.10436836947E+03  0.30720048968E+02  0.72692509408E+03  0.73503650274E+03  0.47000000000E+01 0. -1.
         -5    1    3    3    0  503 -0.81885411420E+02 -0.15060603148E+02  0.13442977017E+03  0.15819448625E+03  0.47000000000E+01 0.  1.
          5    1    3    3  503    0 -0.18936501066E+02 -0.38393217012E+02  0.23326425664E+03  0.23720652101E+03  0.47000000000E+01 0. -1.
         -5    1    4    4    0  502 -0.35464569868E+01  0.22733771192E+02  0.48135858175E+02  0.53558869966E+02  0.47000000000E+01 0.  1.
<mgrwt>
<rscale>  0 0.14545841E+03</rscale>
<asrwt>0</asrwt>
<pdfrwt beam="1">  1        1 0.17898082E+00 0.14547571E+03</pdfrwt>
<pdfrwt beam="2">  1       -1 0.31724164E-02 0.14547571E+03</pdfrwt>
<totfact> 0.41528458E+03</totfact>
</mgrwt>
</event>
<event>
 8    1  0.3466492E-004  0.1910979E+03  0.7546771E-02  0.1157501E+00
         -1   -1    0    0    0  501 -0.00000000000E+00  0.00000000000E+00  0.67959210980E+02  0.67959210980E+02  0.00000000000E+00 0.  1.
          1   -1    0    0  501    0  0.00000000000E+00 -0.00000000000E+00 -0.54902143408E+03  0.54902143408E+03  0.00000000000E+00 0. -1.
         23    2    1    2    0    0  0.70164916727E+02  0.15159698879E+03 -0.28604892621E+03  0.34394473548E+03  0.92570137335E+02 0.  0.
         23    2    1    2    0    0 -0.70164916727E+02 -0.15159698879E+03 -0.19501329689E+03  0.27303590958E+03  0.92809802342E+02 0.  0.
          5    1    3    3  502    0  0.89563932719E+02  0.13606368789E+03 -0.22458768127E+03  0.27748286755E+03  0.47000000000E+01 0. -1.
         -5    1    4    4    0  503 -0.92650031494E+02 -0.12435379589E+03 -0.16452529648E+03  0.22613836045E+03  0.47000000000E+01 0.  1.
          5    1    4    4  503    0  0.22485114767E+02 -0.27243192894E+02 -0.30488000411E+02  0.46897549128E+02  0.47000000000E+01 0. -1.
         -5    1    3    3    0  502 -0.19399015992E+02  0.15533300895E+02 -0.61461244940E+02  0.66461867922E+02  0.47000000000E+01 0.  1.
<mgrwt>
<rscale>  0 0.19106886E+03</rscale>
<asrwt>0</asrwt>
<pdfrwt beam="1">  1        1 0.84464833E-01 0.19109794E+03</pdfrwt>
<pdfrwt beam="2">  1       -1 0.10455264E-01 0.19109794E+03</pdfrwt>
<totfact> 0.22400593E+03</totfact>
</mgrwt>
</event>
<event>
 8    1  0.3466492E-004  0.1300778E+03  0.7546771E-02  0.1227444E+00
         -1   -1    0    0    0  501 -0.00000000000E+00  0.00000000000E+00  0.83581927879E+03  0.83581927879E+03  0.00000000000E+00 0.  1.
          1   -1    0    0  501    0  0.00000000000E+00 -0.00000000000E+00 -0.21306141221E+02  0.21306141221E+02  0.00000000000E+00 0. -1.
         23    2    1    2    0    0 -0.26283026074E+02  0.89824116312E+02  0.50447003200E+03  0.52090083320E+03  0.89936063460E+02 0.  0.
         23    2    1    2    0    0  0.26283026074E+02 -0.89824116312E+02  0.31004310557E+03  0.33622458682E+03  0.90338674640E+02 0.  0.
          5    1    3    3  502    0  0.28018562205E+01  0.33872848190E+02  0.42494466714E+02  0.54617670621E+02  0.47000000000E+01 0. -1.
         -5    1    4    4    0  503  0.44579635131E+02 -0.60627666545E+02  0.11112953191E+03  0.13429415729E+03  0.47000000000E+01 0.  1.
          5    1    4    4  503    0 -0.18296609057E+02 -0.29196449767E+02  0.19891357367E+03  0.20193042953E+03  0.47000000000E+01 0. -1.
         -5    1    3    3    0  502 -0.29084882294E+02  0.55951268123E+02  0.46197556528E+03  0.46628316258E+03  0.47000000000E+01 0.  1.
<mgrwt>
<rscale>  0 0.13000797E+03</rscale>
<asrwt>0</asrwt>
<pdfrwt beam="1">  1        1 0.32778685E-02 0.13007784E+03</pdfrwt>
<pdfrwt beam="2">  1       -1 0.12858756E+00 0.13007784E+03</pdfrwt>
<totfact> 0.16348376E+03</totfact>
</mgrwt>
</event>
<event>
 8    1  0.3466492E-004  0.1437814E+03  0.7546771E-02  0.1217761E+00
         -1   -1    0    0    0  501 -0.00000000000E+00  0.00000000000E+00  0.13914231896E+03  0.13914231896E+03  0.00000000000E+00 0.  1.
          1   -1    0    0  501    0  0.00000000000E+00 -0.00000000000E+00 -0.22621096703E+03  0.22621096703E+03  0.00000000000E+00 0. -1.
         23    2    1    2    0    0 -0.66263934958E+02  0.30398589975E+02 -0.16905871789E+03  0.22193229994E+03  0.12392785124E+03 0.  0.
         23    2    1    2    0    0  0.66263934958E+02 -0.30398589975E+02  0.81990069816E+02  0.14342098606E+03  0.92370040305E+02 0.  0.
          5    1    4    4  502    0  0.40215665459E+02 -0.16255212662E+01 -0.11469254006E+02  0.42113843984E+02  0.47000000000E+01 0. -1.
         -5    1    4    4    0  502  0.26048269500E+02 -0.28773068709E+02  0.93459323822E+02  0.10130714208E+03  0.47000000000E+01 0.  1.
          5    1    3    3  503    0 -0.45882736598E+02  0.49330860534E+02 -0.17955154933E+03  0.19183223969E+03  0.47000000000E+01 0. -1.
         -5    1    3    3    0  503 -0.20381198360E+02 -0.18932270559E+02  0.10492831443E+02  0.30100060246E+02  0.47000000000E+01 0.  1.
<mgrwt>
<rscale>  0 0.13675630E+03</rscale>
<asrwt>0</asrwt>
<pdfrwt beam="1">  1        1 0.34801687E-01 0.14378142E+03</pdfrwt>
<pdfrwt beam="2">  1       -1 0.21406511E-01 0.14378142E+03</pdfrwt>
<totfact> 0.22077821E+03</totfact>
</mgrwt>
</event>
<event>
 8    1  0.3466492E-004  0.1073381E+03  0.7546771E-02  0.1268817E+00
         -2   -1    0    0    0  501 -0.00000000000E+00  0.00000000000E+00  0.36534974916E+02  0.36534974916E+02  0.00000000000E+00 0.  1.
          2   -1    0    0  501    0  0.00000000000E+00 -0.00000000000E+00 -0.58412558733E+03  0.58412558733E+03  0.00000000000E+00 0. -1.
         23    2    1    2    0    0  0.23178242691E+02  0.33437251583E+02 -0.60426765476E+02  0.12317817630E+03  0.99328688722E+02 0.  0.
         23    2    1    2    0    0 -0.23178242691E+02 -0.33437251583E+02 -0.48716384694E+03  0.49748238595E+03  0.92221634308E+02 0.  0.
          5    1    4    4  502    0 -0.82108717015E+01 -0.60952822071E+02 -0.40029048894E+03  0.40501509906E+03  0.47000000000E+01 0. -1.
         -5    1    4    4    0  502 -0.14967370989E+02  0.27515570488E+02 -0.86873358000E+02  0.92467286885E+02  0.47000000000E+01 0.  1.
          5    1    3    3  503    0 -0.30770606004E+02  0.41240389578E+02 -0.37565134186E+02  0.63881368433E+02  0.47000000000E+01 0. -1.
         -5    1    3    3    0  503  0.53948848695E+02 -0.78031379949E+01 -0.22861631290E+02  0.59296807868E+02  0.47000000000E+01 0.  1.
<mgrwt>
<rscale>  0 0.10566417E+03</rscale>
<asrwt>0</asrwt>
<pdfrwt beam="1">  1        2 0.89865476E-01 0.10733811E+03</pdfrwt>
<pdfrwt beam="2">  1       -2 0.56207653E-02 0.10733811E+03</pdfrwt>
<totfact> 0.80415626E+03</totfact>
</mgrwt>
</event>
<event>
 8    1  0.3466492E-004  0.1316835E+03  0.7546771E-02  0.1226151E+00
          1   -1    0    0  501    0  0.00000000000E+00  0.00000000000E+00  0.11973040484E+04  0.11973040484E+04  0.00000000000E+00 0. -1.
         -1   -1    0    0    0  501 -0.00000000000E+00 -0.00000000000E+00 -0.14507939850E+02  0.14507939850E+02  0.00000000000E+00 0.  1.
         23    2    1    2    0    0  0.87998117457E+01 -0.91379875970E+02  0.50144086433E+03  0.51844333220E+03  0.94407785011E+02 0.  0.
         23    2    1    2    0    0 -0.87998117457E+01  0.91379875970E+02  0.68135524427E+03  0.69336865609E+03  0.89930005769E+02 0.  0.
          5    1    3    3  502    0  0.41622187178E+02 -0.42806904729E+02  0.36479994432E+03  0.36968354972E+03  0.47000000000E+01 0. -1.
         -5    1    3    3    0  502 -0.32822375432E+02 -0.48572971240E+02  0.13664092000E+03  0.14875978248E+03  0.47000000000E+01 0.  1.
          5    1    4    4  503    0  0.34479135767E+02  0.72187765627E+02  0.46377039458E+03  0.47064312722E+03  0.47000000000E+01 0. -1.
         -5    1    4    4    0  503 -0.43278947513E+02  0.19192110343E+02  0.21758484969E+03  0.22272552887E+03  0.47000000000E+01 0.  1.
<mgrwt>
<rscale>  0 0.13088317E+03</rscale>
<asrwt>0</asrwt>
<pdfrwt beam="1">  1        1 0.18420054E+00 0.13168352E+03</pdfrwt>
<pdfrwt beam="2">  1       -1 0.22319917E-02 0.13168352E+03</pdfrwt>
<totfact> 0.65346830E+03</totfact>
</mgrwt>
</event>
<event>
 8    1  0.3466492E-004  0.1059756E+03  0.7546771E-02  0.1271045E+00
          4   -1    0    0  501    0  0.00000000000E+00  0.00000000000E+00  0.16737338862E+02  0.16737338862E+02  0.00000000000E+00 0. -1.
         -4   -1    0    0    0  501 -0.00000000000E+00 -0.00000000000E+00 -0.74103643858E+03  0.74103643858E+03  0.00000000000E+00 0.  1.
         23    2    1    2    0    0  0.21961120426E+02 -0.34168994908E+02 -0.22783603218E+03  0.25127691256E+03  0.97882675703E+02 0.  0.
         23    2    1    2    0    0 -0.21961120426E+02  0.34168994908E+02 -0.49646306754E+03  0.50649686488E+03  0.91726145027E+02 0.  0.
          5    1    3    3  502    0 -0.26389699002E+02  0.19706003102E+02 -0.78257302687E+02  0.85035511379E+02  0.47000000000E+01 0. -1.
         -5    1    4    4    0  503 -0.54305274311E+01 -0.31549926655E+02 -0.15434209893E+03  0.15769737475E+03  0.47000000000E+01 0.  1.
          5    1    4    4  503    0 -0.16530592995E+02  0.65718921563E+02 -0.34212096861E+03  0.34879949013E+03  0.47000000000E+01 0. -1.
         -5    1    3    3    0  502  0.48350819428E+02 -0.53874998010E+02 -0.14957872949E+03  0.16624140118E+03  0.47000000000E+01 0.  1.
<mgrwt>
<rscale>  0 0.10453171E+03</rscale>
<asrwt>0</asrwt>
<pdfrwt beam="1">  1        4 0.25749760E-02 0.10597561E+03</pdfrwt>
<pdfrwt beam="2">  1       -4 0.11400557E+00 0.10597561E+03</pdfrwt>
<totfact> 0.67840499E+02</totfact>
</mgrwt>
</event>
<event>
 8    1  0.3466492E-004  0.9663672E+02  0.7546771E-02  0.1289616E+00
         -1   -1    0    0    0  501 -0.00000000000E+00  0.00000000000E+00  0.30933973790E+02  0.30933973790E+02  0.00000000000E+00 0.  1.
          1   -1    0    0  501    0  0.00000000000E+00 -0.00000000000E+00 -0.33078963120E+03  0.33078963120E+03  0.00000000000E+00 0. -1.
         23    2    1    2    0    0  0.19855756921E+01 -0.32401863753E+02 -0.89329266257E+02  0.13159929411E+03  0.91021058627E+02 0.  0.
         23    2    1    2    0    0 -0.19855756921E+01  0.32401863753E+02 -0.21052639115E+03  0.23012431088E+03  0.87074759850E+02 0.  0.
          5    1    3    3  502    0 -0.32160645175E+02  0.16415116380E+02 -0.27667383994E+02  0.45731141260E+02  0.47000000000E+01 0.  1.
         -5    1    4    4    0  503 -0.22592888447E+02  0.16995857860E+01 -0.84418793008E+01  0.24630926218E+02  0.47000000000E+01 0.  1.
          5    1    4    4  503    0  0.20607312755E+02  0.30702277967E+02 -0.20208451185E+03  0.20549338466E+03  0.47000000000E+01 0. -1.
         -5    1    3    3    0  502  0.34146220868E+02 -0.48816980133E+02 -0.61661882262E+02  0.85868152845E+02  0.47000000000E+01 0. -1.
<mgrwt>
<rscale>  0 0.95696202E+02</rscale>
<asrwt>0</asrwt>
<pdfrwt beam="1">  1        1 0.50890710E-01 0.96636724E+02</pdfrwt>
<pdfrwt beam="2">  1       -1 0.47590731E-02 0.96636724E+02</pdfrwt>
<totfact> 0.13400951E+04</totfact>
</mgrwt>
</event>
<event>
 8    1  0.3466492E-004  0.9394098E+02  0.7546771E-02  0.1294235E+00
         -1   -1    0    0    0  501 -0.00000000000E+00  0.00000000000E+00  0.10330888796E+03  0.10330888796E+03  0.00000000000E+00 0.  1.
          1   -1    0    0  501    0  0.00000000000E+00 -0.00000000000E+00 -0.84665919953E+02  0.84665919953E+02  0.00000000000E+00 0. -1.
         23    2    1    2    0    0  0.18915689868E+02 -0.23976842437E+01  0.40114796678E+01  0.94026592200E+02  0.91985628544E+02 0.  0.
         23    2    1    2    0    0 -0.18915689868E+02  0.23976842437E+01  0.14631488337E+02  0.93948215711E+02  0.90821993875E+02 0.  0.
          5    1    3    3  502    0  0.38367541565E+02 -0.36220232032E+02 -0.64374096406E+01  0.53362006119E+02  0.47000000000E+01 0. -1.
         -5    1    4    4    0  503 -0.43285301047E+02  0.21739267051E+02  0.31770703793E+02  0.58117816873E+02  0.47000000000E+01 0.  1.
          5    1    4    4  503    0  0.24369611179E+02 -0.19341582807E+02 -0.17139215456E+02  0.35830398838E+02  0.47000000000E+01 0. -1.
         -5    1    3    3    0  502 -0.19451851697E+02  0.33822547788E+02  0.10448889308E+02  0.40664586081E+02  0.47000000000E+01 0.  1.
<mgrwt>
<rscale>  0 0.93654899E+02</rscale>
<asrwt>0</asrwt>
<pdfrwt beam="1">  1        1 0.13025526E-01 0.93940982E+02</pdfrwt>
<pdfrwt beam="2">  1       -1 0.15893675E-01 0.93940982E+02</pdfrwt>
<totfact> 0.11900795E+04</totfact>
</mgrwt>
</event>
<event>
 8    1  0.3466492E-004  0.9833353E+02  0.7546771E-02  0.1285360E+00
         -1   -1    0    0    0  501 -0.00000000000E+00  0.00000000000E+00  0.72917573592E+03  0.72917573592E+03  0.00000000000E+00 0.  1.
          1   -1    0    0  501    0  0.00000000000E+00 -0.00000000000E+00 -0.27782079260E+02  0.27782079260E+02  0.00000000000E+00 0. -1.
         23    2    1    2    0    0 -0.32251654905E+02 -0.16729210762E+02  0.62546596618E+03  0.63272216112E+03  0.88372069006E+02 0.  0.
         23    2    1    2    0    0  0.32251654905E+02  0.16729210762E+02  0.75927690473E+02  0.12423565406E+03  0.91375312978E+02 0.  0.
          5    1    4    4  502    0  0.40199946315E+02 -0.58189078571E+01 -0.36105650443E+01  0.41049014023E+02  0.47000000000E+01 0. -1.
         -5    1    4    4    0  502 -0.79482914091E+01  0.22548118619E+02  0.79538255518E+02  0.83186640035E+02  0.47000000000E+01 0.  1.
          5    1    3    3  503    0 -0.15755372322E+02 -0.52178162021E+02  0.30772721907E+03  0.31255227355E+03  0.47000000000E+01 0. -1.
         -5    1    3    3    0  503 -0.16496282584E+02  0.35448951259E+02  0.31773874712E+03  0.32016988757E+03  0.47000000000E+01 0.  1.
<mgrwt>
<rscale>  0 0.97629945E+02</rscale>
<asrwt>0</asrwt>
<pdfrwt beam="1">  1        1 0.42741666E-02 0.98333532E+02</pdfrwt>
<pdfrwt beam="2">  1       -1 0.11218087E+00 0.98333532E+02</pdfrwt>
<totfact> 0.15435724E+03</totfact>
</mgrwt>
</event>
<event>
 8    1  0.3466492E-004  0.1021396E+03  0.7546771E-02  0.1276532E+00
         -2   -1    0    0    0  501 -0.00000000000E+00  0.00000000000E+00  0.83443296652E+02  0.83443296652E+02  0.00000000000E+00 0.  1.
          2   -1    0    0  501    0  0.00000000000E+00 -0.00000000000E+00 -0.22212611542E+03  0.22212611542E+03  0.00000000000E+00 0. -1.
         23    2    1    2    0    0 -0.43454479262E+02 -0.12571503288E+02  0.32251015460E+02  0.10711032193E+03  0.91575971754E+02 0.  0.
         23    2    1    2    0    0  0.43454479262E+02  0.12571503288E+02 -0.17093383422E+03  0.19845909014E+03  0.90118257382E+02 0.  0.
          5    1    3    3  502    0 -0.88267253800E+00  0.32592919434E+02 -0.67922193867E+01  0.33634829451E+02  0.47000000000E+01 0. -1.
         -5    1    4    4    0  503  0.60286795220E+02 -0.54578440316E+01 -0.62420843037E+02  0.87078914697E+02  0.47000000000E+01 0.  1.
          5    1    4    4  503    0 -0.16832315958E+02  0.18029347320E+02 -0.10851299119E+03  0.11138017544E+03  0.47000000000E+01 0. -1.
         -5    1    3    3    0  502 -0.42571806724E+02 -0.45164422722E+02  0.39043234847E+02  0.73475492478E+02  0.47000000000E+01 0.  1.
<mgrwt>
<rscale>  0 0.10181178E+03</rscale>
<asrwt>0</asrwt>
<pdfrwt beam="1">  1        2 0.34173248E-01 0.10213958E+03</pdfrwt>
<pdfrwt beam="2">  1       -2 0.12837430E-01 0.10213958E+03</pdfrwt>
<totfact> 0.62757859E+03</totfact>
</mgrwt>
</event>
<event>
 8    1  0.3466492E-004  0.1384564E+03  0.7546771E-02  0.1216406E+00
         -2   -1    0    0    0  501 -0.00000000000E+00  0.00000000000E+00  0.30128428925E+03  0.30128428925E+03  0.00000000000E+00 0.  1.
          2   -1    0    0  501    0  0.00000000000E+00 -0.00000000000E+00 -0.93414442260E+02  0.93414442260E+02  0.00000000000E+00 0. -1.
         23    2    1    2    0    0  0.49269841775E+02 -0.90961960571E+02  0.21850496641E+03  0.25867854179E+03  0.92024844779E+02 0.  0.
         23    2    1    2    0    0 -0.49269841775E+02  0.90961960571E+02 -0.10635119420E+02  0.13602018972E+03  0.87674344408E+02 0.  0.
          5    1    4    4  502    0  0.32118952482E+01  0.77285446459E+02 -0.21686367119E+02  0.80472013920E+02  0.47000000000E+01 0. -1.
         -5    1    3    3    0  503  0.67986184444E+02 -0.73159031131E+02  0.20726206828E+03  0.23011740494E+03  0.47000000000E+01 0.  1.
          5    1    3    3  503    0 -0.18716342669E+02 -0.17802929440E+02  0.11242898137E+02  0.28561136848E+02  0.47000000000E+01 0. -1.
         -5    1    4    4    0  502 -0.52481737023E+02  0.13676514112E+02  0.11051247699E+02  0.55548175802E+02  0.47000000000E+01 0.  1.
<mgrwt>
<rscale>  0 0.13773765E+03</rscale>
<asrwt>0</asrwt>
<pdfrwt beam="1">  1        2 0.14371453E-01 0.13845637E+03</pdfrwt>
<pdfrwt beam="2">  1       -2 0.46351429E-01 0.13845637E+03</pdfrwt>
<totfact> 0.17810574E+03</totfact>
</mgrwt>
</event>
<event>
 8    1  0.3466492E-004  0.9225620E+02  0.7546771E-02  0.1297847E+00
         -2   -1    0    0    0  501 -0.00000000000E+00  0.00000000000E+00  0.29603298173E+02  0.29603298173E+02  0.00000000000E+00 0.  1.
          2   -1    0    0  501    0  0.00000000000E+00 -0.00000000000E+00 -0.33739413254E+03  0.33739413254E+03  0.00000000000E+00 0. -1.
         23    2    1    2    0    0  0.56841520551E+01  0.74848834522E+01 -0.82414620009E+02  0.12370681217E+03  0.91776209995E+02 0.  0.
         23    2    1    2    0    0 -0.56841520551E+01 -0.74848834522E+01 -0.22537621436E+03  0.24329061854E+03  0.91145784365E+02 0.  0.
          5    1    3    3  502    0 -0.98473796647E+01 -0.38709382779E+02 -0.53201733688E+02  0.66692590808E+02  0.47000000000E+01 0. -1.
         -5    1    3    3    0  502  0.15531531720E+02  0.46194266231E+02 -0.29212886321E+02  0.57014221361E+02  0.47000000000E+01 0.  1.
          5    1    4    4  503    0  0.24401810385E+02  0.17087413498E+02 -0.18356567886E+03  0.18602654785E+03  0.47000000000E+01 0. -1.
         -5    1    4    4    0  503 -0.30085962440E+02 -0.24572296950E+02 -0.41810535492E+02  0.57264070686E+02  0.47000000000E+01 0.  1.
<mgrwt>
<rscale>  0 0.92099014E+02</rscale>
<asrwt>0</asrwt>
<pdfrwt beam="1">  1        2 0.51906793E-01 0.92256196E+02</pdfrwt>
<pdfrwt beam="2">  1       -2 0.45543533E-02 0.92256196E+02</pdfrwt>
<totfact> 0.19570411E+04</totfact>
</mgrwt>
</event>
<event>
 8    1  0.3466492E-004  0.1654636E+03  0.7546771E-02  0.1183828E+00
         -1   -1    0    0    0  501 -0.00000000000E+00  0.00000000000E+00  0.74268802306E+02  0.74268802306E+02  0.00000000000E+00 0.  1.
          1   -1    0    0  501    0  0.00000000000E+00 -0.00000000000E+00 -0.36261015053E+03  0.36261015053E+03  0.00000000000E+00 0. -1.
         23    2    1    2    0    0 -0.11207533599E+03 -0.78454714165E+02 -0.12118957950E+03  0.20168132115E+03  0.85278473312E+02 0.  0.
         23    2    1    2    0    0  0.11207533599E+03  0.78454714165E+02 -0.16715176873E+03  0.23519763168E+03  0.93070881848E+02 0.  0.
          5    1    3    3  502    0 -0.11732358378E+03 -0.45891115277E+02 -0.82686351786E+02  0.15076452018E+03  0.47000000000E+01 0. -1.
         -5    1    4    4    0  503  0.48340026007E+02  0.72871816609E+02 -0.47980133594E+02  0.99856111430E+02  0.47000000000E+01 0.  1.
          5    1    4    4  503    0  0.63735309985E+02  0.55828975559E+01 -0.11917163513E+03  0.13534152025E+03  0.47000000000E+01 0. -1.
         -5    1    3    3    0  502  0.52482477886E+01 -0.32563598888E+02 -0.38503227710E+02  0.50916800974E+02  0.47000000000E+01 0.  1.
<mgrwt>
<rscale>  0 0.16438964E+03</rscale>
<asrwt>0</asrwt>
<pdfrwt beam="1">  1        1 0.55786177E-01 0.16546363E+03</pdfrwt>
<pdfrwt beam="2">  1       -1 0.11425970E-01 0.16546363E+03</pdfrwt>
<totfact> 0.33253994E+03</totfact>
</mgrwt>
</event>
<event>
 8    1  0.3466492E-004  0.1928686E+03  0.7546771E-02  0.1155901E+00
         -1   -1    0    0    0  501 -0.00000000000E+00  0.00000000000E+00  0.23928439718E+03  0.23928439718E+03  0.00000000000E+00 0.  1.
          1   -1    0    0  501    0  0.00000000000E+00 -0.00000000000E+00 -0.16405868574E+03  0.16405868574E+03  0.00000000000E+00 0. -1.
         23    2    1    2    0    0 -0.80593427989E+02  0.14941285066E+03  0.83808009704E+02  0.21029042441E+03  0.91535673537E+02 0.  0.
         23    2    1    2    0    0  0.80593427989E+02 -0.14941285066E+03 -0.85822982624E+01  0.19305265851E+03  0.91521432116E+02 0.  0.
          5    1    4    4  502    0  0.25029251348E+02 -0.48918990111E+02 -0.46388368281E+02  0.72065954016E+02  0.47000000000E+01 0. -1.
         -5    1    4    4    0  502  0.55564176641E+02 -0.10049386055E+03  0.37806070018E+02  0.12098670449E+03  0.47000000000E+01 0.  1.
          5    1    3    3  503    0  0.10729683310E+02  0.38728671369E+02 -0.60581008799E+01  0.40912426917E+02  0.47000000000E+01 0. -1.
         -5    1    3    3    0  503 -0.91323111299E+02  0.11068417929E+03  0.89866110584E+02  0.16937799749E+03  0.47000000000E+01 0.  1.
<mgrwt>
<rscale>  0 0.19286687E+03</rscale>
<asrwt>0</asrwt>
<pdfrwt beam="1">  1        1 0.25239798E-01 0.19286856E+03</pdfrwt>
<pdfrwt beam="2">  1       -1 0.36812984E-01 0.19286856E+03</pdfrwt>
<totfact> 0.13422437E+03</totfact>
</mgrwt>
</event>
<event>
 8    1  0.3466492E-004  0.9824701E+02  0.7546771E-02  0.1285176E+00
         -1   -1    0    0    0  501 -0.00000000000E+00  0.00000000000E+00  0.13463265191E+03  0.13463265191E+03  0.00000000000E+00 0.  1.
          1   -1    0    0  501    0  0.00000000000E+00 -0.00000000000E+00 -0.71149963865E+02  0.71149963865E+02  0.00000000000E+00 0. -1.
         23    2    1    2    0    0  0.24546418866E+02  0.24772989385E+02  0.43525631865E+02  0.10552914298E+03  0.89586224984E+02 0.  0.
         23    2    1    2    0    0 -0.24546418866E+02 -0.24772989385E+02  0.19957056183E+02  0.10025347280E+03  0.91849044818E+02 0.  0.
          5    1    4    4  502    0 -0.55512094643E+02 -0.12339311316E+02 -0.64732223784E+01  0.57426856639E+02  0.47000000000E+01 0. -1.
         -5    1    4    4    0  502  0.30965675777E+02 -0.12433678069E+02  0.26430278562E+02  0.42826616158E+02  0.47000000000E+01 0.  1.
          5    1    3    3  503    0 -0.10338589553E+01 -0.31717745981E+02  0.52595530667E+01  0.32509032175E+02  0.47000000000E+01 0. -1.
         -5    1    3    3    0  503  0.25580277821E+02  0.56490735366E+02  0.38266078798E+02  0.73020110806E+02  0.47000000000E+01 0.  1.
<mgrwt>
<rscale>  0 0.97714671E+02</rscale>
<asrwt>0</asrwt>
<pdfrwt beam="1">  1        1 0.10946148E-01 0.98247009E+02</pdfrwt>
<pdfrwt beam="2">  1       -1 0.20712716E-01 0.98247009E+02</pdfrwt>
<totfact> 0.98657773E+03</totfact>
</mgrwt>
</event>
<event>
 8    1  0.3466492E-004  0.1001382E+03  0.7546771E-02  0.1282922E+00
          2   -1    0    0  501    0  0.00000000000E+00  0.00000000000E+00  0.47665724145E+02  0.47665724145E+02  0.00000000000E+00 0. -1.
         -2   -1    0    0    0  501 -0.00000000000E+00 -0.00000000000E+00 -0.20629207063E+03  0.20629207063E+03  0.00000000000E+00 0.  1.
         23    2    1    2    0    0  0.31925089380E+02 -0.28256318026E+00 -0.10497789940E+03  0.14507936075E+03  0.94912435334E+02 0.  0.
         23    2    1    2    0    0 -0.31925089380E+02  0.28256318026E+00 -0.53648447094E+02  0.10887843403E+03  0.89202389803E+02 0.  0.
          5    1    3    3  502    0 -0.23794605379E+02 -0.27490083894E+01 -0.80264886024E+02  0.83894470739E+02  0.47000000000E+01 0. -1.
         -5    1    3    3    0  502  0.55719694759E+02  0.24664452091E+01 -0.24713013372E+02  0.61184890013E+02  0.47000000000E+01 0.  1.
          5    1    4    4  503    0 -0.18946618046E+02 -0.17569681913E+02  0.19252944884E+02  0.32564304762E+02  0.47000000000E+01 0. -1.
         -5    1    4    4    0  503 -0.12978471334E+02  0.17852245093E+02 -0.72901391979E+02  0.76314129265E+02  0.47000000000E+01 0.  1.
<mgrwt>
<rscale>  0 0.98761435E+02</rscale>
<asrwt>0</asrwt>
<pdfrwt beam="1">  1        2 0.73331883E-02 0.10013821E+03</pdfrwt>
<pdfrwt beam="2">  1       -2 0.31737242E-01 0.10013821E+03</pdfrwt>
<totfact> 0.80334876E+03</totfact>
</mgrwt>
</event>
<event>
 8    1  0.3466492E-004  0.9739082E+02  0.7546771E-02  0.1288178E+00
         -4   -1    0    0    0  501 -0.00000000000E+00  0.00000000000E+00  0.15117391573E+03  0.15117391573E+03  0.00000000000E+00 0.  1.
          4   -1    0    0  501    0  0.00000000000E+00 -0.00000000000E+00 -0.61260186777E+02  0.61260186777E+02  0.00000000000E+00 0. -1.
         23    2    1    2    0    0 -0.13175369544E+02 -0.19971871227E+02  0.58521974516E+02  0.11010906075E+03  0.90148309772E+02 0.  0.
         23    2    1    2    0    0  0.13175369544E+02  0.19971871227E+02  0.31391754440E+02  0.10232504176E+03  0.94406069305E+02 0.  0.
          5    1    3    3  502    0 -0.24569676142E+02 -0.42745306891E+02  0.66587711727E+02  0.82987008622E+02  0.47000000000E+01 0.  1.
         -5    1    3    3    0  502  0.11394306598E+02  0.22773435664E+02 -0.80657372112E+01  0.27122052127E+02  0.47000000000E+01 0. -1.
          5    1    4    4  503    0 -0.35878214992E+02  0.81983355546E+01 -0.82336419350E+01  0.38004498107E+02  0.47000000000E+01 0. -1.
         -5    1    4    4    0  503  0.49053584536E+02  0.11773535672E+02  0.39625396375E+02  0.64320543654E+02  0.47000000000E+01 0.  1.
<mgrwt>
<rscale>  0 0.96343702E+02</rscale>
<asrwt>0</asrwt>
<pdfrwt beam="1">  1        4 0.94246441E-02 0.97390821E+02</pdfrwt>
<pdfrwt beam="2">  1       -4 0.23257526E-01 0.97390821E+02</pdfrwt>
<totfact> 0.21756477E+03</totfact>
</mgrwt>
</event>
<event>
 8    1  0.3466492E-004  0.9550564E+02  0.7546771E-02  0.1290389E+00
         -1   -1    0    0    0  501 -0.00000000000E+00  0.00000000000E+00  0.23848706215E+02  0.23848706215E+02  0.00000000000E+00 0.  1.
          1   -1    0    0  501    0  0.00000000000E+00 -0.00000000000E+00 -0.38013092553E+03  0.38013092553E+03  0.00000000000E+00 0. -1.
         23    2    1    2    0    0  0.21996397077E+02 -0.75008552352E+01 -0.17368097961E+03  0.19791037198E+03  0.91996349615E+02 0.  0.
         23    2    1    2    0    0 -0.21996397077E+02  0.75008552352E+01 -0.18260123970E+03  0.20606925977E+03  0.92634889582E+02 0.  0.
          5    1    3    3  502    0  0.48945788833E+02 -0.31373124182E+02 -0.11394497147E+03  0.12800589709E+03  0.47000000000E+01 0. -1.
         -5    1    3    3    0  502 -0.26949391756E+02  0.23872268947E+02 -0.59736008144E+02  0.69904474890E+02  0.47000000000E+01 0.  1.
          5    1    4    4  503    0  0.26178603354E+02 -0.14661725536E+02 -0.12052097731E+03  0.12428870199E+03  0.47000000000E+01 0. -1.
         -5    1    4    4    0  503 -0.48175000431E+02  0.22162580771E+02 -0.62080262388E+02  0.81780557782E+02  0.47000000000E+01 0.  1.
<mgrwt>
<rscale>  0 0.95350456E+02</rscale>
<asrwt>0</asrwt>
<pdfrwt beam="1">  1        1 0.58481680E-01 0.95505639E+02</pdfrwt>
<pdfrwt beam="2">  1       -1 0.36690317E-02 0.95505639E+02</pdfrwt>
<totfact> 0.16471253E+04</totfact>
</mgrwt>
</event>
<event>
 8    1  0.3466492E-004  0.1099917E+03  0.7546771E-02  0.1261501E+00
         -1   -1    0    0    0  501 -0.00000000000E+00  0.00000000000E+00  0.86740147302E+02  0.86740147302E+02  0.00000000000E+00 0.  1.
          1   -1    0    0  501    0  0.00000000000E+00 -0.00000000000E+00 -0.27297482229E+03  0.27297482229E+03  0.00000000000E+00 0. -1.
         23    2    1    2    0    0 -0.29962954125E+02 -0.52248753412E+02  0.34237201002E+02  0.11332905818E+03  0.89686000257E+02 0.  0.
         23    2    1    2    0    0  0.29962954125E+02  0.52248753412E+02 -0.22047187599E+03  0.24638591142E+03  0.92035093242E+02 0.  0.
          5    1    4    4  502    0  0.16173018741E+02  0.73574325675E+02 -0.19888534304E+03  0.21272568630E+03  0.47000000000E+01 0. -1.
         -5    1    4    4    0  502  0.13789935383E+02 -0.21325572263E+02 -0.21586532949E+02  0.33660225117E+02  0.47000000000E+01 0.  1.
          5    1    3    3  503    0 -0.15457045478E+02 -0.35904420893E+02 -0.27265056088E+02  0.47890719123E+02  0.47000000000E+01 0. -1.
         -5    1    3    3    0  503 -0.14505908647E+02 -0.16344332518E+02  0.61502257090E+02  0.65438339056E+02  0.47000000000E+01 0.  1.
<mgrwt>
<rscale>  0 0.10949889E+03</rscale>
<asrwt>0</asrwt>
<pdfrwt beam="1">  1        1 0.41996126E-01 0.10999168E+03</pdfrwt>
<pdfrwt beam="2">  1       -1 0.13344638E-01 0.10999168E+03</pdfrwt>
<totfact> 0.36491197E+03</totfact>
</mgrwt>
</event>
<event>
 8    1  0.3466492E-004  0.1050388E+03  0.7546771E-02  0.1270154E+00
          1   -1    0    0  501    0  0.00000000000E+00  0.00000000000E+00  0.52401674381E+02  0.52401674381E+02  0.00000000000E+00 0. -1.
         -1   -1    0    0    0  501 -0.00000000000E+00 -0.00000000000E+00 -0.27331600868E+03  0.27331600868E+03  0.00000000000E+00 0.  1.
         23    2    1    2    0    0  0.51299981289E+02  0.44895991786E+01 -0.18887139506E+03  0.21611467844E+03  0.91549471785E+02 0.  0.
         23    2    1    2    0    0 -0.51299981289E+02 -0.44895991786E+01 -0.32042939242E+02  0.10960300462E+03  0.91291971642E+02 0.  0.
          5    1    3    3  502    0 -0.77429467324E+01  0.35061091641E+02 -0.88557678231E+02  0.95675418708E+02  0.47000000000E+01 0. -1.
         -5    1    3    3    0  502  0.59042928021E+02 -0.30571492463E+02 -0.10031371683E+03  0.12043925973E+03  0.47000000000E+01 0.  1.
          5    1    4    4  503    0 -0.36640467140E+02 -0.34365657865E+02  0.14220851517E+02  0.52419890219E+02  0.47000000000E+01 0. -1.
         -5    1    4    4    0  503 -0.14659514149E+02  0.29876058686E+02 -0.46263790759E+02  0.57183114405E+02  0.47000000000E+01 0.  1.
<mgrwt>
<rscale>  0 0.10498267E+03</rscale>
<asrwt>0</asrwt>
<pdfrwt beam="1">  1        1 0.80617958E-02 0.10503880E+03</pdfrwt>
<pdfrwt beam="2">  1       -1 0.42048618E-01 0.10503880E+03</pdfrwt>
<totfact> 0.45586983E+03</totfact>
</mgrwt>
</event>
<event>
 8    1  0.3466492E-004  0.1265235E+03  0.7546771E-02  0.1233066E+00
          1   -1    0    0  501    0  0.00000000000E+00  0.00000000000E+00  0.67495895120E+03  0.67495895120E+03  0.00000000000E+00 0. -1.
         -1   -1    0    0    0  501 -0.00000000000E+00 -0.00000000000E+00 -0.11139301514E+03  0.11139301514E+03  0.00000000000E+00 0.  1.
         23    2    1    2    0    0  0.37934655855E+02  0.78854887619E+02 -0.67159704618E+02  0.14324324004E+03  0.91384180664E+02 0.  0.
         23    2    1    2    0    0 -0.37934655855E+02 -0.78854887619E+02  0.63072564068E+03  0.64310872630E+03  0.90093665782E+02 0.  0.
          5    1    4    4  502    0 -0.64308378322E+02 -0.33759730274E+02  0.34228278456E+03  0.34993553909E+03  0.47000000000E+01 0. -1.
         -5    1    3    3    0  503  0.57476102316E+02  0.73489347174E+02 -0.76209217192E+02  0.12055754340E+03  0.47000000000E+01 0.  1.
          5    1    3    3  503    0 -0.19541446462E+02  0.53655404453E+01  0.90495125736E+01  0.22685696637E+02  0.47000000000E+01 0. -1.
         -5    1    4    4    0  502  0.26373722467E+02 -0.45095157345E+02  0.28844285612E+03  0.29317318721E+03  0.47000000000E+01 0.  1.
<mgrwt>
<rscale>  0 0.12629064E+03</rscale>
<asrwt>0</asrwt>
<pdfrwt beam="1">  1        1 0.10383984E+00 0.12652352E+03</pdfrwt>
<pdfrwt beam="2">  1       -1 0.17137387E-01 0.12652352E+03</pdfrwt>
<totfact> 0.77589606E+02</totfact>
</mgrwt>
</event>
<event>
 8    1  0.3466492E-004  0.1045638E+03  0.7546771E-02  0.1273487E+00
         -1   -1    0    0    0  501 -0.00000000000E+00  0.00000000000E+00  0.11699082709E+03  0.11699082709E+03  0.00000000000E+00 0.  1.
          1   -1    0    0  501    0  0.00000000000E+00 -0.00000000000E+00 -0.24524132286E+03  0.24524132286E+03  0.00000000000E+00 0. -1.
         23    2    1    2    0    0  0.40486787975E+02 -0.18980516897E+02  0.79812573714E+02  0.13154330583E+03  0.94520655753E+02 0.  0.
         23    2    1    2    0    0 -0.40486787975E+02  0.18980516897E+02 -0.20806306948E+03  0.23068884412E+03  0.89037418523E+02 0.  0.
          5    1    4    4  502    0 -0.67904212901E+02  0.19358313496E+02 -0.16346368145E+03  0.17812409041E+03  0.47000000000E+01 0. -1.
         -5    1    4    4    0  502  0.27417424926E+02 -0.37779659860E+00 -0.44599388027E+02  0.52564753706E+02  0.47000000000E+01 0.  1.
          5    1    3    3  503    0  0.21458785589E+02  0.35368122487E+02  0.13899956756E+02  0.43893990078E+02  0.47000000000E+01 0. -1.
         -5    1    3    3    0  503  0.19028002386E+02 -0.54348639384E+02  0.65912616958E+02  0.87649315753E+02  0.47000000000E+01 0.  1.
<mgrwt>
<rscale>  0 0.10330918E+03</rscale>
<asrwt>0</asrwt>
<pdfrwt beam="1">  1        1 0.37729434E-01 0.10456383E+03</pdfrwt>
<pdfrwt beam="2">  1       -1 0.17998589E-01 0.10456383E+03</pdfrwt>
<totfact> 0.26013680E+03</totfact>
</mgrwt>
</event>
<event>
 8    1  0.3466492E-004  0.9107653E+02  0.7546771E-02  0.1300731E+00
         -1   -1    0    0    0  501 -0.00000000000E+00  0.00000000000E+00  0.16503596179E+02  0.16503596179E+02  0.00000000000E+00 0.  1.
          1   -1    0    0  501    0  0.00000000000E+00 -0.00000000000E+00 -0.49876632914E+03  0.49876632914E+03  0.00000000000E+00 0. -1.
         23    2    1    2    0    0  0.42687855567E+01 -0.26476160509E+02 -0.23451595575E+03  0.25158034034E+03  0.87038638199E+02 0.  0.
         23    2    1    2    0    0 -0.42687855567E+01  0.26476160509E+02 -0.24774677721E+03  0.26368958498E+03  0.86223674257E+02 0.  0.
          5    1    3    3  502    0 -0.35166112591E+02  0.68922934331E+01 -0.65826141366E+02  0.75095473037E+02  0.47000000000E+01 0. -1.
         -5    1    4    4    0  503  0.25341329792E+02  0.42124125475E+02 -0.93082525104E+02  0.10537111285E+03  0.47000000000E+01 0.  1.
          5    1    4    4  503    0 -0.29610115349E+02 -0.15647964967E+02 -0.15466425211E+03  0.15831847213E+03  0.47000000000E+01 0. -1.
         -5    1    3    3    0  502  0.39434898148E+02 -0.33368453942E+02 -0.16868981439E+03  0.17648486731E+03  0.47000000000E+01 0.  1.
<mgrwt>
<rscale>  0 0.90881274E+02</rscale>
<asrwt>0</asrwt>
<pdfrwt beam="1">  1        1 0.76733278E-01 0.91076529E+02</pdfrwt>
<pdfrwt beam="2">  1       -1 0.25390149E-02 0.91076529E+02</pdfrwt>
<totfact> 0.19808439E+04</totfact>
</mgrwt>
</event>
<event>
 8    1  0.3466492E-004  0.1029838E+03  0.7546771E-02  0.1274639E+00
         -2   -1    0    0    0  501 -0.00000000000E+00  0.00000000000E+00  0.92346940602E+01  0.92346940602E+01  0.00000000000E+00 0.  1.
          2   -1    0    0  501    0  0.00000000000E+00 -0.00000000000E+00 -0.11438748678E+04  0.11438748678E+04  0.00000000000E+00 0. -1.
         23    2    1    2    0    0  0.36652983208E+02 -0.28860718640E+02 -0.52198627538E+03  0.53186044857E+03  0.90716496889E+02 0.  0.
         23    2    1    2    0    0 -0.36652983208E+02  0.28860718640E+02 -0.61265389831E+03  0.62124911324E+03  0.91811106797E+02 0.  0.
          5    1    3    3  502    0  0.59491928430E+02 -0.13884986433E+02 -0.45867994039E+03  0.46275421134E+03  0.47000000000E+01 0. -1.
         -5    1    3    3    0  502 -0.22838945222E+02 -0.14975732207E+02 -0.63306334991E+02  0.69106237229E+02  0.47000000000E+01 0.  1.
          5    1    4    4  503    0  0.14418378004E+02  0.43883721294E+02 -0.21049766626E+03  0.21555748217E+03  0.47000000000E+01 0. -1.
         -5    1    4    4    0  503 -0.51071361212E+02 -0.15023002654E+02 -0.40215623205E+03  0.40569163107E+03  0.47000000000E+01 0.  1.
<mgrwt>
<rscale>  0 0.10273926E+03</rscale>
<asrwt>0</asrwt>
<pdfrwt beam="1">  1        2 0.17598079E+00 0.10298379E+03</pdfrwt>
<pdfrwt beam="2">  1       -2 0.14207219E-02 0.10298379E+03</pdfrwt>
<totfact> 0.25637226E+04</totfact>
</mgrwt>
</event>
<event>
 8    1  0.3466492E-004  0.9767651E+02  0.7546771E-02  0.1288472E+00
          1   -1    0    0  501    0  0.00000000000E+00  0.00000000000E+00  0.30223605010E+03  0.30223605010E+03  0.00000000000E+00 0. -1.
         -1   -1    0    0    0  501 -0.00000000000E+00 -0.00000000000E+00 -0.30974145483E+02  0.30974145483E+02  0.00000000000E+00 0.  1.
         23    2    1    2    0    0  0.11076446726E+02  0.31840317169E+02  0.98480192389E+02  0.13473042080E+03  0.85542062908E+02 0.  0.
         23    2    1    2    0    0 -0.11076446726E+02 -0.31840317169E+02  0.17278171223E+03  0.19847977478E+03  0.91674464534E+02 0.  0.
          5    1    3    3  502    0  0.37100631848E+02  0.36438710661E+01  0.86420808814E+02  0.94235772804E+02  0.47000000000E+01 0. -1.
         -5    1    3    3    0  502 -0.26024185123E+02  0.28196446103E+02  0.12059383575E+02  0.40494647997E+02  0.47000000000E+01 0.  1.
          5    1    4    4  503    0  0.16490666720E+02 -0.54449619718E+02  0.13366432080E+03  0.14534422531E+03  0.47000000000E+01 0. -1.
         -5    1    4    4    0  503 -0.27567113446E+02  0.22609302549E+02  0.39117391427E+02  0.53135549471E+02  0.47000000000E+01 0.  1.
<mgrwt>
<rscale>  0 0.96211057E+02</rscale>
<asrwt>0</asrwt>
<pdfrwt beam="1">  1        1 0.46497852E-01 0.97676512E+02</pdfrwt>
<pdfrwt beam="2">  1       -1 0.47652533E-02 0.97676512E+02</pdfrwt>
<totfact> 0.14956385E+04</totfact>
</mgrwt>
</event>
<event>
 8    1  0.3466492E-004  0.9834452E+02  0.7546771E-02  0.1284882E+00
          1   -1    0    0  501    0  0.00000000000E+00  0.00000000000E+00  0.83609855029E+03  0.83609855029E+03  0.00000000000E+00 0. -1.
         -1   -1    0    0    0  501 -0.00000000000E+00 -0.00000000000E+00 -0.14923083446E+02  0.14923083446E+02  0.00000000000E+00 0.  1.
         23    2    1    2    0    0  0.23675305076E+02 -0.22518958419E+02  0.20518025941E+03  0.22753149873E+03  0.92757859522E+02 0.  0.
         23    2    1    2    0    0 -0.23675305076E+02  0.22518958419E+02  0.61599520743E+03  0.62349013501E+03  0.90676509153E+02 0.  0.
          5    1    3    3  502    0 -0.15373664681E+02  0.26219261825E+02  0.10476856633E+03  0.10918947635E+03  0.47000000000E+01 0. -1.
         -5    1    3    3    0  502  0.39048969757E+02 -0.48738220244E+02  0.10041169308E+03  0.11834202237E+03  0.47000000000E+01 0.  1.
          5    1    4    4  503    0 -0.43342252937E+02 -0.17116248651E+02  0.41466633084E+03  0.41730297482E+03  0.47000000000E+01 0. -1.
         -5    1    4    4    0  503  0.19666947861E+02  0.39635207070E+02  0.20132887659E+03  0.20618716019E+03  0.47000000000E+01 0.  1.
<mgrwt>
<rscale>  0 0.97850651E+02</rscale>
<asrwt>0</asrwt>
<pdfrwt beam="1">  1        1 0.12863051E+00 0.98344517E+02</pdfrwt>
<pdfrwt beam="2">  1       -1 0.22958596E-02 0.98344517E+02</pdfrwt>
<totfact> 0.11287542E+04</totfact>
</mgrwt>
</event>
<event>
 8    1  0.3466492E-004  0.1193277E+03  0.7546771E-02  0.1248050E+00
         -1   -1    0    0    0  501 -0.00000000000E+00  0.00000000000E+00  0.34816296361E+03  0.34816296361E+03  0.00000000000E+00 0.  1.
          1   -1    0    0  501    0  0.00000000000E+00 -0.00000000000E+00 -0.41303097259E+02  0.41303097259E+02  0.00000000000E+00 0. -1.
         23    2    1    2    0    0  0.17997232756E+02 -0.58848189834E+02  0.92267524729E+02  0.14392794209E+03  0.91733017829E+02 0.  0.
         23    2    1    2    0    0 -0.17997232756E+02  0.58848189834E+02  0.21459234163E+03  0.24553811879E+03  0.10223543837E+03 0.  0.
          5    1    4    4  502    0 -0.59357478976E+02  0.28236874182E+02  0.99055139323E+02  0.11897328272E+03  0.47000000000E+01 0. -1.
         -5    1    4    4    0  502  0.41360246220E+02  0.30611315653E+02  0.11553720230E+03  0.12656483607E+03  0.47000000000E+01 0.  1.
          5    1    3    3  503    0 -0.80648110776E+01 -0.64186047891E+02  0.21746783280E+02  0.68409812926E+02  0.47000000000E+01 0. -1.
         -5    1    3    3    0  503  0.26062043834E+02  0.53378580565E+01  0.70520741449E+02  0.75518129161E+02  0.47000000000E+01 0.  1.
<mgrwt>
<rscale>  0 0.11704681E+03</rscale>
<asrwt>0</asrwt>
<pdfrwt beam="1">  1        1 0.63543229E-02 0.11932768E+03</pdfrwt>
<pdfrwt beam="2">  1       -1 0.53563531E-01 0.11932768E+03</pdfrwt>
<totfact> 0.40932469E+03</totfact>
</mgrwt>
</event>
<event>
 8    1  0.3466492E-004  0.1474145E+03  0.7546771E-02  0.1203791E+00
          1   -1    0    0  501    0  0.00000000000E+00  0.00000000000E+00  0.69729840783E+03  0.69729840783E+03  0.00000000000E+00 0. -1.
         -1   -1    0    0    0  501 -0.00000000000E+00 -0.00000000000E+00 -0.31164843961E+02  0.31164843961E+02  0.00000000000E+00 0.  1.
         23    2    1    2    0    0  0.59209001298E+02  0.99471816219E+02  0.31540877611E+03  0.34801756272E+03  0.90736871525E+02 0.  0.
         23    2    1    2    0    0 -0.59209001298E+02 -0.99471816219E+02  0.35072478776E+03  0.38044568908E+03  0.91272654896E+02 0.  0.
          5    1    3    3  502    0  0.59686874114E+02  0.74732978900E+02  0.30680679018E+03  0.32140323206E+03  0.47000000000E+01 0. -1.
         -5    1    4    4    0  503 -0.40005009508E+02  0.43954564448E+01  0.11978583431E+03  0.12645337846E+03  0.47000000000E+01 0.  1.
          5    1    4    4  503    0 -0.19203991790E+02 -0.10386727266E+03  0.23093895345E+03  0.25399231062E+03  0.47000000000E+01 0. -1.
         -5    1    3    3    0  502 -0.47787281592E+00  0.24738837318E+02  0.86019859278E+01  0.26614330655E+02  0.47000000000E+01 0.  1.
<mgrwt>
<rscale>  0 0.14733168E+03</rscale>
<asrwt>0</asrwt>
<pdfrwt beam="1">  1        1 0.10727667E+00 0.14741454E+03</pdfrwt>
<pdfrwt beam="2">  1       -1 0.47945919E-02 0.14741454E+03</pdfrwt>
<totfact> 0.51690027E+03</totfact>
</mgrwt>
</event>
<event>
 8    1  0.3466492E-004  0.9310663E+02  0.7546771E-02  0.1295656E+00
          1   -1    0    0  501    0  0.00000000000E+00  0.00000000000E+00  0.15477933286E+03  0.15477933286E+03  0.00000000000E+00 0. -1.
         -1   -1    0    0    0  501 -0.00000000000E+00 -0.00000000000E+00 -0.79550445091E+02  0.79550445091E+02  0.00000000000E+00 0.  1.
         23    2    1    2    0    0  0.13147515970E+02 -0.14028210642E+02 -0.26384741841E+02  0.96510422302E+02  0.90821028077E+02 0.  0.
         23    2    1    2    0    0 -0.13147515970E+02  0.14028210642E+02  0.10161362961E+03  0.13781935565E+03  0.91099929742E+02 0.  0.
          5    1    4    4  502    0 -0.48003473521E+02  0.95085456403E+00  0.82834487515E+02  0.95858645496E+02  0.47000000000E+01 0. -1.
         -5    1    3    3    0  503  0.44802235489E+02  0.11774421349E+02 -0.29766832561E+02  0.55263293637E+02  0.47000000000E+01 0.  1.
          5    1    3    3  503    0 -0.31654719519E+02 -0.25802631991E+02  0.33820907201E+01  0.41247128665E+02  0.47000000000E+01 0. -1.
         -5    1    4    4    0  502  0.34855957552E+02  0.13077356078E+02  0.18779142100E+02  0.41960710156E+02  0.47000000000E+01 0.  1.
<mgrwt>
<rscale>  0 0.93038340E+02</rscale>
<asrwt>0</asrwt>
<pdfrwt beam="1">  1        1 0.23812205E-01 0.93106633E+02</pdfrwt>
<pdfrwt beam="2">  1       -1 0.12238530E-01 0.93106633E+02</pdfrwt>
<totfact> 0.82879523E+03</totfact>
</mgrwt>
</event>
<event>
 8    1  0.3466492E-004  0.1105189E+03  0.7546771E-02  0.1266245E+00
         -2   -1    0    0    0  501 -0.00000000000E+00  0.00000000000E+00  0.61457629389E+03  0.61457629389E+03  0.00000000000E+00 0.  1.
          2   -1    0    0  501    0  0.00000000000E+00 -0.00000000000E+00 -0.18065396579E+02  0.18065396579E+02  0.00000000000E+00 0. -1.
         23    2    1    2    0    0 -0.40837999754E+02 -0.83982510267E+01  0.37135887165E+03  0.38745558734E+03  0.10235305449E+03 0.  0.
         23    2    1    2    0    0  0.40837999754E+02  0.83982510267E+01  0.22515202566E+03  0.24518610313E+03  0.87661380686E+02 0.  0.
          5    1    4    4  502    0  0.56294244208E+02 -0.10467199126E+02  0.83391266709E+02  0.10126597430E+03  0.47000000000E+01 0. -1.
         -5    1    3    3    0  503 -0.65796439064E+02 -0.31717232331E+02  0.28996623537E+03  0.29906130120E+03  0.47000000000E+01 0.  1.
          5    1    3    3  503    0  0.24958439311E+02  0.23318981304E+02  0.81392636277E+02  0.88394286139E+02  0.47000000000E+01 0. -1.
         -5    1    4    4    0  502 -0.15456244454E+02  0.18865450152E+02  0.14176075895E+03  0.14392012882E+03  0.47000000000E+01 0.  1.
<mgrwt>
<rscale>  0 0.10699162E+03</rscale>
<asrwt>0</asrwt>
<pdfrwt beam="1">  1        2 0.27792923E-02 0.11051887E+03</pdfrwt>
<pdfrwt beam="2">  1       -2 0.94550183E-01 0.11051887E+03</pdfrwt>
<totfact> 0.31796941E+03</totfact>
</mgrwt>
</event>
<event>
 7    1  0.3466492E-004  0.2309412E+03  0.7546771E-02  0.1135920E+00
          1   -1    0    0  501    0  0.00000000000E+00  0.00000000000E+00  0.12492713994E+04  0.12492713994E+04  0.00000000000E+00 0. -1.
         -1   -1    0    0    0  501 -0.00000000000E+00 -0.00000000000E+00 -0.52409684633E+02  0.52409684633E+02  0.00000000000E+00 0.  1.
         23    2    1    2    0    0  0.61437187386E+02 -0.14375389864E+03  0.93575482373E+03  0.95309733578E+03  0.91201589703E+02 0.  0.
          5    1    1    2  502    0  0.48288580209E+02 -0.18579972417E+01  0.55598119289E+02  0.73813819850E+02  0.47000000000E+01 0. -1.
         -5    1    3    3    0  503  0.30576732533E+02 -0.14519337560E+03  0.81195093614E+03  0.82541048309E+03  0.47000000000E+01 0.  1.
          5    1    3    3  503    0  0.30860454853E+02  0.14394769630E+01  0.12380388759E+03  0.12768685269E+03  0.47000000000E+01 0. -1.
         -5    1    1    2    0  502 -0.10972576759E+03  0.14561189588E+03  0.20550877178E+03  0.27476992844E+03  0.47000000000E+01 0.  1.
<mgrwt>
<rscale>  0 0.21729001E+03</rscale>
<asrwt>0</asrwt>
<pdfrwt beam="1">  1        1 0.19219558E+00 0.23094116E+03</pdfrwt>
<pdfrwt beam="2">  1       -1 0.80630294E-02 0.23094116E+03</pdfrwt>
<totfact> 0.90334723E+02</totfact>
</mgrwt>
</event>
<event>
 8    1  0.3466492E-004  0.1066702E+03  0.7546771E-02  0.1267008E+00
          1   -1    0    0  501    0  0.00000000000E+00  0.00000000000E+00  0.12976095258E+03  0.12976095258E+03  0.00000000000E+00 0. -1.
         -1   -1    0    0    0  501 -0.00000000000E+00 -0.00000000000E+00 -0.14965092526E+03  0.14965092526E+03  0.00000000000E+00 0.  1.
         23    2    1    2    0    0 -0.15501718863E+02  0.52476686301E+02 -0.10001142909E+03  0.14600279291E+03  0.91216356522E+02 0.  0.
         23    2    1    2    0    0  0.15501718863E+02 -0.52476686301E+02  0.80121456409E+02  0.13340908493E+03  0.91566534669E+02 0.  0.
          5    1    3    3  502    0  0.34745153683E+01  0.42861631341E+02  0.39485052383E+00  0.43260115640E+02  0.47000000000E+01 0. -1.
         -5    1    3    3    0  502 -0.18976234232E+02  0.96150549600E+01 -0.10040627961E+03  0.10274267727E+03  0.47000000000E+01 0.  1.
          5    1    4    4  503    0  0.10350785321E+02 -0.78418126078E+02  0.65625737035E+02  0.10288522059E+03  0.47000000000E+01 0. -1.
         -5    1    4    4    0  503  0.51509335419E+01  0.25941439776E+02  0.14495719374E+02  0.30523864339E+02  0.47000000000E+01 0.  1.
<mgrwt>
<rscale>  0 0.10659503E+03</rscale>
<asrwt>0</asrwt>
<pdfrwt beam="1">  1        1 0.19963224E-01 0.10667022E+03</pdfrwt>
<pdfrwt beam="2">  1       -1 0.23023219E-01 0.10667022E+03</pdfrwt>
<totfact> 0.38714189E+03</totfact>
</mgrwt>
</event>
<event>
 8    1  0.3466492E-004  0.9469558E+02  0.7546771E-02  0.1292310E+00
         -4   -1    0    0    0  501 -0.00000000000E+00  0.00000000000E+00  0.13321032826E+03  0.13321032826E+03  0.00000000000E+00 0.  1.
          4   -1    0    0  501    0  0.00000000000E+00 -0.00000000000E+00 -0.67852252139E+02  0.67852252139E+02  0.00000000000E+00 0. -1.
         23    2    1    2    0    0 -0.10414281511E+02 -0.23682863239E+02  0.45305117078E+02  0.10426705671E+03  0.90275856193E+02 0.  0.
         23    2    1    2    0    0  0.10414281511E+02  0.23682863239E+02  0.20052959042E+02  0.96795523685E+02  0.91092902954E+02 0.  0.
          5    1    3    3  502    0 -0.24636134749E+02  0.27590724514E+02  0.55877363670E+01  0.37702785206E+02  0.47000000000E+01 0. -1.
         -5    1    3    3    0  502  0.14221853238E+02 -0.51273587754E+02  0.39717380710E+02  0.66564271506E+02  0.47000000000E+01 0.  1.
          5    1    4    4  503    0  0.40007780283E+02  0.37445121193E+02  0.29612589733E+02  0.62464030089E+02  0.47000000000E+01 0. -1.
         -5    1    4    4    0  503 -0.29593498772E+02 -0.13762257953E+02 -0.95596306913E+01  0.34331493596E+02  0.47000000000E+01 0.  1.
<mgrwt>
<rscale>  0 0.94498538E+02</rscale>
<asrwt>0</asrwt>
<pdfrwt beam="1">  1        4 0.10438808E-01 0.94695577E+02</pdfrwt>
<pdfrwt beam="2">  1       -4 0.20493897E-01 0.94695577E+02</pdfrwt>
<totfact> 0.22874477E+03</totfact>
</mgrwt>
</event>
<event>
 8    1  0.3466492E-004  0.9444367E+02  0.7546771E-02  0.1293491E+00
          1   -1    0    0  501    0  0.00000000000E+00  0.00000000000E+00  0.28228847979E+02  0.28228847979E+02  0.00000000000E+00 0. -1.
         -1   -1    0    0    0  501 -0.00000000000E+00 -0.00000000000E+00 -0.36887474489E+03  0.36887474489E+03  0.00000000000E+00 0.  1.
         23    2    1    2    0    0 -0.84141522144E+01  0.29213799276E+02 -0.25115751844E+03  0.26832760962E+03  0.89416793676E+02 0.  0.
         23    2    1    2    0    0  0.84141522144E+01 -0.29213799276E+02 -0.89488378476E+02  0.12877598325E+03  0.87469079991E+02 0.  0.
          5    1    3    3  502    0  0.21005735185E+02 -0.12761233109E+02 -0.21558758850E+02  0.33029684593E+02  0.47000000000E+01 0. -1.
         -5    1    4    4    0  503  0.25165632331E+02  0.17064621032E+02 -0.68446984806E+02  0.75043920944E+02  0.47000000000E+01 0.  1.
          5    1    4    4  503    0 -0.16751480117E+02 -0.46278420308E+02 -0.21041393670E+02  0.53732062308E+02  0.47000000000E+01 0. -1.
         -5    1    3    3    0  502 -0.29419887400E+02  0.41975032385E+02 -0.22959875959E+03  0.23529792503E+03  0.47000000000E+01 0.  1.
<mgrwt>
<rscale>  0 0.93979784E+02</rscale>
<asrwt>0</asrwt>
<pdfrwt beam="1">  1        1 0.43429000E-02 0.94443671E+02</pdfrwt>
<pdfrwt beam="2">  1       -1 0.56749957E-01 0.94443671E+02</pdfrwt>
<totfact> 0.60508821E+03</totfact>
</mgrwt>
</event>
<event>
 8    1  0.3466492E-004  0.1384394E+03  0.7546771E-02  0.1215726E+00
          1   -1    0    0  501    0  0.00000000000E+00  0.00000000000E+00  0.94889533008E+03  0.94889533008E+03  0.00000000000E+00 0. -1.
         -1   -1    0    0    0  501 -0.00000000000E+00 -0.00000000000E+00 -0.20294143158E+02  0.20294143158E+02  0.00000000000E+00 0.  1.
         23    2    1    2    0    0  0.15328122160E+02  0.10343730003E+03  0.51295146384E+03  0.53109111331E+03  0.89466977261E+02 0.  0.
         23    2    1    2    0    0 -0.15328122160E+02 -0.10343730003E+03  0.41564972309E+03  0.43809835993E+03  0.90726260274E+02 0.  0.
          5    1    3    3  502    0 -0.33630829076E+02  0.17478741889E+02  0.12547682628E+03  0.13116044760E+03  0.47000000000E+01 0. -1.
         -5    1    4    4    0  503  0.21308100673E+02 -0.43622803727E+00  0.29195335822E+02  0.36451105373E+02  0.47000000000E+01 0.  1.
          5    1    4    4  503    0 -0.36636222834E+02 -0.10300107199E+03  0.38645438726E+03  0.40164725455E+03  0.47000000000E+01 0. -1.
         -5    1    3    3    0  502  0.48958951237E+02  0.85958558139E+02  0.38747463756E+03  0.39993066571E+03  0.47000000000E+01 0.  1.
<mgrwt>
<rscale>  0 0.13823349E+03</rscale>
<asrwt>0</asrwt>
<pdfrwt beam="1">  1        1 0.14598386E+00 0.13843945E+03</pdfrwt>
<pdfrwt beam="2">  1       -1 0.31221766E-02 0.13843945E+03</pdfrwt>
<totfact> 0.60494564E+03</totfact>
</mgrwt>
</event>
<event>
 8    1  0.3466492E-004  0.2279793E+03  0.7546771E-02  0.1128236E+00
          1   -1    0    0  501    0  0.00000000000E+00  0.00000000000E+00  0.30354111966E+03  0.30354111966E+03  0.00000000000E+00 0. -1.
         -1   -1    0    0    0  501 -0.00000000000E+00 -0.00000000000E+00 -0.18447775557E+03  0.18447775557E+03  0.00000000000E+00 0.  1.
         23    2    1    2    0    0  0.12789412738E+03 -0.16542579035E+03  0.12651443911E+03  0.25991780631E+03  0.88480296136E+02 0.  0.
         23    2    1    2    0    0 -0.12789412738E+03  0.16542579035E+03 -0.74510750223E+01  0.22810106892E+03  0.90840405056E+02 0.  0.
          5    1    3    3  502    0  0.88569695337E+02 -0.74721533004E+02  0.10948544554E+03  0.15948997213E+03  0.47000000000E+01 0. -1.
         -5    1    3    3    0  502  0.39324432044E+02 -0.90704257344E+02  0.17028993575E+02  0.10042783418E+03  0.47000000000E+01 0.  1.
          5    1    4    4  503    0 -0.46051322888E+02  0.74520267190E+01 -0.16985110812E+02  0.49868236697E+02  0.47000000000E+01 0. -1.
         -5    1    4    4    0  503 -0.81842804492E+02  0.15797376363E+03  0.95340357897E+01  0.17823283222E+03  0.47000000000E+01 0.  1.
<mgrwt>
<rscale>  0 0.22774646E+03</rscale>
<asrwt>0</asrwt>
<pdfrwt beam="1">  1        1 0.46698634E-01 0.22797934E+03</pdfrwt>
<pdfrwt beam="2">  1       -1 0.28381193E-01 0.22797934E+03</pdfrwt>
<totfact> 0.97000821E+02</totfact>
</mgrwt>
</event>
<event>
 8    1  0.3466492E-004  0.1256970E+03  0.7546771E-02  0.1234393E+00
         -1   -1    0    0    0  501 -0.00000000000E+00  0.00000000000E+00  0.16974430224E+03  0.16974430224E+03  0.00000000000E+00 0.  1.
          1   -1    0    0  501    0  0.00000000000E+00 -0.00000000000E+00 -0.96956443366E+02  0.96956443366E+02  0.00000000000E+00 0. -1.
         23    2    1    2    0    0  0.84171078207E+02  0.90457222759E+00  0.73271284801E+01  0.12591033972E+03  0.93349548364E+02 0.  0.
         23    2    1    2    0    0 -0.84171078207E+02 -0.90457222759E+00  0.65460730393E+02  0.14079040588E+03  0.91930639656E+02 0.  0.
          5    1    4    4  502    0 -0.98031705671E+02  0.18451697255E+02  0.57588188513E+02  0.11527866197E+03  0.47000000000E+01 0.  1.
         -5    1    4    4    0  502  0.13860627465E+02 -0.19356269483E+02  0.78725418795E+01  0.25511743916E+02  0.47000000000E+01 0. -1.
          5    1    3    3  503    0  0.73858800725E+02 -0.37329551836E+02 -0.78075374060E+01  0.83256624512E+02  0.47000000000E+01 0. -1.
         -5    1    3    3    0  503  0.10312277482E+02  0.38234124064E+02  0.15134665886E+02  0.42653715210E+02  0.47000000000E+01 0.  1.
<mgrwt>
<rscale>  0 0.12543360E+03</rscale>
<asrwt>0</asrwt>
<pdfrwt beam="1">  1        1 0.14916376E-01 0.12569696E+03</pdfrwt>
<pdfrwt beam="2">  1       -1 0.26114508E-01 0.12569696E+03</pdfrwt>
<totfact> 0.46199582E+03</totfact>
</mgrwt>
</event>
<event>
 8    1  0.3466492E-004  0.9683084E+02  0.7546771E-02  0.1288929E+00
         -1   -1    0    0    0  501 -0.00000000000E+00  0.00000000000E+00  0.13255877376E+03  0.13255877376E+03  0.00000000000E+00 0.  1.
          1   -1    0    0  501    0  0.00000000000E+00 -0.00000000000E+00 -0.76088500750E+02  0.76088500750E+02  0.00000000000E+00 0. -1.
         23    2    1    2    0    0  0.23988025860E+02  0.27412124167E+02 -0.45529434185E+01  0.96937815350E+02  0.89718230116E+02 0.  0.
         23    2    1    2    0    0 -0.23988025860E+02 -0.27412124167E+02  0.61023216430E+02  0.11170945916E+03  0.86187704382E+02 0.  0.
          5    1    3    3  502    0  0.53258364560E+02 -0.25758059727E+00 -0.14065508468E+02  0.55285154172E+02  0.47000000000E+01 0. -1.
         -5    1    4    4    0  503 -0.45008191575E+02  0.12435330606E+02  0.21611263785E+02  0.51667315380E+02  0.47000000000E+01 0.  1.
          5    1    4    4  503    0  0.21020165716E+02 -0.39847454773E+02  0.39411952644E+02  0.60042143781E+02  0.47000000000E+01 0. -1.
         -5    1    3    3    0  502 -0.29270338701E+02  0.27669704764E+02  0.95125650492E+01  0.41652661178E+02  0.47000000000E+01 0.  1.
<mgrwt>
<rscale>  0 0.96004886E+02</rscale>
<asrwt>0</asrwt>
<pdfrwt beam="1">  1        1 0.11705923E-01 0.96830836E+02</pdfrwt>
<pdfrwt beam="2">  1       -1 0.20393657E-01 0.96830836E+02</pdfrwt>
<totfact> 0.92538549E+03</totfact>
</mgrwt>
</event>
<event>
 8    1  0.3466492E-004  0.1891988E+03  0.7546771E-02  0.1160240E+00
         -1   -1    0    0    0  501 -0.00000000000E+00  0.00000000000E+00  0.99058493642E+02  0.99058493642E+02  0.00000000000E+00 0.  1.
          1   -1    0    0  501    0  0.00000000000E+00 -0.00000000000E+00 -0.36170044280E+03  0.36170044280E+03  0.00000000000E+00 0. -1.
         23    2    1    2    0    0 -0.13417103230E+03  0.93232531609E+02 -0.96454588070E+02  0.21236687724E+03  0.95404570810E+02 0.  0.
         23    2    1    2    0    0  0.13417103230E+03 -0.93232531609E+02 -0.16618736109E+03  0.24839205920E+03  0.85943034794E+02 0.  0.
          5    1    4    4  502    0  0.36649645435E+00 -0.27926939293E+02 -0.57157310882E+02  0.63789469705E+02  0.47000000000E+01 0. -1.
         -5    1    4    4    0  502  0.13380453585E+03 -0.65305592315E+02 -0.10903005021E+03  0.18460258950E+03  0.47000000000E+01 0.  1.
          5    1    3    3  503    0 -0.90625201378E+02  0.26156076993E+02 -0.92446068937E+02  0.13215685056E+03  0.47000000000E+01 0. -1.
         -5    1    3    3    0  503 -0.43545830923E+02  0.67076454616E+02 -0.40085191323E+01  0.80210026681E+02  0.47000000000E+01 0.  1.
<mgrwt>
<rscale>  0 0.18804072E+03</rscale>
<asrwt>0</asrwt>
<pdfrwt beam="1">  1        1 0.55646222E-01 0.18919885E+03</pdfrwt>
<pdfrwt beam="2">  1       -1 0.15239768E-01 0.18919885E+03</pdfrwt>
<totfact> 0.21365092E+03</totfact>
</mgrwt>
</event>
<event>
 8    1  0.3466492E-004  0.9117958E+02  0.7546771E-02  0.1300152E+00
         -2   -1    0    0    0  501 -0.00000000000E+00  0.00000000000E+00  0.43681348542E+02  0.43681348542E+02  0.00000000000E+00 0.  1.
          2   -1    0    0  501    0  0.00000000000E+00 -0.00000000000E+00 -0.22926828507E+03  0.22926828507E+03  0.00000000000E+00 0. -1.
         23    2    1    2    0    0 -0.13702045341E+01 -0.67087093568E+01 -0.14946404939E+03  0.17508060321E+03  0.90922116783E+02 0.  0.
         23    2    1    2    0    0  0.13702045341E+01  0.67087093568E+01 -0.36122887141E+02  0.97869030400E+02  0.90700605810E+02 0.  0.
          5    1    4    4  502    0  0.28609719815E+02 -0.21797158678E+02  0.93910397036E+01  0.37468837999E+02  0.47000000000E+01 0. -1.
         -5    1    3    3    0  503 -0.28901047779E+02  0.26668787295E+02 -0.10774330085E+03  0.11479200171E+03  0.47000000000E+01 0.  1.
          5    1    3    3  503    0  0.27530843245E+02 -0.33377496652E+02 -0.41720748534E+02  0.60288601500E+02  0.47000000000E+01 0. -1.
         -5    1    4    4    0  502 -0.27239515281E+02  0.28505868035E+02 -0.45513926845E+02  0.60400192400E+02  0.47000000000E+01 0.  1.
<mgrwt>
<rscale>  0 0.91124307E+02</rscale>
<asrwt>0</asrwt>
<pdfrwt beam="1">  1        2 0.35272045E-01 0.91179579E+02</pdfrwt>
<pdfrwt beam="2">  1       -2 0.67202073E-02 0.91179579E+02</pdfrwt>
<totfact> 0.16387239E+04</totfact>
</mgrwt>
</event>
<event>
 8    1  0.3466492E-004  0.1130603E+03  0.7546771E-02  0.1257288E+00
          1   -1    0    0  501    0  0.00000000000E+00  0.00000000000E+00  0.43813368272E+03  0.43813368272E+03  0.00000000000E+00 0. -1.
         -1   -1    0    0    0  501 -0.00000000000E+00 -0.00000000000E+00 -0.32736120857E+02  0.32736120857E+02  0.00000000000E+00 0.  1.
         23    2    1    2    0    0 -0.65545259679E+02 -0.10213235352E+01  0.28925704567E+03  0.30878573944E+03  0.85917229034E+02 0.  0.
         23    2    1    2    0    0  0.65545259679E+02  0.10213235352E+01  0.11614051619E+03  0.16208406413E+03  0.92116231885E+02 0.  0.
          5    1    3    3  502    0 -0.84566234502E+02  0.99637692256E+01  0.23819779028E+03  0.25300395651E+03  0.47000000000E+01 0. -1.
         -5    1    4    4    0  503  0.79260609181E+02  0.26127780515E+02  0.79460358434E+02  0.11532971709E+03  0.47000000000E+01 0.  1.
          5    1    4    4  503    0 -0.13715349502E+02 -0.25106456979E+02  0.36680157758E+02  0.46754347041E+02  0.47000000000E+01 0. -1.
         -5    1    3    3    0  502  0.19020974823E+02 -0.10985092761E+02  0.51059255388E+02  0.55781782931E+02  0.47000000000E+01 0.  1.
<mgrwt>
<rscale>  0 0.11179135E+03</rscale>
<asrwt>0</asrwt>
<pdfrwt beam="1">  1        1 0.67405178E-01 0.11306027E+03</pdfrwt>
<pdfrwt beam="2">  1       -1 0.50363266E-02 0.11306027E+03</pdfrwt>
<totfact> 0.88052138E+03</totfact>
</mgrwt>
</event>
<event>
 8    1  0.3466492E-004  0.1147903E+03  0.7546771E-02  0.1253014E+00
         -1   -1    0    0    0  501 -0.00000000000E+00  0.00000000000E+00  0.22370434505E+03  0.22370434505E+03  0.00000000000E+00 0.  1.
          1   -1    0    0  501    0  0.00000000000E+00 -0.00000000000E+00 -0.64968182316E+02  0.64968182316E+02  0.00000000000E+00 0. -1.
         23    2    1    2    0    0  0.52406327533E+02 -0.40659457106E+02  0.30253741504E+02  0.11638051027E+03  0.90716700107E+02 0.  0.
         23    2    1    2    0    0 -0.52406327533E+02  0.40659457106E+02  0.12848242123E+03  0.17229201709E+03  0.93686669125E+02 0.  0.
          5    1    3    3  502    0  0.73633803014E+02 -0.29073385995E+02  0.41261785902E+02  0.89397000483E+02  0.47000000000E+01 0. -1.
         -5    1    4    4    0  503  0.66527396478E+01 -0.24052212180E+02  0.17599886787E+02  0.30896826220E+02  0.47000000000E+01 0.  1.
          5    1    4    4  503    0 -0.59059067181E+02  0.64711669286E+02  0.11088253444E+03  0.14139519087E+03  0.47000000000E+01 0. -1.
         -5    1    3    3    0  502 -0.21227475480E+02 -0.11586071112E+02 -0.11008044398E+02  0.26983509789E+02  0.47000000000E+01 0.  1.
<mgrwt>
<rscale>  0 0.11418275E+03</rscale>
<asrwt>0</asrwt>
<pdfrwt beam="1">  1        1 0.99951051E-02 0.11479027E+03</pdfrwt>
<pdfrwt beam="2">  1       -1 0.34416053E-01 0.11479027E+03</pdfrwt>
<totfact> 0.48785371E+03</totfact>
</mgrwt>
</event>
<event>
 8    1  0.3466492E-004  0.1284786E+03  0.7546771E-02  0.1229931E+00
          2   -1    0    0  501    0  0.00000000000E+00  0.00000000000E+00  0.79588557039E+03  0.79588557039E+03  0.00000000000E+00 0. -1.
         -2   -1    0    0    0  501 -0.00000000000E+00 -0.00000000000E+00 -0.26678105547E+02  0.26678105547E+02  0.00000000000E+00 0.  1.
         23    2    1    2    0    0 -0.77070020891E+02  0.48638206714E+02  0.57941362812E+03  0.59337280441E+03  0.89809071280E+02 0.  0.
         23    2    1    2    0    0  0.77070020891E+02 -0.48638206714E+02  0.18979383672E+03  0.22919087153E+03  0.90560984222E+02 0.  0.
          5    1    3    3  502    0 -0.37737065493E+02  0.52363145225E+02  0.50371151970E+03  0.50785172066E+03  0.47000000000E+01 0. -1.
         -5    1    4    4    0  503  0.70324087737E+02  0.52126287735E+01  0.80835851062E+02  0.10737398955E+03  0.47000000000E+01 0.  1.
          5    1    4    4  503    0  0.67459331535E+01 -0.53850835488E+02  0.10895798566E+03  0.12181688198E+03  0.47000000000E+01 0. -1.
         -5    1    3    3    0  502 -0.39332955398E+02 -0.37249385106E+01  0.75702108419E+02  0.85521083753E+02  0.47000000000E+01 0.  1.
<mgrwt>
<rscale>  0 0.12834619E+03</rscale>
<asrwt>0</asrwt>
<pdfrwt beam="1">  1        2 0.12244392E+00 0.12847862E+03</pdfrwt>
<pdfrwt beam="2">  1       -2 0.41043245E-02 0.12847862E+03</pdfrwt>
<totfact> 0.90476657E+03</totfact>
</mgrwt>
</event>
<event>
 8    1  0.3466492E-004  0.1030553E+03  0.7546771E-02  0.1274073E+00
         -3   -1    0    0    0  501 -0.00000000000E+00  0.00000000000E+00  0.81635053664E+02  0.81635053664E+02  0.00000000000E+00 0.  1.
          3   -1    0    0  501    0  0.00000000000E+00 -0.00000000000E+00 -0.13706302670E+03  0.13706302670E+03  0.00000000000E+00 0. -1.
         23    2    1    2    0    0 -0.27986192273E+02 -0.36990610914E+02 -0.52708828120E+02  0.11575240780E+03  0.92026447800E+02 0.  0.
         23    2    1    2    0    0  0.27986192273E+02  0.36990610914E+02 -0.27191449193E+01  0.10294567257E+03  0.91863406744E+02 0.  0.
          5    1    4    4  502    0  0.25049399915E+02 -0.20154255416E+02  0.23228507369E+02  0.39941457186E+02  0.47000000000E+01 0. -1.
         -5    1    3    3    0  503 -0.50690898068E+02 -0.69353118379E+01 -0.72400514694E+00  0.51383653827E+02  0.47000000000E+01 0.  1.
          5    1    3    3  503    0  0.22704705794E+02 -0.30055299076E+02 -0.51984822973E+02  0.64368753968E+02  0.47000000000E+01 0. -1.
         -5    1    4    4    0  502  0.29367923580E+01  0.57144866330E+02 -0.25947652289E+02  0.63004215387E+02  0.47000000000E+01 0.  1.
<mgrwt>
<rscale>  0 0.10301891E+03</rscale>
<asrwt>0</asrwt>
<pdfrwt beam="1">  1        3 0.21086619E-01 0.10305532E+03</pdfrwt>
<pdfrwt beam="2">  1       -3 0.12559239E-01 0.10305532E+03</pdfrwt>
<totfact> 0.22342736E+03</totfact>
</mgrwt>
</event>
<event>
 8    1  0.3466492E-004  0.1212779E+03  0.7546771E-02  0.1242334E+00
         -4   -1    0    0    0  501 -0.00000000000E+00  0.00000000000E+00  0.17877387941E+02  0.17877387941E+02  0.00000000000E+00 0.  1.
          4   -1    0    0  501    0  0.00000000000E+00 -0.00000000000E+00 -0.84780197975E+03  0.84780197975E+03  0.00000000000E+00 0. -1.
         23    2    1    2    0    0  0.61899930627E+02 -0.43257654505E+02 -0.52191673869E+03  0.53582217892E+03  0.94897308787E+02 0.  0.
         23    2    1    2    0    0 -0.61899930627E+02  0.43257654505E+02 -0.30800785312E+03  0.32985718877E+03  0.90741949033E+02 0.  0.
          5    1    4    4  502    0 -0.13056248558E+02 -0.27132183599E+02 -0.57741686115E+02  0.65290223837E+02  0.47000000000E+01 0. -1.
         -5    1    4    4    0  502 -0.48843682068E+02  0.70389838104E+02 -0.25026616701E+03  0.26456696494E+03  0.47000000000E+01 0.  1.
          5    1    3    3  503    0  0.73410334513E+02 -0.63717931329E+02 -0.41531459841E+03  0.42656459961E+03  0.47000000000E+01 0. -1.
         -5    1    3    3    0  503 -0.11510403886E+02  0.20460276824E+02 -0.10660214028E+03  0.10925757931E+03  0.47000000000E+01 0. -1.
<mgrwt>
<rscale>  0 0.12046395E+03</rscale>
<asrwt>0</asrwt>
<pdfrwt beam="1">  1        4 0.13043107E+00 0.12127788E+03</pdfrwt>
<pdfrwt beam="2">  1       -4 0.27503675E-02 0.12127788E+03</pdfrwt>
<totfact> 0.45595508E+02</totfact>
</mgrwt>
</event>
<event>
 8    1  0.3466492E-004  0.9338079E+02  0.7546771E-02  0.1307717E+00
          1   -1    0    0  501    0  0.00000000000E+00  0.00000000000E+00  0.26793813588E+02  0.26793813588E+02  0.00000000000E+00 0. -1.
         -1   -1    0    0    0  501 -0.00000000000E+00 -0.00000000000E+00 -0.31356730620E+03  0.31356730620E+03  0.00000000000E+00 0.  1.
         23    2    1    2    0    0 -0.16522349234E+02 -0.10245573936E+02 -0.22699740052E+03  0.24545425507E+03  0.91334613798E+02 0.  0.
         23    2    1    2    0    0  0.16522349234E+02  0.10245573936E+02 -0.59776092086E+02  0.94906864717E+02  0.71106764628E+02 0.  0.
          5    1    4    4  502    0  0.41638244200E+02 -0.74207632323E+00 -0.20171258093E+02  0.46510898834E+02  0.47000000000E+01 0. -1.
         -5    1    3    3    0  503 -0.11691363188E+02 -0.38914530868E+02 -0.20407625181E+03  0.20813513696E+03  0.47000000000E+01 0.  1.
          5    1    3    3  503    0 -0.48309860458E+01  0.28668956932E+02 -0.22921148709E+02  0.37319118102E+02  0.47000000000E+01 0. -1.
         -5    1    4    4    0  502 -0.25115894966E+02  0.10987650259E+02 -0.39604833993E+02  0.48395965883E+02  0.47000000000E+01 0.  1.
<mgrwt>
<rscale>  0 0.88020619E+02</rscale>
<asrwt>0</asrwt>
<pdfrwt beam="1">  1        1 0.41221249E-02 0.93380788E+02</pdfrwt>
<pdfrwt beam="2">  1       -1 0.48241127E-01 0.93380788E+02</pdfrwt>
<totfact> 0.87280896E+03</totfact>
</mgrwt>
</event>
<event>
 8    1  0.3466492E-004  0.1275689E+03  0.7546771E-02  0.1239220E+00
         -1   -1    0    0    0  501 -0.00000000000E+00  0.00000000000E+00  0.65623866862E+02  0.65623866862E+02  0.00000000000E+00 0.  1.
          1   -1    0    0  501    0  0.00000000000E+00 -0.00000000000E+00 -0.29239946929E+03  0.29239946929E+03  0.00000000000E+00 0. -1.
         23    2    1    2    0    0 -0.31357664164E+02 -0.47686924100E+02 -0.12664835426E+02  0.10879004334E+03  0.91747096089E+02 0.  0.
         23    2    1    2    0    0  0.31357664164E+02  0.47686924100E+02 -0.21411076700E+03  0.24923329282E+03  0.11408973604E+03 0.  0.
          5    1    4    4  502    0  0.70745391847E+02  0.15588054713E+02 -0.15490854009E+03  0.17107496518E+03  0.47000000000E+01 0. -1.
         -5    1    3    3    0  503 -0.24989355642E+01 -0.22806356115E+02  0.38354490391E+02  0.44939197716E+02  0.47000000000E+01 0.  1.
          5    1    3    3  503    0 -0.28858728600E+02 -0.24880567986E+02 -0.51019325817E+02  0.63850845621E+02  0.47000000000E+01 0. -1.
         -5    1    4    4    0  502 -0.39387727683E+02  0.32098869387E+02 -0.59202226911E+02  0.78158327638E+02  0.47000000000E+01 0.  1.
<mgrwt>
<rscale>  0 0.12238129E+03</rscale>
<asrwt>0</asrwt>
<pdfrwt beam="1">  1        1 0.44984534E-01 0.12756886E+03</pdfrwt>
<pdfrwt beam="2">  1       -1 0.10095979E-01 0.12756886E+03</pdfrwt>
<totfact> 0.51884034E+03</totfact>
</mgrwt>
</event>
<event>
 8    1  0.3466492E-004  0.9335011E+02  0.7546771E-02  0.1296086E+00
         -1   -1    0    0    0  501 -0.00000000000E+00  0.00000000000E+00  0.97708999364E+02  0.97708999364E+02  0.00000000000E+00 0.  1.
          1   -1    0    0  501    0  0.00000000000E+00 -0.00000000000E+00 -0.87465789684E+02  0.87465789684E+02  0.00000000000E+00 0. -1.
         23    2    1    2    0    0 -0.84000991145E+01 -0.49113832177E+01  0.12892021959E+01  0.93359013316E+02  0.92841585374E+02 0.  0.
         23    2    1    2    0    0  0.84000991145E+01  0.49113832177E+01  0.89540074842E+01  0.91815775732E+02  0.90858566316E+02 0.  0.
          5    1    4    4  502    0  0.41261040332E+02  0.57835606132E+01 -0.21179878448E+02  0.46974464060E+02  0.47000000000E+01 0. -1.
         -5    1    4    4    0  502 -0.32860941218E+02 -0.87217739557E+00  0.30133885932E+02  0.44841311672E+02  0.47000000000E+01 0.  1.
          5    1    3    3  503    0  0.24665314118E+02  0.15228869539E+02 -0.31018730316E+02  0.42714726013E+02  0.47000000000E+01 0. -1.
         -5    1    3    3    0  503 -0.33065413232E+02 -0.20140252756E+02  0.32307932512E+02  0.50644287303E+02  0.47000000000E+01 0.  1.
<mgrwt>
<rscale>  0 0.92853162E+02</rscale>
<asrwt>0</asrwt>
<pdfrwt beam="1">  1        1 0.13456275E-01 0.93350112E+02</pdfrwt>
<pdfrwt beam="2">  1       -1 0.15032154E-01 0.93350112E+02</pdfrwt>
<totfact> 0.12437289E+04</totfact>
</mgrwt>
</event>
<event>
 8    1  0.3466492E-004  0.1248758E+03  0.7546771E-02  0.1236688E+00
          2   -1    0    0  501    0  0.00000000000E+00  0.00000000000E+00  0.42148674704E+02  0.42148674704E+02  0.00000000000E+00 0. -1.
         -2   -1    0    0    0  501 -0.00000000000E+00 -0.00000000000E+00 -0.49377894843E+03  0.49377894843E+03  0.00000000000E+00 0.  1.
         23    2    1    2    0    0  0.81932035353E+02  0.25563742719E+02 -0.36318390464E+03  0.38290238041E+03  0.85704848001E+02 0.  0.
         23    2    1    2    0    0 -0.81932035353E+02 -0.25563742719E+02 -0.88446369089E+02  0.15302524273E+03  0.90706126305E+02 0.  0.
          5    1    3    3  502    0  0.18163441250E+02 -0.28760857820E+02 -0.70316848643E+02  0.78253733098E+02  0.47000000000E+01 0. -1.
         -5    1    4    4    0  503  0.92321866931E+01 -0.29801710690E+02 -0.35159031447E+02  0.47240054228E+02  0.47000000000E+01 0.  1.
          5    1    4    4  503    0 -0.91164222046E+02  0.42379679712E+01 -0.53287337642E+02  0.10578518850E+03  0.47000000000E+01 0. -1.
         -5    1    3    3    0  502  0.63768594103E+02  0.54324600539E+02 -0.29286705600E+03  0.30464864731E+03  0.47000000000E+01 0.  1.
<mgrwt>
<rscale>  0 0.12396997E+03</rscale>
<asrwt>0</asrwt>
<pdfrwt beam="1">  1        2 0.64844113E-02 0.12487580E+03</pdfrwt>
<pdfrwt beam="2">  1       -2 0.75965994E-01 0.12487580E+03</pdfrwt>
<totfact> 0.17115030E+03</totfact>
</mgrwt>
</event>
<event>
 8    1  0.3466492E-004  0.1511109E+03  0.7546771E-02  0.1199273E+00
         -2   -1    0    0    0  501 -0.00000000000E+00  0.00000000000E+00  0.49362129436E+03  0.49362129436E+03  0.00000000000E+00 0.  1.
          2   -1    0    0  501    0  0.00000000000E+00 -0.00000000000E+00 -0.47304214403E+02  0.47304214403E+02  0.00000000000E+00 0. -1.
         23    2    1    2    0    0  0.78727517749E+02 -0.91827575355E+02  0.26669231995E+03  0.30652779334E+03  0.90576867457E+02 0.  0.
         23    2    1    2    0    0 -0.78727517749E+02  0.91827575355E+02  0.17962476000E+03  0.23439771542E+03  0.89704564790E+02 0.  0.
          5    1    4    4  502    0 -0.11965316055E+02  0.67668855096E+02  0.45448450800E+02  0.82522084428E+02  0.47000000000E+01 0. -1.
         -5    1    4    4    0  502 -0.66762201694E+02  0.24158720259E+02  0.13417630920E+03  0.15187563099E+03  0.47000000000E+01 0.  1.
          5    1    3    3  503    0 -0.65948327255E+01 -0.40390777133E+02  0.13614240158E+03  0.14223835701E+03  0.47000000000E+01 0. -1.
         -5    1    3    3    0  503  0.85322350474E+02 -0.51436798222E+02  0.13054991838E+03  0.16428943633E+03  0.47000000000E+01 0.  1.
<mgrwt>
<rscale>  0 0.15098039E+03</rscale>
<asrwt>0</asrwt>
<pdfrwt beam="1">  1        2 0.72775718E-02 0.15111087E+03</pdfrwt>
<pdfrwt beam="2">  1       -2 0.75941734E-01 0.15111087E+03</pdfrwt>
<totfact> 0.14935946E+03</totfact>
</mgrwt>
</event>
<event>
 8    1  0.3466492E-004  0.1230153E+03  0.7546771E-02  0.1239044E+00
          2   -1    0    0  501    0  0.00000000000E+00  0.00000000000E+00  0.83847313092E+03  0.83847313092E+03  0.00000000000E+00 0. -1.
         -2   -1    0    0    0  501 -0.00000000000E+00 -0.00000000000E+00 -0.42548385783E+02  0.42548385783E+02  0.00000000000E+00 0.  1.
         23    2    1    2    0    0  0.32814938919E+02 -0.72128166065E+02  0.60203994226E+02  0.13508734888E+03  0.91349758351E+02 0.  0.
         23    2    1    2    0    0 -0.32814938919E+02  0.72128166065E+02  0.73572075092E+03  0.74593416783E+03  0.94092862895E+02 0.  0.
          5    1    3    3  502    0 -0.28499690642E+02 -0.20111529507E+02  0.37444781425E+02  0.51389762033E+02  0.47000000000E+01 0. -1.
         -5    1    3    3    0  502  0.61314629560E+02 -0.52016636558E+02  0.22759212800E+02  0.83697586848E+02  0.47000000000E+01 0.  1.
          5    1    4    4  503    0 -0.22042289498E+02  0.94401888140E+02  0.54748246043E+03  0.55601862693E+03  0.47000000000E+01 0. -1.
         -5    1    4    4    0  503 -0.10772649421E+02 -0.22273722075E+02  0.18823829048E+03  0.18991554090E+03  0.47000000000E+01 0.  1.
<mgrwt>
<rscale>  0 0.12249062E+03</rscale>
<asrwt>0</asrwt>
<pdfrwt beam="1">  1        2 0.12899585E+00 0.12301528E+03</pdfrwt>
<pdfrwt beam="2">  1       -2 0.65459061E-02 0.12301528E+03</pdfrwt>
<totfact> 0.41960151E+03</totfact>
</mgrwt>
</event>
<event>
 8    1  0.3466492E-004  0.9888979E+02  0.7546771E-02  0.1283789E+00
          1   -1    0    0  501    0  0.00000000000E+00  0.00000000000E+00  0.13362157514E+03  0.13362157514E+03  0.00000000000E+00 0. -1.
         -1   -1    0    0    0  501 -0.00000000000E+00 -0.00000000000E+00 -0.31354198218E+03  0.31354198218E+03  0.00000000000E+00 0.  1.
         23    2    1    2    0    0 -0.21497608639E+02 -0.27648988339E+02 -0.28656867876E+03  0.30315144429E+03  0.92480142711E+02 0.  0.
         23    2    1    2    0    0  0.21497608639E+02  0.27648988339E+02  0.10664827171E+03  0.14401211304E+03  0.90216523478E+02 0.  0.
          5    1    4    4  502    0  0.49217325976E+02  0.38066232280E+02  0.90588219984E+02  0.10999863097E+03  0.47000000000E+01 0. -1.
         -5    1    3    3    0  503 -0.25587982193E+02  0.69524255396E+01 -0.25336723999E+03  0.25479428831E+03  0.47000000000E+01 0.  1.
          5    1    3    3  503    0  0.40903735531E+01 -0.34601413879E+02 -0.33201438761E+02  0.48357155975E+02  0.47000000000E+01 0. -1.
         -5    1    4    4    0  502 -0.27719717336E+02 -0.10417243940E+02  0.16060051730E+02  0.34013482064E+02  0.47000000000E+01 0.  1.
<mgrwt>
<rscale>  0 0.98357106E+02</rscale>
<asrwt>0</asrwt>
<pdfrwt beam="1">  1        1 0.20557166E-01 0.98889790E+02</pdfrwt>
<pdfrwt beam="2">  1       -1 0.48237227E-01 0.98889790E+02</pdfrwt>
<totfact> 0.10598003E+03</totfact>
</mgrwt>
</event>
<event>
 8    1  0.3466492E-004  0.9369091E+02  0.7546771E-02  0.1294472E+00
         -1   -1    0    0    0  501 -0.00000000000E+00  0.00000000000E+00  0.19033853275E+02  0.19033853275E+02  0.00000000000E+00 0.  1.
          1   -1    0    0  501    0  0.00000000000E+00 -0.00000000000E+00 -0.58902057267E+03  0.58902057267E+03  0.00000000000E+00 0. -1.
         23    2    1    2    0    0  0.19703945847E+02  0.69377945073E+00 -0.42879718382E+03  0.43891344467E+03  0.91592904992E+02 0.  0.
         23    2    1    2    0    0 -0.19703945847E+02 -0.69377945073E+00 -0.14118953557E+03  0.16914098128E+03  0.91024500987E+02 0.  0.
          5    1    4    4  502    0  0.24854271381E+02  0.28234028599E+02 -0.75881205481E+02  0.84823007033E+02  0.47000000000E+01 0. -1.
         -5    1    4    4    0  502 -0.44558217228E+02 -0.28927808050E+02 -0.65308330092E+02  0.84317974244E+02  0.47000000000E+01 0.  1.
          5    1    3    3  503    0  0.10859485347E+02  0.44408955628E+02 -0.27089507625E+03  0.27476592966E+03  0.47000000000E+01 0. -1.
         -5    1    3    3    0  503  0.88444605003E+01 -0.43715176177E+02 -0.15790210757E+03  0.16414751501E+03  0.47000000000E+01 0.  1.
<mgrwt>
<rscale>  0 0.93551703E+02</rscale>
<asrwt>0</asrwt>
<pdfrwt beam="1">  1        1 0.90618543E-01 0.93690912E+02</pdfrwt>
<pdfrwt beam="2">  1       -1 0.29282853E-02 0.93690912E+02</pdfrwt>
<totfact> 0.13015242E+04</totfact>
</mgrwt>
</event>
<event>
 8    1  0.3466492E-004  0.9652280E+02  0.7546771E-02  0.1290314E+00
         -2   -1    0    0    0  501 -0.00000000000E+00  0.00000000000E+00  0.13645626287E+02  0.13645626287E+02  0.00000000000E+00 0.  1.
          2   -1    0    0  501    0  0.00000000000E+00 -0.00000000000E+00 -0.68942742195E+03  0.68942742195E+03  0.00000000000E+00 0. -1.
         23    2    1    2    0    0 -0.10458107362E+02  0.10475881724E+02 -0.26300285948E+03  0.28015559171E+03  0.95381001068E+02 0.  0.
         23    2    1    2    0    0  0.10458107362E+02 -0.10475881724E+02 -0.41277893618E+03  0.42291745652E+03  0.90849374074E+02 0.  0.
          5    1    3    3  502    0 -0.34765522318E+02 -0.19281811466E+02 -0.51962203235E+02  0.65594133583E+02  0.47000000000E+01 0. -1.
         -5    1    3    3    0  502  0.24307414956E+02  0.29757693190E+02 -0.21104065625E+03  0.21456145813E+03  0.47000000000E+01 0.  1.
          5    1    4    4  503    0 -0.13932527536E+02 -0.36019413288E+02 -0.33633907979E+03  0.33858171843E+03  0.47000000000E+01 0. -1.
         -5    1    4    4    0  503  0.24390634899E+02  0.25543531563E+02 -0.76439856384E+02  0.84335738092E+02  0.47000000000E+01 0.  1.
<mgrwt>
<rscale>  0 0.95383956E+02</rscale>
<asrwt>0</asrwt>
<pdfrwt beam="1">  1        2 0.10606574E+00 0.96522803E+02</pdfrwt>
<pdfrwt beam="2">  1       -2 0.20993276E-02 0.96522803E+02</pdfrwt>
<totfact> 0.27991244E+04</totfact>
</mgrwt>
</event>
<event>
 8    1  0.3466492E-004  0.9977471E+02  0.7546771E-02  0.1281127E+00
         -1   -1    0    0    0  501 -0.00000000000E+00  0.00000000000E+00  0.59402220563E+02  0.59402220563E+02  0.00000000000E+00 0.  1.
          1   -1    0    0  501    0  0.00000000000E+00 -0.00000000000E+00 -0.18405245460E+03  0.18405245460E+03  0.00000000000E+00 0. -1.
         23    2    1    2    0    0 -0.10615480051E+02  0.39636482388E+02 -0.24495934646E+02  0.10208326396E+03  0.90206445525E+02 0.  0.
         23    2    1    2    0    0  0.10615480051E+02 -0.39636482388E+02 -0.10015429939E+03  0.14137141120E+03  0.90946429648E+02 0.  0.
          5    1    4    4  502    0  0.40386967445E+02 -0.10267526155E+02 -0.88138998738E+02  0.97606876455E+02  0.47000000000E+01 0. -1.
         -5    1    3    3    0  503  0.27699006570E+02  0.51498968191E+02 -0.16152165313E+02  0.60847030610E+02  0.47000000000E+01 0.  1.
          5    1    3    3  503    0 -0.38314486621E+02 -0.11862485803E+02 -0.83437693329E+01  0.41236233353E+02  0.47000000000E+01 0. -1.
         -5    1    4    4    0  502 -0.29771487394E+02 -0.29368956233E+02 -0.12015300655E+02  0.43764534748E+02  0.47000000000E+01 0.  1.
<mgrwt>
<rscale>  0 0.99605768E+02</rscale>
<asrwt>0</asrwt>
<pdfrwt beam="1">  1        1 0.28315762E-01 0.99774707E+02</pdfrwt>
<pdfrwt beam="2">  1       -1 0.91388033E-02 0.99774707E+02</pdfrwt>
<totfact> 0.10477766E+04</totfact>
</mgrwt>
</event>
<event>
 8    1  0.3466492E-004  0.9964278E+02  0.7546771E-02  0.1285431E+00
          1   -1    0    0  501    0  0.00000000000E+00  0.00000000000E+00  0.26150245656E+03  0.26150245656E+03  0.00000000000E+00 0. -1.
         -1   -1    0    0    0  501 -0.00000000000E+00 -0.00000000000E+00 -0.57748443789E+02  0.57748443789E+02  0.00000000000E+00 0.  1.
         23    2    1    2    0    0  0.99198227498E+01  0.15921334445E+01  0.19943904190E+03  0.21951473383E+03  0.91158374070E+02 0.  0.
         23    2    1    2    0    0 -0.99198227498E+01 -0.15921334445E+01  0.43149708742E+01  0.99736166521E+02  0.99134989617E+02 0.  0.
          5    1    3    3  502    0 -0.19927185109E+02 -0.26348412879E+02  0.15658277372E+03  0.16009867767E+03  0.47000000000E+01 0. -1.
         -5    1    4    4    0  503 -0.94696370460E+01  0.33435815961E+02 -0.33131700728E+02  0.48243418286E+02  0.47000000000E+01 0.  1.
          5    1    4    4  503    0 -0.45018570374E+00 -0.35027949405E+02  0.37446671602E+02  0.51492748235E+02  0.47000000000E+01 0. -1.
         -5    1    3    3    0  502  0.29847007859E+02  0.27940546324E+02  0.42856268185E+02  0.59416056162E+02  0.47000000000E+01 0.  1.
<mgrwt>
<rscale>  0 0.97597560E+02</rscale>
<asrwt>0</asrwt>
<pdfrwt beam="1">  1        1 0.40231147E-01 0.99642782E+02</pdfrwt>
<pdfrwt beam="2">  1       -1 0.88843761E-02 0.99642782E+02</pdfrwt>
<totfact> 0.71021187E+03</totfact>
</mgrwt>
</event>
<event>
 8    1  0.3466492E-004  0.9335640E+02  0.7546771E-02  0.1295632E+00
          2   -1    0    0  501    0  0.00000000000E+00  0.00000000000E+00  0.28597971570E+03  0.28597971570E+03  0.00000000000E+00 0. -1.
         -2   -1    0    0    0  501 -0.00000000000E+00 -0.00000000000E+00 -0.13223299019E+03  0.13223299019E+03  0.00000000000E+00 0.  1.
         23    2    1    2    0    0  0.56236345117E+01  0.19614626204E+02 -0.10703397881E+03  0.14122535488E+03  0.89844139569E+02 0.  0.
         23    2    1    2    0    0 -0.56236345117E+01 -0.19614626204E+02  0.26078070432E+03  0.27698735101E+03  0.91099166026E+02 0.  0.
          5    1    3    3  502    0 -0.21802543139E+02 -0.26961107796E+02 -0.25527809775E+02  0.43312946019E+02  0.47000000000E+01 0. -1.
         -5    1    4    4    0  503  0.19846572815E+02 -0.16961105654E+02  0.16321443733E+02  0.31145546761E+02  0.47000000000E+01 0.  1.
          5    1    4    4  503    0 -0.25470207326E+02 -0.26535205497E+01  0.24445926058E+03  0.24584180425E+03  0.47000000000E+01 0. -1.
         -5    1    3    3    0  502  0.27426177651E+02  0.46575734000E+02 -0.81506169036E+02  0.97912408862E+02  0.47000000000E+01 0.  1.
<mgrwt>
<rscale>  0 0.93048812E+02</rscale>
<asrwt>0</asrwt>
<pdfrwt beam="1">  1        2 0.43996879E-01 0.93356397E+02</pdfrwt>
<pdfrwt beam="2">  1       -2 0.20343537E-01 0.93356397E+02</pdfrwt>
<totfact> 0.22523542E+03</totfact>
</mgrwt>
</event>
<event>
 8    1  0.3466492E-004  0.1005237E+03  0.7546771E-02  0.1285520E+00
          1   -1    0    0  501    0  0.00000000000E+00  0.00000000000E+00  0.65742906085E+03  0.65742906085E+03  0.00000000000E+00 0. -1.
         -1   -1    0    0    0  501 -0.00000000000E+00 -0.00000000000E+00 -0.24311577514E+03  0.24311577514E+03  0.00000000000E+00 0.  1.
         23    2    1    2    0    0 -0.83291336735E+00  0.64199549420E+01 -0.23091459457E+03  0.24753332545E+03  0.88934175977E+02 0.  0.
         23    2    1    2    0    0  0.83291336735E+00 -0.64199549420E+01  0.64522788029E+03  0.65301151054E+03  0.10031503292E+03 0.  0.
          5    1    3    3  502    0  0.26385359621E+02  0.37563948508E+02 -0.99419321953E+02  0.10960624529E+03  0.47000000000E+01 0. -1.
         -5    1    4    4    0  503  0.10394978632E+00  0.41842300448E+02  0.16297170047E+03  0.16832306457E+03  0.47000000000E+01 0.  1.
          5    1    4    4  503    0  0.72896358103E+00 -0.48262255390E+02  0.48225617982E+03  0.48468844597E+03  0.47000000000E+01 0. -1.
         -5    1    3    3    0  502 -0.27218272988E+02 -0.31143993566E+02 -0.13149527262E+03  0.13792708016E+03  0.47000000000E+01 0.  1.
<mgrwt>
<rscale>  0 0.97556325E+02</rscale>
<asrwt>0</asrwt>
<pdfrwt beam="1">  1        1 0.10114293E+00 0.10052371E+03</pdfrwt>
<pdfrwt beam="2">  1       -1 0.37402427E-01 0.10052371E+03</pdfrwt>
<totfact> 0.22426747E+02</totfact>
</mgrwt>
</event>
<event>
 8    1  0.3466492E-004  0.9719113E+02  0.7546771E-02  0.1288381E+00
          3   -1    0    0  501    0  0.00000000000E+00  0.00000000000E+00  0.74499355603E+03  0.74499355603E+03  0.00000000000E+00 0. -1.
         -3   -1    0    0    0  501 -0.00000000000E+00 -0.00000000000E+00 -0.18681330646E+02  0.18681330646E+02  0.00000000000E+00 0.  1.
         23    2    1    2    0    0 -0.31685976272E+02 -0.14302419138E+02  0.14289855260E+03  0.17281814845E+03  0.90760981780E+02 0.  0.
         23    2    1    2    0    0  0.31685976272E+02  0.14302419138E+02  0.58341367278E+03  0.59085673822E+03  0.86784855981E+02 0.  0.
          5    1    4    4  502    0 -0.89860178240E+01  0.38467146303E+02  0.37423463454E+03  0.37634309021E+03  0.47000000000E+01 0. -1.
         -5    1    4    4    0  502  0.40671994096E+02 -0.24164727165E+02  0.20917903825E+03  0.21451364801E+03  0.47000000000E+01 0.  1.
          5    1    3    3  503    0 -0.16732346798E+02  0.35284088278E+02  0.91977254112E+02  0.10003421209E+03  0.47000000000E+01 0. -1.
         -5    1    3    3    0  503 -0.14953629474E+02 -0.49586507416E+02  0.50921298485E+02  0.72783936357E+02  0.47000000000E+01 0.  1.
<mgrwt>
<rscale>  0 0.96252047E+02</rscale>
<asrwt>0</asrwt>
<pdfrwt beam="1">  1        3 0.11461437E+00 0.97191132E+02</pdfrwt>
<pdfrwt beam="2">  1       -3 0.28740514E-02 0.97191132E+02</pdfrwt>
<totfact> 0.78813849E+02</totfact>
</mgrwt>
</event>
<event>
 8    1  0.3466492E-004  0.1090081E+03  0.7546771E-02  0.1262932E+00
          1   -1    0    0  501    0  0.00000000000E+00  0.00000000000E+00  0.20425733300E+03  0.20425733300E+03  0.00000000000E+00 0. -1.
         -1   -1    0    0    0  501 -0.00000000000E+00 -0.00000000000E+00 -0.24245673975E+03  0.24245673975E+03  0.00000000000E+00 0.  1.
         23    2    1    2    0    0 -0.85128706829E+01 -0.61163279605E+02 -0.21415443775E+03  0.24030165653E+03  0.89829545152E+02 0.  0.
         23    2    1    2    0    0  0.85128706829E+01  0.61163279605E+02  0.17595503101E+03  0.20641241622E+03  0.88501394867E+02 0.  0.
          5    1    4    4  502    0 -0.12030984291E+02  0.45359826356E+02  0.17368328412E+03  0.17997286354E+03  0.47000000000E+01 0. -1.
         -5    1    4    4    0  502  0.20543854974E+02  0.15803453249E+02  0.22717468902E+01  0.26439552677E+02  0.47000000000E+01 0.  1.
          5    1    3    3  503    0 -0.10716035215E+02 -0.23396983238E+02 -0.36974313193E+01  0.26419940078E+02  0.47000000000E+01 0. -1.
         -5    1    3    3    0  503  0.22031645322E+01 -0.37766296367E+02 -0.21045700643E+03  0.21388171645E+03  0.47000000000E+01 0.  1.
<mgrwt>
<rscale>  0 0.10873409E+03</rscale>
<asrwt>0</asrwt>
<pdfrwt beam="1">  1        1 0.31424205E-01 0.10900809E+03</pdfrwt>
<pdfrwt beam="2">  1       -1 0.37301037E-01 0.10900809E+03</pdfrwt>
<totfact> 0.98505677E+02</totfact>
</mgrwt>
</event>
<event>
 8    1  0.3466492E-004  0.9811626E+02  0.7546771E-02  0.1285811E+00
         -2   -1    0    0    0  501 -0.00000000000E+00  0.00000000000E+00  0.37284116290E+02  0.37284116290E+02  0.00000000000E+00 0.  1.
          2   -1    0    0  501    0  0.00000000000E+00 -0.00000000000E+00 -0.25293268350E+03  0.25293268350E+03  0.00000000000E+00 0. -1.
         23    2    1    2    0    0 -0.22527495025E+02 -0.69393809164E+01 -0.96748025969E+02  0.13779325410E+03  0.95242623367E+02 0.  0.
         23    2    1    2    0    0  0.22527495025E+02  0.69393809164E+01 -0.11890054124E+03  0.15242354569E+03  0.92411879838E+02 0.  0.
          5    1    3    3  502    0 -0.72505368765E+01  0.41903967892E+02 -0.63551226710E+02  0.76611756450E+02  0.47000000000E+01 0. -1.
         -5    1    4    4    0  503  0.28855705390E+02 -0.14119928258E+02 -0.10891179036E+01  0.32485385720E+02  0.47000000000E+01 0.  1.
          5    1    4    4  503    0 -0.63282103654E+01  0.21059309174E+02 -0.11781142334E+03  0.11993815997E+03  0.47000000000E+01 0. -1.
         -5    1    3    3    0  502 -0.15276958148E+02 -0.48843348809E+02 -0.33196799259E+02  0.61181497645E+02  0.47000000000E+01 0.  1.
<mgrwt>
<rscale>  0 0.97422585E+02</rscale>
<asrwt>0</asrwt>
<pdfrwt beam="1">  1        2 0.38912723E-01 0.98116259E+02</pdfrwt>
<pdfrwt beam="2">  1       -2 0.57360176E-02 0.98116259E+02</pdfrwt>
<totfact> 0.18888628E+04</totfact>
</mgrwt>
</event>
<event>
 8    1  0.3466492E-004  0.9335696E+02  0.7546771E-02  0.1297509E+00
         -2   -1    0    0    0  501 -0.00000000000E+00  0.00000000000E+00  0.32457276827E+02  0.32457276827E+02  0.00000000000E+00 0.  1.
          2   -1    0    0  501    0  0.00000000000E+00 -0.00000000000E+00 -0.25927833751E+03  0.25927833751E+03  0.00000000000E+00 0. -1.
         23    2    1    2    0    0 -0.11927916243E+02  0.48761679959E+01 -0.12691416546E+03  0.15499896997E+03  0.88042166584E+02 0.  0.
         23    2    1    2    0    0  0.11927916243E+02 -0.48761679959E+01 -0.99906895228E+02  0.13673664437E+03  0.92463344090E+02 0.  0.
          5    1    4    4  502    0 -0.37881876815E+02 -0.12586100807E+02 -0.28780411994E+02  0.49435297502E+02  0.47000000000E+01 0. -1.
         -5    1    4    4    0  502  0.49809793058E+02  0.77099328114E+01 -0.71126483235E+02  0.87301346872E+02  0.47000000000E+01 0.  1.
          5    1    3    3  503    0 -0.32345515443E+02  0.20720246091E+02 -0.12236661219E+03  0.12834032393E+03  0.47000000000E+01 0. -1.
         -5    1    3    3    0  503  0.20417599200E+02 -0.15844078095E+02 -0.45475532654E+01  0.26658646036E+02  0.47000000000E+01 0.  1.
<mgrwt>
<rscale>  0 0.92242990E+02</rscale>
<asrwt>0</asrwt>
<pdfrwt beam="1">  1        2 0.39888974E-01 0.93356961E+02</pdfrwt>
<pdfrwt beam="2">  1       -2 0.49934273E-02 0.93356961E+02</pdfrwt>
<totfact> 0.22517659E+04</totfact>
</mgrwt>
</event>
<event>
 8    1  0.3466492E-004  0.1670538E+03  0.7546771E-02  0.1181021E+00
          1   -1    0    0  501    0  0.00000000000E+00  0.00000000000E+00  0.56770244963E+03  0.56770244963E+03  0.00000000000E+00 0. -1.
         -1   -1    0    0    0  501 -0.00000000000E+00 -0.00000000000E+00 -0.52587933226E+02  0.52587933226E+02  0.00000000000E+00 0.  1.
         23    2    1    2    0    0 -0.13165055378E+03 -0.46938351922E+02  0.17734019012E+03  0.24346355301E+03  0.91048785954E+02 0.  0.
         23    2    1    2    0    0  0.13165055378E+03  0.46938351922E+02  0.33777432629E+03  0.37682682984E+03  0.91498016370E+02 0.  0.
          5    1    4    4  502    0  0.43582730288E+02 -0.23709043096E+02  0.14558617471E+03  0.15387981469E+03  0.47000000000E+01 0. -1.
         -5    1    4    4    0  502  0.88067823490E+02  0.70647395017E+02  0.19218815158E+03  0.22294701515E+03  0.47000000000E+01 0.  1.
          5    1    3    3  503    0 -0.68387618156E+02 -0.24424963759E+02  0.15715977631E+03  0.17318986824E+03  0.47000000000E+01 0. -1.
         -5    1    3    3    0  503 -0.63262935622E+02 -0.22513388163E+02  0.20180413808E+02  0.70273684773E+02  0.47000000000E+01 0.  1.
<mgrwt>
<rscale>  0 0.16699234E+03</rscale>
<asrwt>0</asrwt>
<pdfrwt beam="1">  1        1 0.87338834E-01 0.16705378E+03</pdfrwt>
<pdfrwt beam="2">  1       -1 0.80904517E-02 0.16705378E+03</pdfrwt>
<totfact> 0.31571540E+03</totfact>
</mgrwt>
</event>
<event>
 8    1  0.3466492E-004  0.3462647E+03  0.7546771E-02  0.1064179E+00
         -2   -1    0    0    0  501 -0.00000000000E+00  0.00000000000E+00  0.26978117512E+03  0.26978117512E+03  0.00000000000E+00 0.  1.
          2   -1    0    0  501    0  0.00000000000E+00 -0.00000000000E+00 -0.45037447876E+03  0.45037447876E+03  0.00000000000E+00 0. -1.
         23    2    1    2    0    0  0.25903143047E+03 -0.21091714689E+03 -0.13249101620E+03  0.37056577430E+03  0.90453296716E+02 0.  0.
         23    2    1    2    0    0 -0.25903143047E+03  0.21091714689E+03 -0.48102287434E+02  0.34958987958E+03  0.91191715764E+02 0.  0.
          5    1    4    4  502    0 -0.11899036445E+03  0.11422274901E+03  0.20026607978E+02  0.16621882640E+03  0.47000000000E+01 0. -1.
         -5    1    3    3    0  503  0.23427101014E+03 -0.15087149535E+03 -0.12350309534E+03  0.30482817924E+03  0.47000000000E+01 0.  1.
          5    1    3    3  503    0  0.24760420334E+02 -0.60045651531E+02 -0.89879208668E+01  0.65737595061E+02  0.47000000000E+01 0. -1.
         -5    1    4    4    0  502 -0.14004106602E+03  0.96694397880E+02 -0.68128895411E+02  0.18337105318E+03  0.47000000000E+01 0.  1.
<mgrwt>
<rscale>  0 0.34621627E+03</rscale>
<asrwt>0</asrwt>
<pdfrwt beam="1">  1        2 0.69288380E-01 0.34626472E+03</pdfrwt>
<pdfrwt beam="2">  1       -2 0.41504797E-01 0.34626472E+03</pdfrwt>
<totfact> 0.38960814E+02</totfact>
</mgrwt>
</event>
<event>
 8    1  0.3466492E-004  0.1801404E+03  0.7546771E-02  0.1169777E+00
         -2   -1    0    0    0  501 -0.00000000000E+00  0.00000000000E+00  0.32088265804E+03  0.32088265804E+03  0.00000000000E+00 0.  1.
          2   -1    0    0  501    0  0.00000000000E+00 -0.00000000000E+00 -0.13320506556E+03  0.13320506556E+03  0.00000000000E+00 0. -1.
         23    2    1    2    0    0  0.68117675415E+02  0.13555815067E+03  0.21478448110E+03  0.28032649031E+03  0.97131549619E+02 0.  0.
         23    2    1    2    0    0 -0.68117675415E+02 -0.13555815067E+03 -0.27106888621E+02  0.17376123328E+03  0.80263023021E+02 0.  0.
          5    1    3    3  502    0  0.52982276341E+02  0.39011075838E+02  0.14751928507E+03  0.16159521996E+03  0.47000000000E+01 0. -1.
         -5    1    4    4    0  503 -0.36977636999E+02 -0.63036808799E+02  0.26894467223E+02  0.78015301504E+02  0.47000000000E+01 0.  1.
          5    1    4    4  503    0 -0.31140038417E+02 -0.72521341868E+02 -0.54001355844E+02  0.95745931777E+02  0.47000000000E+01 0. -1.
         -5    1    3    3    0  502  0.15135399074E+02  0.96547074829E+02  0.67265196030E+02  0.11873127036E+03  0.47000000000E+01 0.  1.
<mgrwt>
<rscale>  0 0.17797504E+03</rscale>
<asrwt>0</asrwt>
<pdfrwt beam="1">  1        2 0.20493087E-01 0.18014041E+03</pdfrwt>
<pdfrwt beam="2">  1       -2 0.49366563E-01 0.18014041E+03</pdfrwt>
<totfact> 0.10535666E+03</totfact>
</mgrwt>
</event>
<event>
 8    1  0.3466492E-004  0.1342301E+03  0.7546771E-02  0.1224382E+00
          4   -1    0    0  501    0  0.00000000000E+00  0.00000000000E+00  0.63496494554E+02  0.63496494554E+02  0.00000000000E+00 0. -1.
         -4   -1    0    0    0  501 -0.00000000000E+00 -0.00000000000E+00 -0.30098079761E+03  0.30098079761E+03  0.00000000000E+00 0.  1.
         23    2    1    2    0    0 -0.55826438143E+02  0.65134477812E+02 -0.17712075846E+03  0.21729892075E+03  0.92130160566E+02 0.  0.
         23    2    1    2    0    0  0.55826438143E+02 -0.65134477812E+02 -0.60363544603E+02  0.14717837142E+03  0.10324061265E+03 0.  0.
          5    1    4    4  502    0  0.29997393666E+02  0.65134417542E+01 -0.63628591934E+02  0.70802233452E+02  0.47000000000E+01 0. -1.
         -5    1    4    4    0  502  0.25829044477E+02 -0.71647919567E+02  0.32650473312E+01  0.76376137968E+02  0.47000000000E+01 0.  1.
          5    1    3    3  503    0  0.14673629262E+02  0.17257576170E+02 -0.29269229010E+01  0.23319438429E+02  0.47000000000E+01 0. -1.
         -5    1    3    3    0  503 -0.70500067405E+02  0.47876901643E+02 -0.17419383555E+03  0.19397948232E+03  0.47000000000E+01 0.  1.
<mgrwt>
<rscale>  0 0.13209336E+03</rscale>
<asrwt>0</asrwt>
<pdfrwt beam="1">  1        4 0.97686912E-02 0.13423008E+03</pdfrwt>
<pdfrwt beam="2">  1       -4 0.46304739E-01 0.13423008E+03</pdfrwt>
<totfact> 0.59230926E+02</totfact>
</mgrwt>
</event>
<event>
 8    1  0.3466492E-004  0.1198822E+03  0.7546771E-02  0.1243778E+00
          2   -1    0    0  501    0  0.00000000000E+00  0.00000000000E+00  0.67443435723E+02  0.67443435723E+02  0.00000000000E+00 0. -1.
         -2   -1    0    0    0  501 -0.00000000000E+00 -0.00000000000E+00 -0.26406413849E+03  0.26406413849E+03  0.00000000000E+00 0.  1.
         23    2    1    2    0    0  0.72657144354E+02  0.31903863546E+02 -0.24403401884E+02  0.12234083020E+03  0.89860088897E+02 0.  0.
         23    2    1    2    0    0 -0.72657144354E+02 -0.31903863546E+02 -0.17221730088E+03  0.20916674401E+03  0.88289359161E+02 0.  0.
          5    1    4    4  502    0 -0.63734489835E+02  0.15713683346E+02 -0.70734648715E+02  0.96615141503E+02  0.47000000000E+01 0. -1.
         -5    1    4    4    0  502 -0.89226545191E+01 -0.47617546892E+02 -0.10148265217E+03  0.11255160251E+03  0.47000000000E+01 0.  1.
          5    1    3    3  503    0  0.78826535416E+01  0.44296863686E+02  0.12084815144E+02  0.46823937429E+02  0.47000000000E+01 0. -1.
         -5    1    3    3    0  503  0.64774490812E+02 -0.12393000141E+02 -0.36488217028E+02  0.75516892774E+02  0.47000000000E+01 0.  1.
<mgrwt>
<rscale>  0 0.11958796E+03</rscale>
<asrwt>0</asrwt>
<pdfrwt beam="1">  1        2 0.10375913E-01 0.11988225E+03</pdfrwt>
<pdfrwt beam="2">  1       -2 0.40625253E-01 0.11988225E+03</pdfrwt>
<totfact> 0.33623881E+03</totfact>
</mgrwt>
</event>
<event>
 8    1  0.3466492E-004  0.9617228E+02  0.7546771E-02  0.1291667E+00
          1   -1    0    0  501    0  0.00000000000E+00  0.00000000000E+00  0.44847196739E+03  0.44847196739E+03  0.00000000000E+00 0. -1.
         -1   -1    0    0    0  501 -0.00000000000E+00 -0.00000000000E+00 -0.28167730815E+02  0.28167730815E+02  0.00000000000E+00 0.  1.
         23    2    1    2    0    0  0.60023234045E+01  0.28750266687E+02  0.73556345993E+02  0.11680194675E+03  0.85846100715E+02 0.  0.
         23    2    1    2    0    0 -0.60023234045E+01 -0.28750266687E+02  0.34674789058E+03  0.35983775145E+03  0.91577846817E+02 0.  0.
          5    1    4    4  502    0 -0.22443833627E+02  0.24694559021E+02  0.19820433616E+03  0.20104873983E+03  0.47000000000E+01 0. -1.
         -5    1    4    4    0  502  0.16441510223E+02 -0.53444825708E+02  0.14854355442E+03  0.15878901162E+03  0.47000000000E+01 0.  1.
          5    1    3    3  503    0 -0.35369171517E+02  0.22471093565E+02  0.58436257209E+02  0.72061185783E+02  0.47000000000E+01 0. -1.
         -5    1    3    3    0  503  0.41371494922E+02  0.62791731217E+01  0.15120088784E+02  0.44740760968E+02  0.47000000000E+01 0.  1.
<mgrwt>
<rscale>  0 0.94782172E+02</rscale>
<asrwt>0</asrwt>
<pdfrwt beam="1">  1        1 0.68995682E-01 0.96172282E+02</pdfrwt>
<pdfrwt beam="2">  1       -1 0.43334974E-02 0.96172282E+02</pdfrwt>
<totfact> 0.10522190E+04</totfact>
</mgrwt>
</event>
<event>
 8    1  0.3466492E-004  0.1047899E+03  0.7546771E-02  0.1274678E+00
          1   -1    0    0  501    0  0.00000000000E+00  0.00000000000E+00  0.18394544851E+03  0.18394544851E+03  0.00000000000E+00 0. -1.
         -1   -1    0    0    0  501 -0.00000000000E+00 -0.00000000000E+00 -0.76447090361E+02  0.76447090361E+02  0.00000000000E+00 0.  1.
         23    2    1    2    0    0 -0.26512859429E+02  0.10470727940E+02 -0.16388169517E+02  0.98131014286E+02  0.92458401490E+02 0.  0.
         23    2    1    2    0    0  0.26512859429E+02 -0.10470727940E+02  0.12388652767E+03  0.16226152459E+03  0.10083830009E+03 0.  0.
          5    1    4    4  502    0  0.63077583989E+02 -0.56411322902E+01  0.55126788694E+02  0.84093143639E+02  0.47000000000E+01 0. -1.
         -5    1    4    4    0  502 -0.36564724560E+02 -0.48295956502E+01  0.68759738972E+02  0.78168380946E+02  0.47000000000E+01 0.  1.
          5    1    3    3  503    0  0.65450030985E+00  0.45804946219E+02  0.85571539832E+01  0.46838406816E+02  0.47000000000E+01 0. -1.
         -5    1    3    3    0  503 -0.27167359739E+02 -0.35334218279E+02 -0.24945323500E+02  0.51292607470E+02  0.47000000000E+01 0.  1.
<mgrwt>
<rscale>  0 0.10272016E+03</rscale>
<asrwt>0</asrwt>
<pdfrwt beam="1">  1        1 0.28299300E-01 0.10478994E+03</pdfrwt>
<pdfrwt beam="2">  1       -1 0.11761091E-01 0.10478994E+03</pdfrwt>
<totfact> 0.71787040E+03</totfact>
</mgrwt>
</event>
<event>
 8    1  0.3466492E-004  0.1294277E+03  0.7546771E-02  0.1239244E+00
         -1   -1    0    0    0  501 -0.00000000000E+00  0.00000000000E+00  0.16106915940E+03  0.16106915940E+03  0.00000000000E+00 0.  1.
          1   -1    0    0  501    0  0.00000000000E+00 -0.00000000000E+00 -0.10986616894E+03  0.10986616894E+03  0.00000000000E+00 0. -1.
         23    2    1    2    0    0  0.48828076263E+02  0.12916437329E+02  0.88641809122E+02  0.13620149420E+03  0.90235587847E+02 0.  0.
         23    2    1    2    0    0 -0.48828076263E+02 -0.12916437329E+02 -0.37438818666E+02  0.13473383414E+03  0.11916595795E+03 0.  0.
          5    1    4    4  502    0 -0.66288846392E+02 -0.46695350415E+02 -0.79781594397E-01  0.81220460916E+02  0.47000000000E+01 0. -1.
         -5    1    3    3    0  503  0.53860389943E+02  0.40996907716E+02  0.82189074126E+02  0.10657777420E+03  0.47000000000E+01 0.  1.
          5    1    3    3  503    0 -0.50323136801E+01 -0.28080470387E+02  0.64527349961E+01  0.29623720007E+02  0.47000000000E+01 0. -1.
         -5    1    4    4    0  502  0.17460770129E+02  0.33778913086E+02 -0.37359037072E+02  0.53513373223E+02  0.47000000000E+01 0.  1.
<mgrwt>
<rscale>  0 0.12236590E+03</rscale>
<asrwt>0</asrwt>
<pdfrwt beam="1">  1        1 0.16902488E-01 0.12942774E+03</pdfrwt>
<pdfrwt beam="2">  1       -1 0.24779871E-01 0.12942774E+03</pdfrwt>
<totfact> 0.42952639E+03</totfact>
</mgrwt>
</event>
<event>
 7    1  0.3466492E-004  0.2200404E+03  0.7546771E-02  0.1158728E+00
          2   -1    0    0  501    0  0.00000000000E+00  0.00000000000E+00  0.83463841709E+03  0.83463841709E+03  0.00000000000E+00 0. -1.
         -2   -1    0    0    0  501 -0.00000000000E+00 -0.00000000000E+00 -0.35177647849E+02  0.35177647849E+02  0.00000000000E+00 0.  1.
         23    2    1    2    0    0 -0.73280225690E+02 -0.47097391909E+02  0.25197276922E+03  0.27976445653E+03  0.84792210153E+02 0.  0.
          5    1    1    2  502    0  0.43970803880E+02  0.83213109830E+02  0.53277123882E+03  0.54104078973E+03  0.47000000000E+01 0. -1.
         -5    1    1    2    0  502  0.29309421809E+02 -0.36115717922E+02  0.14716761199E+02  0.49010818683E+02  0.47000000000E+01 0.  1.
          5    1    3    3  503    0 -0.89617291669E+02 -0.30401651982E+02  0.17265457375E+03  0.19694469083E+03  0.47000000000E+01 0. -1.
         -5    1    3    3    0  503  0.16337065980E+02 -0.16695739926E+02  0.79318195474E+02  0.82819765695E+02  0.47000000000E+01 0.  1.
<mgrwt>
<rscale>  0 0.18970482E+03</rscale>
<asrwt>0</asrwt>
<pdfrwt beam="1">  1        2 0.12840590E+00 0.22004043E+03</pdfrwt>
<pdfrwt beam="2">  1       -2 0.54119464E-02 0.22004043E+03</pdfrwt>
<totfact> 0.57637848E+03</totfact>
</mgrwt>
</event>
<event>
 8    1  0.3466492E-004  0.9557378E+02  0.7546771E-02  0.1291243E+00
         -2   -1    0    0    0  501 -0.00000000000E+00  0.00000000000E+00  0.66353828430E+02  0.66353828430E+02  0.00000000000E+00 0.  1.
          2   -1    0    0  501    0  0.00000000000E+00 -0.00000000000E+00 -0.39630575949E+03  0.39630575949E+03  0.00000000000E+00 0. -1.
         23    2    1    2    0    0  0.52001923156E+01  0.13029934710E+02  0.22425733646E+02  0.98169553463E+02  0.94538492155E+02 0.  0.
         23    2    1    2    0    0 -0.52001923156E+01 -0.13029934710E+02 -0.35237766471E+03  0.36449003446E+03  0.92120277004E+02 0.  0.
          5    1    3    3  502    0 -0.32016566345E+02  0.38333010336E+02  0.89544047709E+01  0.50958331672E+02  0.47000000000E+01 0. -1.
         -5    1    4    4    0  503  0.28981799105E+02  0.27224726816E+02 -0.14237785736E+03  0.14790089484E+03  0.47000000000E+01 0.  1.
          5    1    4    4  503    0 -0.34181991420E+02 -0.40254661526E+02 -0.20999980735E+03  0.21658913962E+03  0.47000000000E+01 0. -1.
         -5    1    3    3    0  502  0.37216758661E+02 -0.25303075626E+02  0.13471328875E+02  0.47211221791E+02  0.47000000000E+01 0.  1.
<mgrwt>
<rscale>  0 0.94970253E+02</rscale>
<asrwt>0</asrwt>
<pdfrwt beam="1">  1        2 0.60970116E-01 0.95573781E+02</pdfrwt>
<pdfrwt beam="2">  1       -2 0.10208281E-01 0.95573781E+02</pdfrwt>
<totfact> 0.48782087E+03</totfact>
</mgrwt>
</event>
<event>
 8    1  0.3466492E-004  0.9917722E+02  0.7546771E-02  0.1283470E+00
         -2   -1    0    0    0  501 -0.00000000000E+00  0.00000000000E+00  0.32132479744E+03  0.32132479744E+03  0.00000000000E+00 0.  1.
          2   -1    0    0  501    0  0.00000000000E+00 -0.00000000000E+00 -0.39128507720E+02  0.39128507720E+02  0.00000000000E+00 0. -1.
         23    2    1    2    0    0  0.63692851758E+01 -0.37211720928E+02  0.22764944870E+03  0.24726550451E+03  0.88829489828E+02 0.  0.
         23    2    1    2    0    0 -0.63692851758E+01  0.37211720928E+02  0.54546841025E+02  0.11318780065E+03  0.91710633959E+02 0.  0.
          5    1    4    4  502    0  0.15593253200E+02  0.61132924783E+02  0.48745894600E+02  0.79866365125E+02  0.47000000000E+01 0. -1.
         -5    1    4    4    0  502 -0.21962538375E+02 -0.23921203855E+02  0.58009464243E+01  0.33321435521E+02  0.47000000000E+01 0.  1.
          5    1    3    3  503    0 -0.37439492158E+02 -0.19891626904E+01  0.65926778821E+02  0.75987515468E+02  0.47000000000E+01 0. -1.
         -5    1    3    3    0  503  0.43808777334E+02 -0.35222558238E+02  0.16172266987E+03  0.17127798905E+03  0.47000000000E+01 0.  1.
<mgrwt>
<rscale>  0 0.98505931E+02</rscale>
<asrwt>0</asrwt>
<pdfrwt beam="1">  1        2 0.60197706E-02 0.99177217E+02</pdfrwt>
<pdfrwt beam="2">  1       -2 0.49434583E-01 0.99177217E+02</pdfrwt>
<totfact> 0.44813983E+03</totfact>
</mgrwt>
</event>
<event>
 8    1  0.3466492E-004  0.9961863E+02  0.7546771E-02  0.1285094E+00
         -1   -1    0    0    0  501 -0.00000000000E+00  0.00000000000E+00  0.40443945998E+02  0.40443945998E+02  0.00000000000E+00 0.  1.
          1   -1    0    0  501    0  0.00000000000E+00 -0.00000000000E+00 -0.36384407933E+03  0.36384407933E+03  0.00000000000E+00 0. -1.
         23    2    1    2    0    0  0.92374216411E+01 -0.42600374524E+02 -0.28906763381E+03  0.30575148281E+03  0.89575389779E+02 0.  0.
         23    2    1    2    0    0 -0.92374216411E+01  0.42600374524E+02 -0.34332499523E+02  0.98536542522E+02  0.81428544262E+02 0.  0.
          5    1    4    4  502    0 -0.24648280032E+02 -0.16101942321E+02 -0.27036772867E+01  0.29936768796E+02  0.47000000000E+01 0. -1.
         -5    1    3    3    0  503  0.46895405122E+02 -0.84083250152E+01 -0.12231660518E+03  0.13135189703E+03  0.47000000000E+01 0.  1.
          5    1    3    3  503    0 -0.37657983481E+02 -0.34192049509E+02 -0.16675102863E+03  0.17439958578E+03  0.47000000000E+01 0. -1.
         -5    1    4    4    0  502  0.15410858391E+02  0.58702316845E+02 -0.31628822236E+02  0.68599773726E+02  0.47000000000E+01 0.  1.
<mgrwt>
<rscale>  0 0.97752688E+02</rscale>
<asrwt>0</asrwt>
<pdfrwt beam="1">  1        1 0.55976010E-01 0.99618634E+02</pdfrwt>
<pdfrwt beam="2">  1       -1 0.62221458E-02 0.99618634E+02</pdfrwt>
<totfact> 0.80534534E+03</totfact>
</mgrwt>
</event>
<event>
 8    1  0.3466492E-004  0.9334581E+02  0.7546771E-02  0.1300899E+00
         -1   -1    0    0    0  501 -0.00000000000E+00  0.00000000000E+00  0.10659478323E+03  0.10659478323E+03  0.00000000000E+00 0.  1.
          1   -1    0    0  501    0  0.00000000000E+00 -0.00000000000E+00 -0.18044686643E+03  0.18044686643E+03  0.00000000000E+00 0. -1.
         23    2    1    2    0    0  0.73651396995E+01 -0.21110857358E+02  0.74352565521E+02  0.11189012285E+03  0.80567872075E+02 0.  0.
         23    2    1    2    0    0 -0.73651396995E+01  0.21110857358E+02 -0.14820464872E+03  0.17515152681E+03  0.90628504684E+02 0.  0.
          5    1    3    3  502    0  0.26694017337E+02 -0.89899691961E+01 -0.51746057524E+01  0.29021658333E+02  0.47000000000E+01 0.  1.
         -5    1    3    3    0  502 -0.19328877637E+02 -0.12120888162E+02  0.79527171274E+02  0.82868464517E+02  0.47000000000E+01 0.  1.
          5    1    4    4  503    0 -0.47317778778E+02  0.22771494562E+02 -0.76324412101E+02  0.92763241835E+02  0.47000000000E+01 0. -1.
         -5    1    4    4    0  503  0.39952639078E+02 -0.16606372044E+01 -0.71880236619E+02  0.82388284978E+02  0.47000000000E+01 0.  1.
<mgrwt>
<rscale>  0 0.90811168E+02</rscale>
<asrwt>0</asrwt>
<pdfrwt beam="1">  1        1 0.27761056E-01 0.93345806E+02</pdfrwt>
<pdfrwt beam="2">  1       -1 0.16399198E-01 0.93345806E+02</pdfrwt>
<totfact> 0.43611880E+03</totfact>
</mgrwt>
</event>
<event>
 8    1  0.3466492E-004  0.9582263E+02  0.7546771E-02  0.1289655E+00
          2   -1    0    0  501    0  0.00000000000E+00  0.00000000000E+00  0.53050107727E+03  0.53050107727E+03  0.00000000000E+00 0. -1.
         -2   -1    0    0    0  501 -0.00000000000E+00 -0.00000000000E+00 -0.76881930044E+02  0.76881930044E+02  0.00000000000E+00 0.  1.
         23    2    1    2    0    0  0.27368475197E+02  0.90465896330E+01 -0.40600178471E+02  0.10406897012E+03  0.91384363172E+02 0.  0.
         23    2    1    2    0    0 -0.27368475197E+02 -0.90465896330E+01  0.49421932569E+03  0.50331403719E+03  0.90782178437E+02 0.  0.
          5    1    3    3  502    0  0.25645668814E+02  0.38641350215E+02 -0.53881088569E+02  0.71246866463E+02  0.47000000000E+01 0. -1.
         -5    1    4    4    0  503 -0.14787602554E+02 -0.43350722543E+02  0.39130901791E+03  0.39400862406E+03  0.47000000000E+01 0.  1.
          5    1    4    4  503    0 -0.12580872644E+02  0.34304132910E+02  0.10291030778E+03  0.10930541312E+03  0.47000000000E+01 0. -1.
         -5    1    3    3    0  502  0.17228063835E+01 -0.29594760582E+02  0.13280910099E+02  0.32822103662E+02  0.47000000000E+01 0.  1.
<mgrwt>
<rscale>  0 0.95678774E+02</rscale>
<asrwt>0</asrwt>
<pdfrwt beam="1">  1        2 0.81615548E-01 0.95822628E+02</pdfrwt>
<pdfrwt beam="2">  1       -2 0.11827990E-01 0.95822628E+02</pdfrwt>
<totfact> 0.28328455E+03</totfact>
</mgrwt>
</event>
<event>
 8    1  0.3466492E-004  0.2218540E+03  0.7546771E-02  0.1132556E+00
         -3   -1    0    0    0  501 -0.00000000000E+00  0.00000000000E+00  0.44144230502E+03  0.44144230502E+03  0.00000000000E+00 0.  1.
          3   -1    0    0  501    0  0.00000000000E+00 -0.00000000000E+00 -0.17578595626E+03  0.17578595626E+03  0.00000000000E+00 0. -1.
         23    2    1    2    0    0  0.21464064618E+02 -0.20225747016E+03  0.31970058471E+03  0.38913705305E+03  0.88602437270E+02 0.  0.
         23    2    1    2    0    0 -0.21464064618E+02  0.20225747016E+03 -0.54044235946E+02  0.22809120823E+03  0.87954701570E+02 0.  0.
          5    1    3    3  502    0 -0.12082833923E+02 -0.67199535214E+02  0.47242812765E+02  0.83160962997E+02  0.47000000000E+01 0. -1.
         -5    1    4    4    0  503  0.22193254078E+02  0.15604164920E+03 -0.34484133859E+02  0.16140874295E+03  0.47000000000E+01 0.  1.
          5    1    4    4  503    0 -0.43657318697E+02  0.46215820956E+02 -0.19560102087E+02  0.66682465282E+02  0.47000000000E+01 0. -1.
         -5    1    3    3    0  502  0.33546898541E+02 -0.13505793494E+03  0.27245777194E+03  0.30597609005E+03  0.47000000000E+01 0.  1.
<mgrwt>
<rscale>  0 0.22178946E+03</rscale>
<asrwt>0</asrwt>
<pdfrwt beam="1">  1        3 0.27043993E-01 0.22185397E+03</pdfrwt>
<pdfrwt beam="2">  1       -3 0.67914200E-01 0.22185397E+03</pdfrwt>
<totfact> 0.67991778E+01</totfact>
</mgrwt>
</event>
<event>
 8    1  0.3466492E-004  0.1105845E+03  0.7546771E-02  0.1260184E+00
         -1   -1    0    0    0  501 -0.00000000000E+00  0.00000000000E+00  0.39014258661E+03  0.39014258661E+03  0.00000000000E+00 0.  1.
          1   -1    0    0  501    0  0.00000000000E+00 -0.00000000000E+00 -0.31159139967E+02  0.31159139967E+02  0.00000000000E+00 0. -1.
         23    2    1    2    0    0  0.34674806432E+02 -0.49206740708E+02  0.19664561017E+03  0.22487741374E+03  0.90976423751E+02 0.  0.
         23    2    1    2    0    0 -0.34674806432E+02  0.49206740708E+02  0.16233783647E+03  0.19642431283E+03  0.92764713070E+02 0.  0.
          5    1    3    3  502    0  0.52498029195E+02  0.16248483856E+01  0.12003526708E+03  0.13110773640E+03  0.47000000000E+01 0. -1.
         -5    1    3    3    0  502 -0.17823222764E+02 -0.50831589094E+02  0.76610343096E+02  0.93769677342E+02  0.47000000000E+01 0.  1.
          5    1    4    4  503    0 -0.44158964243E+01  0.36293448124E+02  0.69361827765E+01  0.37508867611E+02  0.47000000000E+01 0. -1.
         -5    1    4    4    0  503 -0.30258910007E+02  0.12913292584E+02  0.15540165369E+03  0.15891544522E+03  0.47000000000E+01 0.  1.
<mgrwt>
<rscale>  0 0.11020867E+03</rscale>
<asrwt>0</asrwt>
<pdfrwt beam="1">  1        1 0.47937141E-02 0.11058453E+03</pdfrwt>
<pdfrwt beam="2">  1       -1 0.60021933E-01 0.11058453E+03</pdfrwt>
<totfact> 0.48235894E+03</totfact>
</mgrwt>
</event>
<event>
 8    1  0.3466492E-004  0.9671017E+02  0.7546771E-02  0.1288997E+00
         -2   -1    0    0    0  501 -0.00000000000E+00  0.00000000000E+00  0.16840295838E+03  0.16840295838E+03  0.00000000000E+00 0.  1.
          2   -1    0    0  501    0  0.00000000000E+00 -0.00000000000E+00 -0.24741916156E+03  0.24741916156E+03  0.00000000000E+00 0. -1.
         23    2    1    2    0    0  0.77667056593E+01 -0.16716952697E+02  0.14450327039E+03  0.17227785056E+03  0.91971106419E+02 0.  0.
         23    2    1    2    0    0 -0.77667056593E+01  0.16716952697E+02 -0.22351947357E+03  0.24354426939E+03  0.94937231171E+02 0.  0.
          5    1    4    4  502    0  0.43088481166E+02  0.14020015070E+02 -0.10338903536E+03  0.11298035522E+03  0.47000000000E+01 0. -1.
         -5    1    4    4    0  502 -0.50855186826E+02  0.26969376276E+01 -0.12013043820E+03  0.13056391417E+03  0.47000000000E+01 0.  1.
          5    1    3    3  503    0 -0.35915142090E+02  0.91678235948E+01  0.33750767098E+02  0.50350280044E+02  0.47000000000E+01 0. -1.
         -5    1    3    3    0  503  0.43681847749E+02 -0.25884776292E+02  0.11075250329E+03  0.12192757052E+03  0.47000000000E+01 0.  1.
<mgrwt>
<rscale>  0 0.95974298E+02</rscale>
<asrwt>0</asrwt>
<pdfrwt beam="1">  1        2 0.38064486E-01 0.96710165E+02</pdfrwt>
<pdfrwt beam="2">  1       -2 0.25908147E-01 0.96710165E+02</pdfrwt>
<totfact> 0.17364503E+03</totfact>
</mgrwt>
</event>
<event>
 8    1  0.3466492E-004  0.1618266E+03  0.7546771E-02  0.1189710E+00
         -3   -1    0    0    0  501 -0.00000000000E+00  0.00000000000E+00  0.99171687685E+03  0.99171687685E+03  0.00000000000E+00 0.  1.
          3   -1    0    0  501    0  0.00000000000E+00 -0.00000000000E+00 -0.24771565071E+02  0.24771565071E+02  0.00000000000E+00 0. -1.
         23    2    1    2    0    0  0.17050270036E+02 -0.12146075936E+03  0.52649696342E+03  0.55080569533E+03  0.10556720013E+03 0.  0.
         23    2    1    2    0    0 -0.17050270036E+02  0.12146075936E+03  0.44044834836E+03  0.46568274660E+03  0.88443457252E+02 0.  0.
          5    1    4    4  502    0 -0.46449710844E+02  0.75166883343E+02  0.19497720251E+03  0.21411640640E+03  0.47000000000E+01 0. -1.
         -5    1    3    3    0  503  0.42975403788E+02 -0.76111811337E+02  0.44752006049E+03  0.45600020581E+03  0.47000000000E+01 0.  1.
          5    1    3    3  503    0 -0.25925133752E+02 -0.45348948020E+02  0.78976902928E+02  0.94805489518E+02  0.47000000000E+01 0. -1.
         -5    1    4    4    0  502  0.29399440808E+02  0.46293876015E+02  0.24547114585E+03  0.25156634020E+03  0.47000000000E+01 0.  1.
<mgrwt>
<rscale>  0 0.15910562E+03</rscale>
<asrwt>0</asrwt>
<pdfrwt beam="1">  1        3 0.38110108E-02 0.16182664E+03</pdfrwt>
<pdfrwt beam="2">  1       -3 0.15257180E+00 0.16182664E+03</pdfrwt>
<totfact> 0.27450251E+02</totfact>
</mgrwt>
</event>
<event>
 8    1  0.3466492E-004  0.1054542E+03  0.7546771E-02  0.1270964E+00
         -1   -1    0    0    0  501 -0.00000000000E+00  0.00000000000E+00  0.46013033492E+02  0.46013033492E+02  0.00000000000E+00 0.  1.
          1   -1    0    0  501    0  0.00000000000E+00 -0.00000000000E+00 -0.23380659337E+03  0.23380659337E+03  0.00000000000E+00 0. -1.
         23    2    1    2    0    0 -0.48646021786E+02 -0.10157462007E+02 -0.90503809384E+02  0.13634179343E+03  0.89042325070E+02 0.  0.
         23    2    1    2    0    0  0.48646021786E+02  0.10157462007E+02 -0.97289750492E+02  0.14347783343E+03  0.93010664246E+02 0.  0.
          5    1    4    4  502    0  0.51413197105E+02  0.30574151960E+02 -0.10503956599E+03  0.12096898787E+03  0.47000000000E+01 0. -1.
         -5    1    4    4    0  502 -0.27671753192E+01 -0.20416689953E+02  0.77498154938E+01  0.22508845551E+02  0.47000000000E+01 0.  1.
          5    1    3    3  503    0  0.22574111787E+02  0.12064109109E+02 -0.14744432726E+02  0.29910224806E+02  0.47000000000E+01 0. -1.
         -5    1    3    3    0  503 -0.71220133573E+02 -0.22221571116E+02 -0.75759376658E+02  0.10643156863E+03  0.47000000000E+01 0.  1.
<mgrwt>
<rscale>  0 0.10457249E+03</rscale>
<asrwt>0</asrwt>
<pdfrwt beam="1">  1        1 0.35970245E-01 0.10545422E+03</pdfrwt>
<pdfrwt beam="2">  1       -1 0.70789282E-02 0.10545422E+03</pdfrwt>
<totfact> 0.11499490E+04</totfact>
</mgrwt>
</event>
<event>
 8    1  0.3466492E-004  0.1164443E+03  0.7546771E-02  0.1250045E+00
         -2   -1    0    0    0  501 -0.00000000000E+00  0.00000000000E+00  0.74966186212E+03  0.74966186212E+03  0.00000000000E+00 0.  1.
          2   -1    0    0  501    0  0.00000000000E+00 -0.00000000000E+00 -0.19493891872E+02  0.19493891872E+02  0.00000000000E+00 0. -1.
         23    2    1    2    0    0 -0.11949287642E+02  0.68935832995E+02  0.24664553931E+03  0.27180958971E+03  0.90285638127E+02 0.  0.
         23    2    1    2    0    0  0.11949287642E+02 -0.68935832995E+02  0.48352243094E+03  0.49734616428E+03  0.93082390160E+02 0.  0.
          5    1    3    3  502    0  0.18611123660E+02  0.76680144638E+02  0.14324491919E+03  0.16360750404E+03  0.47000000000E+01 0. -1.
         -5    1    4    4    0  503 -0.33847863423E+02 -0.24241687303E+01  0.17991310926E+03  0.18314576526E+03  0.47000000000E+01 0.  1.
          5    1    4    4  503    0  0.45797151065E+02 -0.66511664265E+02  0.30360932168E+03  0.31420039901E+03  0.47000000000E+01 0. -1.
         -5    1    3    3    0  502 -0.30560411301E+02 -0.77443116433E+01  0.10340062012E+03  0.10820208567E+03  0.47000000000E+01 0.  1.
<mgrwt>
<rscale>  0 0.11588441E+03</rscale>
<asrwt>0</asrwt>
<pdfrwt beam="1">  1        2 0.29990609E-02 0.11644426E+03</pdfrwt>
<pdfrwt beam="2">  1       -2 0.11533257E+00 0.11644426E+03</pdfrwt>
<totfact> 0.18191926E+03</totfact>
</mgrwt>
</event>
<event>
 8    1  0.3466492E-004  0.9739373E+02  0.7546771E-02  0.1286129E+00
         -1   -1    0    0    0  501 -0.00000000000E+00  0.00000000000E+00  0.23847824842E+02  0.23847824842E+02  0.00000000000E+00 0.  1.
          1   -1    0    0  501    0  0.00000000000E+00 -0.00000000000E+00 -0.39687073283E+03  0.39687073283E+03  0.00000000000E+00 0. -1.
         23    2    1    2    0    0 -0.34001340069E+02 -0.14700234512E+02 -0.17537370855E+03  0.20037622049E+03  0.89568432317E+02 0.  0.
         23    2    1    2    0    0  0.34001340069E+02  0.14700234512E+02 -0.19764919944E+03  0.22034233718E+03  0.90074144424E+02 0.  0.
          5    1    3    3  502    0 -0.51972788786E+02  0.20121093303E+02 -0.11982104222E+03  0.13223162000E+03  0.47000000000E+01 0. -1.
         -5    1    4    4    0  503  0.13586366036E+02  0.32231817726E+02 -0.19920311811E+02  0.40526389410E+02  0.47000000000E+01 0.  1.
          5    1    4    4  503    0  0.20414974033E+02 -0.17531583214E+02 -0.17772888763E+03  0.17981594777E+03  0.47000000000E+01 0. -1.
         -5    1    3    3    0  502  0.17971448717E+02 -0.34821327814E+02 -0.55552666334E+02  0.68144600495E+02  0.47000000000E+01 0.  1.
<mgrwt>
<rscale>  0 0.97276645E+02</rscale>
<asrwt>0</asrwt>
<pdfrwt beam="1">  1        1 0.61057031E-01 0.97393734E+02</pdfrwt>
<pdfrwt beam="2">  1       -1 0.36688964E-02 0.97393734E+02</pdfrwt>
<totfact> 0.15643053E+04</totfact>
</mgrwt>
</event>
<event>
 8    1  0.3466492E-004  0.2152637E+03  0.7546771E-02  0.1137604E+00
         -2   -1    0    0    0  501 -0.00000000000E+00  0.00000000000E+00  0.10706356330E+03  0.10706356330E+03  0.00000000000E+00 0.  1.
          2   -1    0    0  501    0  0.00000000000E+00 -0.00000000000E+00 -0.10500326982E+04  0.10500326982E+04  0.00000000000E+00 0. -1.
         23    2    1    2    0    0  0.12387453325E+03 -0.14971217548E+03 -0.91590189999E+03  0.94085852740E+03  0.92627440416E+02 0.  0.
         23    2    1    2    0    0 -0.12387453325E+03  0.14971217548E+03 -0.27067234957E+02  0.21623773413E+03  0.90925722317E+02 0.  0.
          5    1    3    3  502    0 -0.87149643144E+01 -0.22689399226E+02 -0.20990344952E+03  0.21135824460E+03  0.47000000000E+01 0. -1.
         -5    1    4    4    0  503 -0.10567299077E+03  0.16097804371E+03 -0.24399560834E+02  0.19416008885E+03  0.47000000000E+01 0.  1.
          5    1    4    4  503    0 -0.18201542485E+02 -0.11265868231E+02 -0.26676741239E+01  0.22077645279E+02  0.47000000000E+01 0. -1.
         -5    1    3    3    0  502  0.13258949756E+03 -0.12702277625E+03 -0.70599845047E+03  0.72950028281E+03  0.47000000000E+01 0.  1.
<mgrwt>
<rscale>  0 0.21508182E+03</rscale>
<asrwt>0</asrwt>
<pdfrwt beam="1">  1        2 0.16154350E+00 0.21526374E+03</pdfrwt>
<pdfrwt beam="2">  1       -2 0.16471317E-01 0.21526374E+03</pdfrwt>
<totfact> 0.72135937E+02</totfact>
</mgrwt>
</event>
<event>
 8    1  0.3466492E-004  0.1086922E+03  0.7546771E-02  0.1264198E+00
         -1   -1    0    0    0  501 -0.00000000000E+00  0.00000000000E+00  0.78907114521E+02  0.78907114521E+02  0.00000000000E+00 0.  1.
          1   -1    0    0  501    0  0.00000000000E+00 -0.00000000000E+00 -0.24628600098E+03  0.24628600098E+03  0.00000000000E+00 0. -1.
         23    2    1    2    0    0  0.91913090699E+01  0.54242189741E+02  0.19326269563E+02  0.11039698774E+03  0.93740572310E+02 0.  0.
         23    2    1    2    0    0 -0.91913090699E+01 -0.54242189741E+02 -0.18670515602E+03  0.21479612776E+03  0.90839781511E+02 0.  0.
          5    1    3    3  502    0 -0.17774434331E+02  0.10064610386E+02 -0.31414025767E+02  0.37764505993E+02  0.47000000000E+01 0. -1.
         -5    1    4    4    0  503  0.22698884949E+02 -0.27690098734E+01 -0.59228098356E+01  0.24084776726E+02  0.47000000000E+01 0.  1.
          5    1    4    4  503    0 -0.31890194019E+02 -0.51473179867E+02 -0.18078234619E+03  0.19071135103E+03  0.47000000000E+01 0. -1.
         -5    1    3    3    0  502  0.26965743401E+02  0.44177579355E+02  0.50740295330E+02  0.72632481749E+02  0.47000000000E+01 0.  1.
<mgrwt>
<rscale>  0 0.10806385E+03</rscale>
<asrwt>0</asrwt>
<pdfrwt beam="1">  1        1 0.37890153E-01 0.10869218E+03</pdfrwt>
<pdfrwt beam="2">  1       -1 0.12139556E-01 0.10869218E+03</pdfrwt>
<totfact> 0.47864799E+03</totfact>
</mgrwt>
</event>
<event>
 8    1  0.3466492E-004  0.1139359E+03  0.7546771E-02  0.1255658E+00
         -1   -1    0    0    0  501 -0.00000000000E+00  0.00000000000E+00  0.15411866721E+02  0.15411866721E+02  0.00000000000E+00 0.  1.
          1   -1    0    0  501    0  0.00000000000E+00 -0.00000000000E+00 -0.81552982863E+03  0.81552982863E+03  0.00000000000E+00 0. -1.
         23    2    1    2    0    0 -0.57416556395E+02  0.35814723954E+02 -0.36525208437E+03  0.38261007870E+03  0.91662597529E+02 0.  0.
         23    2    1    2    0    0  0.57416556395E+02 -0.35814723954E+02 -0.43486587754E+03  0.44833161665E+03  0.85519305667E+02 0.  0.
          5    1    3    3  502    0  0.20807147424E+02  0.27879148927E+02 -0.10664224201E+03  0.11227128800E+03  0.47000000000E+01 0. -1.
         -5    1    3    3    0  502 -0.78223703819E+02  0.79355750272E+01 -0.25860984236E+03  0.27033879070E+03  0.47000000000E+01 0.  1.
          5    1    4    4  503    0  0.48505148345E+02 -0.13223175655E+02 -0.41055584223E+03  0.41364935801E+03  0.47000000000E+01 0. -1.
         -5    1    4    4    0  503  0.89114080502E+01 -0.22591548299E+02 -0.24310035309E+02  0.34682258645E+02  0.47000000000E+01 0.  1.
<mgrwt>
<rscale>  0 0.11269546E+03</rscale>
<asrwt>0</asrwt>
<pdfrwt beam="1">  1        1 0.12546611E+00 0.11393589E+03</pdfrwt>
<pdfrwt beam="2">  1       -1 0.23710568E-02 0.11393589E+03</pdfrwt>
<totfact> 0.11309122E+04</totfact>
</mgrwt>
</event>
<event>
 8    1  0.3466492E-004  0.1064967E+03  0.7546771E-02  0.1267315E+00
          2   -1    0    0  501    0  0.00000000000E+00  0.00000000000E+00  0.34344197041E+02  0.34344197041E+02  0.00000000000E+00 0. -1.
         -2   -1    0    0    0  501 -0.00000000000E+00 -0.00000000000E+00 -0.36372004697E+03  0.36372004697E+03  0.00000000000E+00 0.  1.
         23    2    1    2    0    0  0.47850929955E+02  0.26219015344E+02 -0.22592171783E+03  0.24976424076E+03  0.91457121720E+02 0.  0.
         23    2    1    2    0    0 -0.47850929955E+02 -0.26219015344E+02 -0.10345413210E+03  0.14830000325E+03  0.91175573768E+02 0.  0.
          5    1    4    4  502    0 -0.38151123491E+02 -0.57489239804E+02 -0.49617497951E+02  0.85114669827E+02  0.47000000000E+01 0. -1.
         -5    1    3    3    0  503 -0.13075705275E+02  0.25134678802E+02 -0.14785902204E+03  0.15062239723E+03  0.47000000000E+01 0.  1.
          5    1    3    3  503    0  0.60926635229E+02  0.10843365422E+01 -0.78062695787E+02  0.99141843535E+02  0.47000000000E+01 0. -1.
         -5    1    4    4    0  502 -0.96998064638E+01  0.31270224460E+02 -0.53836634145E+02  0.63185333419E+02  0.47000000000E+01 0.  1.
<mgrwt>
<rscale>  0 0.10643626E+03</rscale>
<asrwt>0</asrwt>
<pdfrwt beam="1">  1        2 0.52837226E-02 0.10649673E+03</pdfrwt>
<pdfrwt beam="2">  1       -2 0.55956930E-01 0.10649673E+03</pdfrwt>
<totfact> 0.41654687E+03</totfact>
</mgrwt>
</event>
<event>
 8    1  0.3466492E-004  0.1076789E+03  0.7546771E-02  0.1265761E+00
         -1   -1    0    0    0  501 -0.00000000000E+00  0.00000000000E+00  0.31803459186E+02  0.31803459186E+02  0.00000000000E+00 0.  1.
          1   -1    0    0  501    0  0.00000000000E+00 -0.00000000000E+00 -0.36047320251E+03  0.36047320251E+03  0.00000000000E+00 0. -1.
         23    2    1    2    0    0  0.23312327586E+02 -0.44868786098E+02 -0.17662249733E+03  0.20596209604E+03  0.93103200041E+02 0.  0.
         23    2    1    2    0    0 -0.23312327586E+02  0.44868786098E+02 -0.15204724599E+03  0.18631456566E+03  0.95068816016E+02 0.  0.
          5    1    3    3  502    0  0.58988507938E+02 -0.26889276449E+02 -0.97139968157E+02  0.11688002682E+03  0.47000000000E+01 0. -1.
         -5    1    4    4    0  503 -0.51740524242E+02  0.60003994965E+01 -0.45598854599E+02  0.69386109444E+02  0.47000000000E+01 0.  1.
          5    1    4    4  503    0  0.28428196657E+02  0.38868386602E+02 -0.10644839139E+03  0.11692845621E+03  0.47000000000E+01 0. -1.
         -5    1    3    3    0  502 -0.35676180353E+02 -0.17979509649E+02 -0.79482529176E+02  0.89082069217E+02  0.47000000000E+01 0.  1.
<mgrwt>
<rscale>  0 0.10724345E+03</rscale>
<asrwt>0</asrwt>
<pdfrwt beam="1">  1        1 0.55457416E-01 0.10767893E+03</pdfrwt>
<pdfrwt beam="2">  1       -1 0.48928399E-02 0.10767893E+03</pdfrwt>
<totfact> 0.11684057E+04</totfact>
</mgrwt>
</event>
<event>
 8    1  0.3818231E-004  0.1086373E+03  0.7546771E-02  0.1267977E+00
          1   -1    0    0  501    0  0.00000000000E+00  0.00000000000E+00  0.18408949409E+03  0.18408949409E+03  0.00000000000E+00 0. -1.
         -1   -1    0    0    0  501 -0.00000000000E+00 -0.00000000000E+00 -0.94645116458E+02  0.94645116458E+02  0.00000000000E+00 0.  1.
         23    2    1    2    0    0 -0.17971566667E+02 -0.12606399090E+02  0.12954415241E+03  0.16293283288E+03  0.96351035796E+02 0.  0.
         23    2    1    2    0    0  0.17971566667E+02  0.12606399090E+02 -0.40099774779E+02  0.11580177767E+03  0.10639624649E+03 0.  0.
          5    1    3    3  502    0 -0.27008466579E+02 -0.51117985235E+02  0.65318612931E+02  0.87356264095E+02  0.47000000000E+01 0. -1.
         -5    1    4    4    0  503  0.23525946820E+02  0.57502302572E+02 -0.15992009419E+02  0.64325883904E+02  0.47000000000E+01 0.  1.
          5    1    4    4  503    0 -0.55543801529E+01 -0.44895903481E+02 -0.24107765360E+02  0.51475893765E+02  0.47000000000E+01 0. -1.
         -5    1    3    3    0  502  0.90368999127E+01  0.38511586144E+02  0.64225539478E+02  0.75576568781E+02  0.47000000000E+01 0.  1.
<mgrwt>
<rscale>  0 0.10609515E+03</rscale>
<asrwt>0</asrwt>
<pdfrwt beam="1">  1        1 0.28321461E-01 0.10863729E+03</pdfrwt>
<pdfrwt beam="2">  1       -1 0.14560787E-01 0.10863729E+03</pdfrwt>
<totfact> 0.51732860E+03</totfact>
</mgrwt>
</event>
<event>
 8    1  0.3466492E-004  0.9946092E+02  0.7546771E-02  0.1284961E+00
          1   -1    0    0  501    0  0.00000000000E+00  0.00000000000E+00  0.29203124024E+03  0.29203124024E+03  0.00000000000E+00 0. -1.
         -1   -1    0    0    0  501 -0.00000000000E+00 -0.00000000000E+00 -0.36829060331E+02  0.36829060331E+02  0.00000000000E+00 0.  1.
         23    2    1    2    0    0 -0.23886190675E+01 -0.17581518128E+02  0.18513655275E+03  0.20719820287E+03  0.91327634521E+02 0.  0.
         23    2    1    2    0    0  0.23886190675E+01  0.17581518128E+02  0.70065627159E+02  0.12166209770E+03  0.97865512962E+02 0.  0.
          5    1    4    4  502    0  0.48896436905E+02  0.16962581219E+02  0.44273960477E+02  0.68270522775E+02  0.47000000000E+01 0. -1.
         -5    1    4    4    0  502 -0.46507817838E+02  0.61893690887E+00  0.25791666682E+02  0.53391574927E+02  0.47000000000E+01 0.  1.
          5    1    3    3  503    0  0.37936612745E+02  0.11299491220E+02  0.11040803549E+03  0.11738351413E+03  0.47000000000E+01 0. -1.
         -5    1    3    3    0  503 -0.40325231813E+02 -0.28881009348E+02  0.74728517262E+02  0.89814688742E+02  0.47000000000E+01 0.  1.
<mgrwt>
<rscale>  0 0.97814038E+02</rscale>
<asrwt>0</asrwt>
<pdfrwt beam="1">  1        1 0.44927882E-01 0.99460916E+02</pdfrwt>
<pdfrwt beam="2">  1       -1 0.56660095E-02 0.99460916E+02</pdfrwt>
<totfact> 0.12116617E+04</totfact>
</mgrwt>
</event>
<event>
 8    1  0.3466492E-004  0.1258306E+03  0.7546771E-02  0.1233777E+00
          1   -1    0    0  501    0  0.00000000000E+00  0.00000000000E+00  0.40471810763E+02  0.40471810763E+02  0.00000000000E+00 0. -1.
         -1   -1    0    0    0  501 -0.00000000000E+00 -0.00000000000E+00 -0.39307136783E+03  0.39307136783E+03  0.00000000000E+00 0.  1.
         23    2    1    2    0    0  0.39047873775E+02 -0.78253684115E+02 -0.16141311198E+03  0.20466446822E+03  0.90470858897E+02 0.  0.
         23    2    1    2    0    0 -0.39047873775E+02  0.78253684115E+02 -0.19118644509E+03  0.22887871037E+03  0.90470059975E+02 0.  0.
          5    1    4    4  502    0 -0.26604222622E+02  0.95845658120E+02 -0.12944561806E+03  0.16331697057E+03  0.47000000000E+01 0. -1.
         -5    1    4    4    0  502 -0.12443651153E+02 -0.17591974005E+02 -0.61740827030E+02  0.65561739801E+02  0.47000000000E+01 0.  1.
          5    1    3    3  503    0  0.55136975345E+02 -0.19052746818E+02 -0.48225389461E+02  0.75834500066E+02  0.47000000000E+01 0. -1.
         -5    1    3    3    0  503 -0.16089101570E+02 -0.59200937297E+02 -0.11318772252E+03  0.12882996816E+03  0.47000000000E+01 0.  1.
<mgrwt>
<rscale>  0 0.12583050E+03</rscale>
<asrwt>0</asrwt>
<pdfrwt beam="1">  1        1 0.62264325E-02 0.12583065E+03</pdfrwt>
<pdfrwt beam="2">  1       -1 0.60472517E-01 0.12583065E+03</pdfrwt>
<totfact> 0.33639218E+03</totfact>
</mgrwt>
</event>
<event>
 8    1  0.3466492E-004  0.1489743E+03  0.7546771E-02  0.1201974E+00
         -1   -1    0    0    0  501 -0.00000000000E+00  0.00000000000E+00  0.92896182381E+02  0.92896182381E+02  0.00000000000E+00 0.  1.
          1   -1    0    0  501    0  0.00000000000E+00 -0.00000000000E+00 -0.53081764652E+03  0.53081764652E+03  0.00000000000E+00 0. -1.
         23    2    1    2    0    0 -0.11716895236E+03 -0.14237677663E+02  0.13033387186E+02  0.14878897719E+03  0.89649404297E+02 0.  0.
         23    2    1    2    0    0  0.11716895236E+03  0.14237677663E+02 -0.45095485133E+03  0.47492485171E+03  0.90895885361E+02 0.  0.
          5    1    4    4  502    0  0.92794533322E+02  0.49944664693E+02 -0.31916988419E+03  0.33614996641E+03  0.47000000000E+01 0. -1.
         -5    1    4    4    0  502  0.24374419035E+02 -0.35706987030E+02 -0.13178496714E+03  0.13877488530E+03  0.47000000000E+01 0.  1.
          5    1    3    3  503    0 -0.99296380393E+02  0.70094596767E+01  0.42223239147E+02  0.10823028970E+03  0.47000000000E+01 0.  1.
         -5    1    3    3    0  503 -0.17872571965E+02 -0.21247137340E+02 -0.29189851961E+02  0.40558687495E+02  0.47000000000E+01 0. -1.
<mgrwt>
<rscale>  0 0.14878461E+03</rscale>
<asrwt>0</asrwt>
<pdfrwt beam="1">  1        1 0.81664255E-01 0.14897428E+03</pdfrwt>
<pdfrwt beam="2">  1       -1 0.14291720E-01 0.14897428E+03</pdfrwt>
<totfact> 0.14343003E+03</totfact>
</mgrwt>
</event>
<event>
 8    1  0.3466492E-004  0.1312721E+03  0.7546771E-02  0.1225875E+00
          1   -1    0    0  501    0  0.00000000000E+00  0.00000000000E+00  0.59324063104E+03  0.59324063104E+03  0.00000000000E+00 0. -1.
         -1   -1    0    0    0  501 -0.00000000000E+00 -0.00000000000E+00 -0.32366236596E+02  0.32366236596E+02  0.00000000000E+00 0.  1.
         23    2    1    2    0    0 -0.91386761030E+02  0.15918515037E+02  0.17686703610E+03  0.21978176227E+03  0.91744947320E+02 0.  0.
         23    2    1    2    0    0  0.91386761030E+02 -0.15918515037E+02  0.38400735835E+03  0.40582510537E+03  0.92883936523E+02 0.  0.
          5    1    4    4  502    0  0.70055196856E+02 -0.51576749593E+02  0.22132833051E+03  0.23785754475E+03  0.47000000000E+01 0. -1.
         -5    1    3    3    0  503 -0.10485223860E+03  0.30945179623E+02  0.14270836661E+03  0.17983148773E+03  0.47000000000E+01 0.  1.
          5    1    3    3  503    0  0.13465477568E+02 -0.15026664585E+02  0.34158669488E+02  0.39950274540E+02  0.47000000000E+01 0. -1.
         -5    1    4    4    0  502  0.21331564174E+02  0.35658234555E+02  0.16267902784E+03  0.16796756062E+03  0.47000000000E+01 0.  1.
<mgrwt>
<rscale>  0 0.13107078E+03</rscale>
<asrwt>0</asrwt>
<pdfrwt beam="1">  1        1 0.91267781E-01 0.13127210E+03</pdfrwt>
<pdfrwt beam="2">  1       -1 0.49794215E-02 0.13127210E+03</pdfrwt>
<totfact> 0.60849215E+03</totfact>
</mgrwt>
</event>
<event>
 8    1  0.3466492E-004  0.9768400E+02  0.7546771E-02  0.1286711E+00
          2   -1    0    0  501    0  0.00000000000E+00  0.00000000000E+00  0.19232251073E+02  0.19232251073E+02  0.00000000000E+00 0. -1.
         -2   -1    0    0    0  501 -0.00000000000E+00 -0.00000000000E+00 -0.48297944429E+03  0.48297944429E+03  0.00000000000E+00 0.  1.
         23    2    1    2    0    0 -0.11087374874E+02 -0.24831528882E+02 -0.22912963491E+03  0.24908342850E+03  0.93822332357E+02 0.  0.
         23    2    1    2    0    0  0.11087374874E+02  0.24831528882E+02 -0.23461755831E+03  0.25312826687E+03  0.91043869168E+02 0.  0.
          5    1    3    3  502    0  0.12795661157E+02 -0.56258812691E+02 -0.13957974508E+03  0.15110717450E+03  0.47000000000E+01 0. -1.
         -5    1    4    4    0  503  0.22154501232E+02  0.56640404918E+02 -0.15260907085E+03  0.16434894554E+03  0.47000000000E+01 0.  1.
          5    1    4    4  503    0 -0.11067126358E+02 -0.31808876036E+02 -0.82008487460E+02  0.88779321331E+02  0.47000000000E+01 0. -1.
         -5    1    3    3    0  502 -0.23883036031E+02  0.31427283810E+02 -0.89549889835E+02  0.97976253996E+02  0.47000000000E+01 0.  1.
<mgrwt>
<rscale>  0 0.97010706E+02</rscale>
<asrwt>0</asrwt>
<pdfrwt beam="1">  1        2 0.29588076E-02 0.97684005E+02</pdfrwt>
<pdfrwt beam="2">  1       -2 0.74304537E-01 0.97684005E+02</pdfrwt>
<totfact> 0.49129356E+03</totfact>
</mgrwt>
</event>
<event>
 8    1  0.3466492E-004  0.9726289E+02  0.7546771E-02  0.1286599E+00
          2   -1    0    0  501    0  0.00000000000E+00  0.00000000000E+00  0.67238954881E+02  0.67238954881E+02  0.00000000000E+00 0. -1.
         -2   -1    0    0    0  501 -0.00000000000E+00 -0.00000000000E+00 -0.15409735797E+03  0.15409735797E+03  0.00000000000E+00 0.  1.
         23    2    1    2    0    0  0.26012915001E+02  0.13809059896E+02 -0.77286355528E+02  0.12360354276E+03  0.91854739397E+02 0.  0.
         23    2    1    2    0    0 -0.26012915001E+02 -0.13809059896E+02 -0.95720475568E+01  0.97732770088E+02  0.92696862798E+02 0.  0.
          5    1    3    3  502    0  0.32292356719E+02  0.37461288859E+02 -0.84488927691E+01  0.50394625254E+02  0.47000000000E+01 0. -1.
         -5    1    4    4    0  503 -0.59032913062E+02 -0.21296462057E+02 -0.36297654507E+01  0.63037205823E+02  0.47000000000E+01 0.  1.
          5    1    4    4  503    0  0.33019998061E+02  0.74874021609E+01 -0.59422821062E+01  0.34695564265E+02  0.47000000000E+01 0. -1.
         -5    1    3    3    0  502 -0.62794417173E+01 -0.23652228964E+02 -0.68837462759E+02  0.73208917505E+02  0.47000000000E+01 0.  1.
<mgrwt>
<rscale>  0 0.97061706E+02</rscale>
<asrwt>0</asrwt>
<pdfrwt beam="1">  1        2 0.10344455E-01 0.97262892E+02</pdfrwt>
<pdfrwt beam="2">  1       -2 0.23707286E-01 0.97262892E+02</pdfrwt>
<totfact> 0.87606894E+03</totfact>
</mgrwt>
</event>
<event>
 8    1  0.3466492E-004  0.1506394E+03  0.7546771E-02  0.1199953E+00
         -2   -1    0    0    0  501 -0.00000000000E+00  0.00000000000E+00  0.28935639093E+02  0.28935639093E+02  0.00000000000E+00 0.  1.
          2   -1    0    0  501    0  0.00000000000E+00 -0.00000000000E+00 -0.78298692906E+03  0.78298692906E+03  0.00000000000E+00 0. -1.
         23    2    1    2    0    0  0.52429981134E+02 -0.10615474416E+03 -0.40419105901E+03  0.43134977549E+03  0.93136909983E+02 0.  0.
         23    2    1    2    0    0 -0.52429981134E+02  0.10615474416E+03 -0.34986023096E+03  0.38057279266E+03  0.91737324365E+02 0.  0.
          5    1    3    3  502    0  0.32727750823E+02 -0.49449395779E+02 -0.33225769261E+03  0.33754053492E+03  0.47000000000E+01 0. -1.
         -5    1    3    3    0  502  0.19702230311E+02 -0.56705348380E+02 -0.71933366402E+02  0.93809240568E+02  0.47000000000E+01 0.  1.
          5    1    4    4  503    0 -0.77774208610E+02  0.73787293664E+02 -0.23079287634E+03  0.25452079286E+03  0.47000000000E+01 0. -1.
         -5    1    4    4    0  503  0.25344227476E+02  0.32367450495E+02 -0.11906735462E+03  0.12605199980E+03  0.47000000000E+01 0.  1.
<mgrwt>
<rscale>  0 0.15042357E+03</rscale>
<asrwt>0</asrwt>
<pdfrwt beam="1">  1        2 0.12045951E+00 0.15063936E+03</pdfrwt>
<pdfrwt beam="2">  1       -2 0.44516374E-02 0.15063936E+03</pdfrwt>
<totfact> 0.82530182E+03</totfact>
</mgrwt>
</event>
<event>
 8    1  0.3466492E-004  0.9124133E+02  0.7546771E-02  0.1301698E+00
         -1   -1    0    0    0  501 -0.00000000000E+00  0.00000000000E+00  0.41998573630E+02  0.41998573630E+02  0.00000000000E+00 0.  1.
          1   -1    0    0  501    0  0.00000000000E+00 -0.00000000000E+00 -0.47876586794E+03  0.47876586794E+03  0.00000000000E+00 0. -1.
         23    2    1    2    0    0 -0.39890937372E+00 -0.10049326852E+02 -0.18249772329E+02  0.93048559458E+02  0.90685346823E+02 0.  0.
         23    2    1    2    0    0  0.39890937372E+00  0.10049326852E+02 -0.41851752198E+03  0.42771588212E+03  0.87651648627E+02 0.  0.
          5    1    4    4  502    0 -0.73993213026E+00 -0.37191978880E+02 -0.24351209250E+03  0.24638185807E+03  0.47000000000E+01 0. -1.
         -5    1    3    3    0  503  0.38538315512E+02  0.43053844556E+01 -0.30461952859E+02  0.49535428431E+02  0.47000000000E+01 0.  1.
          5    1    3    3  503    0 -0.38937224886E+02 -0.14354711308E+02  0.12212180530E+02  0.43513131028E+02  0.47000000000E+01 0. -1.
         -5    1    4    4    0  502  0.11388415040E+01  0.47241305732E+02 -0.17500542948E+03  0.18133402404E+03  0.47000000000E+01 0.  1.
<mgrwt>
<rscale>  0 0.90478163E+02</rscale>
<asrwt>0</asrwt>
<pdfrwt beam="1">  1        1 0.73656286E-01 0.91241330E+02</pdfrwt>
<pdfrwt beam="2">  1       -1 0.64613191E-02 0.91241330E+02</pdfrwt>
<totfact> 0.53676921E+03</totfact>
</mgrwt>
</event>
<event>
 8    1  0.3466492E-004  0.1009350E+03  0.7546771E-02  0.1279034E+00
          1   -1    0    0  501    0  0.00000000000E+00  0.00000000000E+00  0.22383227567E+03  0.22383227567E+03  0.00000000000E+00 0. -1.
         -1   -1    0    0    0  501 -0.00000000000E+00 -0.00000000000E+00 -0.72113001108E+02  0.72113001108E+02  0.00000000000E+00 0.  1.
         23    2    1    2    0    0  0.32500943893E+02  0.27475769213E+02 -0.15315630604E+02  0.10078245651E+03  0.90062787831E+02 0.  0.
         23    2    1    2    0    0 -0.32500943893E+02 -0.27475769213E+02  0.16703490516E+03  0.19516282026E+03  0.91523972939E+02 0.  0.
          5    1    3    3  502    0 -0.37647623138E+01  0.45286119910E+02  0.17089764929E+02  0.48776594358E+02  0.47000000000E+01 0. -1.
         -5    1    3    3    0  502  0.36265706207E+02 -0.17810350698E+02 -0.32405395533E+02  0.52005862153E+02  0.47000000000E+01 0.  1.
          5    1    4    4  503    0 -0.52130747954E+02 -0.47045745183E+02  0.98261903778E+02  0.12086525041E+03  0.47000000000E+01 0. -1.
         -5    1    4    4    0  503  0.19629804060E+02  0.19569975970E+02  0.68773001384E+02  0.74297569855E+02  0.47000000000E+01 0.  1.
<mgrwt>
<rscale>  0 0.10060256E+03</rscale>
<asrwt>0</asrwt>
<pdfrwt beam="1">  1        1 0.34435735E-01 0.10093496E+03</pdfrwt>
<pdfrwt beam="2">  1       -1 0.11094308E-01 0.10093496E+03</pdfrwt>
<totfact> 0.61454993E+03</totfact>
</mgrwt>
</event>
<event>
 8    1  0.3466492E-004  0.1006341E+03  0.7546771E-02  0.1282069E+00
          1   -1    0    0  501    0  0.00000000000E+00  0.00000000000E+00  0.33363277878E+02  0.33363277878E+02  0.00000000000E+00 0. -1.
         -1   -1    0    0    0  501 -0.00000000000E+00 -0.00000000000E+00 -0.28644542811E+03  0.28644542811E+03  0.00000000000E+00 0.  1.
         23    2    1    2    0    0  0.38462514255E+02  0.40354345930E+01 -0.12858009713E+03  0.16327909521E+03  0.92906252847E+02 0.  0.
         23    2    1    2    0    0 -0.38462514255E+02 -0.40354345930E+01 -0.12450205310E+03  0.15652961078E+03  0.86632026931E+02 0.  0.
          5    1    3    3  502    0  0.41186428497E+02  0.42932141865E+02 -0.62557402499E+02  0.86458136140E+02  0.47000000000E+01 0. -1.
         -5    1    4    4    0  503 -0.29842025898E+02 -0.43943826769E+02 -0.77766374369E+02  0.94293718790E+02  0.47000000000E+01 0.  1.
          5    1    4    4  503    0 -0.86204883576E+01  0.39908392176E+02 -0.46735678732E+02  0.62235891992E+02  0.47000000000E+01 0. -1.
         -5    1    3    3    0  502 -0.27239142414E+01 -0.38896707272E+02 -0.66022694633E+02  0.76820959067E+02  0.47000000000E+01 0.  1.
<mgrwt>
<rscale>  0 0.99161652E+02</rscale>
<asrwt>0</asrwt>
<pdfrwt beam="1">  1        1 0.51328118E-02 0.10063410E+03</pdfrwt>
<pdfrwt beam="2">  1       -1 0.44068529E-01 0.10063410E+03</pdfrwt>
<totfact> 0.76680145E+03</totfact>
</mgrwt>
</event>
<event>
 8    1  0.3466492E-004  0.1228702E+03  0.7546771E-02  0.1238596E+00
         -2   -1    0    0    0  501 -0.00000000000E+00  0.00000000000E+00  0.14724939538E+02  0.14724939538E+02  0.00000000000E+00 0.  1.
          2   -1    0    0  501    0  0.00000000000E+00 -0.00000000000E+00 -0.10223501981E+04  0.10223501981E+04  0.00000000000E+00 0. -1.
         23    2    1    2    0    0  0.42000908833E+02  0.72439819645E+02 -0.49245916284E+03  0.50745905894E+03  0.89370384506E+02 0.  0.
         23    2    1    2    0    0 -0.42000908833E+02 -0.72439819645E+02 -0.51516609572E+03  0.52961607869E+03  0.89919301685E+02 0.  0.
          5    1    3    3  502    0  0.55580873353E+02  0.93159318199E+01 -0.26496036526E+03  0.27092822892E+03  0.47000000000E+01 0. -1.
         -5    1    4    4    0  503 -0.69741489213E+02 -0.48565115998E+02 -0.32927072796E+03  0.34009373429E+03  0.47000000000E+01 0.  1.
          5    1    4    4  503    0  0.27740580379E+02 -0.23874703648E+02 -0.18589536775E+03  0.18952234440E+03  0.47000000000E+01 0. -1.
         -5    1    3    3    0  502 -0.13579964520E+02  0.63123887826E+02 -0.22749879758E+03  0.23653083002E+03  0.47000000000E+01 0.  1.
<mgrwt>
<rscale>  0 0.12276979E+03</rscale>
<asrwt>0</asrwt>
<pdfrwt beam="1">  1        2 0.15728471E+00 0.12287019E+03</pdfrwt>
<pdfrwt beam="2">  1       -2 0.22653744E-02 0.12287019E+03</pdfrwt>
<totfact> 0.15565643E+04</totfact>
</mgrwt>
</event>
<event>
 8    1  0.3466492E-004  0.9329897E+02  0.7546771E-02  0.1295180E+00
         -2   -1    0    0    0  501 -0.00000000000E+00  0.00000000000E+00  0.94677416323E+02  0.94677416323E+02  0.00000000000E+00 0.  1.
          2   -1    0    0  501    0  0.00000000000E+00 -0.00000000000E+00 -0.12867822456E+03  0.12867822456E+03  0.00000000000E+00 0. -1.
         23    2    1    2    0    0 -0.54419233324E+01  0.16723338537E+02 -0.76832135251E+02  0.12069493144E+03  0.91404621796E+02 0.  0.
         23    2    1    2    0    0  0.54419233324E+01 -0.16723338537E+02  0.42831327012E+02  0.10266070945E+03  0.91626492400E+02 0.  0.
          5    1    4    4  502    0  0.33828061317E+02 -0.38972777563E+02  0.82484331262E+01  0.52472295286E+02  0.47000000000E+01 0. -1.
         -5    1    4    4    0  502 -0.28386137985E+02  0.22249439026E+02  0.34582893886E+02  0.50188414163E+02  0.47000000000E+01 0.  1.
          5    1    3    3  503    0 -0.66772950671E+01 -0.33618704482E+02 -0.56362858240E+02  0.66133692997E+02  0.47000000000E+01 0. -1.
         -5    1    3    3    0  503  0.12353717347E+01  0.50342043019E+02 -0.20469277012E+02  0.54561238439E+02  0.47000000000E+01 0.  1.
<mgrwt>
<rscale>  0 0.93244456E+02</rscale>
<asrwt>0</asrwt>
<pdfrwt beam="1">  1        2 0.19796650E-01 0.93298975E+02</pdfrwt>
<pdfrwt beam="2">  1       -2 0.14565756E-01 0.93298975E+02</pdfrwt>
<totfact> 0.92146397E+03</totfact>
</mgrwt>
</event>
<event>
 8    1  0.3466492E-004  0.1076285E+03  0.7546771E-02  0.1267590E+00
         -1   -1    0    0    0  501 -0.00000000000E+00  0.00000000000E+00  0.78758097353E+03  0.78758097353E+03  0.00000000000E+00 0.  1.
          1   -1    0    0  501    0  0.00000000000E+00 -0.00000000000E+00 -0.26505946250E+02  0.26505946250E+02  0.00000000000E+00 0. -1.
         23    2    1    2    0    0  0.45467479045E+02 -0.20829406528E+02  0.66508814313E+03  0.67374040261E+03  0.95303390031E+02 0.  0.
         23    2    1    2    0    0 -0.45467479045E+02  0.20829406528E+02  0.95986884154E+02  0.14034651717E+03  0.89344877445E+02 0.  0.
          5    1    4    4  502    0 -0.32452169650E+02 -0.21786692030E+02  0.60022536861E+01  0.39823615028E+02  0.47000000000E+01 0. -1.
         -5    1    3    3    0  503 -0.31621601327E+01  0.29709000187E+02  0.10533608382E+03  0.10959199106E+03  0.47000000000E+01 0.  1.
          5    1    3    3  503    0  0.48629639178E+02 -0.50538406715E+02  0.55975205930E+03  0.56414841155E+03  0.47000000000E+01 0. -1.
         -5    1    4    4    0  502 -0.13015309395E+02  0.42616098558E+02  0.89984630468E+02  0.10052290214E+03  0.47000000000E+01 0.  1.
<mgrwt>
<rscale>  0 0.10629420E+03</rscale>
<asrwt>0</asrwt>
<pdfrwt beam="1">  1        1 0.40778385E-02 0.10762849E+03</pdfrwt>
<pdfrwt beam="2">  1       -1 0.12116629E+00 0.10762849E+03</pdfrwt>
<totfact> 0.13835812E+03</totfact>
</mgrwt>
</event>
<event>
 8    1  0.3466492E-004  0.1077359E+03  0.7546771E-02  0.1268060E+00
         -1   -1    0    0    0  501 -0.00000000000E+00  0.00000000000E+00  0.61686867501E+02  0.61686867501E+02  0.00000000000E+00 0.  1.
          1   -1    0    0  501    0  0.00000000000E+00 -0.00000000000E+00 -0.30499119189E+03  0.30499119189E+03  0.00000000000E+00 0. -1.
         23    2    1    2    0    0 -0.42334983024E+02 -0.26040074574E+02 -0.23823612449E+03  0.25882303526E+03  0.88105483916E+02 0.  0.
         23    2    1    2    0    0  0.42334983024E+02  0.26040074574E+02 -0.50681998924E+01  0.10785502413E+03  0.95585999539E+02 0.  0.
          5    1    4    4  502    0  0.22358726309E+02 -0.18027543696E+02 -0.38934510931E+02  0.48609578432E+02  0.47000000000E+01 0. -1.
         -5    1    3    3    0  503 -0.14740483113E+02  0.32222842463E+02 -0.70034404876E+02  0.78628883276E+02  0.47000000000E+01 0.  1.
          5    1    3    3  503    0 -0.27594499911E+02 -0.58262917038E+02 -0.16820171962E+03  0.18019415198E+03  0.47000000000E+01 0. -1.
         -5    1    4    4    0  502  0.19976256715E+02  0.44067618270E+02  0.33866311039E+02  0.59245445696E+02  0.47000000000E+01 0.  1.
<mgrwt>
<rscale>  0 0.10605232E+03</rscale>
<asrwt>0</asrwt>
<pdfrwt beam="1">  1        1 0.46921722E-01 0.10773588E+03</pdfrwt>
<pdfrwt beam="2">  1       -1 0.94902873E-02 0.10773588E+03</pdfrwt>
<totfact> 0.53544753E+03</totfact>
</mgrwt>
</event>
<event>
 8    1  0.3466492E-004  0.1852513E+03  0.7546771E-02  0.1163573E+00
          2   -1    0    0  501    0  0.00000000000E+00  0.00000000000E+00  0.15543302043E+03  0.15543302043E+03  0.00000000000E+00 0. -1.
         -2   -1    0    0    0  501 -0.00000000000E+00 -0.00000000000E+00 -0.59154370684E+03  0.59154370684E+03  0.00000000000E+00 0.  1.
         23    2    1    2    0    0  0.13416105299E+03 -0.87352825941E+02  0.78442017385E+02  0.20117456517E+03  0.93211325708E+02 0.  0.
         23    2    1    2    0    0 -0.13416105299E+03  0.87352825941E+02 -0.51455270380E+03  0.54580216210E+03  0.86636082687E+02 0.  0.
          5    1    4    4  502    0 -0.55103390527E+02 -0.99283026431E+01 -0.17636414290E+03  0.18509823268E+03  0.47000000000E+01 0. -1.
         -5    1    3    3    0  503  0.39226969718E+02 -0.12007328239E+02  0.67843426002E+02  0.79421354411E+02  0.47000000000E+01 0.  1.
          5    1    3    3  503    0  0.94934083273E+02 -0.75345497702E+02  0.10598591383E+02  0.12175321076E+03  0.47000000000E+01 0. -1.
         -5    1    4    4    0  502 -0.79057662464E+02  0.97281128584E+02 -0.33818856090E+03  0.36070392942E+03  0.47000000000E+01 0.  1.
<mgrwt>
<rscale>  0 0.18444111E+03</rscale>
<asrwt>0</asrwt>
<pdfrwt beam="1">  1        2 0.23912772E-01 0.18525133E+03</pdfrwt>
<pdfrwt beam="2">  1       -2 0.91006725E-01 0.18525133E+03</pdfrwt>
<totfact> 0.24253185E+02</totfact>
</mgrwt>
</event>
<event>
 8    1  0.3466492E-004  0.1171545E+03  0.7546771E-02  0.1248536E+00
         -2   -1    0    0    0  501 -0.00000000000E+00  0.00000000000E+00  0.13549150009E+03  0.13549150009E+03  0.00000000000E+00 0.  1.
          2   -1    0    0  501    0  0.00000000000E+00 -0.00000000000E+00 -0.10632263405E+03  0.10632263405E+03  0.00000000000E+00 0. -1.
         23    2    1    2    0    0  0.27686509031E+02 -0.64065527170E+02 -0.15099160596E+02  0.11657500308E+03  0.92145602929E+02 0.  0.
         23    2    1    2    0    0 -0.27686509031E+02  0.64065527170E+02  0.44268026638E+02  0.12523913106E+03  0.94097009583E+02 0.  0.
          5    1    3    3  502    0  0.48284092778E+02 -0.76742967947E+02 -0.14406965688E+02  0.91926532650E+02  0.47000000000E+01 0. -1.
         -5    1    4    4    0  503 -0.48130484389E+02  0.77871217839E+02  0.30539585564E+02  0.96618975267E+02  0.47000000000E+01 0.  1.
          5    1    4    4  503    0  0.20443975358E+02 -0.13805690669E+02  0.13728441074E+02  0.28620155793E+02  0.47000000000E+01 0. -1.
         -5    1    3    3    0  502 -0.20597583747E+02  0.12677440777E+02 -0.69219490803E+00  0.24648470433E+02  0.47000000000E+01 0.  1.
<mgrwt>
<rscale>  0 0.11676218E+03</rscale>
<asrwt>0</asrwt>
<pdfrwt beam="1">  1        2 0.16357328E-01 0.11715452E+03</pdfrwt>
<pdfrwt beam="2">  1       -2 0.20844846E-01 0.11715452E+03</pdfrwt>
<totfact> 0.64488428E+03</totfact>
</mgrwt>
</event>
<event>
 8    1  0.3466492E-004  0.9448178E+02  0.7546771E-02  0.1292575E+00
         -1   -1    0    0    0  501 -0.00000000000E+00  0.00000000000E+00  0.18676119488E+03  0.18676119488E+03  0.00000000000E+00 0.  1.
          1   -1    0    0  501    0  0.00000000000E+00 -0.00000000000E+00 -0.48693110232E+02  0.48693110232E+02  0.00000000000E+00 0. -1.
         23    2    1    2    0    0 -0.17010576871E+02  0.80800681191E+01  0.51218652784E+02  0.10712025011E+03  0.92177819261E+02 0.  0.
         23    2    1    2    0    0  0.17010576871E+02 -0.80800681191E+01  0.86849431865E+02  0.12833405501E+03  0.92585952676E+02 0.  0.
          5    1    4    4  502    0 -0.21875159182E+02  0.31114772477E+02  0.27717454729E+02  0.47296923285E+02  0.47000000000E+01 0. -1.
         -5    1    4    4    0  502  0.38885736053E+02 -0.39194840596E+02  0.59131977135E+02  0.81037131722E+02  0.47000000000E+01 0.  1.
          5    1    3    3  503    0  0.32194107734E+02  0.25846712099E+02  0.23157187383E+02  0.47569511524E+02  0.47000000000E+01 0. -1.
         -5    1    3    3    0  503 -0.49204684605E+02 -0.17766643980E+02  0.28061465401E+02  0.59550738584E+02  0.47000000000E+01 0.  1.
<mgrwt>
<rscale>  0 0.94381639E+02</rscale>
<asrwt>0</asrwt>
<pdfrwt beam="1">  1        1 0.74912478E-02 0.94481775E+02</pdfrwt>
<pdfrwt beam="2">  1       -1 0.28732491E-01 0.94481775E+02</pdfrwt>
<totfact> 0.95261971E+03</totfact>
</mgrwt>
</event>
<event>
 8    1  0.3466492E-004  0.1033310E+03  0.7546771E-02  0.1279622E+00
         -1   -1    0    0    0  501 -0.00000000000E+00  0.00000000000E+00  0.33766756420E+02  0.33766756420E+02  0.00000000000E+00 0.  1.
          1   -1    0    0  501    0  0.00000000000E+00 -0.00000000000E+00 -0.29140168974E+03  0.29140168974E+03  0.00000000000E+00 0. -1.
         23    2    1    2    0    0 -0.99475881486E+01 -0.77866894548E+01 -0.16544708459E+03  0.19506416188E+03  0.10255585019E+03 0.  0.
         23    2    1    2    0    0  0.99475881486E+01  0.77866894548E+01 -0.92187848731E+02  0.13010428428E+03  0.90933702728E+02 0.  0.
          5    1    3    3  502    0  0.25038992249E+02  0.22417394798E+02 -0.13574414926E+03  0.13992160227E+03  0.47000000000E+01 0. -1.
         -5    1    4    4    0  503 -0.19294537355E+02  0.21556509584E+02  0.30056742367E+01  0.29463305225E+02  0.47000000000E+01 0.  1.
          5    1    4    4  503    0  0.29242125503E+02 -0.13769820129E+02 -0.95193522968E+02  0.10064097906E+03  0.47000000000E+01 0. -1.
         -5    1    3    3    0  502 -0.34986580398E+02 -0.30204084253E+02 -0.29702935328E+02  0.55142559613E+02  0.47000000000E+01 0.  1.
<mgrwt>
<rscale>  0 0.10032099E+03</rscale>
<asrwt>0</asrwt>
<pdfrwt beam="1">  1        1 0.44831028E-01 0.10333097E+03</pdfrwt>
<pdfrwt beam="2">  1       -1 0.51948857E-02 0.10333097E+03</pdfrwt>
<totfact> 0.13853084E+04</totfact>
</mgrwt>
</event>
<event>
 8    1  0.3466492E-004  0.1230305E+03  0.7546771E-02  0.1244031E+00
         -1   -1    0    0    0  501 -0.00000000000E+00  0.00000000000E+00  0.20086798858E+03  0.20086798858E+03  0.00000000000E+00 0.  1.
          1   -1    0    0  501    0  0.00000000000E+00 -0.00000000000E+00 -0.11393918634E+03  0.11393918634E+03  0.00000000000E+00 0. -1.
         23    2    1    2    0    0 -0.45138991269E+02 -0.38178329613E+02 -0.55767065482E+02  0.13507945975E+03  0.10789523376E+03 0.  0.
         23    2    1    2    0    0  0.45138991269E+02  0.38178329613E+02  0.14269586772E+03  0.17972771518E+03  0.91895742851E+02 0.  0.
          5    1    4    4  502    0  0.23756866480E+02  0.85755217385E+01  0.14051531316E+03  0.14284457116E+03  0.47000000000E+01 0. -1.
         -5    1    3    3    0  503 -0.21054037947E+02 -0.28448130071E+02  0.29189596455E+02  0.46116061840E+02  0.47000000000E+01 0.  1.
          5    1    3    3  503    0 -0.24084953322E+02 -0.97301995419E+01 -0.84956661937E+02  0.88963397907E+02  0.47000000000E+01 0. -1.
         -5    1    4    4    0  502  0.21382124790E+02  0.29602807875E+02  0.21805545638E+01  0.36883144020E+02  0.47000000000E+01 0.  1.
<mgrwt>
<rscale>  0 0.11943587E+03</rscale>
<asrwt>0</asrwt>
<pdfrwt beam="1">  1        1 0.17529106E-01 0.12303046E+03</pdfrwt>
<pdfrwt beam="2">  1       -1 0.30902767E-01 0.12303046E+03</pdfrwt>
<totfact> 0.28334854E+03</totfact>
</mgrwt>
</event>
<event>
 8    1  0.3466492E-004  0.1010368E+03  0.7546771E-02  0.1283721E+00
          2   -1    0    0  501    0  0.00000000000E+00  0.00000000000E+00  0.72169008058E+02  0.72169008058E+02  0.00000000000E+00 0. -1.
         -2   -1    0    0    0  501 -0.00000000000E+00 -0.00000000000E+00 -0.32320946206E+03  0.32320946206E+03  0.00000000000E+00 0.  1.
         23    2    1    2    0    0 -0.71569208532E+01  0.20642167602E+02 -0.27661670681E+03  0.29115473653E+03  0.88187059789E+02 0.  0.
         23    2    1    2    0    0  0.71569208532E+01 -0.20642167602E+02  0.25576252808E+02  0.10422373359E+03  0.98646446145E+02 0.  0.
          5    1    3    3  502    0 -0.41066518368E+02  0.32358945504E+02 -0.13139269865E+03  0.14149095923E+03  0.47000000000E+01 0. -1.
         -5    1    3    3    0  502  0.33909597515E+02 -0.11716777901E+02 -0.14522400816E+03  0.14966377730E+03  0.47000000000E+01 0.  1.
          5    1    4    4  503    0 -0.43261925712E+02  0.63538294655E+00  0.23029239833E+02  0.49238539937E+02  0.47000000000E+01 0. -1.
         -5    1    4    4    0  503  0.50418846566E+02 -0.21277550549E+02  0.25470129756E+01  0.54985193657E+02  0.47000000000E+01 0.  1.
<mgrwt>
<rscale>  0 0.98388578E+02</rscale>
<asrwt>0</asrwt>
<pdfrwt beam="1">  1        2 0.11102924E-01 0.10103683E+03</pdfrwt>
<pdfrwt beam="2">  1       -2 0.49724532E-01 0.10103683E+03</pdfrwt>
<totfact> 0.20762047E+03</totfact>
</mgrwt>
</event>
<event>
 8    1  0.3466492E-004  0.9314901E+02  0.7546771E-02  0.1295490E+00
         -2   -1    0    0    0  501 -0.00000000000E+00  0.00000000000E+00  0.79892921820E+03  0.79892921820E+03  0.00000000000E+00 0.  1.
          2   -1    0    0  501    0  0.00000000000E+00 -0.00000000000E+00 -0.13752534525E+02  0.13752534525E+02  0.00000000000E+00 0. -1.
         23    2    1    2    0    0  0.99582341979E+01 -0.10483682969E+02  0.57977136977E+03  0.58720658972E+03  0.92019909680E+02 0.  0.
         23    2    1    2    0    0 -0.99582341979E+01  0.10483682969E+02  0.20540531391E+03  0.22547516300E+03  0.91862027582E+02 0.  0.
          5    1    3    3  502    0  0.69738446590E+01  0.40546247851E+02  0.28640013189E+03  0.28937822702E+03  0.47000000000E+01 0. -1.
         -5    1    4    4    0  503 -0.30234933454E+02 -0.32573006983E+02  0.87841522306E+02  0.98556456033E+02  0.47000000000E+01 0.  1.
          5    1    4    4  503    0  0.20276699256E+02  0.43056689951E+02  0.11756379161E+03  0.12691870697E+03  0.47000000000E+01 0. -1.
         -5    1    3    3    0  502  0.29843895390E+01 -0.51029930819E+02  0.29337123788E+03  0.29782836271E+03  0.47000000000E+01 0.  1.
<mgrwt>
<rscale>  0 0.93109993E+02</rscale>
<asrwt>0</asrwt>
<pdfrwt beam="1">  1        2 0.21157752E-02 0.93149009E+02</pdfrwt>
<pdfrwt beam="2">  1       -2 0.12291215E+00 0.93149009E+02</pdfrwt>
<totfact> 0.24525444E+03</totfact>
</mgrwt>
</event>
<event>
 8    1  0.3466492E-004  0.1096527E+03  0.7546771E-02  0.1261560E+00
          1   -1    0    0  501    0  0.00000000000E+00  0.00000000000E+00  0.19300973665E+02  0.19300973665E+02  0.00000000000E+00 0. -1.
         -1   -1    0    0    0  501 -0.00000000000E+00 -0.00000000000E+00 -0.89271286459E+03  0.89271286459E+03  0.00000000000E+00 0.  1.
         23    2    1    2    0    0  0.20961714500E+02  0.55695269802E+02 -0.18512008899E+03  0.21515844871E+03  0.92099696798E+02 0.  0.
         23    2    1    2    0    0 -0.20961714500E+02 -0.55695269802E+02 -0.68829180193E+03  0.69685538954E+03  0.91216625547E+02 0.  0.
          5    1    4    4  502    0  0.12126544853E+02  0.16913225125E+02 -0.63887515920E+02  0.67355882925E+02  0.47000000000E+01 0. -1.
         -5    1    4    4    0  502 -0.33088259354E+02 -0.72608494927E+02 -0.62440428601E+03  0.62949950661E+03  0.47000000000E+01 0.  1.
          5    1    3    3  503    0 -0.24649422997E+02  0.52723420003E+02 -0.69684832910E+02  0.90914349850E+02  0.47000000000E+01 0. -1.
         -5    1    3    3    0  503  0.45611137498E+02  0.29718497984E+01 -0.11543525608E+03  0.12424409886E+03  0.47000000000E+01 0.  1.
<mgrwt>
<rscale>  0 0.10946705E+03</rscale>
<asrwt>0</asrwt>
<pdfrwt beam="1">  1        1 0.29693812E-02 0.10965268E+03</pdfrwt>
<pdfrwt beam="2">  1       -1 0.13734041E+00 0.10965268E+03</pdfrwt>
<totfact> 0.15825625E+03</totfact>
</mgrwt>
</event>
<event>
 8    1  0.3466492E-004  0.1233933E+03  0.7546771E-02  0.1238549E+00
         -1   -1    0    0    0  501 -0.00000000000E+00  0.00000000000E+00  0.13488028912E+03  0.13488028912E+03  0.00000000000E+00 0.  1.
          1   -1    0    0  501    0  0.00000000000E+00 -0.00000000000E+00 -0.20910636094E+03  0.20910636094E+03  0.00000000000E+00 0. -1.
         23    2    1    2    0    0 -0.54091926210E+02  0.59395109267E+02  0.81039394281E+02  0.14566049745E+03  0.90531108496E+02 0.  0.
         23    2    1    2    0    0  0.54091926210E+02 -0.59395109267E+02 -0.15526546610E+03  0.19832615261E+03  0.93659929309E+02 0.  0.
          5    1    3    3  502    0 -0.21239676751E+02 -0.14089384803E+02  0.55214735891E+02  0.60995013666E+02  0.47000000000E+01 0. -1.
         -5    1    4    4    0  503 -0.14567615629E+02 -0.33477687389E+02 -0.99330591320E+02  0.10593218279E+03  0.47000000000E+01 0.  1.
          5    1    4    4  503    0  0.68659541839E+02 -0.25917421878E+02 -0.55934874783E+02  0.92393969822E+02  0.47000000000E+01 0. -1.
         -5    1    3    3    0  502 -0.32852249460E+02  0.73484494069E+02  0.25824658391E+02  0.84665483783E+02  0.47000000000E+01 0.  1.
<mgrwt>
<rscale>  0 0.12279956E+03</rscale>
<asrwt>0</asrwt>
<pdfrwt beam="1">  1        1 0.32170209E-01 0.12339326E+03</pdfrwt>
<pdfrwt beam="2">  1       -1 0.20750814E-01 0.12339326E+03</pdfrwt>
<totfact> 0.25429016E+03</totfact>
</mgrwt>
</event>
<event>
 8    1  0.3466492E-004  0.1014328E+03  0.7546771E-02  0.1277802E+00
          2   -1    0    0  501    0  0.00000000000E+00  0.00000000000E+00  0.86903816209E+03  0.86903816209E+03  0.00000000000E+00 0. -1.
         -2   -1    0    0    0  501 -0.00000000000E+00 -0.00000000000E+00 -0.12365449354E+02  0.12365449354E+02  0.00000000000E+00 0.  1.
         23    2    1    2    0    0 -0.26251344138E+02  0.33791261227E+02  0.52642666791E+03  0.53593137487E+03  0.90919851977E+02 0.  0.
         23    2    1    2    0    0  0.26251344138E+02 -0.33791261227E+02  0.33024604483E+03  0.34547223657E+03  0.91965394106E+02 0.  0.
          5    1    3    3  502    0 -0.57141876260E+02  0.19383046794E+02  0.24299265775E+03  0.25041648957E+03  0.47000000000E+01 0. -1.
         -5    1    4    4    0  503  0.46337539521E+02 -0.15025112102E+02  0.80748967936E+02  0.94421434989E+02  0.47000000000E+01 0.  1.
          5    1    4    4  503    0 -0.20086195384E+02 -0.18766149126E+02  0.24949707689E+03  0.25105080158E+03  0.47000000000E+01 0. -1.
         -5    1    3    3    0  502  0.30890532122E+02  0.14408214434E+02  0.28343401016E+03  0.28551488531E+03  0.47000000000E+01 0.  1.
<mgrwt>
<rscale>  0 0.10119524E+03</rscale>
<asrwt>0</asrwt>
<pdfrwt beam="1">  1        2 0.13369813E+00 0.10143282E+03</pdfrwt>
<pdfrwt beam="2">  1       -2 0.19023775E-02 0.10143282E+03</pdfrwt>
<totfact> 0.24473116E+04</totfact>
</mgrwt>
</event>
<event>
 8    1  0.3466492E-004  0.1121122E+03  0.7546771E-02  0.1256729E+00
          1   -1    0    0  501    0  0.00000000000E+00  0.00000000000E+00  0.75422552385E+03  0.75422552385E+03  0.00000000000E+00 0. -1.
         -1   -1    0    0    0  501 -0.00000000000E+00 -0.00000000000E+00 -0.22980711328E+02  0.22980711328E+02  0.00000000000E+00 0.  1.
         23    2    1    2    0    0  0.33285625623E+02  0.57119181079E+02  0.56939992656E+03  0.58032322138E+03  0.90488845625E+02 0.  0.
         23    2    1    2    0    0 -0.33285625623E+02 -0.57119181079E+02  0.16184488596E+03  0.19688301380E+03  0.90546232892E+02 0.  0.
          5    1    4    4  502    0  0.26964875617E+02  0.18724186822E+01  0.45209696948E+02  0.52883051793E+02  0.47000000000E+01 0. -1.
         -5    1    3    3    0  503 -0.18380157184E+02  0.50995589967E+02  0.20084796038E+03  0.20808741807E+03  0.47000000000E+01 0.  1.
          5    1    3    3  503    0  0.51665782807E+02  0.61235911111E+01  0.36855196619E+03  0.37223580330E+03  0.47000000000E+01 0. -1.
         -5    1    4    4    0  502 -0.60250501240E+02 -0.58991599761E+02  0.11663518901E+03  0.14399996201E+03  0.47000000000E+01 0.  1.
<mgrwt>
<rscale>  0 0.11210065E+03</rscale>
<asrwt>0</asrwt>
<pdfrwt beam="1">  1        1 0.11603468E+00 0.11211224E+03</pdfrwt>
<pdfrwt beam="2">  1       -1 0.35354946E-02 0.11211224E+03</pdfrwt>
<totfact> 0.71138566E+03</totfact>
</mgrwt>
</event>
<event>
 8    1  0.3466492E-004  0.1263012E+03  0.7546771E-02  0.1234152E+00
         -1   -1    0    0    0  501 -0.00000000000E+00  0.00000000000E+00  0.36648762563E+02  0.36648762563E+02  0.00000000000E+00 0.  1.
          1   -1    0    0  501    0  0.00000000000E+00 -0.00000000000E+00 -0.49500751943E+03  0.49500751943E+03  0.00000000000E+00 0. -1.
         23    2    1    2    0    0  0.28757112606E+02  0.79466301447E+02 -0.32649615124E+03  0.34906454407E+03  0.90024744163E+02 0.  0.
         23    2    1    2    0    0 -0.28757112606E+02 -0.79466301447E+02 -0.13186260563E+03  0.18259173792E+03  0.93862300228E+02 0.  0.
          5    1    4    4  502    0 -0.25294707432E+01 -0.95158601184E+02 -0.10213948177E+03  0.13970011216E+03  0.47000000000E+01 0. -1.
         -5    1    4    4    0  502 -0.26227641863E+02  0.15692299737E+02 -0.29723123853E+02  0.42891625760E+02  0.47000000000E+01 0.  1.
          5    1    3    3  503    0  0.42003408874E+02  0.22112932761E+02 -0.23761411820E+03  0.24235475510E+03  0.47000000000E+01 0. -1.
         -5    1    3    3    0  503 -0.13246296268E+02  0.57353368686E+02 -0.88882033038E+02  0.10670978897E+03  0.47000000000E+01 0.  1.
<mgrwt>
<rscale>  0 0.12558890E+03</rscale>
<asrwt>0</asrwt>
<pdfrwt beam="1">  1        1 0.76155003E-01 0.12630121E+03</pdfrwt>
<pdfrwt beam="2">  1       -1 0.56382711E-02 0.12630121E+03</pdfrwt>
<totfact> 0.64200481E+03</totfact>
</mgrwt>
</event>
<event>
 8    1  0.3466492E-004  0.1043032E+03  0.7546771E-02  0.1273281E+00
         -1   -1    0    0    0  501 -0.00000000000E+00  0.00000000000E+00  0.96527500234E+02  0.96527500234E+02  0.00000000000E+00 0.  1.
          1   -1    0    0  501    0  0.00000000000E+00 -0.00000000000E+00 -0.49704965390E+03  0.49704965390E+03  0.00000000000E+00 0. -1.
         23    2    1    2    0    0 -0.77956585700E+01 -0.50024506803E+02  0.62741560013E+02  0.11871673606E+03  0.87143195336E+02 0.  0.
         23    2    1    2    0    0  0.77956585700E+01  0.50024506803E+02 -0.46326371368E+03  0.47486041808E+03  0.91191691913E+02 0.  0.
          5    1    3    3  502    0 -0.36826703595E+02 -0.30216929214E+02  0.14286581994E+01  0.47889455760E+02  0.47000000000E+01 0. -1.
         -5    1    3    3    0  502  0.29031045025E+02 -0.19807577589E+02  0.61312901813E+02  0.70827280295E+02  0.47000000000E+01 0.  1.
          5    1    4    4  503    0  0.10651658817E+02  0.74967252481E+02 -0.38894758655E+03  0.39627750613E+03  0.47000000000E+01 0. -1.
         -5    1    4    4    0  503 -0.28560002470E+01 -0.24942745678E+02 -0.74316127134E+02  0.78582911956E+02  0.47000000000E+01 0.  1.
<mgrwt>
<rscale>  0 0.10341169E+03</rscale>
<asrwt>0</asrwt>
<pdfrwt beam="1">  1        1 0.76469178E-01 0.10430316E+03</pdfrwt>
<pdfrwt beam="2">  1       -1 0.14850385E-01 0.10430316E+03</pdfrwt>
<totfact> 0.14611775E+03</totfact>
</mgrwt>
</event>
<event>
 7    1  0.3466492E-004  0.2099349E+03  0.7546771E-02  0.1173130E+00
          1   -1    0    0  501    0  0.00000000000E+00  0.00000000000E+00  0.61155733530E+03  0.61155733530E+03  0.00000000000E+00 0. -1.
         -1   -1    0    0    0  501 -0.00000000000E+00 -0.00000000000E+00 -0.14478013339E+03  0.14478013339E+03  0.00000000000E+00 0.  1.
         23    2    1    2    0    0  0.44792325762E+02 -0.44857537623E+01 -0.10615789910E+03  0.14615120437E+03  0.89800894011E+02 0.  0.
          5    1    1    2  502    0 -0.11775639087E+03 -0.24306691794E+02  0.43606345052E+03  0.45236136632E+03  0.47000000000E+01 0. -1.
         -5    1    1    2    0  502  0.72964065111E+02  0.28792445557E+02  0.13687165049E+03  0.15782489799E+03  0.47000000000E+01 0.  1.
          5    1    3    3  503    0  0.58938524994E+01 -0.44058980852E+02 -0.49878638101E+02  0.66976860406E+02  0.47000000000E+01 0. -1.
         -5    1    3    3    0  503  0.38898473262E+02  0.39573227090E+02 -0.56279260997E+02  0.79174343968E+02  0.47000000000E+01 0.  1.
<mgrwt>
<rscale>  0 0.17460370E+03</rscale>
<asrwt>0</asrwt>
<pdfrwt beam="1">  1        1 0.94085743E-01 0.20993486E+03</pdfrwt>
<pdfrwt beam="2">  1       -1 0.22273867E-01 0.20993486E+03</pdfrwt>
<totfact> 0.58251240E+02</totfact>
</mgrwt>
</event>
<event>
 8    1  0.3466492E-004  0.1116755E+03  0.7546771E-02  0.1261548E+00
         -1   -1    0    0    0  501 -0.00000000000E+00  0.00000000000E+00  0.47346019922E+03  0.47346019922E+03  0.00000000000E+00 0.  1.
          1   -1    0    0  501    0  0.00000000000E+00 -0.00000000000E+00 -0.35903711356E+02  0.35903711356E+02  0.00000000000E+00 0. -1.
         23    2    1    2    0    0 -0.43247461308E+02  0.15845945137E+01  0.68552265727E+02  0.12383112484E+03  0.93604917043E+02 0.  0.
         23    2    1    2    0    0  0.43247461308E+02 -0.15845945137E+01  0.36900422214E+03  0.38553278574E+03  0.10294930339E+03 0.  0.
          5    1    4    4  502    0  0.62594954347E+02  0.25416385474E+02  0.15834372722E+03  0.17221773111E+03  0.47000000000E+01 0. -1.
         -5    1    3    3    0  503  0.26821631598E+01 -0.40342963667E+02  0.25114384608E+02  0.47828558737E+02  0.47000000000E+01 0.  1.
          5    1    3    3  503    0 -0.45929624468E+02  0.41927558181E+02  0.43437881118E+02  0.76002566107E+02  0.47000000000E+01 0. -1.
         -5    1    4    4    0  502 -0.19347493038E+02 -0.27000979988E+02  0.21066049492E+03  0.21331505462E+03  0.47000000000E+01 0.  1.
<mgrwt>
<rscale>  0 0.10947355E+03</rscale>
<asrwt>0</asrwt>
<pdfrwt beam="1">  1        1 0.55236482E-02 0.11167548E+03</pdfrwt>
<pdfrwt beam="2">  1       -1 0.72840026E-01 0.11167548E+03</pdfrwt>
<totfact> 0.27377217E+03</totfact>
</mgrwt>
</event>
<event>
 8    1  0.3466492E-004  0.1186852E+03  0.7546771E-02  0.1245416E+00
         -1   -1    0    0    0  501 -0.00000000000E+00  0.00000000000E+00  0.84632097053E+02  0.84632097053E+02  0.00000000000E+00 0.  1.
          1   -1    0    0  501    0  0.00000000000E+00 -0.00000000000E+00 -0.34838048587E+03  0.34838048587E+03  0.00000000000E+00 0. -1.
         23    2    1    2    0    0  0.73358759626E+02 -0.15153601637E+02 -0.28844404579E+03  0.31178531325E+03  0.91645920536E+02 0.  0.
         23    2    1    2    0    0 -0.73358759626E+02  0.15153601637E+02  0.24695656974E+02  0.12122726967E+03  0.92059959712E+02 0.  0.
          5    1    3    3  502    0  0.90015390130E+02  0.54763446940E+01 -0.20253957125E+03  0.22175916832E+03  0.47000000000E+01 0. -1.
         -5    1    4    4    0  503 -0.49695405399E+02  0.50884109641E+02 -0.51888704103E+00  0.71282432447E+02  0.47000000000E+01 0.  1.
          5    1    4    4  503    0 -0.23663354227E+02 -0.35730508005E+02  0.25214544015E+02  0.49944837225E+02  0.47000000000E+01 0. -1.
         -5    1    3    3    0  502 -0.16656630504E+02 -0.20629946331E+02 -0.85904474534E+02  0.90026144926E+02  0.47000000000E+01 0.  1.
<mgrwt>
<rscale>  0 0.11860490E+03</rscale>
<asrwt>0</asrwt>
<pdfrwt beam="1">  1        1 0.53596998E-01 0.11868519E+03</pdfrwt>
<pdfrwt beam="2">  1       -1 0.13020323E-01 0.11868519E+03</pdfrwt>
<totfact> 0.28165951E+03</totfact>
</mgrwt>
</event>
<event>
 8    1  0.3466492E-004  0.1086150E+03  0.7546771E-02  0.1263324E+00
          1   -1    0    0  501    0  0.00000000000E+00  0.00000000000E+00  0.33493374314E+03  0.33493374314E+03  0.00000000000E+00 0. -1.
         -1   -1    0    0    0  501 -0.00000000000E+00 -0.00000000000E+00 -0.65382553537E+02  0.65382553537E+02  0.00000000000E+00 0.  1.
         23    2    1    2    0    0 -0.51755832388E+02 -0.20771278900E+02 -0.13081524078E+01  0.10862289214E+03  0.93204663083E+02 0.  0.
         23    2    1    2    0    0  0.51755832388E+02  0.20771278900E+02  0.27085934201E+03  0.29169340454E+03  0.92790877156E+02 0.  0.
          5    1    4    4  502    0 -0.16296548918E+02  0.34186499243E+02  0.11079626371E+03  0.11718445413E+03  0.47000000000E+01 0. -1.
         -5    1    3    3    0  503 -0.31995683259E+02 -0.13564215790E+02 -0.46684280740E+02  0.58388558514E+02  0.47000000000E+01 0.  1.
          5    1    3    3  503    0 -0.19760149129E+02 -0.72070631106E+01  0.45376128332E+02  0.50234333624E+02  0.47000000000E+01 0. -1.
         -5    1    4    4    0  502  0.68052381306E+02 -0.13415220343E+02  0.16006307830E+03  0.17450895041E+03  0.47000000000E+01 0.  1.
<mgrwt>
<rscale>  0 0.10852619E+03</rscale>
<asrwt>0</asrwt>
<pdfrwt beam="1">  1        1 0.51528267E-01 0.10861501E+03</pdfrwt>
<pdfrwt beam="2">  1       -1 0.10058855E-01 0.10861501E+03</pdfrwt>
<totfact> 0.43708145E+03</totfact>
</mgrwt>
</event>
<event>
 8    1  0.3466492E-004  0.1097393E+03  0.7546771E-02  0.1261292E+00
         -2   -1    0    0    0  501 -0.00000000000E+00  0.00000000000E+00  0.11926639703E+02  0.11926639703E+02  0.00000000000E+00 0. -1.
          2   -1    0    0  501    0  0.00000000000E+00 -0.00000000000E+00 -0.10074317122E+04  0.10074317122E+04  0.00000000000E+00 0.  1.
         23    2    1    2    0    0 -0.44601374245E+02 -0.42487515963E+02 -0.52383752793E+03  0.53520880488E+03  0.90819808180E+02 0.  0.
         23    2    1    2    0    0  0.44601374245E+02  0.42487515963E+02 -0.47166754459E+03  0.48414954704E+03  0.90199998262E+02 0.  0.
          5    1    3    3  502    0  0.36968576303E+01  0.25503960007E+02 -0.12180177168E+03  0.12458683845E+03  0.47000000000E+01 0. -1.
         -5    1    3    3    0  502 -0.48298231875E+02 -0.67991475970E+02 -0.40203575625E+03  0.41062196643E+03  0.47000000000E+01 0.  1.
          5    1    4    4  503    0 -0.41741146195E+01  0.29576480607E+02 -0.43400777960E+02  0.52895264112E+02  0.47000000000E+01 0. -1.
         -5    1    4    4    0  503  0.48775488864E+02  0.12911035356E+02 -0.42826676663E+03  0.43125428293E+03  0.47000000000E+01 0.  1.
<mgrwt>
<rscale>  0 0.10961095E+03</rscale>
<asrwt>0</asrwt>
<pdfrwt beam="1">  1        2 0.15498953E+00 0.10973928E+03</pdfrwt>
<pdfrwt beam="2">  1       -2 0.18348673E-02 0.10973928E+03</pdfrwt>
<totfact> 0.21366756E+04</totfact>
</mgrwt>
</event>
<event>
 8    1  0.3466492E-004  0.2276558E+03  0.7546771E-02  0.1128433E+00
         -1   -1    0    0    0  501 -0.00000000000E+00  0.00000000000E+00  0.10651109301E+03  0.10651109301E+03  0.00000000000E+00 0.  1.
          1   -1    0    0  501    0  0.00000000000E+00 -0.00000000000E+00 -0.49903989378E+03  0.49903989378E+03  0.00000000000E+00 0. -1.
         23    2    1    2    0    0 -0.15439039679E+03  0.13939751596E+03 -0.14517650343E+03  0.26938090423E+03  0.90674099585E+02 0.  0.
         23    2    1    2    0    0  0.15439039679E+03 -0.13939751596E+03 -0.24735229734E+03  0.33617008256E+03  0.92515422134E+02 0.  0.
          5    1    4    4  502    0  0.10289680735E+03 -0.12593360941E+03 -0.22636222014E+03  0.27876328964E+03  0.47000000000E+01 0. -1.
         -5    1    4    4    0  502  0.51493589438E+02 -0.13463906554E+02 -0.20990077195E+02  0.57406792922E+02  0.47000000000E+01 0.  1.
          5    1    3    3  503    0 -0.75079347951E+02  0.16978873093E+02 -0.74502542407E+02  0.10722830524E+03  0.47000000000E+01 0. -1.
         -5    1    3    3    0  503 -0.79311048838E+02  0.12241864287E+03 -0.70673961027E+02  0.16215259898E+03  0.47000000000E+01 0.  1.
<mgrwt>
<rscale>  0 0.22747007E+03</rscale>
<asrwt>0</asrwt>
<pdfrwt beam="1">  1        1 0.76775368E-01 0.22765580E+03</pdfrwt>
<pdfrwt beam="2">  1       -1 0.16386322E-01 0.22765580E+03</pdfrwt>
<totfact> 0.12611232E+03</totfact>
</mgrwt>
</event>
<event>
 8    1  0.3466492E-004  0.9731378E+02  0.7546771E-02  0.1286395E+00
          2   -1    0    0  501    0  0.00000000000E+00  0.00000000000E+00  0.19908979052E+03  0.19908979052E+03  0.00000000000E+00 0. -1.
         -2   -1    0    0    0  501 -0.00000000000E+00 -0.00000000000E+00 -0.81732792786E+02  0.81732792786E+02  0.00000000000E+00 0.  1.
         23    2    1    2    0    0  0.32956964180E+02  0.16952165110E+01 -0.32403263016E+02  0.10256677847E+03  0.91547459515E+02 0.  0.
         23    2    1    2    0    0 -0.32956964180E+02 -0.16952165110E+01  0.14976026075E+03  0.17825580484E+03  0.90873323987E+02 0.  0.
          5    1    4    4  502    0 -0.66165345488E+01 -0.44975741948E+02  0.66939058830E+02  0.81052597061E+02  0.47000000000E+01 0. -1.
         -5    1    3    3    0  503  0.33637605824E+02  0.39721839689E+02  0.18320496563E+00  0.52263147991E+02  0.47000000000E+01 0.  1.
          5    1    3    3  503    0 -0.68064164480E+00 -0.38026623178E+02 -0.32586467981E+02  0.50303630474E+02  0.47000000000E+01 0. -1.
         -5    1    4    4    0  502 -0.26340429631E+02  0.43280525437E+02  0.82821201918E+02  0.97203207779E+02  0.47000000000E+01 0.  1.
<mgrwt>
<rscale>  0 0.97154916E+02</rscale>
<asrwt>0</asrwt>
<pdfrwt beam="1">  1        2 0.30629198E-01 0.97313784E+02</pdfrwt>
<pdfrwt beam="2">  1       -2 0.12574276E-01 0.97313784E+02</pdfrwt>
<totfact> 0.72627202E+03</totfact>
</mgrwt>
</event>
<event>
 8    1  0.3466492E-004  0.9535429E+02  0.7546771E-02  0.1292036E+00
          2   -1    0    0  501    0  0.00000000000E+00  0.00000000000E+00  0.11405226489E+03  0.11405226489E+03  0.00000000000E+00 0. -1.
         -2   -1    0    0    0  501 -0.00000000000E+00 -0.00000000000E+00 -0.89709057722E+02  0.89709057722E+02  0.00000000000E+00 0.  1.
         23    2    1    2    0    0 -0.99630516582E+01  0.95801281540E+01 -0.25538178475E+02  0.98714937578E+02  0.94347226178E+02 0.  0.
         23    2    1    2    0    0  0.99630516582E+01 -0.95801281540E+01  0.49881385647E+02  0.10504638504E+03  0.91408692812E+02 0.  0.
          5    1    4    4  502    0 -0.33096857764E+02 -0.99860751970E+01  0.50909038145E+02  0.61716641650E+02  0.47000000000E+01 0. -1.
         -5    1    3    3    0  503  0.20419393978E+02 -0.31445160272E+02  0.63839209730E+01  0.38322241609E+02  0.47000000000E+01 0.  1.
          5    1    3    3  503    0 -0.30382445636E+02  0.41025288426E+02 -0.31922099448E+02  0.60392695969E+02  0.47000000000E+01 0. -1.
         -5    1    4    4    0  502  0.43059909422E+02  0.40594704305E+00 -0.10276524977E+01  0.43329743388E+02  0.47000000000E+01 0.  1.
<mgrwt>
<rscale>  0 0.94619203E+02</rscale>
<asrwt>0</asrwt>
<pdfrwt beam="1">  1        2 0.17546502E-01 0.95354289E+02</pdfrwt>
<pdfrwt beam="2">  1       -2 0.13801393E-01 0.95354289E+02</pdfrwt>
<totfact> 0.11537549E+04</totfact>
</mgrwt>
</event>
<event>
 8    1  0.3466492E-004  0.1008192E+03  0.7546771E-02  0.1281606E+00
         -2   -1    0    0    0  501 -0.00000000000E+00  0.00000000000E+00  0.26412738071E+02  0.26412738071E+02  0.00000000000E+00 0.  1.
          2   -1    0    0  501    0  0.00000000000E+00 -0.00000000000E+00 -0.36378533073E+03  0.36378533073E+03  0.00000000000E+00 0. -1.
         23    2    1    2    0    0  0.29306566609E+02  0.92235264245E+01 -0.16940578007E+03  0.19713659495E+03  0.96023801543E+02 0.  0.
         23    2    1    2    0    0 -0.29306566609E+02 -0.92235264245E+01 -0.16796681259E+03  0.19306147385E+03  0.90088480212E+02 0.  0.
          5    1    4    4  502    0 -0.55082924053E+02 -0.33773503109E-01 -0.15031658308E+03  0.16016021607E+03  0.47000000000E+01 0. -1.
         -5    1    3    3    0  503  0.62133460574E+02 -0.32443020576E+01 -0.12966739131E+03  0.14389862678E+03  0.47000000000E+01 0.  1.
          5    1    3    3  503    0 -0.32826893965E+02  0.12467828482E+02 -0.39738388754E+02  0.53237968173E+02  0.47000000000E+01 0. -1.
         -5    1    4    4    0  502  0.25776357444E+02 -0.91897529214E+01 -0.17650229519E+02  0.32901257786E+02  0.47000000000E+01 0.  1.
<mgrwt>
<rscale>  0 0.99379745E+02</rscale>
<asrwt>0</asrwt>
<pdfrwt beam="1">  1        2 0.55966974E-01 0.10081924E+03</pdfrwt>
<pdfrwt beam="2">  1       -2 0.40634982E-02 0.10081924E+03</pdfrwt>
<totfact> 0.21594977E+04</totfact>
</mgrwt>
</event>
<event>
 8    1  0.3466492E-004  0.1641133E+03  0.7546771E-02  0.1187964E+00
         -1   -1    0    0    0  501 -0.00000000000E+00  0.00000000000E+00  0.11833348813E+03  0.11833348813E+03  0.00000000000E+00 0.  1.
          1   -1    0    0  501    0  0.00000000000E+00 -0.00000000000E+00 -0.45841885279E+03  0.45841885279E+03  0.00000000000E+00 0. -1.
         23    2    1    2    0    0  0.10746546815E+03  0.57467254935E+02  0.39111021834E+02  0.16870937634E+03  0.10991755730E+03 0.  0.
         23    2    1    2    0    0 -0.10746546815E+03 -0.57467254935E+02 -0.37919638649E+03  0.40804296457E+03  0.88644510121E+02 0.  0.
          5    1    3    3  502    0 -0.19522579580E+02  0.20076367982E+02 -0.55280264724E+01  0.28928199762E+02  0.47000000000E+01 0. -1.
         -5    1    4    4    0  503 -0.75143601983E+02 -0.52827261581E+02 -0.14621386221E+03  0.17273640030E+03  0.47000000000E+01 0.  1.
          5    1    4    4  503    0 -0.32321866163E+02 -0.46399933540E+01 -0.23298252428E+03  0.23530656427E+03  0.47000000000E+01 0. -1.
         -5    1    3    3    0  502  0.12698804773E+03  0.37390886953E+02  0.44639048307E+02  0.13978117658E+03  0.47000000000E+01 0.  1.
<mgrwt>
<rscale>  0 0.16065084E+03</rscale>
<asrwt>0</asrwt>
<pdfrwt beam="1">  1        1 0.70525978E-01 0.16411332E+03</pdfrwt>
<pdfrwt beam="2">  1       -1 0.18205152E-01 0.16411332E+03</pdfrwt>
<totfact> 0.11866713E+03</totfact>
</mgrwt>
</event>
<event>
 8    1  0.3466492E-004  0.1436793E+03  0.7546771E-02  0.1208484E+00
         -2   -1    0    0    0  501 -0.00000000000E+00  0.00000000000E+00  0.86408528336E+02  0.86408528336E+02  0.00000000000E+00 0.  1.
          2   -1    0    0  501    0  0.00000000000E+00 -0.00000000000E+00 -0.25067452013E+03  0.25067452013E+03  0.00000000000E+00 0. -1.
         23    2    1    2    0    0 -0.70387754810E+02 -0.85427452034E+02 -0.45461062117E+02  0.15069989626E+03  0.91604939691E+02 0.  0.
         23    2    1    2    0    0  0.70387754810E+02  0.85427452034E+02 -0.11880492968E+03  0.18638315221E+03  0.91497445443E+02 0.  0.
          5    1    4    4  502    0  0.87259652963E+02  0.54416637273E+02 -0.64632096767E+02  0.12155169838E+03  0.47000000000E+01 0. -1.
         -5    1    3    3    0  503 -0.89791052907E+02 -0.59720264149E+02 -0.47834923896E+02  0.11806444459E+03  0.47000000000E+01 0.  1.
          5    1    3    3  503    0  0.19403298097E+02 -0.25707187885E+02  0.23738617787E+01  0.32635451670E+02  0.47000000000E+01 0. -1.
         -5    1    4    4    0  502 -0.16871898153E+02  0.31010814761E+02 -0.54172832908E+02  0.64831453823E+02  0.47000000000E+01 0.  1.
<mgrwt>
<rscale>  0 0.14366220E+03</rscale>
<asrwt>0</asrwt>
<pdfrwt beam="1">  1        2 0.38565310E-01 0.14367933E+03</pdfrwt>
<pdfrwt beam="2">  1       -2 0.13293620E-01 0.14367933E+03</pdfrwt>
<totfact> 0.53355386E+03</totfact>
</mgrwt>
</event>
<event>
 8    1  0.3466492E-004  0.1034447E+03  0.7546771E-02  0.1274863E+00
          1   -1    0    0  501    0  0.00000000000E+00  0.00000000000E+00  0.10827438033E+03  0.10827438033E+03  0.00000000000E+00 0. -1.
         -1   -1    0    0    0  501 -0.00000000000E+00 -0.00000000000E+00 -0.95880825714E+02  0.95880825714E+02  0.00000000000E+00 0.  1.
         23    2    1    2    0    0  0.46141407786E+02  0.22300052917E+00  0.95118362669E+01  0.10067039733E+03  0.88966143148E+02 0.  0.
         23    2    1    2    0    0 -0.46141407786E+02 -0.22300052917E+00  0.28817183515E+01  0.10348480872E+03  0.92583595166E+02 0.  0.
          5    1    3    3  502    0  0.93863404468E+01 -0.37824013636E+02  0.23499250742E+02  0.45750018360E+02  0.47000000000E+01 0. -1.
         -5    1    3    3    0  502  0.36755067339E+02  0.38047014165E+02 -0.13987414475E+02  0.54920378965E+02  0.47000000000E+01 0.  1.
          5    1    4    4  503    0 -0.45665416259E+01 -0.28699208318E+02  0.33292056377E+02  0.44440396919E+02  0.47000000000E+01 0. -1.
         -5    1    4    4    0  503 -0.41574866160E+02  0.28476207789E+02 -0.30410338026E+02  0.59044411803E+02  0.47000000000E+01 0.  1.
<mgrwt>
<rscale>  0 0.10262892E+03</rscale>
<asrwt>0</asrwt>
<pdfrwt beam="1">  1        1 0.16657597E-01 0.10344468E+03</pdfrwt>
<pdfrwt beam="2">  1       -1 0.14750896E-01 0.10344468E+03</pdfrwt>
<totfact> 0.98362423E+03</totfact>
</mgrwt>
</event>
<event>
 8    1  0.3466492E-004  0.9227896E+02  0.7546771E-02  0.1299295E+00
         -1   -1    0    0    0  501 -0.00000000000E+00  0.00000000000E+00  0.15720623624E+02  0.15720623624E+02  0.00000000000E+00 0.  1.
          1   -1    0    0  501    0  0.00000000000E+00 -0.00000000000E+00 -0.68631505052E+03  0.68631505052E+03  0.00000000000E+00 0. -1.
         23    2    1    2    0    0 -0.14069865030E+02 -0.15423882919E+02 -0.50186612229E+03  0.50972174541E+03  0.86664847439E+02 0.  0.
         23    2    1    2    0    0  0.14069865030E+02  0.15423882919E+02 -0.16872830461E+03  0.19231392873E+03  0.89886312315E+02 0.  0.
          5    1    4    4  502    0  0.42644179299E+01 -0.22767755210E+02 -0.14313066776E+03  0.14506906628E+03  0.47000000000E+01 0. -1.
         -5    1    3    3    0  503 -0.33075572250E+01  0.33966138948E+02 -0.13346638556E+03  0.13784050422E+03  0.47000000000E+01 0.  1.
          5    1    3    3  503    0 -0.10762307805E+02 -0.49390021866E+02 -0.36839973673E+03  0.37188124120E+03  0.47000000000E+01 0. -1.
         -5    1    4    4    0  502  0.98054471000E+01  0.38191638128E+02 -0.25597636846E+02  0.47244862449E+02  0.47000000000E+01 0.  1.
<mgrwt>
<rscale>  0 0.91485033E+02</rscale>
<asrwt>0</asrwt>
<pdfrwt beam="1">  1        1 0.10558694E+00 0.92278960E+02</pdfrwt>
<pdfrwt beam="2">  1       -1 0.24185574E-02 0.92278960E+02</pdfrwt>
<totfact> 0.13887381E+04</totfact>
</mgrwt>
</event>
<event>
 8    1  0.3466492E-004  0.9356323E+02  0.7546771E-02  0.1297429E+00
          1   -1    0    0  501    0  0.00000000000E+00  0.00000000000E+00  0.22197618252E+02  0.22197618252E+02  0.00000000000E+00 0. -1.
         -1   -1    0    0    0  501 -0.00000000000E+00 -0.00000000000E+00 -0.37372775983E+03  0.37372775983E+03  0.00000000000E+00 0.  1.
         23    2    1    2    0    0  0.16849324375E+02 -0.36169431736E+01 -0.17488568334E+03  0.19834081703E+03  0.91962467628E+02 0.  0.
         23    2    1    2    0    0 -0.16849324375E+02  0.36169431736E+01 -0.17664445824E+03  0.19758456105E+03  0.86829788268E+02 0.  0.
          5    1    4    4  502    0  0.29222749010E+02  0.11573994284E+02 -0.30411203375E+02  0.43987017336E+02  0.47000000000E+01 0. -1.
         -5    1    4    4    0  502 -0.46072073384E+02 -0.79570511108E+01 -0.14623325486E+03  0.15359754372E+03  0.47000000000E+01 0.  1.
          5    1    3    3  503    0  0.98976541548E+01 -0.41036084258E+02 -0.14068596547E+03  0.14695766277E+03  0.47000000000E+01 0. -1.
         -5    1    3    3    0  503  0.69516702199E+01  0.37419141084E+02 -0.34199717872E+02  0.51383154252E+02  0.47000000000E+01 0.  1.
<mgrwt>
<rscale>  0 0.92276992E+02</rscale>
<asrwt>0</asrwt>
<pdfrwt beam="1">  1        1 0.34150185E-02 0.93563227E+02</pdfrwt>
<pdfrwt beam="2">  1       -1 0.57496573E-01 0.93563227E+02</pdfrwt>
<totfact> 0.81869393E+03</totfact>
</mgrwt>
</event>
<event>
 8    1  0.3466492E-004  0.9119577E+02  0.7546771E-02  0.1300624E+00
          1   -1    0    0  501    0  0.00000000000E+00  0.00000000000E+00  0.17040867862E+03  0.17040867862E+03  0.00000000000E+00 0. -1.
         -1   -1    0    0    0  501 -0.00000000000E+00 -0.00000000000E+00 -0.64722505818E+02  0.64722505818E+02  0.00000000000E+00 0.  1.
         23    2    1    2    0    0  0.19930384112E+02 -0.19359319113E+01 -0.62666491558E+01  0.91410824440E+02  0.88970219118E+02 0.  0.
         23    2    1    2    0    0 -0.19930384112E+02  0.19359319113E+01  0.11195282196E+03  0.14372036000E+03  0.87870014739E+02 0.  0.
          5    1    4    4  502    0 -0.52115108380E+02  0.32884773988E+01  0.90946995819E+02  0.10497735305E+03  0.47000000000E+01 0. -1.
         -5    1    3    3    0  503  0.45111741307E+02 -0.11147310862E+02 -0.29820092873E+02  0.55413533385E+02  0.47000000000E+01 0.  1.
          5    1    3    3  503    0 -0.25181357196E+02  0.92113789505E+01  0.23553443717E+02  0.35997291055E+02  0.47000000000E+01 0. -1.
         -5    1    4    4    0  502  0.32184724268E+02 -0.13525454875E+01  0.21005826138E+02  0.38743006946E+02  0.47000000000E+01 0.  1.
<mgrwt>
<rscale>  0 0.90926317E+02</rscale>
<asrwt>0</asrwt>
<pdfrwt beam="1">  1        1 0.26216720E-01 0.91195767E+02</pdfrwt>
<pdfrwt beam="2">  1       -1 0.99573087E-02 0.91195767E+02</pdfrwt>
<totfact> 0.10045171E+04</totfact>
</mgrwt>
</event>
<event>
 8    1  0.3466492E-004  0.1046193E+03  0.7546771E-02  0.1272471E+00
          2   -1    0    0  501    0  0.00000000000E+00  0.00000000000E+00  0.26528282204E+02  0.26528282204E+02  0.00000000000E+00 0. -1.
         -2   -1    0    0    0  501 -0.00000000000E+00 -0.00000000000E+00 -0.41228962452E+03  0.41228962452E+03  0.00000000000E+00 0.  1.
         23    2    1    2    0    0 -0.26420080820E+02  0.21483187436E+02 -0.23341289665E+03  0.25578657099E+03  0.98922401723E+02 0.  0.
         23    2    1    2    0    0  0.26420080820E+02 -0.21483187436E+02 -0.15234844566E+03  0.18303133573E+03  0.95555601360E+02 0.  0.
          5    1    4    4  502    0 -0.29478085024E+02  0.13925048806E+01 -0.95084745315E+02  0.99669932067E+02  0.47000000000E+01 0. -1.
         -5    1    4    4    0  502  0.55898165844E+02 -0.22875692317E+02 -0.57263700349E+02  0.83361403667E+02  0.47000000000E+01 0.  1.
          5    1    3    3  503    0 -0.61798974161E+02  0.24163139082E+02 -0.12469485295E+03  0.14132893139E+03  0.47000000000E+01 0. -1.
         -5    1    3    3    0  503  0.35378893342E+02 -0.26799516453E+01 -0.10871804370E+03  0.11445763959E+03  0.47000000000E+01 0.  1.
<mgrwt>
<rscale>  0 0.10381566E+03</rscale>
<asrwt>0</asrwt>
<pdfrwt beam="1">  1        2 0.40812748E-02 0.10461926E+03</pdfrwt>
<pdfrwt beam="2">  1       -2 0.63429163E-01 0.10461926E+03</pdfrwt>
<totfact> 0.45072406E+03</totfact>
</mgrwt>
</event>
<event>
 8    1  0.3466492E-004  0.9311850E+02  0.7546771E-02  0.1295767E+00
          1   -1    0    0  501    0  0.00000000000E+00  0.00000000000E+00  0.59643442687E+03  0.59643442687E+03  0.00000000000E+00 0. -1.
         -1   -1    0    0    0  501 -0.00000000000E+00 -0.00000000000E+00 -0.19219252512E+02  0.19219252512E+02  0.00000000000E+00 0.  1.
         23    2    1    2    0    0 -0.12939886252E+02 -0.78952351669E+00  0.13480412410E+03  0.16354905431E+03  0.91695568531E+02 0.  0.
         23    2    1    2    0    0  0.12939886252E+02  0.78952351669E+00  0.44241105026E+03  0.45210462507E+03  0.92211662036E+02 0.  0.
          5    1    3    3  502    0  0.85264204486E+01 -0.26283753154E+02  0.12555215133E+03  0.12864279315E+03  0.47000000000E+01 0. -1.
         -5    1    3    3    0  502 -0.21466306701E+02  0.25494229638E+02  0.92519727696E+01  0.34906261162E+02  0.47000000000E+01 0.  1.
          5    1    4    4  503    0 -0.25291753681E+02 -0.31248681677E+02  0.25113230465E+03  0.25437310658E+03  0.47000000000E+01 0. -1.
         -5    1    4    4    0  503  0.38231639933E+02  0.32038205194E+02  0.19127874561E+03  0.19773151849E+03  0.47000000000E+01 0.  1.
<mgrwt>
<rscale>  0 0.92990474E+02</rscale>
<asrwt>0</asrwt>
<pdfrwt beam="1">  1        1 0.91759128E-01 0.93118498E+02</pdfrwt>
<pdfrwt beam="2">  1       -1 0.29568085E-02 0.93118498E+02</pdfrwt>
<totfact> 0.12615367E+04</totfact>
</mgrwt>
</event>
<event>
 8    1  0.3466492E-004  0.1161262E+03  0.7546771E-02  0.1254466E+00
         -2   -1    0    0    0  501 -0.00000000000E+00  0.00000000000E+00  0.89588555081E+01  0.89588555081E+01  0.00000000000E+00 0.  1.
          2   -1    0    0  501    0  0.00000000000E+00 -0.00000000000E+00 -0.13740993284E+04  0.13740993284E+04  0.00000000000E+00 0. -1.
         23    2    1    2    0    0 -0.29416444628E+01  0.71934884011E+02 -0.61290351956E+03  0.62191054148E+03  0.77063068313E+02 0.  0.
         23    2    1    2    0    0  0.29416444628E+01 -0.71934884011E+02 -0.75223695330E+03  0.76114764241E+03  0.91115414802E+02 0.  0.
          5    1    3    3  502    0  0.19378644061E+02  0.65376460231E+02 -0.55699368099E+03  0.56117168858E+03  0.47000000000E+01 0. -1.
         -5    1    4    4    0  503  0.33174004157E+02 -0.63717746579E+02 -0.65349185956E+03  0.65744518121E+03  0.47000000000E+01 0.  1.
          5    1    4    4  503    0 -0.30232359694E+02 -0.82171374319E+01 -0.98745093744E+02  0.10370246120E+03  0.47000000000E+01 0. -1.
         -5    1    3    3    0  502 -0.22320288524E+02  0.65584237803E+01 -0.55909838568E+02  0.60738852894E+02  0.47000000000E+01 0.  1.
<mgrwt>
<rscale>  0 0.11336280E+03</rscale>
<asrwt>0</asrwt>
<pdfrwt beam="1">  1        2 0.21139987E+00 0.11612622E+03</pdfrwt>
<pdfrwt beam="2">  1       -2 0.13782856E-02 0.11612622E+03</pdfrwt>
<totfact> 0.20294642E+04</totfact>
</mgrwt>
</event>
<event>
 8    1  0.3466492E-004  0.1193476E+03  0.7546771E-02  0.1246450E+00
          1   -1    0    0  501    0  0.00000000000E+00  0.00000000000E+00  0.99772872842E+02  0.99772872842E+02  0.00000000000E+00 0. -1.
         -1   -1    0    0    0  501 -0.00000000000E+00 -0.00000000000E+00 -0.15162711709E+03  0.15162711709E+03  0.00000000000E+00 0.  1.
         23    2    1    2    0    0  0.75016067995E+02 -0.70179124839E+01 -0.66219688889E+02  0.13648768504E+03  0.92559059078E+02 0.  0.
         23    2    1    2    0    0 -0.75016067995E+02  0.70179124839E+01  0.14365444642E+02  0.11491230489E+03  0.85567577170E+02 0.  0.
          5    1    3    3  502    0  0.15913291151E+02  0.23918104177E+02  0.13789059980E+02  0.32210816783E+02  0.47000000000E+01 0. -1.
         -5    1    3    3    0  502  0.59102776844E+02 -0.30936016661E+02 -0.80008748870E+02  0.10427686826E+03  0.47000000000E+01 0.  1.
          5    1    4    4  503    0 -0.76605126986E+02 -0.18349941731E+02  0.30319715981E+02  0.84536625313E+02  0.47000000000E+01 0. -1.
         -5    1    4    4    0  503  0.15890589908E+01  0.25367854215E+02 -0.15954271339E+02  0.30375679580E+02  0.47000000000E+01 0.  1.
<mgrwt>
<rscale>  0 0.11799041E+03</rscale>
<asrwt>0</asrwt>
<pdfrwt beam="1">  1        1 0.15349673E-01 0.11934756E+03</pdfrwt>
<pdfrwt beam="2">  1       -1 0.23327249E-01 0.11934756E+03</pdfrwt>
<totfact> 0.53369990E+03</totfact>
</mgrwt>
</event>
<event>
 8    1  0.3466492E-004  0.9368828E+02  0.7546771E-02  0.1296817E+00
         -4   -1    0    0    0  501 -0.00000000000E+00  0.00000000000E+00  0.19929384192E+02  0.19929384192E+02  0.00000000000E+00 0.  1.
          4   -1    0    0  501    0  0.00000000000E+00 -0.00000000000E+00 -0.42194797851E+03  0.42194797851E+03  0.00000000000E+00 0. -1.
         23    2    1    2    0    0  0.95800595305E+00  0.83082874606E+01 -0.21299649399E+03  0.23091090161E+03  0.88782839637E+02 0.  0.
         23    2    1    2    0    0 -0.95800595305E+00 -0.83082874606E+01 -0.18902210033E+03  0.21096646110E+03  0.93314242633E+02 0.  0.
          5    1    4    4  502    0 -0.30843867561E+02  0.18697685057E+02 -0.30899899512E+02  0.47726736558E+02  0.47000000000E+01 0. -1.
         -5    1    3    3    0  503 -0.12892722108E+02 -0.15789161819E+02 -0.56660042515E+01  0.21672875178E+02  0.47000000000E+01 0.  1.
          5    1    3    3  503    0  0.13850728061E+02  0.24097449280E+02 -0.20733048974E+03  0.20923802643E+03  0.47000000000E+01 0. -1.
         -5    1    4    4    0  502  0.29885861608E+02 -0.27005972518E+02 -0.15812220082E+03  0.16323972454E+03  0.47000000000E+01 0.  1.
<mgrwt>
<rscale>  0 0.92539211E+02</rscale>
<asrwt>0</asrwt>
<pdfrwt beam="1">  1        4 0.64915068E-01 0.93688277E+02</pdfrwt>
<pdfrwt beam="2">  1       -4 0.30660594E-02 0.93688277E+02</pdfrwt>
<totfact> 0.17628904E+03</totfact>
</mgrwt>
</event>
<event>
 8    1  0.3466492E-004  0.1303360E+03  0.7546771E-02  0.1228930E+00
          1   -1    0    0  501    0  0.00000000000E+00  0.00000000000E+00  0.62420631930E+03  0.62420631930E+03  0.00000000000E+00 0. -1.
         -1   -1    0    0    0  501 -0.00000000000E+00 -0.00000000000E+00 -0.26144856139E+02  0.26144856139E+02  0.00000000000E+00 0.  1.
         23    2    1    2    0    0  0.65607725267E+02  0.61146527128E+02  0.29908543868E+03  0.32625076667E+03  0.94573736991E+02 0.  0.
         23    2    1    2    0    0 -0.65607725267E+02 -0.61146527128E+02  0.29897602449E+03  0.32410040877E+03  0.87241849790E+02 0.  0.
          5    1    3    3  502    0 -0.47563704099E+01  0.54392019886E+02  0.17483892847E+03  0.18322624210E+03  0.47000000000E+01 0. -1.
         -5    1    4    4    0  503 -0.31943184531E+02 -0.41533365732E+01  0.21310218901E+03  0.21557423363E+03  0.47000000000E+01 0.  1.
          5    1    4    4  503    0 -0.33664540736E+02 -0.56993190555E+02  0.85873835477E+02  0.10852617515E+03  0.47000000000E+01 0. -1.
         -5    1    3    3    0  502  0.70364095677E+02  0.67545072424E+01  0.12424651021E+03  0.14302452457E+03  0.47000000000E+01 0.  1.
<mgrwt>
<rscale>  0 0.12901131E+03</rscale>
<asrwt>0</asrwt>
<pdfrwt beam="1">  1        1 0.96031730E-01 0.13033596E+03</pdfrwt>
<pdfrwt beam="2">  1       -1 0.40222860E-02 0.13033596E+03</pdfrwt>
<totfact> 0.77696622E+03</totfact>
</mgrwt>
</event>
<event>
 8    1  0.3466492E-004  0.1088353E+03  0.7546771E-02  0.1264632E+00
          3   -1    0    0  501    0  0.00000000000E+00  0.00000000000E+00  0.77186730571E+03  0.77186730571E+03  0.00000000000E+00 0. -1.
         -3   -1    0    0    0  501 -0.00000000000E+00 -0.00000000000E+00 -0.15690011889E+02  0.15690011889E+02  0.00000000000E+00 0.  1.
         23    2    1    2    0    0 -0.54639716124E+02 -0.50741271621E+01  0.46555720348E+03  0.47722659110E+03  0.89389396465E+02 0.  0.
         23    2    1    2    0    0  0.54639716124E+02  0.50741271621E+01  0.29062009035E+03  0.31033072650E+03  0.93988709709E+02 0.  0.
          5    1    3    3  502    0 -0.41339486746E+02 -0.42707628655E+02  0.20176590550E+03  0.21039121972E+03  0.47000000000E+01 0. -1.
         -5    1    4    4    0  503  0.37193170026E+02 -0.31575680890E+02  0.67038165297E+02  0.83045536464E+02  0.47000000000E+01 0.  1.
          5    1    4    4  503    0  0.17446546098E+02  0.36649808052E+02  0.22358192505E+03  0.22728519004E+03  0.47000000000E+01 0. -1.
         -5    1    3    3    0  502 -0.13300229378E+02  0.37633501493E+02  0.26379129797E+03  0.26683537138E+03  0.47000000000E+01 0.  1.
<mgrwt>
<rscale>  0 0.10783503E+03</rscale>
<asrwt>0</asrwt>
<pdfrwt beam="1">  1        3 0.11874879E+00 0.10883530E+03</pdfrwt>
<pdfrwt beam="2">  1       -3 0.24138486E-02 0.10883530E+03</pdfrwt>
<totfact> 0.96680394E+02</totfact>
</mgrwt>
</event>
<event>
 8    1  0.3466492E-004  0.9138672E+02  0.7546771E-02  0.1299843E+00
         -2   -1    0    0    0  501 -0.00000000000E+00  0.00000000000E+00  0.16490216940E+03  0.16490216940E+03  0.00000000000E+00 0.  1.
          2   -1    0    0  501    0  0.00000000000E+00 -0.00000000000E+00 -0.11093338046E+03  0.11093338046E+03  0.00000000000E+00 0. -1.
         23    2    1    2    0    0 -0.77338630097E+01  0.48089537027E+01  0.12886833834E+03  0.15767686101E+03  0.90399143790E+02 0.  0.
         23    2    1    2    0    0  0.77338630097E+01 -0.48089537027E+01 -0.74899549400E+02  0.11815868886E+03  0.90931812807E+02 0.  0.
          5    1    3    3  502    0  0.24180901867E+01  0.46688100329E+02  0.75438220504E+02  0.88874298789E+02  0.47000000000E+01 0. -1.
         -5    1    3    3    0  502 -0.10151953196E+02 -0.41879146626E+02  0.53430117836E+02  0.68802562218E+02  0.47000000000E+01 0.  1.
          5    1    4    4  503    0  0.42003778446E+02  0.21206069342E+02 -0.31198994930E+02  0.56652290910E+02  0.47000000000E+01 0. -1.
         -5    1    4    4    0  503 -0.34269915436E+02 -0.26015023045E+02 -0.43700554470E+02  0.61506397952E+02  0.47000000000E+01 0.  1.
<mgrwt>
<rscale>  0 0.91253934E+02</rscale>
<asrwt>0</asrwt>
<pdfrwt beam="1">  1        2 0.17066674E-01 0.91386724E+02</pdfrwt>
<pdfrwt beam="2">  1       -2 0.25369565E-01 0.91386724E+02</pdfrwt>
<totfact> 0.43064960E+03</totfact>
</mgrwt>
</event>
<event>
 8    1  0.3466492E-004  0.1264061E+03  0.7546771E-02  0.1233104E+00
         -1   -1    0    0    0  501 -0.00000000000E+00  0.00000000000E+00  0.25369763321E+02  0.25369763321E+02  0.00000000000E+00 0.  1.
          1   -1    0    0  501    0  0.00000000000E+00 -0.00000000000E+00 -0.10093086652E+04  0.10093086652E+04  0.00000000000E+00 0. -1.
         23    2    1    2    0    0  0.80011899014E+02  0.33024731336E+02 -0.81102524048E+03  0.82081693743E+03  0.92119309682E+02 0.  0.
         23    2    1    2    0    0 -0.80011899014E+02 -0.33024731336E+02 -0.17291366144E+03  0.21386149113E+03  0.91351333936E+02 0.  0.
          5    1    3    3  502    0  0.68032668609E+02  0.62073579564E+02 -0.52552321116E+03  0.53355253607E+03  0.47000000000E+01 0. -1.
         -5    1    3    3    0  502  0.11979230404E+02 -0.29048848229E+02 -0.28550202932E+03  0.28726440137E+03  0.47000000000E+01 0.  1.
          5    1    4    4  503    0 -0.10243119252E+02  0.23343837954E+02 -0.99126457574E+01  0.27752600029E+02  0.47000000000E+01 0. -1.
         -5    1    4    4    0  503 -0.69768779761E+02 -0.56368569290E+02 -0.16300101568E+03  0.18610889110E+03  0.47000000000E+01 0.  1.
<mgrwt>
<rscale>  0 0.12626623E+03</rscale>
<asrwt>0</asrwt>
<pdfrwt beam="1">  1        1 0.15527827E+00 0.12640611E+03</pdfrwt>
<pdfrwt beam="2">  1       -1 0.39030403E-02 0.12640611E+03</pdfrwt>
<totfact> 0.39253925E+03</totfact>
</mgrwt>
</event>
<event>
 8    1  0.3466492E-004  0.9313999E+02  0.7546771E-02  0.1295488E+00
         -1   -1    0    0    0  501 -0.00000000000E+00  0.00000000000E+00  0.12540908679E+02  0.12540908679E+02  0.00000000000E+00 0.  1.
          1   -1    0    0  501    0  0.00000000000E+00 -0.00000000000E+00 -0.70515187159E+03  0.70515187159E+03  0.00000000000E+00 0. -1.
         23    2    1    2    0    0  0.48532734231E+01 -0.18008253741E+02 -0.39713304256E+03  0.40788274230E+03  0.91136307312E+02 0.  0.
         23    2    1    2    0    0 -0.48532734231E+01  0.18008253741E+02 -0.29547792036E+03  0.30981003797E+03  0.91253530033E+02 0.  0.
          5    1    3    3  502    0 -0.12158291121E+02 -0.50051566924E+02 -0.29253533115E+03  0.29707237059E+03  0.47000000000E+01 0. -1.
         -5    1    3    3    0  502  0.17011564544E+02  0.32043313183E+02 -0.10459771140E+03  0.11081037171E+03  0.47000000000E+01 0.  1.
          5    1    4    4  503    0 -0.38300226422E+02  0.20602600921E+02 -0.75642111324E+02  0.87379594381E+02  0.47000000000E+01 0. -1.
         -5    1    4    4    0  503  0.33446952999E+02 -0.25943471800E+01 -0.21983580903E+03  0.22243044359E+03  0.47000000000E+01 0.  1.
<mgrwt>
<rscale>  0 0.93111268E+02</rscale>
<asrwt>0</asrwt>
<pdfrwt beam="1">  1        1 0.10848488E+00 0.93139993E+02</pdfrwt>
<pdfrwt beam="2">  1       -1 0.19293710E-02 0.93139993E+02</pdfrwt>
<totfact> 0.18484128E+04</totfact>
</mgrwt>
</event>
<event>
 8    1  0.3466492E-004  0.1387566E+03  0.7546771E-02  0.1215634E+00
         -2   -1    0    0    0  501 -0.00000000000E+00  0.00000000000E+00  0.27530718676E+02  0.27530718676E+02  0.00000000000E+00 0.  1.
          2   -1    0    0  501    0  0.00000000000E+00 -0.00000000000E+00 -0.70085628743E+03  0.70085628743E+03  0.00000000000E+00 0. -1.
         23    2    1    2    0    0 -0.47147163927E+02  0.89720464442E+02 -0.28961964488E+03  0.32036293581E+03  0.92088300744E+02 0.  0.
         23    2    1    2    0    0  0.47147163927E+02 -0.89720464442E+02 -0.38370592388E+03  0.40802407030E+03  0.94767025490E+02 0.  0.
          5    1    4    4  502    0  0.30410325502E+02 -0.10815144392E+03 -0.33025531811E+03  0.34887273877E+03  0.47000000000E+01 0. -1.
         -5    1    3    3    0  503  0.16307148412E+02  0.58516210837E+02 -0.17807658092E+03  0.18821112797E+03  0.47000000000E+01 0.  1.
          5    1    3    3  503    0 -0.63454312339E+02  0.31204253605E+02 -0.11154306397E+03  0.13215180784E+03  0.47000000000E+01 0. -1.
         -5    1    4    4    0  502  0.16736838425E+02  0.18430979473E+02 -0.53450605771E+02  0.59151331532E+02  0.47000000000E+01 0.  1.
<mgrwt>
<rscale>  0 0.13830052E+03</rscale>
<asrwt>0</asrwt>
<pdfrwt beam="1">  1        2 0.10782404E+00 0.13875664E+03</pdfrwt>
<pdfrwt beam="2">  1       -2 0.42354954E-02 0.13875664E+03</pdfrwt>
<totfact> 0.10120471E+04</totfact>
</mgrwt>
</event>
<event>
 8    1  0.3466492E-004  0.1004386E+03  0.7546771E-02  0.1280466E+00
         -1   -1    0    0    0  501 -0.00000000000E+00  0.00000000000E+00  0.22736431159E+02  0.22736431159E+02  0.00000000000E+00 0.  1.
          1   -1    0    0  501    0  0.00000000000E+00 -0.00000000000E+00 -0.57656582373E+03  0.57656582373E+03  0.00000000000E+00 0. -1.
         23    2    1    2    0    0  0.24616913798E+02 -0.32528439624E+02 -0.42341888549E+03  0.43469721763E+03  0.89521095813E+02 0.  0.
         23    2    1    2    0    0 -0.24616913798E+02  0.32528439624E+02 -0.13041050708E+03  0.16460503726E+03  0.91781403917E+02 0.  0.
          5    1    4    4  502    0 -0.17194295181E+01 -0.25274147430E+02 -0.75815989385E+01  0.26857207760E+02  0.47000000000E+01 0. -1.
         -5    1    3    3    0  503 -0.27028949075E+02  0.10106838819E+02 -0.17210286367E+03  0.17456860532E+03  0.47000000000E+01 0.  1.
          5    1    3    3  503    0  0.51645862872E+02 -0.42635278443E+02 -0.25131602182E+03  0.26012861231E+03  0.47000000000E+01 0. -1.
         -5    1    4    4    0  502 -0.22897484279E+02  0.57802587054E+02 -0.12282890814E+03  0.13774782950E+03  0.47000000000E+01 0.  1.
<mgrwt>
<rscale>  0 0.99919314E+02</rscale>
<asrwt>0</asrwt>
<pdfrwt beam="1">  1        1 0.88702433E-01 0.10043863E+03</pdfrwt>
<pdfrwt beam="2">  1       -1 0.34979126E-02 0.10043863E+03</pdfrwt>
<totfact> 0.10415457E+04</totfact>
</mgrwt>
</event>
<event>
 8    1  0.3466492E-004  0.1153688E+03  0.7546771E-02  0.1251306E+00
          2   -1    0    0  501    0  0.00000000000E+00  0.00000000000E+00  0.75223968290E+03  0.75223968290E+03  0.00000000000E+00 0. -1.
         -2   -1    0    0    0  501 -0.00000000000E+00 -0.00000000000E+00 -0.17880343614E+02  0.17880343614E+02  0.00000000000E+00 0.  1.
         23    2    1    2    0    0 -0.40680168924E+02  0.46955680613E+02  0.31736216544E+03  0.33768138148E+03  0.97212443965E+02 0.  0.
         23    2    1    2    0    0  0.40680168924E+02 -0.46955680613E+02  0.41699717385E+03  0.43243864503E+03  0.96212403752E+02 0.  0.
          5    1    4    4  502    0  0.41002093210E+02 -0.23919550695E+02  0.40139657019E+03  0.40422099539E+03  0.47000000000E+01 0. -1.
         -5    1    4    4    0  502 -0.32192428558E+00 -0.23036129919E+02  0.15600603654E+02  0.28217649641E+02  0.47000000000E+01 0.  1.
          5    1    3    3  503    0  0.21487874677E+02  0.15692664004E+02  0.23990931704E+02  0.36133686024E+02  0.47000000000E+01 0. -1.
         -5    1    3    3    0  503 -0.62168043601E+02  0.31263016609E+02  0.29337123373E+03  0.30154769546E+03  0.47000000000E+01 0.  1.
<mgrwt>
<rscale>  0 0.11515792E+03</rscale>
<asrwt>0</asrwt>
<pdfrwt beam="1">  1        2 0.11572916E+00 0.11536885E+03</pdfrwt>
<pdfrwt beam="2">  1       -2 0.27508227E-02 0.11536885E+03</pdfrwt>
<totfact> 0.17337539E+04</totfact>
</mgrwt>
</event>
<event>
 8    1  0.3466492E-004  0.1098583E+03  0.7546771E-02  0.1263269E+00
         -1   -1    0    0    0  501 -0.00000000000E+00  0.00000000000E+00  0.89062516426E+02  0.89062516426E+02  0.00000000000E+00 0.  1.
          1   -1    0    0  501    0  0.00000000000E+00 -0.00000000000E+00 -0.13061549717E+03  0.13061549717E+03  0.00000000000E+00 0. -1.
         23    2    1    2    0    0  0.53109204880E+02 -0.12116174182E+01 -0.31435967149E+02  0.10935486187E+03  0.90267436682E+02 0.  0.
         23    2    1    2    0    0 -0.53109204880E+02  0.12116174182E+01 -0.10117013598E+02  0.11032315173E+03  0.96160221417E+02 0.  0.
          5    1    3    3  502    0  0.27094863666E+02 -0.19852790828E+02 -0.58206227031E+02  0.67367052822E+02  0.47000000000E+01 0. -1.
         -5    1    3    3    0  502  0.26014341213E+02  0.18641173410E+02  0.26770259882E+02  0.41987809052E+02  0.47000000000E+01 0.  1.
          5    1    4    4  503    0 -0.60862727245E+02 -0.33704338916E+02 -0.20683635454E+02  0.72733464134E+02  0.47000000000E+01 0. -1.
         -5    1    4    4    0  503  0.77535223650E+01  0.34915956334E+02  0.10566621856E+02  0.37589687592E+02  0.47000000000E+01 0.  1.
<mgrwt>
<rscale>  0 0.10855548E+03</rscale>
<asrwt>0</asrwt>
<pdfrwt beam="1">  1        1 0.20094692E-01 0.10985829E+03</pdfrwt>
<pdfrwt beam="2">  1       -1 0.13701926E-01 0.10985829E+03</pdfrwt>
<totfact> 0.87380357E+03</totfact>
</mgrwt>
</event>
<event>
 8    1  0.3466492E-004  0.9740461E+02  0.7546771E-02  0.1286683E+00
          3   -1    0    0  501    0  0.00000000000E+00  0.00000000000E+00  0.50970132097E+03  0.50970132097E+03  0.00000000000E+00 0. -1.
         -3   -1    0    0    0  501 -0.00000000000E+00 -0.00000000000E+00 -0.32791965690E+02  0.32791965690E+02  0.00000000000E+00 0.  1.
         23    2    1    2    0    0  0.29119183207E+02 -0.18789699438E+02  0.57250035254E+02  0.11167824275E+03  0.89406284629E+02 0.  0.
         23    2    1    2    0    0 -0.29119183207E+02  0.18789699438E+02  0.41965932002E+03  0.43081504391E+03  0.91031189932E+02 0.  0.
          5    1    3    3  502    0  0.18621046167E+02  0.81009129737E+01  0.74745603335E+02  0.77597444347E+02  0.47000000000E+01 0. -1.
         -5    1    4    4    0  503 -0.76258893795E+01 -0.36655643268E+02  0.15844809357E+03  0.16287933794E+03  0.47000000000E+01 0.  1.
          5    1    4    4  503    0 -0.21493293827E+02  0.55445342706E+02  0.26121122646E+03  0.26793570597E+03  0.47000000000E+01 0. -1.
         -5    1    3    3    0  502  0.10498137040E+02 -0.26890612411E+02 -0.17495568081E+02  0.34080798401E+02  0.47000000000E+01 0.  1.
<mgrwt>
<rscale>  0 0.97023160E+02</rscale>
<asrwt>0</asrwt>
<pdfrwt beam="1">  1        3 0.78415582E-01 0.97404606E+02</pdfrwt>
<pdfrwt beam="2">  1       -3 0.50449182E-02 0.97404606E+02</pdfrwt>
<totfact> 0.76698733E+02</totfact>
</mgrwt>
</event>
<event>
 8    1  0.3466492E-004  0.1389859E+03  0.7546771E-02  0.1214846E+00
          2   -1    0    0  501    0  0.00000000000E+00  0.00000000000E+00  0.10860462179E+03  0.10860462179E+03  0.00000000000E+00 0. -1.
         -2   -1    0    0    0  501 -0.00000000000E+00 -0.00000000000E+00 -0.19291841036E+03  0.19291841036E+03  0.00000000000E+00 0.  1.
         23    2    1    2    0    0  0.63739636260E+02 -0.82274240661E+02  0.65657223938E+00  0.13898742624E+03  0.92115588571E+02 0.  0.
         23    2    1    2    0    0 -0.63739636260E+02  0.82274240661E+02 -0.84970360806E+02  0.16253560592E+03  0.91466218180E+02 0.  0.
          5    1    3    3  502    0  0.85000964809E+02 -0.80426445065E+02  0.13918767459E+01  0.11712217726E+03  0.47000000000E+01 0. -1.
         -5    1    3    3    0  502 -0.21261328549E+02 -0.18477955952E+01 -0.73530450654E+00  0.21865248980E+02  0.47000000000E+01 0.  1.
          5    1    4    4  503    0 -0.43978400702E+02 -0.88105609479E+01 -0.31090987894E+02  0.54776502634E+02  0.47000000000E+01 0. -1.
         -5    1    4    4    0  503 -0.19761235557E+02  0.91084801608E+02 -0.53879372912E+02  0.10775910328E+03  0.47000000000E+01 0.  1.
<mgrwt>
<rscale>  0 0.13887837E+03</rscale>
<asrwt>0</asrwt>
<pdfrwt beam="1">  1        2 0.16708403E-01 0.13898588E+03</pdfrwt>
<pdfrwt beam="2">  1       -2 0.29679755E-01 0.13898588E+03</pdfrwt>
<totfact> 0.34368148E+03</totfact>
</mgrwt>
</event>
<event>
 8    1  0.3466492E-004  0.1216522E+03  0.7546771E-02  0.1243889E+00
          2   -1    0    0  501    0  0.00000000000E+00  0.00000000000E+00  0.25353531805E+03  0.25353531805E+03  0.00000000000E+00 0. -1.
         -2   -1    0    0    0  501 -0.00000000000E+00 -0.00000000000E+00 -0.58063849343E+02  0.58063849343E+02  0.00000000000E+00 0.  1.
         23    2    1    2    0    0 -0.74652225898E+01  0.71100024404E+02  0.62160273220E+02  0.13661315163E+03  0.98429216263E+02 0.  0.
         23    2    1    2    0    0  0.74652225898E+01 -0.71100024404E+02  0.13331119549E+03  0.17498601576E+03  0.87961854520E+02 0.  0.
          5    1    4    4  502    0  0.15229599791E+02 -0.22597249443E+02  0.12101254863E+03  0.12413179817E+03  0.47000000000E+01 0. -1.
         -5    1    4    4    0  502 -0.77643772008E+01 -0.48502774961E+02  0.12298646866E+02  0.50854217593E+02  0.47000000000E+01 0.  1.
          5    1    3    3  503    0 -0.39805820805E+02 -0.15972254471E+01  0.32287522000E+02  0.51493966404E+02  0.47000000000E+01 0. -1.
         -5    1    3    3    0  503  0.32340598216E+02  0.72697249852E+02  0.29872751220E+02  0.85119185231E+02  0.47000000000E+01 0.  1.
<mgrwt>
<rscale>  0 0.11952131E+03</rscale>
<asrwt>0</asrwt>
<pdfrwt beam="1">  1        2 0.39005433E-01 0.12165218E+03</pdfrwt>
<pdfrwt beam="2">  1       -2 0.89329001E-02 0.12165218E+03</pdfrwt>
<totfact> 0.97763403E+03</totfact>
</mgrwt>
</event>
<event>
 8    1  0.3466492E-004  0.1097962E+03  0.7546771E-02  0.1265717E+00
         -2   -1    0    0    0  501 -0.00000000000E+00  0.00000000000E+00  0.33309429392E+02  0.33309429392E+02  0.00000000000E+00 0.  1.
          2   -1    0    0  501    0  0.00000000000E+00 -0.00000000000E+00 -0.35035155699E+03  0.35035155699E+03  0.00000000000E+00 0. -1.
         23    2    1    2    0    0 -0.15520999371E+02  0.37245501052E+02 -0.21119585961E+03  0.23803130363E+03  0.10211308251E+03 0.  0.
         23    2    1    2    0    0  0.15520999371E+02 -0.37245501052E+02 -0.10584626799E+03  0.14562968275E+03  0.91522911241E+02 0.  0.
          5    1    3    3  502    0  0.30243802987E+02  0.17806648004E+02 -0.16893711801E+03  0.17260823901E+03  0.47000000000E+01 0. -1.
         -5    1    3    3    0  502 -0.45764802358E+02  0.19438853048E+02 -0.42258741606E+02  0.65423064624E+02  0.47000000000E+01 0.  1.
          5    1    4    4  503    0  0.28037007629E+02  0.24054963113E+02 -0.37405292445E+02  0.52782202967E+02  0.47000000000E+01 0. -1.
         -5    1    4    4    0  503 -0.12516008258E+02 -0.61300464165E+02 -0.68440975543E+02  0.92847479788E+02  0.47000000000E+01 0.  1.
<mgrwt>
<rscale>  0 0.10726681E+03</rscale>
<asrwt>0</asrwt>
<pdfrwt beam="1">  1        2 0.53900237E-01 0.10979622E+03</pdfrwt>
<pdfrwt beam="2">  1       -2 0.51245279E-02 0.10979622E+03</pdfrwt>
<totfact> 0.16053145E+04</totfact>
</mgrwt>
</event>
<event>
 8    1  0.3466492E-004  0.1080028E+03  0.7546771E-02  0.1269157E+00
         -2   -1    0    0    0  501 -0.00000000000E+00  0.00000000000E+00  0.49860000380E+02  0.49860000380E+02  0.00000000000E+00 0.  1.
          2   -1    0    0  501    0  0.00000000000E+00 -0.00000000000E+00 -0.26862397600E+03  0.26862397600E+03  0.00000000000E+00 0. -1.
         23    2    1    2    0    0  0.33536385139E+02 -0.48011082673E+02 -0.41329800815E+02  0.11564060299E+03  0.90746038131E+02 0.  0.
         23    2    1    2    0    0 -0.33536385139E+02  0.48011082673E+02 -0.17743417481E+03  0.20284337340E+03  0.78948049709E+02 0.  0.
          5    1    3    3  502    0  0.22957860041E+02  0.24853282242E+02 -0.14963654144E+02  0.37292759636E+02  0.47000000000E+01 0. -1.
         -5    1    4    4    0  503  0.12345118355E+02  0.47385150667E+02 -0.66626838934E+02  0.82818959890E+02  0.47000000000E+01 0.  1.
          5    1    4    4  503    0 -0.45881503494E+02  0.62593200588E+00 -0.11080733588E+03  0.12002441351E+03  0.47000000000E+01 0. -1.
         -5    1    3    3    0  502  0.10578525098E+02 -0.72864364915E+02 -0.26366146671E+02  0.78347843352E+02  0.47000000000E+01 0.  1.
<mgrwt>
<rscale>  0 0.10549032E+03</rscale>
<asrwt>0</asrwt>
<pdfrwt beam="1">  1        2 0.41326765E-01 0.10800276E+03</pdfrwt>
<pdfrwt beam="2">  1       -2 0.76707694E-02 0.10800276E+03</pdfrwt>
<totfact> 0.11519059E+04</totfact>
</mgrwt>
</event>
<event>
 8    1  0.3466492E-004  0.2773790E+03  0.7546771E-02  0.1097181E+00
          1   -1    0    0  501    0  0.00000000000E+00  0.00000000000E+00  0.17364135128E+03  0.17364135128E+03  0.00000000000E+00 0. -1.
         -1   -1    0    0    0  501 -0.00000000000E+00 -0.00000000000E+00 -0.56146812310E+03  0.56146812310E+03  0.00000000000E+00 0.  1.
         23    2    1    2    0    0 -0.24772529089E+02 -0.26083578238E+03 -0.36321517411E+03  0.45701679684E+03  0.91050020957E+02 0.  0.
         23    2    1    2    0    0  0.24772529089E+02  0.26083578238E+03 -0.24611597707E+02  0.27809267754E+03  0.89893397923E+02 0.  0.
          5    1    3    3  502    0 -0.43734443919E+02 -0.63943235728E+02 -0.79307086038E+02  0.11096460191E+03  0.47000000000E+01 0. -1.
         -5    1    3    3    0  502  0.18961914830E+02 -0.19689254666E+03 -0.28390808807E+03  0.34605219493E+03  0.47000000000E+01 0.  1.
          5    1    4    4  503    0 -0.33265344790E+02  0.10400150990E+03 -0.23042949211E+01  0.10931741399E+03  0.47000000000E+01 0.  1.
         -5    1    4    4    0  503  0.58037873879E+02  0.15683427248E+03 -0.22307302785E+02  0.16877526355E+03  0.47000000000E+01 0. -1.
<mgrwt>
<rscale>  0 0.27728454E+03</rscale>
<asrwt>0</asrwt>
<pdfrwt beam="1">  1        1 0.26714054E-01 0.27737896E+03</pdfrwt>
<pdfrwt beam="2">  1       -1 0.86379710E-01 0.27737896E+03</pdfrwt>
<totfact> 0.24503104E+02</totfact>
</mgrwt>
</event>
<event>
 8    1  0.3466492E-004  0.9125273E+02  0.7546771E-02  0.1299977E+00
          1   -1    0    0  501    0  0.00000000000E+00  0.00000000000E+00  0.15677158955E+03  0.15677158955E+03  0.00000000000E+00 0. -1.
         -1   -1    0    0    0  501 -0.00000000000E+00 -0.00000000000E+00 -0.69626441054E+02  0.69626441054E+02  0.00000000000E+00 0.  1.
         23    2    1    2    0    0  0.21733780901E+01  0.49565556248E+01  0.98948383925E+02  0.13460253651E+03  0.91092091516E+02 0.  0.
         23    2    1    2    0    0 -0.21733780901E+01 -0.49565556248E+01 -0.11803235428E+02  0.91795494097E+02  0.90872467524E+02 0.  0.
          5    1    3    3  502    0  0.45437305175E+02 -0.53533100463E+01  0.57450421122E+02  0.73592441984E+02  0.47000000000E+01 0. -1.
         -5    1    4    4    0  503 -0.33347716945E+02  0.24298048221E+02 -0.22838356582E+02  0.47393521753E+02  0.47000000000E+01 0.  1.
          5    1    4    4  503    0  0.31174338855E+02 -0.29254603845E+02  0.11035121154E+02  0.44401972344E+02  0.47000000000E+01 0. -1.
         -5    1    3    3    0  502 -0.43263927085E+02  0.10309865671E+02  0.41497962803E+02  0.61010094524E+02  0.47000000000E+01 0.  1.
<mgrwt>
<rscale>  0 0.91197868E+02</rscale>
<asrwt>0</asrwt>
<pdfrwt beam="1">  1        1 0.24118706E-01 0.91252727E+02</pdfrwt>
<pdfrwt beam="2">  1       -1 0.10711760E-01 0.91252727E+02</pdfrwt>
<totfact> 0.99745621E+03</totfact>
</mgrwt>
</event>
<event>
 8    1  0.3466492E-004  0.1064890E+03  0.7546771E-02  0.1267323E+00
          2   -1    0    0  501    0  0.00000000000E+00  0.00000000000E+00  0.57703564024E+03  0.57703564024E+03  0.00000000000E+00 0. -1.
         -2   -1    0    0    0  501 -0.00000000000E+00 -0.00000000000E+00 -0.20259019544E+02  0.20259019544E+02  0.00000000000E+00 0.  1.
         23    2    1    2    0    0  0.54441817276E+02 -0.64135640038E+01  0.33212290508E+03  0.34877720928E+03  0.91295522131E+02 0.  0.
         23    2    1    2    0    0 -0.54441817276E+02  0.64135640038E+01  0.22465371562E+03  0.24851745051E+03  0.91030687102E+02 0.  0.
          5    1    4    4  502    0 -0.77203450098E+02  0.60458221402E+01  0.13311390355E+03  0.15407246993E+03  0.47000000000E+01 0. -1.
         -5    1    4    4    0  502  0.22761632821E+02  0.36774186358E+00  0.91539812064E+02  0.94444980574E+02  0.47000000000E+01 0.  1.
          5    1    3    3  503    0  0.17795821694E+02 -0.24202680115E+02  0.28369860152E+03  0.28532340861E+03  0.47000000000E+01 0. -1.
         -5    1    3    3    0  503  0.36645995583E+02  0.17789116112E+02  0.48424303557E+02  0.63453800669E+02  0.47000000000E+01 0.  1.
<mgrwt>
<rscale>  0 0.10643226E+03</rscale>
<asrwt>0</asrwt>
<pdfrwt beam="1">  1        2 0.88774701E-01 0.10648905E+03</pdfrwt>
<pdfrwt beam="2">  1       -2 0.31167727E-02 0.10648905E+03</pdfrwt>
<totfact> 0.19504055E+04</totfact>
</mgrwt>
</event>
<event>
 8    1  0.3466492E-004  0.9496746E+02  0.7546771E-02  0.1291318E+00
          2   -1    0    0  501    0  0.00000000000E+00  0.00000000000E+00  0.27175672597E+03  0.27175672597E+03  0.00000000000E+00 0. -1.
         -2   -1    0    0    0  501 -0.00000000000E+00 -0.00000000000E+00 -0.34501138860E+02  0.34501138860E+02  0.00000000000E+00 0.  1.
         23    2    1    2    0    0 -0.16209978842E+01 -0.27255829368E+02  0.14891972016E+03  0.17655804477E+03  0.90830348747E+02 0.  0.
         23    2    1    2    0    0  0.16209978842E+01  0.27255829368E+02  0.88335866946E+02  0.12969982005E+03  0.90957737789E+02 0.  0.
          5    1    3    3  502    0  0.30843065867E+02 -0.17038620772E+02  0.13480740477E+03  0.13941569385E+03  0.47000000000E+01 0. -1.
         -5    1    3    3    0  502 -0.32464063752E+02 -0.10217208596E+02  0.14112315390E+02  0.37142350928E+02  0.47000000000E+01 0.  1.
          5    1    4    4  503    0 -0.42594782887E+02  0.15125147710E+02  0.26599226460E+02  0.52656381102E+02  0.47000000000E+01 0. -1.
         -5    1    4    4    0  503  0.44215780772E+02  0.12130681658E+02  0.61736640486E+02  0.77043438950E+02  0.47000000000E+01 0.  1.
<mgrwt>
<rscale>  0 0.94936942E+02</rscale>
<asrwt>0</asrwt>
<pdfrwt beam="1">  1        2 0.41808726E-01 0.94967457E+02</pdfrwt>
<pdfrwt beam="2">  1       -2 0.53078677E-02 0.94967457E+02</pdfrwt>
<totfact> 0.19606552E+04</totfact>
</mgrwt>
</event>
<event>
 8    1  0.3466492E-004  0.9697950E+02  0.7546771E-02  0.1287177E+00
         -1   -1    0    0    0  501 -0.00000000000E+00  0.00000000000E+00  0.36531901110E+03  0.36531901110E+03  0.00000000000E+00 0.  1.
          1   -1    0    0  501    0  0.00000000000E+00 -0.00000000000E+00 -0.26029501144E+02  0.26029501144E+02  0.00000000000E+00 0. -1.
         23    2    1    2    0    0 -0.28082221193E+02 -0.89325637926E+01  0.19674299012E+03  0.21934636326E+03  0.92393836768E+02 0.  0.
         23    2    1    2    0    0  0.28082221193E+02  0.89325637926E+01  0.14254651984E+03  0.17200214898E+03  0.91634202642E+02 0.  0.
          5    1    4    4  502    0  0.21944602294E+02  0.49776922285E+02  0.77347425264E+02  0.94678517927E+02  0.47000000000E+01 0.  1.
         -5    1    4    4    0  502  0.61376188989E+01 -0.40844358492E+02  0.65199094576E+02  0.77323631058E+02  0.47000000000E+01 0. -1.
          5    1    3    3  503    0 -0.18749780808E+02 -0.49436302563E+02  0.13192000285E+03  0.14219873221E+03  0.47000000000E+01 0. -1.
         -5    1    3    3    0  503 -0.93324403842E+01  0.40503738771E+02  0.64822987271E+02  0.77147631050E+02  0.47000000000E+01 0.  1.
<mgrwt>
<rscale>  0 0.96798130E+02</rscale>
<asrwt>0</asrwt>
<pdfrwt beam="1">  1        1 0.40045389E-02 0.96979497E+02</pdfrwt>
<pdfrwt beam="2">  1       -1 0.56202921E-01 0.96979497E+02</pdfrwt>
<totfact> 0.68949852E+03</totfact>
</mgrwt>
</event>
<event>
 8    1  0.3466492E-004  0.1077417E+03  0.7546771E-02  0.1268297E+00
          1   -1    0    0  501    0  0.00000000000E+00  0.00000000000E+00  0.56420287587E+03  0.56420287587E+03  0.00000000000E+00 0. -1.
         -1   -1    0    0    0  501 -0.00000000000E+00 -0.00000000000E+00 -0.29185633440E+02  0.29185633440E+02  0.00000000000E+00 0.  1.
         23    2    1    2    0    0  0.31512320052E+02  0.30431755998E+02  0.10042486239E+03  0.14728686195E+03  0.98433473122E+02 0.  0.
         23    2    1    2    0    0 -0.31512320052E+02 -0.30431755998E+02  0.43459238005E+03  0.44610164736E+03  0.90647806887E+02 0.  0.
          5    1    4    4  502    0 -0.54376869189E+02 -0.29545159222E+02  0.39714973380E+03  0.40196985135E+03  0.47000000000E+01 0. -1.
         -5    1    3    3    0  503  0.65108066754E+02  0.25388929383E+02  0.83672180494E+02  0.10911820142E+03  0.47000000000E+01 0.  1.
          5    1    3    3  503    0 -0.33595746701E+02  0.50428266159E+01  0.16752681892E+02  0.38168660538E+02  0.47000000000E+01 0. -1.
         -5    1    4    4    0  502  0.22864549137E+02 -0.88659677674E+00  0.37442646244E+02  0.44131796008E+02  0.47000000000E+01 0.  1.
<mgrwt>
<rscale>  0 0.10593070E+03</rscale>
<asrwt>0</asrwt>
<pdfrwt beam="1">  1        1 0.86800434E-01 0.10774167E+03</pdfrwt>
<pdfrwt beam="2">  1       -1 0.44900979E-02 0.10774167E+03</pdfrwt>
<totfact> 0.74877478E+03</totfact>
</mgrwt>
</event>
<event>
 8    1  0.3466492E-004  0.9737315E+02  0.7546771E-02  0.1288923E+00
          2   -1    0    0  501    0  0.00000000000E+00  0.00000000000E+00  0.30905101188E+03  0.30905101188E+03  0.00000000000E+00 0. -1.
         -2   -1    0    0    0  501 -0.00000000000E+00 -0.00000000000E+00 -0.33894483755E+02  0.33894483755E+02  0.00000000000E+00 0.  1.
         23    2    1    2    0    0 -0.60957593711E+01  0.12465950424E+02  0.20592759148E+03  0.22778872702E+03  0.96379318433E+02 0.  0.
         23    2    1    2    0    0  0.60957593711E+01 -0.12465950424E+02  0.69228936640E+02  0.11515676861E+03  0.90971849969E+02 0.  0.
          5    1    4    4  502    0 -0.52111595090E+00  0.32437158364E+02  0.65275172800E+00  0.32786535185E+02  0.47000000000E+01 0. -1.
         -5    1    4    4    0  502  0.66168753220E+01 -0.44903108788E+02  0.68576184912E+02  0.82370233428E+02  0.47000000000E+01 0.  1.
          5    1    3    3  503    0  0.23255861271E+02  0.12375220713E+02  0.19387424082E+03  0.19571226948E+03  0.47000000000E+01 0. -1.
         -5    1    3    3    0  503 -0.29351620642E+02  0.90729710986E-01  0.12053350662E+02  0.32076457541E+02  0.47000000000E+01 0.  1.
<mgrwt>
<rscale>  0 0.96007427E+02</rscale>
<asrwt>0</asrwt>
<pdfrwt beam="1">  1        2 0.47546308E-01 0.97373155E+02</pdfrwt>
<pdfrwt beam="2">  1       -2 0.52145362E-02 0.97373155E+02</pdfrwt>
<totfact> 0.17639969E+04</totfact>
</mgrwt>
</event>
<event>
 8    1  0.3466492E-004  0.1074558E+03  0.7546771E-02  0.1265492E+00
         -2   -1    0    0    0  501 -0.00000000000E+00  0.00000000000E+00  0.13579263708E+02  0.13579263708E+02  0.00000000000E+00 0.  1.
          2   -1    0    0  501    0  0.00000000000E+00 -0.00000000000E+00 -0.86147320303E+03  0.86147320303E+03  0.00000000000E+00 0. -1.
         23    2    1    2    0    0  0.43233764623E+02 -0.38195266069E+02 -0.36880254994E+03  0.38405826791E+03  0.90318301310E+02 0.  0.
         23    2    1    2    0    0 -0.43233764623E+02  0.38195266069E+02 -0.47909138938E+03  0.49099419883E+03  0.90657085509E+02 0.  0.
          5    1    3    3  502    0 -0.32102654949E+01  0.25035078827E+02 -0.13439611249E+03  0.13682640837E+03  0.47000000000E+01 0. -1.
         -5    1    4    4    0  503 -0.16402856507E+02 -0.16506270606E+02 -0.32532770116E+02  0.40273835208E+02  0.47000000000E+01 0.  1.
          5    1    4    4  503    0 -0.26830908116E+02  0.54701536674E+02 -0.44655861927E+03  0.45072036363E+03  0.47000000000E+01 0. -1.
         -5    1    3    3    0  502  0.46444030118E+02 -0.63230344896E+02 -0.23440643745E+03  0.24723185953E+03  0.47000000000E+01 0.  1.
<mgrwt>
<rscale>  0 0.10738429E+03</rscale>
<asrwt>0</asrwt>
<pdfrwt beam="1">  1        2 0.13253437E+00 0.10745578E+03</pdfrwt>
<pdfrwt beam="2">  1       -2 0.20891169E-02 0.10745578E+03</pdfrwt>
<totfact> 0.21731919E+04</totfact>
</mgrwt>
</event>
<event>
 8    1  0.3466492E-004  0.1053135E+03  0.7546771E-02  0.1270742E+00
         -1   -1    0    0    0  501 -0.00000000000E+00  0.00000000000E+00  0.11896328105E+02  0.11896328105E+02  0.00000000000E+00 0.  1.
          1   -1    0    0  501    0  0.00000000000E+00 -0.00000000000E+00 -0.91037179259E+03  0.91037179259E+03  0.00000000000E+00 0. -1.
         23    2    1    2    0    0  0.30638856817E+02  0.44020453611E+02 -0.44427848049E+03  0.45602159385E+03  0.87725628807E+02 0.  0.
         23    2    1    2    0    0 -0.30638856817E+02 -0.44020453611E+02 -0.45419698399E+03  0.46624652684E+03  0.90633236950E+02 0.  0.
          5    1    4    4  502    0  0.27732403804E+02 -0.26040620805E+02 -0.25433702090E+03  0.25720927346E+03  0.47000000000E+01 0. -1.
         -5    1    4    4    0  502 -0.58371260622E+02 -0.17979832806E+02 -0.19985996309E+03  0.20903725338E+03  0.47000000000E+01 0.  1.
          5    1    3    3  503    0  0.55752430163E+02  0.42148962180E+02 -0.23609309590E+03  0.24626593027E+03  0.47000000000E+01 0. -1.
         -5    1    3    3    0  503 -0.25113573345E+02  0.18714914309E+01 -0.20818538459E+03  0.20975566358E+03  0.47000000000E+01 0.  1.
<mgrwt>
<rscale>  0 0.10468494E+03</rscale>
<asrwt>0</asrwt>
<pdfrwt beam="1">  1        1 0.14005721E+00 0.10531345E+03</pdfrwt>
<pdfrwt beam="2">  1       -1 0.18302042E-02 0.10531345E+03</pdfrwt>
<totfact> 0.13756428E+04</totfact>
</mgrwt>
</event>
<event>
 8    1  0.3466492E-004  0.1064353E+03  0.7546771E-02  0.1267883E+00
         -1   -1    0    0    0  501 -0.00000000000E+00  0.00000000000E+00  0.30955899302E+03  0.30955899302E+03  0.00000000000E+00 0.  1.
          1   -1    0    0  501    0  0.00000000000E+00 -0.00000000000E+00 -0.38981071171E+02  0.38981071171E+02  0.00000000000E+00 0. -1.
         23    2    1    2    0    0  0.17981440266E+02 -0.51682468329E+02  0.89407118788E+02  0.13900400835E+03  0.91291137146E+02 0.  0.
         23    2    1    2    0    0 -0.17981440266E+02  0.51682468329E+02  0.18117080306E+03  0.20953605584E+03  0.89933803922E+02 0.  0.
          5    1    3    3  502    0 -0.92302556711E+01  0.23794740573E+02  0.19112049226E+02  0.32229609435E+02  0.47000000000E+01 0. -1.
         -5    1    4    4    0  503  0.25719210395E+02  0.15903094410E+02  0.15226630256E+02  0.34180790864E+02  0.47000000000E+01 0.  1.
          5    1    4    4  503    0 -0.43700650661E+02  0.35779373918E+02  0.16594417280E+03  0.17535526497E+03  0.47000000000E+01 0. -1.
         -5    1    3    3    0  502  0.27211695937E+02 -0.75477208902E+02  0.70295069561E+02  0.10677439892E+03  0.47000000000E+01 0.  1.
<mgrwt>
<rscale>  0 0.10614367E+03</rscale>
<asrwt>0</asrwt>
<pdfrwt beam="1">  1        1 0.59970881E-02 0.10643534E+03</pdfrwt>
<pdfrwt beam="2">  1       -1 0.47624459E-01 0.10643534E+03</pdfrwt>
<totfact> 0.54367585E+03</totfact>
</mgrwt>
</event>
<event>
 8    1  0.3466492E-004  0.1056356E+03  0.7546771E-02  0.1269201E+00
          3   -1    0    0  501    0  0.00000000000E+00  0.00000000000E+00  0.22473611917E+03  0.22473611917E+03  0.00000000000E+00 0. -1.
         -3   -1    0    0    0  501 -0.00000000000E+00 -0.00000000000E+00 -0.50050766797E+02  0.50050766797E+02  0.00000000000E+00 0.  1.
         23    2    1    2    0    0  0.14542858868E+02 -0.52293344401E+02  0.70679931283E+02  0.12654383951E+03  0.89842094915E+02 0.  0.
         23    2    1    2    0    0 -0.14542858868E+02  0.52293344401E+02  0.10400542109E+03  0.14824304645E+03  0.90624415000E+02 0.  0.
          5    1    4    4  502    0 -0.48888589087E+02  0.90579833603E+01  0.43962132553E+02  0.66534955506E+02  0.47000000000E+01 0. -1.
         -5    1    3    3    0  503 -0.12129111906E+02 -0.39111822923E+02 -0.82732868452E+01  0.42040305936E+02  0.47000000000E+01 0.  1.
          5    1    3    3  503    0  0.26671970774E+02 -0.13181521478E+02  0.78953218128E+02  0.84503533573E+02  0.47000000000E+01 0. -1.
         -5    1    4    4    0  502  0.34345730219E+02  0.43235361041E+02  0.60043288532E+02  0.81708090948E+02  0.47000000000E+01 0.  1.
<mgrwt>
<rscale>  0 0.10546757E+03</rscale>
<asrwt>0</asrwt>
<pdfrwt beam="1">  1        3 0.34574787E-01 0.10563557E+03</pdfrwt>
<pdfrwt beam="2">  1       -3 0.77001181E-02 0.10563557E+03</pdfrwt>
<totfact> 0.20432218E+03</totfact>
</mgrwt>
</event>
<event>
 8    1  0.3466492E-004  0.9489462E+02  0.7546771E-02  0.1296246E+00
          2   -1    0    0  501    0  0.00000000000E+00  0.00000000000E+00  0.42924932882E+03  0.42924932882E+03  0.00000000000E+00 0. -1.
         -2   -1    0    0    0  501 -0.00000000000E+00 -0.00000000000E+00 -0.19844328692E+02  0.19844328692E+02  0.00000000000E+00 0.  1.
         23    2    1    2    0    0  0.21119134465E+02 -0.40514793922E+01  0.23582794390E+03  0.25127054637E+03  0.84021640210E+02 0.  0.
         23    2    1    2    0    0 -0.21119134465E+02  0.40514793922E+01  0.17357705623E+03  0.19782311115E+03  0.92425951591E+02 0.  0.
          5    1    3    3  502    0 -0.87925931593E+00  0.20842362128E+02  0.20369247396E+03  0.20481184317E+03  0.47000000000E+01 0. -1.
         -5    1    4    4    0  503 -0.13191772058E+02 -0.41608861388E+02  0.11424727399E+03  0.12239219669E+03  0.47000000000E+01 0.  1.
          5    1    4    4  503    0 -0.79273624072E+01  0.45660340781E+02  0.59329782239E+02  0.75430914455E+02  0.47000000000E+01 0. -1.
         -5    1    3    3    0  502  0.21998393781E+02 -0.24893841520E+02  0.32135469940E+02  0.46458703198E+02  0.47000000000E+01 0.  1.
<mgrwt>
<rscale>  0 0.92784056E+02</rscale>
<asrwt>0</asrwt>
<pdfrwt beam="1">  1        2 0.66038351E-01 0.94894620E+02</pdfrwt>
<pdfrwt beam="2">  1       -2 0.30529740E-02 0.94894620E+02</pdfrwt>
<totfact> 0.27400389E+04</totfact>
</mgrwt>
</event>
<event>
 8    1  0.3466492E-004  0.1073788E+03  0.7546771E-02  0.1266888E+00
         -2   -1    0    0    0  501 -0.00000000000E+00  0.00000000000E+00  0.27523842149E+02  0.27523842149E+02  0.00000000000E+00 0.  1.
          2   -1    0    0  501    0  0.00000000000E+00 -0.00000000000E+00 -0.81812761905E+03  0.81812761905E+03  0.00000000000E+00 0. -1.
         23    2    1    2    0    0  0.48647555245E+02 -0.26480769835E+02 -0.93231037060E+02  0.14006025353E+03  0.88639903804E+02 0.  0.
         23    2    1    2    0    0 -0.48647555245E+02  0.26480769835E+02 -0.69737273984E+03  0.70559120767E+03  0.91991294475E+02 0.  0.
          5    1    4    4  502    0  0.10757604714E+02  0.41426302596E+02 -0.37063806986E+03  0.37313071897E+03  0.47000000000E+01 0. -1.
         -5    1    3    3    0  503  0.26554153624E+02 -0.41237170454E+02 -0.70736272371E+01  0.49777037919E+02  0.47000000000E+01 0.  1.
          5    1    3    3  503    0  0.22093401622E+02  0.14756400618E+02 -0.86157409823E+02  0.90283215615E+02  0.47000000000E+01 0. -1.
         -5    1    4    4    0  502 -0.59405159959E+02 -0.14945532760E+02 -0.32673466998E+03  0.33246048870E+03  0.47000000000E+01 0.  1.
<mgrwt>
<rscale>  0 0.10665739E+03</rscale>
<asrwt>0</asrwt>
<pdfrwt beam="1">  1        2 0.12586579E+00 0.10737883E+03</pdfrwt>
<pdfrwt beam="2">  1       -2 0.42344372E-02 0.10737883E+03</pdfrwt>
<totfact> 0.82586994E+03</totfact>
</mgrwt>
</event>
<event>
 8    1  0.3466492E-004  0.1040833E+03  0.7546771E-02  0.1273461E+00
         -1   -1    0    0    0  501 -0.00000000000E+00  0.00000000000E+00  0.23624614874E+02  0.23624614874E+02  0.00000000000E+00 0.  1.
          1   -1    0    0  501    0  0.00000000000E+00 -0.00000000000E+00 -0.70682746989E+03  0.70682746989E+03  0.00000000000E+00 0. -1.
         23    2    1    2    0    0 -0.40984361100E+02  0.18928046108E+02 -0.56686684674E+03  0.57634309233E+03  0.93783523900E+02 0.  0.
         23    2    1    2    0    0  0.40984361100E+02 -0.18928046108E+02 -0.11633600827E+03  0.15410899243E+03  0.90429674023E+02 0.  0.
          5    1    3    3  502    0  0.57500946018E+01  0.38986139919E+02 -0.39660881387E+03  0.39858954318E+03  0.47000000000E+01 0. -1.
         -5    1    4    4    0  503  0.47120871541E+02  0.12198318258E+02 -0.11139913160E+03  0.12165949212E+03  0.47000000000E+01 0.  1.
          5    1    4    4  503    0 -0.61365104413E+01 -0.31126364366E+02 -0.49368766747E+01  0.32449500310E+02  0.47000000000E+01 0. -1.
         -5    1    3    3    0  502 -0.46734455702E+02 -0.20058093811E+02 -0.17025803287E+03  0.17775354914E+03  0.47000000000E+01 0.  1.
<mgrwt>
<rscale>  0 0.10332214E+03</rscale>
<asrwt>0</asrwt>
<pdfrwt beam="1">  1        1 0.10874269E+00 0.10408332E+03</pdfrwt>
<pdfrwt beam="2">  1       -1 0.36345562E-02 0.10408332E+03</pdfrwt>
<totfact> 0.74679429E+03</totfact>
</mgrwt>
</event>
<event>
 8    1  0.3466492E-004  0.1003391E+03  0.7546771E-02  0.1279653E+00
          2   -1    0    0  501    0  0.00000000000E+00  0.00000000000E+00  0.48461724614E+03  0.48461724614E+03  0.00000000000E+00 0. -1.
         -2   -1    0    0    0  501 -0.00000000000E+00 -0.00000000000E+00 -0.21272712058E+02  0.21272712058E+02  0.00000000000E+00 0.  1.
         23    2    1    2    0    0  0.24203289371E+02 -0.33740388431E+02  0.19180397976E+03  0.21640383272E+03  0.91201091764E+02 0.  0.
         23    2    1    2    0    0 -0.24203289371E+02  0.33740388431E+02  0.27154055432E+03  0.28948612547E+03  0.91344026465E+02 0.  0.
          5    1    3    3  502    0  0.23414683251E+02 -0.64314040423E+01  0.18655779739E+03  0.18819009569E+03  0.47000000000E+01 0. -1.
         -5    1    3    3    0  502  0.78860612016E+00 -0.27308984389E+02  0.52461823697E+01  0.28213737034E+02  0.47000000000E+01 0.  1.
          5    1    4    4  503    0 -0.79372700094E+01  0.64465482096E+02  0.18354224935E+03  0.19475278158E+03  0.47000000000E+01 0. -1.
         -5    1    4    4    0  503 -0.16266019362E+02 -0.30725093665E+02  0.87998304969E+02  0.94733343887E+02  0.47000000000E+01 0.  1.
<mgrwt>
<rscale>  0 0.10030660E+03</rscale>
<asrwt>0</asrwt>
<pdfrwt beam="1">  1        2 0.74556491E-01 0.10033915E+03</pdfrwt>
<pdfrwt beam="2">  1       -2 0.32727253E-02 0.10033915E+03</pdfrwt>
<totfact> 0.21867885E+04</totfact>
</mgrwt>
</event>
<event>
 8    1  0.3466492E-004  0.1447985E+03  0.7546771E-02  0.1208468E+00
         -1   -1    0    0    0  501 -0.00000000000E+00  0.00000000000E+00  0.18731712762E+03  0.18731712762E+03  0.00000000000E+00 0.  1.
          1   -1    0    0  501    0  0.00000000000E+00 -0.00000000000E+00 -0.10421444466E+04  0.10421444466E+04  0.00000000000E+00 0. -1.
         23    2    1    2    0    0  0.52180619334E+02 -0.94217811066E+02  0.15372937695E+03  0.21118554893E+03  0.96782238999E+02 0.  0.
         23    2    1    2    0    0 -0.52180619334E+02  0.94217811066E+02 -0.10085566960E+04  0.10182760253E+04  0.89998009978E+02 0.  0.
          5    1    3    3  502    0  0.21939939698E+02 -0.16089991927E+02 -0.82045392198E+01  0.28803702157E+02  0.47000000000E+01 0. -1.
         -5    1    4    4    0  503  0.13211078725E+02  0.38710628306E+02 -0.15386493719E+03  0.15927822902E+03  0.47000000000E+01 0.  1.
          5    1    4    4  503    0 -0.65391698059E+02  0.55507182759E+02 -0.85469175879E+03  0.85899779631E+03  0.47000000000E+01 0. -1.
         -5    1    3    3    0  502  0.30240679636E+02 -0.78127819139E+02  0.16193391617E+03  0.18238184678E+03  0.47000000000E+01 0.  1.
<mgrwt>
<rscale>  0 0.14367457E+03</rscale>
<asrwt>0</asrwt>
<pdfrwt beam="1">  1        1 0.16032991E+00 0.14479853E+03</pdfrwt>
<pdfrwt beam="2">  1       -1 0.28818020E-01 0.14479853E+03</pdfrwt>
<totfact> 0.16971610E+02</totfact>
</mgrwt>
</event>
<event>
 8    1  0.3466492E-004  0.1049021E+03  0.7546771E-02  0.1271457E+00
          2   -1    0    0  501    0  0.00000000000E+00  0.00000000000E+00  0.69793054543E+02  0.69793054543E+02  0.00000000000E+00 0. -1.
         -2   -1    0    0    0  501 -0.00000000000E+00 -0.00000000000E+00 -0.16558342800E+03  0.16558342800E+03  0.00000000000E+00 0.  1.
         23    2    1    2    0    0  0.47419892753E+02  0.16495310558E+02 -0.16609905110E+02  0.10394593157E+03  0.89488134654E+02 0.  0.
         23    2    1    2    0    0 -0.47419892753E+02 -0.16495310558E+02 -0.79180468351E+02  0.13143055097E+03  0.92107012012E+02 0.  0.
          5    1    3    3  502    0  0.26780689204E+02 -0.25368759975E+02  0.21984116910E+02  0.43199197831E+02  0.47000000000E+01 0. -1.
         -5    1    3    3    0  502  0.20639203550E+02  0.41864070533E+02 -0.38594022020E+02  0.60746733743E+02  0.47000000000E+01 0.  1.
          5    1    4    4  503    0 -0.62790268429E+02  0.18910711989E+02 -0.45110982920E+02  0.79732826473E+02  0.47000000000E+01 0. -1.
         -5    1    4    4    0  503  0.15370375676E+02 -0.35406022547E+02 -0.34069485432E+02  0.51697724501E+02  0.47000000000E+01 0.  1.
<mgrwt>
<rscale>  0 0.10432436E+03</rscale>
<asrwt>0</asrwt>
<pdfrwt beam="1">  1        2 0.10737393E-01 0.10490206E+03</pdfrwt>
<pdfrwt beam="2">  1       -2 0.25474373E-01 0.10490206E+03</pdfrwt>
<totfact> 0.74452053E+03</totfact>
</mgrwt>
</event>
<event>
 8    1  0.3466492E-004  0.9700547E+02  0.7546771E-02  0.1290193E+00
         -1   -1    0    0    0  501 -0.00000000000E+00  0.00000000000E+00  0.12438108047E+02  0.12438108047E+02  0.00000000000E+00 0.  1.
          1   -1    0    0  501    0  0.00000000000E+00 -0.00000000000E+00 -0.75813551500E+03  0.75813551500E+03  0.00000000000E+00 0. -1.
         23    2    1    2    0    0  0.18771235616E+02  0.31085088128E+02 -0.45895122679E+03  0.46786347600E+03  0.83314834263E+02 0.  0.
         23    2    1    2    0    0 -0.18771235616E+02 -0.31085088128E+02 -0.28674618016E+03  0.30271014705E+03  0.89952316809E+02 0.  0.
          5    1    4    4  502    0 -0.31483846013E+02  0.19467290014E+02 -0.17996150725E+03  0.18378912381E+03  0.47000000000E+01 0. -1.
         -5    1    3    3    0  503  0.13196767992E+02 -0.28021151513E+02 -0.15655717767E+03  0.15966082644E+03  0.47000000000E+01 0.  1.
          5    1    3    3  503    0  0.55744676236E+01  0.59106239641E+02 -0.30239404912E+03  0.30820264956E+03  0.47000000000E+01 0. -1.
         -5    1    4    4    0  502  0.12712610397E+02 -0.50552378142E+02 -0.10678467291E+03  0.11892102324E+03  0.47000000000E+01 0.  1.
<mgrwt>
<rscale>  0 0.95437642E+02</rscale>
<asrwt>0</asrwt>
<pdfrwt beam="1">  1        1 0.11663622E+00 0.97005470E+02</pdfrwt>
<pdfrwt beam="2">  1       -1 0.19135552E-02 0.97005470E+02</pdfrwt>
<totfact> 0.16921243E+04</totfact>
</mgrwt>
</event>
<event>
 8    1  0.3466492E-004  0.9225293E+02  0.7546771E-02  0.1302418E+00
          2   -1    0    0  501    0  0.00000000000E+00  0.00000000000E+00  0.59038357319E+03  0.59038357319E+03  0.00000000000E+00 0. -1.
         -2   -1    0    0    0  501 -0.00000000000E+00 -0.00000000000E+00 -0.29868038546E+02  0.29868038546E+02  0.00000000000E+00 0.  1.
         23    2    1    2    0    0  0.14002076901E+02 -0.13550066314E+02  0.54240499637E+02  0.10701698079E+03  0.90171724623E+02 0.  0.
         23    2    1    2    0    0 -0.14002076901E+02  0.13550066314E+02  0.50627503500E+03  0.51323463095E+03  0.81949453189E+02 0.  0.
          5    1    3    3  502    0 -0.28259177298E+02 -0.16462539279E+02  0.55258797040E+02  0.64383390337E+02  0.47000000000E+01 0. -1.
         -5    1    4    4    0  503  0.17485167656E+02  0.38403161023E+02  0.30563971657E+03  0.30857456183E+03  0.47000000000E+01 0.  1.
          5    1    4    4  503    0 -0.31487244556E+02 -0.24853094709E+02  0.20063531844E+03  0.20466006912E+03  0.47000000000E+01 0. -1.
         -5    1    3    3    0  502  0.42261254198E+02  0.29124729645E+01 -0.10182974023E+01  0.42633590452E+02  0.47000000000E+01 0.  1.
<mgrwt>
<rscale>  0 0.90179336E+02</rscale>
<asrwt>0</asrwt>
<pdfrwt beam="1">  1        2 0.90828233E-01 0.92252926E+02</pdfrwt>
<pdfrwt beam="2">  1       -2 0.45950833E-02 0.92252926E+02</pdfrwt>
<totfact> 0.10612800E+04</totfact>
</mgrwt>
</event>
<event>
 8    1  0.3466492E-004  0.1049270E+03  0.7546771E-02  0.1270688E+00
         -2   -1    0    0    0  501 -0.00000000000E+00  0.00000000000E+00  0.85679588914E+01  0.85679588914E+01  0.00000000000E+00 0.  1.
          2   -1    0    0  501    0  0.00000000000E+00 -0.00000000000E+00 -0.12978604271E+04  0.12978604271E+04  0.00000000000E+00 0. -1.
         23    2    1    2    0    0  0.29615646917E+02 -0.42916782008E+02 -0.72967443999E+03  0.73705854685E+03  0.90064290334E+02 0.  0.
         23    2    1    2    0    0 -0.29615646917E+02  0.42916782008E+02 -0.55961802821E+03  0.56936983913E+03  0.91053497975E+02 0.  0.
          5    1    4    4  502    0 -0.50686150678E+02  0.37486508748E+02 -0.52079255698E+03  0.52461538446E+03  0.47000000000E+01 0. -1.
         -5    1    4    4    0  502  0.21070503762E+02  0.54302732598E+01 -0.38825471233E+02  0.44754454671E+02  0.47000000000E+01 0.  1.
          5    1    3    3  503    0 -0.32224401913E+02 -0.15557773092E+02 -0.27535826859E+03  0.27771338186E+03  0.47000000000E+01 0. -1.
         -5    1    3    3    0  503  0.61840048830E+02 -0.27359008916E+02 -0.45431617140E+03  0.45934516500E+03  0.47000000000E+01 0.  1.
<mgrwt>
<rscale>  0 0.10471203E+03</rscale>
<asrwt>0</asrwt>
<pdfrwt beam="1">  1        2 0.19967084E+00 0.10492700E+03</pdfrwt>
<pdfrwt beam="2">  1       -2 0.13181475E-02 0.10492700E+03</pdfrwt>
<totfact> 0.23567474E+04</totfact>
</mgrwt>
</event>
<event>
 8    1  0.3466492E-004  0.9376578E+02  0.7546771E-02  0.1294910E+00
         -3   -1    0    0    0  501 -0.00000000000E+00  0.00000000000E+00  0.66283568384E+02  0.66283568384E+02  0.00000000000E+00 0.  1.
          3   -1    0    0  501    0  0.00000000000E+00 -0.00000000000E+00 -0.16548875623E+03  0.16548875623E+03  0.00000000000E+00 0. -1.
         23    2    1    2    0    0 -0.14612723208E+02 -0.17946736382E+02  0.34360194468E+01  0.93828714764E+02  0.90864759166E+02 0.  0.
         23    2    1    2    0    0  0.14612723208E+02  0.17946736382E+02 -0.10264120729E+03  0.13794360985E+03  0.89205409240E+02 0.  0.
          5    1    4    4  502    0  0.19532844465E+02 -0.11882459383E+02 -0.10470841230E+03  0.10727845291E+03  0.47000000000E+01 0. -1.
         -5    1    3    3    0  503  0.19197236843E+02 -0.44486471693E+02  0.11068652227E+02  0.49921790114E+02  0.47000000000E+01 0.  1.
          5    1    3    3  503    0 -0.33809960051E+02  0.26539735310E+02 -0.76326327805E+01  0.43906924649E+02  0.47000000000E+01 0. -1.
         -5    1    4    4    0  502 -0.49201212566E+01  0.29829195766E+02  0.20672050077E+01  0.30665156934E+02  0.47000000000E+01 0.  1.
<mgrwt>
<rscale>  0 0.93361396E+02</rscale>
<asrwt>0</asrwt>
<pdfrwt beam="1">  1        3 0.25459809E-01 0.93765780E+02</pdfrwt>
<pdfrwt beam="2">  1       -3 0.10197472E-01 0.93765780E+02</pdfrwt>
<totfact> 0.22152485E+03</totfact>
</mgrwt>
</event>
<event>
 8    1  0.3466492E-004  0.1021240E+03  0.7546771E-02  0.1276867E+00
          3   -1    0    0  501    0  0.00000000000E+00  0.00000000000E+00  0.80575072091E+02  0.80575072091E+02  0.00000000000E+00 0. -1.
         -3   -1    0    0    0  501 -0.00000000000E+00 -0.00000000000E+00 -0.13071700337E+03  0.13071700337E+03  0.00000000000E+00 0.  1.
         23    2    1    2    0    0 -0.39293227978E+02  0.13068122507E+02 -0.42530480476E+02  0.10888482012E+03  0.91281590106E+02 0.  0.
         23    2    1    2    0    0  0.39293227978E+02 -0.13068122507E+02 -0.76114508029E+01  0.10240725534E+03  0.93351905027E+02 0.  0.
          5    1    4    4  502    0  0.26556357011E+02 -0.43132138858E+02  0.24419742007E+02  0.56427256710E+02  0.47000000000E+01 0. -1.
         -5    1    3    3    0  503 -0.20316556725E+02  0.44937410766E+02 -0.50407328720E+02  0.70676178110E+02  0.47000000000E+01 0.  1.
          5    1    3    3  503    0 -0.18976671254E+02 -0.31869288259E+02  0.78768482446E+01  0.38208642010E+02  0.47000000000E+01 0. -1.
         -5    1    4    4    0  502  0.12736870968E+02  0.30064016351E+02 -0.32031192810E+02  0.45979998630E+02  0.47000000000E+01 0.  1.
<mgrwt>
<rscale>  0 0.10164845E+03</rscale>
<asrwt>0</asrwt>
<pdfrwt beam="1">  1        3 0.12396165E-01 0.10212400E+03</pdfrwt>
<pdfrwt beam="2">  1       -3 0.20110308E-01 0.10212400E+03</pdfrwt>
<totfact> 0.24771959E+03</totfact>
</mgrwt>
</event>
<event>
 8    1  0.3466492E-004  0.1034293E+03  0.7546771E-02  0.1276819E+00
         -1   -1    0    0    0  501 -0.00000000000E+00  0.00000000000E+00  0.42638742925E+03  0.42638742925E+03  0.00000000000E+00 0.  1.
          1   -1    0    0  501    0  0.00000000000E+00 -0.00000000000E+00 -0.10980212319E+03  0.10980212319E+03  0.00000000000E+00 0. -1.
         23    2    1    2    0    0  0.98314992421E+01  0.34554467677E+02  0.39484791266E+03  0.40648733927E+03  0.89646044208E+02 0.  0.
         23    2    1    2    0    0 -0.98314992421E+01 -0.34554467677E+02 -0.78262606600E+02  0.12970221317E+03  0.96989478267E+02 0.  0.
          5    1    3    3  502    0  0.27320466826E+02 -0.11668936997E+02  0.52067070545E+02  0.60130207328E+02  0.47000000000E+01 0. -1.
         -5    1    3    3    0  502 -0.17488967583E+02  0.46223404673E+02  0.34278084211E+03  0.34635713194E+03  0.47000000000E+01 0.  1.
          5    1    4    4  503    0  0.26521784560E+02 -0.44601837909E+02 -0.75313252041E+02  0.91580046594E+02  0.47000000000E+01 0. -1.
         -5    1    4    4    0  503 -0.36353283802E+02  0.10047370233E+02 -0.29493545588E+01  0.38122166571E+02  0.47000000000E+01 0.  1.
<mgrwt>
<rscale>  0 0.10167193E+03</rscale>
<asrwt>0</asrwt>
<pdfrwt beam="1">  1        1 0.16892635E-01 0.10342934E+03</pdfrwt>
<pdfrwt beam="2">  1       -1 0.65598065E-01 0.10342934E+03</pdfrwt>
<totfact> 0.76809226E+02</totfact>
</mgrwt>
</event>
<event>
 7    1  0.3466492E-004  0.1629697E+03  0.7546771E-02  0.1192316E+00
         -2   -1    0    0    0  501 -0.00000000000E+00  0.00000000000E+00  0.38166407151E+02  0.38166407151E+02  0.00000000000E+00 0.  1.
          2   -1    0    0  501    0  0.00000000000E+00 -0.00000000000E+00 -0.71354230970E+03  0.71354230970E+03  0.00000000000E+00 0. -1.
         23    2    1    2    0    0  0.36099932159E+01  0.13600072488E+03 -0.21015064651E+03  0.26593684288E+03  0.89721128796E+02 0.  0.
          5    1    3    3  502    0 -0.24625679020E+02  0.32566863565E+02 -0.11636946144E+03  0.12341380079E+03  0.47000000000E+01 0. -1.
         -5    1    3    3    0  502  0.28235672236E+02  0.10343386131E+03 -0.93781185070E+02  0.14252304208E+03  0.47000000000E+01 0.  1.
          5    1    1    2  503    0 -0.86271638751E+01 -0.82062588935E+02 -0.32578209533E+03  0.33610230600E+03  0.47000000000E+01 0. -1.
         -5    1    1    2    0  503  0.50171706593E+01 -0.53938135940E+02 -0.13944316071E+03  0.14966956798E+03  0.47000000000E+01 0.  1.
<mgrwt>
<rscale>  0 0.15683573E+03</rscale>
<asrwt>0</asrwt>
<pdfrwt beam="1">  1        2 0.10977574E+00 0.16296966E+03</pdfrwt>
<pdfrwt beam="2">  1       -2 0.58717552E-02 0.16296966E+03</pdfrwt>
<totfact> 0.61115065E+03</totfact>
</mgrwt>
</event>
<event>
 8    1  0.3466492E-004  0.1041004E+03  0.7546771E-02  0.1273383E+00
          1   -1    0    0  501    0  0.00000000000E+00  0.00000000000E+00  0.28695244967E+02  0.28695244967E+02  0.00000000000E+00 0. -1.
         -1   -1    0    0    0  501 -0.00000000000E+00 -0.00000000000E+00 -0.39016582708E+03  0.39016582708E+03  0.00000000000E+00 0.  1.
         23    2    1    2    0    0 -0.46958080582E+02  0.11490851765E+02 -0.13225628827E+03  0.16831105763E+03  0.92194280333E+02 0.  0.
         23    2    1    2    0    0  0.46958080582E+02 -0.11490851765E+02 -0.22921429384E+03  0.25055001442E+03  0.88876409798E+02 0.  0.
          5    1    4    4  502    0  0.71515476109E+02 -0.19735733476E+02 -0.17976383423E+03  0.19452786072E+03  0.47000000000E+01 0. -1.
         -5    1    4    4    0  502 -0.24557395527E+02  0.82448817107E+01 -0.49450459611E+02  0.56022153700E+02  0.47000000000E+01 0.  1.
          5    1    3    3  503    0 -0.31102190284E+02  0.28170176574E+02 -0.94386463758E+01  0.43267576013E+02  0.47000000000E+01 0. -1.
         -5    1    3    3    0  503 -0.15855890298E+02 -0.16679324809E+02 -0.12281764190E+03  0.12504348162E+03  0.47000000000E+01 0.  1.
<mgrwt>
<rscale>  0 0.10336086E+03</rscale>
<asrwt>0</asrwt>
<pdfrwt beam="1">  1        1 0.44146531E-02 0.10410037E+03</pdfrwt>
<pdfrwt beam="2">  1       -1 0.60025512E-01 0.10410037E+03</pdfrwt>
<totfact> 0.53700751E+03</totfact>
</mgrwt>
</event>
<event>
 8    1  0.3466492E-004  0.1712668E+03  0.7546771E-02  0.1176599E+00
          2   -1    0    0  501    0  0.00000000000E+00  0.00000000000E+00  0.12648613996E+04  0.12648613996E+04  0.00000000000E+00 0. -1.
         -2   -1    0    0    0  501 -0.00000000000E+00 -0.00000000000E+00 -0.25480486039E+02  0.25480486039E+02  0.00000000000E+00 0.  1.
         23    2    1    2    0    0 -0.14592766266E+03 -0.47854365989E+00  0.42523154235E+03  0.45842577308E+03  0.89650505198E+02 0.  0.
         23    2    1    2    0    0  0.14592766266E+03  0.47854365989E+00  0.81414937118E+03  0.83191611252E+03  0.89163377860E+02 0.  0.
          5    1    4    4  502    0  0.93771953653E+02  0.43270516663E+02  0.48936751674E+03  0.50016814507E+03  0.47000000000E+01 0. -1.
         -5    1    4    4    0  502  0.52155709010E+02 -0.42791973003E+02  0.32478185444E+03  0.33174796745E+03  0.47000000000E+01 0.  1.
          5    1    3    3  503    0 -0.30442569775E+02  0.23438034532E+02  0.20438604722E+03  0.20801884005E+03  0.47000000000E+01 0. -1.
         -5    1    3    3    0  503 -0.11548509289E+03 -0.23916578192E+02  0.22084549513E+03  0.25040693303E+03  0.47000000000E+01 0.  1.
<mgrwt>
<rscale>  0 0.17120317E+03</rscale>
<asrwt>0</asrwt>
<pdfrwt beam="1">  1        2 0.19459401E+00 0.17126682E+03</pdfrwt>
<pdfrwt beam="2">  1       -2 0.39200758E-02 0.17126682E+03</pdfrwt>
<totfact> 0.51405446E+03</totfact>
</mgrwt>
</event>
<event>
 8    1  0.3466492E-004  0.1058702E+03  0.7546771E-02  0.1269981E+00
         -4   -1    0    0    0  501 -0.00000000000E+00  0.00000000000E+00  0.15774174244E+02  0.15774174244E+02  0.00000000000E+00 0.  1.
          4   -1    0    0  501    0  0.00000000000E+00 -0.00000000000E+00 -0.83259195534E+03  0.83259195534E+03  0.00000000000E+00 0. -1.
         23    2    1    2    0    0  0.39612134176E+02 -0.36594517758E+02 -0.57912046759E+03  0.58815754025E+03  0.87409932320E+02 0.  0.
         23    2    1    2    0    0 -0.39612134176E+02  0.36594517758E+02 -0.23769731351E+03  0.26020858934E+03  0.91105527883E+02 0.  0.
          5    1    3    3  502    0  0.62273935831E+02 -0.40677983230E+01 -0.33528016594E+03  0.34107106259E+03  0.47000000000E+01 0.  1.
         -5    1    3    3    0  502 -0.22661801655E+02 -0.32526719435E+02 -0.24384030165E+03  0.24708647766E+03  0.47000000000E+01 0. -1.
          5    1    4    4  503    0  0.88937366212E+01  0.51907060494E+02 -0.96190414287E+02  0.10976396167E+03  0.47000000000E+01 0.  1.
         -5    1    4    4    0  503 -0.48505870797E+02 -0.15312542736E+02 -0.14150689923E+03  0.15044462767E+03  0.47000000000E+01 0. -1.
<mgrwt>
<rscale>  0 0.10507043E+03</rscale>
<asrwt>0</asrwt>
<pdfrwt beam="1">  1        4 0.12809110E+00 0.10587019E+03</pdfrwt>
<pdfrwt beam="2">  1       -4 0.24267955E-02 0.10587019E+03</pdfrwt>
<totfact> 0.56263579E+02</totfact>
</mgrwt>
</event>
<event>
 8    1  0.3466492E-004  0.9876777E+02  0.7546771E-02  0.1283093E+00
          1   -1    0    0  501    0  0.00000000000E+00  0.00000000000E+00  0.60388445167E+03  0.60388445167E+03  0.00000000000E+00 0. -1.
         -1   -1    0    0    0  501 -0.00000000000E+00 -0.00000000000E+00 -0.16261715847E+02  0.16261715847E+02  0.00000000000E+00 0.  1.
         23    2    1    2    0    0 -0.35361763886E+02  0.13550744451E+02  0.26214520719E+03  0.28001282018E+03  0.90845983934E+02 0.  0.
         23    2    1    2    0    0  0.35361763886E+02 -0.13550744451E+02  0.32547752864E+03  0.34013334733E+03  0.91219489694E+02 0.  0.
          5    1    4    4  502    0  0.11699845172E+02 -0.51136758111E+02  0.14692286353E+03  0.15607777623E+03  0.47000000000E+01 0. -1.
         -5    1    4    4    0  502  0.23661918715E+02  0.37586013659E+02  0.17855466511E+03  0.18405557110E+03  0.47000000000E+01 0.  1.
          5    1    3    3  503    0 -0.43616294157E+02 -0.28320647856E+02  0.17865864941E+03  0.18613286443E+03  0.47000000000E+01 0. -1.
         -5    1    3    3    0  503  0.82545302709E+01  0.41871392307E+02  0.83486557773E+02  0.93879955755E+02  0.47000000000E+01 0.  1.
<mgrwt>
<rscale>  0 0.98681442E+02</rscale>
<asrwt>0</asrwt>
<pdfrwt beam="1">  1        1 0.92905283E-01 0.98767770E+02</pdfrwt>
<pdfrwt beam="2">  1       -1 0.25018029E-02 0.98767770E+02</pdfrwt>
<totfact> 0.15859255E+04</totfact>
</mgrwt>
</event>
<event>
 8    1  0.3466492E-004  0.9725724E+02  0.7546771E-02  0.1286326E+00
         -1   -1    0    0    0  501 -0.00000000000E+00  0.00000000000E+00  0.11311805671E+02  0.11311805671E+02  0.00000000000E+00 0.  1.
          1   -1    0    0  501    0  0.00000000000E+00 -0.00000000000E+00 -0.93282406119E+03  0.93282406119E+03  0.00000000000E+00 0. -1.
         23    2    1    2    0    0  0.12268642197E+02  0.26978529094E+02 -0.30753161452E+03  0.32254405000E+03  0.92631580199E+02 0.  0.
         23    2    1    2    0    0 -0.12268642197E+02 -0.26978529094E+02 -0.61398064100E+03  0.62159181686E+03  0.92335251392E+02 0.  0.
          5    1    4    4  502    0 -0.10810877991E+02 -0.60695099486E+02 -0.34972738162E+03  0.35515081534E+03  0.47000000000E+01 0. -1.
         -5    1    4    4    0  502 -0.14577642067E+01  0.33716570392E+02 -0.26425325938E+03  0.26644100152E+03  0.47000000000E+01 0.  1.
          5    1    3    3  503    0  0.42986556778E+02  0.21481383037E+02 -0.84758824922E+02  0.97547128522E+02  0.47000000000E+01 0.  1.
         -5    1    3    3    0  503 -0.30717914580E+02  0.54971460570E+01 -0.22277278960E+03  0.22499692148E+03  0.47000000000E+01 0. -1.
<mgrwt>
<rscale>  0 0.97186612E+02</rscale>
<asrwt>0</asrwt>
<pdfrwt beam="1">  1        1 0.14351143E+00 0.97257238E+02</pdfrwt>
<pdfrwt beam="2">  1       -1 0.17402774E-02 0.97257238E+02</pdfrwt>
<totfact> 0.14133538E+04</totfact>
</mgrwt>
</event>
<event>
 8    1  0.3466492E-004  0.9167529E+02  0.7546771E-02  0.1299115E+00
         -2   -1    0    0    0  501 -0.00000000000E+00  0.00000000000E+00  0.12744082656E+03  0.12744082656E+03  0.00000000000E+00 0.  1.
          2   -1    0    0  501    0  0.00000000000E+00 -0.00000000000E+00 -0.87172186064E+02  0.87172186064E+02  0.00000000000E+00 0. -1.
         23    2    1    2    0    0  0.54540805182E+01  0.86137386457E+00 -0.33184039012E+02  0.97496355264E+02  0.91508851405E+02 0.  0.
         23    2    1    2    0    0 -0.54540805182E+01 -0.86137386457E+00  0.73452679507E+02  0.11711665736E+03  0.91052327508E+02 0.  0.
          5    1    4    4  502    0 -0.40550757813E+02  0.20680569168E+02  0.55539037480E+02  0.71963355845E+02  0.47000000000E+01 0. -1.
         -5    1    3    3    0  503 -0.13772724969E+02  0.20623483752E+02  0.23373357947E+02  0.34400870583E+02  0.47000000000E+01 0.  1.
          5    1    3    3  503    0  0.19226805487E+02 -0.19762109887E+02 -0.56557396959E+02  0.63095484682E+02  0.47000000000E+01 0. -1.
         -5    1    4    4    0  502  0.35096677295E+02 -0.21541943032E+02  0.17913642028E+02  0.45153301512E+02  0.47000000000E+01 0.  1.
<mgrwt>
<rscale>  0 0.91561155E+02</rscale>
<asrwt>0</asrwt>
<pdfrwt beam="1">  1        2 0.13411106E-01 0.91675290E+02</pdfrwt>
<pdfrwt beam="2">  1       -2 0.19606281E-01 0.91675290E+02</pdfrwt>
<totfact> 0.88247889E+03</totfact>
</mgrwt>
</event>
<event>
 8    1  0.3466492E-004  0.1037339E+03  0.7546771E-02  0.1275052E+00
         -1   -1    0    0    0  501 -0.00000000000E+00  0.00000000000E+00  0.39081564497E+02  0.39081564497E+02  0.00000000000E+00 0.  1.
          1   -1    0    0  501    0  0.00000000000E+00 -0.00000000000E+00 -0.31346705914E+03  0.31346705914E+03  0.00000000000E+00 0. -1.
         23    2    1    2    0    0  0.33188774274E+02  0.30892574324E+02 -0.69138923176E+02  0.12466322382E+03  0.93299961357E+02 0.  0.
         23    2    1    2    0    0 -0.33188774274E+02 -0.30892574324E+02 -0.20524657147E+03  0.22788539982E+03  0.88032689750E+02 0.  0.
          5    1    4    4  502    0  0.13659323929E+02 -0.46546454044E+02 -0.11494321762E+03  0.12484863952E+03  0.47000000000E+01 0. -1.
         -5    1    4    4    0  502 -0.46848098203E+02  0.15653879721E+02 -0.90303353851E+02  0.10303676030E+03  0.47000000000E+01 0.  1.
          5    1    3    3  503    0 -0.31081178081E+02 -0.10533118036E+01 -0.16374683307E+02  0.35459404254E+02  0.47000000000E+01 0. -1.
         -5    1    3    3    0  503  0.64269952355E+02  0.31945886127E+02 -0.52764239869E+02  0.89203819566E+02  0.47000000000E+01 0.  1.
<mgrwt>
<rscale>  0 0.10253565E+03</rscale>
<asrwt>0</asrwt>
<pdfrwt beam="1">  1        1 0.48225704E-01 0.10373393E+03</pdfrwt>
<pdfrwt beam="2">  1       -1 0.60125481E-02 0.10373393E+03</pdfrwt>
<totfact> 0.10213672E+04</totfact>
</mgrwt>
</event>
<event>
 8    1  0.4631086E-004  0.9834980E+02  0.7546771E-02  0.1285479E+00
          1   -1    0    0  501    0  0.00000000000E+00  0.00000000000E+00  0.41385520143E+03  0.41385520143E+03  0.00000000000E+00 0. -1.
         -1   -1    0    0    0  501 -0.00000000000E+00 -0.00000000000E+00 -0.42174361191E+02  0.42174361191E+02  0.00000000000E+00 0.  1.
         23    2    1    2    0    0  0.30695087642E+02 -0.11278894066E+02  0.33939224647E+03  0.35251513279E+03  0.89500949841E+02 0.  0.
         23    2    1    2    0    0 -0.30695087642E+02  0.11278894066E+02  0.32288593766E+02  0.10351442983E+03  0.92753878838E+02 0.  0.
          5    1    4    4  502    0  0.28234090246E+02  0.23402118696E+02  0.19609438748E+02  0.41850246111E+02  0.47000000000E+01 0. -1.
         -5    1    4    4    0  502 -0.58929177888E+02 -0.12123224631E+02  0.12679155018E+02  0.61664183721E+02  0.47000000000E+01 0.  1.
          5    1    3    3  503    0  0.61400750941E+02 -0.91474474012E+01  0.19094904580E+03  0.20084161945E+03  0.47000000000E+01 0. -1.
         -5    1    3    3    0  503 -0.30705663299E+02 -0.21314466645E+01  0.14844320067E+03  0.15167351334E+03  0.47000000000E+01 0.  1.
<mgrwt>
<rscale>  0 0.97575276E+02</rscale>
<asrwt>0</asrwt>
<pdfrwt beam="1">  1        1 0.63670028E-01 0.98349804E+02</pdfrwt>
<pdfrwt beam="2">  1       -1 0.64883635E-02 0.98349804E+02</pdfrwt>
<totfact> 0.64431673E+03</totfact>
</mgrwt>
</event>
<event>
 8    1  0.3466492E-004  0.9157967E+02  0.7546771E-02  0.1303001E+00
          2   -1    0    0  501    0  0.00000000000E+00  0.00000000000E+00  0.12199624568E+03  0.12199624568E+03  0.00000000000E+00 0. -1.
         -2   -1    0    0    0  501 -0.00000000000E+00 -0.00000000000E+00 -0.72015518581E+02  0.72015518581E+02  0.00000000000E+00 0.  1.
         23    2    1    2    0    0  0.91849616887E+01  0.17991194515E+02  0.56463950981E+02  0.10220289598E+03  0.82759939496E+02 0.  0.
         23    2    1    2    0    0 -0.91849616887E+01 -0.17991194515E+02 -0.64832238801E+01  0.91808868282E+02  0.89324070115E+02 0.  0.
          5    1    4    4  502    0  0.22137674887E+02  0.27762519503E+02 -0.29892633484E+00  0.35819177761E+02  0.47000000000E+01 0. -1.
         -5    1    3    3    0  503  0.35580335829E+02 -0.14172003072E+02  0.10423169622E+02  0.39969218578E+02  0.47000000000E+01 0.  1.
          5    1    3    3  503    0 -0.26395374140E+02  0.32163197587E+02  0.46040781359E+02  0.62233677404E+02  0.47000000000E+01 0. -1.
         -5    1    4    4    0  502 -0.31322636575E+02 -0.45753714018E+02 -0.61842975453E+01  0.55989690521E+02  0.47000000000E+01 0.  1.
<mgrwt>
<rscale>  0 0.89938544E+02</rscale>
<asrwt>0</asrwt>
<pdfrwt beam="1">  1        2 0.18768653E-01 0.91579671E+02</pdfrwt>
<pdfrwt beam="2">  1       -2 0.11079311E-01 0.91579671E+02</pdfrwt>
<totfact> 0.15090525E+04</totfact>
</mgrwt>
</event>
<event>
 8    1  0.3466492E-004  0.2968776E+03  0.7546771E-02  0.1086835E+00
          2   -1    0    0  501    0  0.00000000000E+00  0.00000000000E+00  0.35187904051E+03  0.35187904051E+03  0.00000000000E+00 0. -1.
         -2   -1    0    0    0  501 -0.00000000000E+00 -0.00000000000E+00 -0.40848900024E+03  0.40848900024E+03  0.00000000000E+00 0.  1.
         23    2    1    2    0    0 -0.11107454315E+03 -0.25980021188E+03 -0.26487093880E+03  0.39772645071E+03  0.90531823960E+02 0.  0.
         23    2    1    2    0    0  0.11107454315E+03  0.25980021188E+03  0.20826097907E+03  0.36264159004E+03  0.91118511802E+02 0.  0.
          5    1    3    3  502    0 -0.94881326692E+02 -0.21452899738E+03 -0.16514277464E+03  0.28691354601E+03  0.47000000000E+01 0. -1.
         -5    1    4    4    0  503  0.26729071479E+02  0.17190796544E+03  0.10821217266E+03  0.20493598062E+03  0.47000000000E+01 0.  1.
          5    1    4    4  503    0  0.84345471667E+02  0.87892246441E+02  0.10004880642E+03  0.15770560942E+03  0.47000000000E+01 0. -1.
         -5    1    3    3    0  502 -0.16193216454E+02 -0.45271214501E+02 -0.99728164157E+02  0.11081290470E+03  0.47000000000E+01 0.  1.
<mgrwt>
<rscale>  0 0.29683267E+03</rscale>
<asrwt>0</asrwt>
<pdfrwt beam="1">  1        2 0.54135237E-01 0.29687756E+03</pdfrwt>
<pdfrwt beam="2">  1       -2 0.62844462E-01 0.29687756E+03</pdfrwt>
<totfact> 0.22182975E+02</totfact>
</mgrwt>
</event>
<event>
 8    1  0.3466492E-004  0.9295108E+02  0.7546771E-02  0.1296721E+00
         -1   -1    0    0    0  501 -0.00000000000E+00  0.00000000000E+00  0.12660545699E+03  0.12660545699E+03  0.00000000000E+00 0.  1.
          1   -1    0    0  501    0  0.00000000000E+00 -0.00000000000E+00 -0.75989698829E+02  0.75989698829E+02  0.00000000000E+00 0. -1.
         23    2    1    2    0    0  0.14980765760E+02 -0.18409051974E+01  0.60006208145E+02  0.11063745980E+03  0.91717447741E+02 0.  0.
         23    2    1    2    0    0 -0.14980765760E+02  0.18409051974E+01 -0.93904499867E+01  0.91957696018E+02  0.90223195639E+02 0.  0.
          5    1    4    4  502    0  0.24509110727E+01 -0.33820077711E+02 -0.31292090992E+02  0.46379840234E+02  0.47000000000E+01 0. -1.
         -5    1    3    3    0  503  0.28752745773E+02  0.39431163736E+02  0.34958286000E+02  0.60213859062E+02  0.47000000000E+01 0.  1.
          5    1    3    3  503    0 -0.13771980013E+02 -0.41272068933E+02  0.25047922145E+02  0.50423600737E+02  0.47000000000E+01 0. -1.
         -5    1    4    4    0  502 -0.17431676833E+02  0.35660982908E+02  0.21901641005E+02  0.45577855784E+02  0.47000000000E+01 0.  1.
<mgrwt>
<rscale>  0 0.92580339E+02</rscale>
<asrwt>0</asrwt>
<pdfrwt beam="1">  1        1 0.11690723E-01 0.92951076E+02</pdfrwt>
<pdfrwt beam="2">  1       -1 0.19477763E-01 0.92951076E+02</pdfrwt>
<totfact> 0.99348790E+03</totfact>
</mgrwt>
</event>
<event>
 8    1  0.3466492E-004  0.9285071E+02  0.7546771E-02  0.1296343E+00
          2   -1    0    0  501    0  0.00000000000E+00  0.00000000000E+00  0.93647219641E+02  0.93647219641E+02  0.00000000000E+00 0. -1.
         -2   -1    0    0    0  501 -0.00000000000E+00 -0.00000000000E+00 -0.92214185839E+02  0.92214185839E+02  0.00000000000E+00 0.  1.
         23    2    1    2    0    0 -0.14409715155E+02  0.72250293400E+01  0.80870799337E+01  0.92772570579E+02  0.91002791442E+02 0.  0.
         23    2    1    2    0    0  0.14409715155E+02 -0.72250293400E+01 -0.66540461321E+01  0.93088834900E+02  0.91440767240E+02 0.  0.
          5    1    3    3  502    0 -0.25690711229E+02  0.36929147445E+02 -0.20605324635E+02  0.49703561017E+02  0.47000000000E+01 0. -1.
         -5    1    3    3    0  502  0.11280996074E+02 -0.29704118105E+02  0.28692404569E+02  0.43069009563E+02  0.47000000000E+01 0.  1.
          5    1    4    4  503    0 -0.30817832851E+02 -0.81052999086E+01  0.22298191731E+02  0.39175682032E+02  0.47000000000E+01 0. -1.
         -5    1    4    4    0  503  0.45227548006E+02  0.88027056853E+00 -0.28952237863E+02  0.53913152868E+02  0.47000000000E+01 0.  1.
<mgrwt>
<rscale>  0 0.92742701E+02</rscale>
<asrwt>0</asrwt>
<pdfrwt beam="1">  1        2 0.14407265E-01 0.92850713E+02</pdfrwt>
<pdfrwt beam="2">  1       -2 0.14186798E-01 0.92850713E+02</pdfrwt>
<totfact> 0.13809700E+04</totfact>
</mgrwt>
</event>
<event>
 8    1  0.3466492E-004  0.9911856E+02  0.7546771E-02  0.1282703E+00
         -1   -1    0    0    0  501 -0.00000000000E+00  0.00000000000E+00  0.28601126238E+02  0.28601126238E+02  0.00000000000E+00 0.  1.
          1   -1    0    0  501    0  0.00000000000E+00 -0.00000000000E+00 -0.36135086044E+03  0.36135086044E+03  0.00000000000E+00 0. -1.
         23    2    1    2    0    0 -0.31771073257E+02  0.16410325942E+02 -0.11978156787E+03  0.15547383058E+03  0.92443431897E+02 0.  0.
         23    2    1    2    0    0  0.31771073257E+02 -0.16410325942E+02 -0.21296816634E+03  0.23447815610E+03  0.91355710943E+02 0.  0.
          5    1    4    4  502    0  0.21156691865E+02 -0.40593510165E+02 -0.19896709687E+03  0.20421908411E+03  0.47000000000E+01 0. -1.
         -5    1    4    4    0  502  0.10614381393E+02  0.24183184223E+02 -0.14001069468E+02  0.30259071991E+02  0.47000000000E+01 0.  1.
          5    1    3    3  503    0 -0.41854810704E+02 -0.28764542577E+02 -0.48695835151E+02  0.70516653705E+02  0.47000000000E+01 0. -1.
         -5    1    3    3    0  503  0.10083737447E+02  0.45174868519E+02 -0.71085732719E+02  0.84957176876E+02  0.47000000000E+01 0.  1.
<mgrwt>
<rscale>  0 0.98864157E+02</rscale>
<asrwt>0</asrwt>
<pdfrwt beam="1">  1        1 0.55592443E-01 0.99118555E+02</pdfrwt>
<pdfrwt beam="2">  1       -1 0.44001730E-02 0.99118555E+02</pdfrwt>
<totfact> 0.13508918E+04</totfact>
</mgrwt>
</event>
<event>
 8    1  0.3466492E-004  0.1587891E+03  0.7546771E-02  0.1190497E+00
          2   -1    0    0  501    0  0.00000000000E+00  0.00000000000E+00  0.20771917865E+03  0.20771917865E+03  0.00000000000E+00 0. -1.
         -2   -1    0    0    0  501 -0.00000000000E+00 -0.00000000000E+00 -0.12216555543E+03  0.12216555543E+03  0.00000000000E+00 0.  1.
         23    2    1    2    0    0 -0.12609290659E+03  0.30049882513E+02  0.21923423951E+02  0.15882104619E+03  0.89112690821E+02 0.  0.
         23    2    1    2    0    0  0.12609290659E+03 -0.30049882513E+02  0.63630199271E+02  0.17106368788E+03  0.91714592733E+02 0.  0.
          5    1    4    4  502    0  0.88095408205E+02 -0.55260785190E+02  0.16647826817E+02  0.10542198758E+03  0.47000000000E+01 0. -1.
         -5    1    4    4    0  502  0.37997498385E+02  0.25210902677E+02  0.46982372454E+02  0.65641700304E+02  0.47000000000E+01 0.  1.
          5    1    3    3  503    0 -0.10789638412E+03 -0.14445311631E+02  0.16813834412E+02  0.11025013271E+03  0.47000000000E+01 0. -1.
         -5    1    3    3    0  503 -0.18196522471E+02  0.44495194144E+02  0.51095895389E+01  0.48570913489E+02  0.47000000000E+01 0.  1.
<mgrwt>
<rscale>  0 0.15841568E+03</rscale>
<asrwt>0</asrwt>
<pdfrwt beam="1">  1        2 0.31956797E-01 0.15878912E+03</pdfrwt>
<pdfrwt beam="2">  1       -2 0.18794701E-01 0.15878912E+03</pdfrwt>
<totfact> 0.37106012E+03</totfact>
</mgrwt>
</event>
<event>
 8    1  0.3466492E-004  0.1056133E+03  0.7546771E-02  0.1268970E+00
         -1   -1    0    0    0  501 -0.00000000000E+00  0.00000000000E+00  0.40112330154E+02  0.40112330154E+02  0.00000000000E+00 0.  1.
          1   -1    0    0  501    0  0.00000000000E+00 -0.00000000000E+00 -0.28786499890E+03  0.28786499890E+03  0.00000000000E+00 0. -1.
         23    2    1    2    0    0 -0.20646739877E+02  0.50662178923E+02 -0.15450398616E+03  0.18708910630E+03  0.90210352600E+02 0.  0.
         23    2    1    2    0    0  0.20646739877E+02 -0.50662178923E+02 -0.93248682582E+02  0.14088822275E+03  0.90339527705E+02 0.  0.
          5    1    4    4  502    0  0.13813943807E+02 -0.75099303192E+02 -0.52970039365E+02  0.93051842829E+02  0.47000000000E+01 0. -1.
         -5    1    4    4    0  502  0.68327960694E+01  0.24437124270E+02 -0.40278643217E+02  0.47836379922E+02  0.47000000000E+01 0.  1.
          5    1    3    3  503    0 -0.44409876569E+02  0.73675048357E+01 -0.11527578106E+03  0.12384309816E+03  0.47000000000E+01 0. -1.
         -5    1    3    3    0  503  0.23763136692E+02  0.43294674087E+02 -0.39228205107E+02  0.63246008140E+02  0.47000000000E+01 0.  1.
<mgrwt>
<rscale>  0 0.10558570E+03</rscale>
<asrwt>0</asrwt>
<pdfrwt beam="1">  1        1 0.44286922E-01 0.10561333E+03</pdfrwt>
<pdfrwt beam="2">  1       -1 0.61711279E-02 0.10561333E+03</pdfrwt>
<totfact> 0.10927589E+04</totfact>
</mgrwt>
</event>
<event>
 8    1  0.3466492E-004  0.9895453E+02  0.7546771E-02  0.1284216E+00
         -2   -1    0    0    0  501 -0.00000000000E+00  0.00000000000E+00  0.33638486784E+03  0.33638486784E+03  0.00000000000E+00 0.  1.
          2   -1    0    0  501    0  0.00000000000E+00 -0.00000000000E+00 -0.40852103282E+02  0.40852103282E+02  0.00000000000E+00 0. -1.
         23    2    1    2    0    0  0.23679074313E+02 -0.30774788364E+02  0.25440592731E+03  0.27297321399E+03  0.91017655143E+02 0.  0.
         23    2    1    2    0    0 -0.23679074313E+02  0.30774788364E+02  0.41126837252E+02  0.10426375713E+03  0.87588401915E+02 0.  0.
          5    1    3    3  502    0  0.23237080161E+01  0.28810758107E+02  0.13063222858E+03  0.13387430129E+03  0.47000000000E+01 0. -1.
         -5    1    4    4    0  503 -0.25612991620E+02 -0.20670134304E+02  0.40717270986E+02  0.52566776090E+02  0.47000000000E+01 0.  1.
          5    1    4    4  503    0  0.19339173069E+01  0.51444922669E+02  0.40956626539E+00  0.51696981044E+02  0.47000000000E+01 0. -1.
         -5    1    3    3    0  502  0.21355366297E+02 -0.59585546472E+02  0.12377369872E+03  0.13909891270E+03  0.47000000000E+01 0.  1.
<mgrwt>
<rscale>  0 0.98158799E+02</rscale>
<asrwt>0</asrwt>
<pdfrwt beam="1">  1        2 0.62849392E-02 0.98954534E+02</pdfrwt>
<pdfrwt beam="2">  1       -2 0.51751516E-01 0.98954534E+02</pdfrwt>
<totfact> 0.38754147E+03</totfact>
</mgrwt>
</event>
<event>
 8    1  0.3466492E-004  0.1089936E+03  0.7546771E-02  0.1263801E+00
          1   -1    0    0  501    0  0.00000000000E+00  0.00000000000E+00  0.27329813905E+03  0.27329813905E+03  0.00000000000E+00 0. -1.
         -1   -1    0    0    0  501 -0.00000000000E+00 -0.00000000000E+00 -0.88749701120E+02  0.88749701120E+02  0.00000000000E+00 0.  1.
         23    2    1    2    0    0 -0.51954283784E+02 -0.27782435506E+02 -0.39212686131E+02  0.11315299326E+03  0.88288469261E+02 0.  0.
         23    2    1    2    0    0  0.51954283784E+02  0.27782435506E+02  0.22376112406E+03  0.24889484690E+03  0.91697834485E+02 0.  0.
          5    1    3    3  502    0 -0.15428950937E+02  0.31433239867E+02 -0.20926568829E+02  0.41062298749E+02  0.47000000000E+01 0. -1.
         -5    1    4    4    0  503  0.24752510009E+02  0.88609228345E+01  0.44874933249E+01  0.27081918351E+02  0.47000000000E+01 0.  1.
          5    1    4    4  503    0  0.27201773775E+02  0.18921512671E+02  0.21927363073E+03  0.22181292855E+03  0.47000000000E+01 0. -1.
         -5    1    3    3    0  502 -0.36525332847E+02 -0.59215675373E+02 -0.18286117302E+02  0.72090694514E+02  0.47000000000E+01 0.  1.
<mgrwt>
<rscale>  0 0.10827340E+03</rscale>
<asrwt>0</asrwt>
<pdfrwt beam="1">  1        1 0.42045867E-01 0.10899360E+03</pdfrwt>
<pdfrwt beam="2">  1       -1 0.13653800E-01 0.10899360E+03</pdfrwt>
<totfact> 0.35152390E+03</totfact>
</mgrwt>
</event>
<event>
 8    1  0.3466492E-004  0.2880555E+03  0.7546771E-02  0.1091415E+00
         -1   -1    0    0    0  501 -0.00000000000E+00  0.00000000000E+00  0.17569338279E+03  0.17569338279E+03  0.00000000000E+00 0.  1.
          1   -1    0    0  501    0  0.00000000000E+00 -0.00000000000E+00 -0.54456624590E+03  0.54456624590E+03  0.00000000000E+00 0. -1.
         23    2    1    2    0    0 -0.27225530739E+03 -0.12106468047E+02 -0.52799078419E+02  0.29285438298E+03  0.93308241753E+02 0.  0.
         23    2    1    2    0    0  0.27225530739E+03  0.12106468047E+02 -0.31607378469E+03  0.42740524570E+03  0.92212188514E+02 0.  0.
          5    1    4    4  502    0  0.22649539859E+03  0.43604855852E+02 -0.26950951706E+03  0.35476614667E+03  0.47000000000E+01 0. -1.
         -5    1    3    3    0  503 -0.32141060906E+02  0.27441021034E+02 -0.20891449961E+02  0.47377210904E+02  0.47000000000E+01 0. -1.
          5    1    3    3  503    0 -0.24011424649E+03 -0.39547489081E+02 -0.31907628458E+02  0.24547717208E+03  0.47000000000E+01 0.  1.
         -5    1    4    4    0  502  0.45759908806E+02 -0.31498387805E+02 -0.46564267630E+02  0.72639099032E+02  0.47000000000E+01 0.  1.
<mgrwt>
<rscale>  0 0.28796713E+03</rscale>
<asrwt>0</asrwt>
<pdfrwt beam="1">  1        1 0.83779423E-01 0.28805546E+03</pdfrwt>
<pdfrwt beam="2">  1       -1 0.27029751E-01 0.28805546E+03</pdfrwt>
<totfact> 0.49328811E+02</totfact>
</mgrwt>
</event>
<event>
 8    1  0.3466492E-004  0.1196350E+03  0.7546771E-02  0.1243812E+00
          2   -1    0    0  501    0  0.00000000000E+00  0.00000000000E+00  0.12563911279E+03  0.12563911279E+03  0.00000000000E+00 0. -1.
         -2   -1    0    0    0  501 -0.00000000000E+00 -0.00000000000E+00 -0.21068900053E+03  0.21068900053E+03  0.00000000000E+00 0.  1.
         23    2    1    2    0    0  0.39404552708E+02  0.66835612997E+02  0.71619840642E+02  0.13920396344E+03  0.90711762887E+02 0.  0.
         23    2    1    2    0    0 -0.39404552708E+02 -0.66835612997E+02 -0.15666972838E+03  0.19712414987E+03  0.91064860040E+02 0.  0.
          5    1    3    3  502    0 -0.15417306759E+02  0.59661006407E+02  0.24758231271E+02  0.66574687749E+02  0.47000000000E+01 0. -1.
         -5    1    3    3    0  502  0.54821859467E+02  0.71746065897E+01  0.46861609371E+02  0.72629275695E+02  0.47000000000E+01 0.  1.
          5    1    4    4  503    0 -0.64892643925E+02 -0.37209706593E+02 -0.72849985805E+02  0.10452190169E+03  0.47000000000E+01 0. -1.
         -5    1    4    4    0  503  0.25488091217E+02 -0.29625906404E+02 -0.83819742573E+02  0.92602248186E+02  0.47000000000E+01 0.  1.
<mgrwt>
<rscale>  0 0.11956778E+03</rscale>
<asrwt>0</asrwt>
<pdfrwt beam="1">  1        2 0.19329094E-01 0.11963497E+03</pdfrwt>
<pdfrwt beam="2">  1       -2 0.32413692E-01 0.11963497E+03</pdfrwt>
<totfact> 0.24609804E+03</totfact>
</mgrwt>
</event>
<event>
 8    1  0.3466492E-004  0.9642500E+02  0.7546771E-02  0.1289572E+00
         -1   -1    0    0    0  501 -0.00000000000E+00  0.00000000000E+00  0.26564308925E+03  0.26564308925E+03  0.00000000000E+00 0.  1.
          1   -1    0    0  501    0  0.00000000000E+00 -0.00000000000E+00 -0.81549632404E+02  0.81549632404E+02  0.00000000000E+00 0. -1.
         23    2    1    2    0    0  0.16731872191E+02  0.25904179879E+01 -0.39951864637E+02  0.10437400141E+03  0.94926892243E+02 0.  0.
         23    2    1    2    0    0 -0.16731872191E+02 -0.25904179879E+01  0.22404532149E+03  0.24281872024E+03  0.92075832923E+02 0.  0.
          5    1    4    4  502    0  0.19340730860E+02 -0.36513604694E+02  0.12910996244E+03  0.13564210113E+03  0.47000000000E+01 0. -1.
         -5    1    3    3    0  503  0.43674892955E+02  0.32519899991E+02 -0.14653614227E+02  0.56584967791E+02  0.47000000000E+01 0.  1.
          5    1    3    3  503    0 -0.26943020764E+02 -0.29929482003E+02 -0.25298250409E+02  0.47789033623E+02  0.47000000000E+01 0. -1.
         -5    1    4    4    0  502 -0.36072603051E+02  0.33923186706E+02  0.94935359046E+02  0.10717661911E+03  0.47000000000E+01 0.  1.
<mgrwt>
<rscale>  0 0.95715859E+02</rscale>
<asrwt>0</asrwt>
<pdfrwt beam="1">  1        1 0.12546097E-01 0.96425000E+02</pdfrwt>
<pdfrwt beam="2">  1       -1 0.40868167E-01 0.96425000E+02</pdfrwt>
<totfact> 0.26659012E+03</totfact>
</mgrwt>
</event>
<event>
 8    1  0.3466492E-004  0.9608915E+02  0.7546771E-02  0.1288986E+00
         -1   -1    0    0    0  501 -0.00000000000E+00  0.00000000000E+00  0.18543699108E+02  0.18543699108E+02  0.00000000000E+00 0.  1.
          1   -1    0    0  501    0  0.00000000000E+00 -0.00000000000E+00 -0.55523963472E+03  0.55523963472E+03  0.00000000000E+00 0. -1.
         23    2    1    2    0    0  0.12590516551E+02  0.24613693404E+02 -0.17380653939E+03  0.19838775685E+03  0.91567646709E+02 0.  0.
         23    2    1    2    0    0 -0.12590516551E+02 -0.24613693404E+02 -0.36288939623E+03  0.37539557698E+03  0.92025921958E+02 0.  0.
          5    1    3    3  502    0 -0.37049085458E+02  0.15037181093E+02 -0.47548572494E+02  0.62303357010E+02  0.47000000000E+01 0. -1.
         -5    1    3    3    0  502  0.49639602008E+02  0.95765123106E+01 -0.12625796689E+03  0.13608439984E+03  0.47000000000E+01 0.  1.
          5    1    4    4  503    0 -0.51628800442E+02 -0.91499086361E+01 -0.23014704895E+03  0.23609110106E+03  0.47000000000E+01 0. -1.
         -5    1    4    4    0  503  0.39038283891E+02 -0.15463784768E+02 -0.13274234728E+03  0.13930447591E+03  0.47000000000E+01 0.  1.
<mgrwt>
<rscale>  0 0.95979263E+02</rscale>
<asrwt>0</asrwt>
<pdfrwt beam="1">  1        1 0.85421462E-01 0.96089153E+02</pdfrwt>
<pdfrwt beam="2">  1       -1 0.28528775E-02 0.96089153E+02</pdfrwt>
<totfact> 0.14646210E+04</totfact>
</mgrwt>
</event>
<event>
 8    1  0.3466492E-004  0.9380617E+02  0.7546771E-02  0.1294981E+00
          1   -1    0    0  501    0  0.00000000000E+00  0.00000000000E+00  0.85977325529E+03  0.85977325529E+03  0.00000000000E+00 0. -1.
         -1   -1    0    0    0  501 -0.00000000000E+00 -0.00000000000E+00 -0.13883379005E+02  0.13883379005E+02  0.00000000000E+00 0.  1.
         23    2    1    2    0    0 -0.43297678110E+01 -0.21683955102E+02  0.65618099529E+03  0.66285224337E+03  0.91162805797E+02 0.  0.
         23    2    1    2    0    0  0.43297678110E+01  0.21683955102E+02  0.18970888099E+03  0.21080439093E+03  0.89219341554E+02 0.  0.
          5    1    3    3  502    0  0.21594616266E+01  0.35111238538E+02  0.29834287266E+03  0.30044637128E+03  0.47000000000E+01 0. -1.
         -5    1    4    4    0  503 -0.29762050735E+02  0.34833593750E+02  0.58124833764E+02  0.74160267108E+02  0.47000000000E+01 0. -1.
          5    1    4    4  503    0  0.34091818546E+02 -0.13149638648E+02  0.13158404723E+03  0.13664412382E+03  0.47000000000E+01 0. -1.
         -5    1    3    3    0  502 -0.64892294376E+01 -0.56795193640E+02  0.35783812263E+03  0.36240587209E+03  0.47000000000E+01 0.  1.
<mgrwt>
<rscale>  0 0.93330680E+02</rscale>
<asrwt>0</asrwt>
<pdfrwt beam="1">  1        1 0.13227277E+00 0.93806172E+02</pdfrwt>
<pdfrwt beam="2">  1       -1 0.21359051E-02 0.93806172E+02</pdfrwt>
<totfact> 0.11953556E+04</totfact>
</mgrwt>
</event>
<event>
 8    1  0.3466492E-004  0.9907950E+02  0.7546771E-02  0.1283061E+00
         -3   -1    0    0    0  501 -0.00000000000E+00  0.00000000000E+00  0.26318744721E+02  0.26318744721E+02  0.00000000000E+00 0.  1.
          3   -1    0    0  501    0  0.00000000000E+00 -0.00000000000E+00 -0.37112246206E+03  0.37112246206E+03  0.00000000000E+00 0. -1.
         23    2    1    2    0    0  0.29295047965E+02 -0.19476983892E+02 -0.15086739512E+03  0.17966139742E+03  0.90992824323E+02 0.  0.
         23    2    1    2    0    0 -0.29295047965E+02  0.19476983892E+02 -0.19393632222E+03  0.21777980935E+03  0.92623946956E+02 0.  0.
          5    1    3    3  502    0 -0.24808786716E+02 -0.64966140796E+01 -0.10257776836E+03  0.10583936155E+03  0.47000000000E+01 0. -1.
         -5    1    3    3    0  502  0.54103834681E+02 -0.12980369812E+02 -0.48289626760E+02  0.73822035871E+02  0.47000000000E+01 0.  1.
          5    1    4    4  503    0 -0.43992440137E+02 -0.24679411093E+02 -0.80969319448E+02  0.95511930212E+02  0.47000000000E+01 0. -1.
         -5    1    4    4    0  503  0.14697392172E+02  0.44156394985E+02 -0.11296700277E+03  0.12226787914E+03  0.47000000000E+01 0.  1.
<mgrwt>
<rscale>  0 0.98696508E+02</rscale>
<asrwt>0</asrwt>
<pdfrwt beam="1">  1        3 0.57095759E-01 0.99079505E+02</pdfrwt>
<pdfrwt beam="2">  1       -3 0.40490380E-02 0.99079505E+02</pdfrwt>
<totfact> 0.21011176E+03</totfact>
</mgrwt>
</event>
<event>
 8    1  0.3466492E-004  0.1052067E+03  0.7546771E-02  0.1271295E+00
          1   -1    0    0  501    0  0.00000000000E+00  0.00000000000E+00  0.78084715233E+02  0.78084715233E+02  0.00000000000E+00 0. -1.
         -1   -1    0    0    0  501 -0.00000000000E+00 -0.00000000000E+00 -0.16474519926E+03  0.16474519926E+03  0.00000000000E+00 0.  1.
         23    2    1    2    0    0 -0.19502118512E+02 -0.45407978423E+02 -0.93241567063E+02  0.14057897576E+03  0.92877561691E+02 0.  0.
         23    2    1    2    0    0  0.19502118512E+02  0.45407978423E+02  0.65810830390E+01  0.10225093873E+03  0.89273325729E+02 0.  0.
          5    1    3    3  502    0 -0.26315832765E+02  0.15674618191E+02 -0.27809486364E+01  0.31113347375E+02  0.47000000000E+01 0. -1.
         -5    1    4    4    0  503  0.32143440605E+01 -0.23127543096E+02  0.19122554759E+02  0.30544678062E+02  0.47000000000E+01 0.  1.
          5    1    4    4  503    0  0.16287774452E+02  0.68535521518E+02 -0.12541471720E+02  0.71706260670E+02  0.47000000000E+01 0. -1.
         -5    1    3    3    0  502  0.68137142530E+01 -0.61082596614E+02 -0.90460618426E+02  0.10946562838E+03  0.47000000000E+01 0.  1.
<mgrwt>
<rscale>  0 0.10440569E+03</rscale>
<asrwt>0</asrwt>
<pdfrwt beam="1">  1        1 0.12013033E-01 0.10520674E+03</pdfrwt>
<pdfrwt beam="2">  1       -1 0.25345415E-01 0.10520674E+03</pdfrwt>
<totfact> 0.63446114E+03</totfact>
</mgrwt>
</event>
<event>
 8    1  0.3466492E-004  0.1228709E+03  0.7546771E-02  0.1240796E+00
         -1   -1    0    0    0  501 -0.00000000000E+00  0.00000000000E+00  0.11698076794E+02  0.11698076794E+02  0.00000000000E+00 0.  1.
          1   -1    0    0  501    0  0.00000000000E+00 -0.00000000000E+00 -0.13594080730E+04  0.13594080730E+04  0.00000000000E+00 0. -1.
         23    2    1    2    0    0  0.65923213952E+02 -0.50228084242E+02 -0.89927284278E+03  0.90762817180E+03  0.90711200569E+02 0.  0.
         23    2    1    2    0    0 -0.65923213952E+02  0.50228084242E+02 -0.44843715340E+03  0.46347797797E+03  0.82747960235E+02 0.  0.
          5    1    3    3  502    0  0.47130271297E+02 -0.76273122886E+02 -0.69889035656E+03  0.70463371494E+03  0.47000000000E+01 0. -1.
         -5    1    3    3    0  502  0.18792942655E+02  0.26045038644E+02 -0.20038248622E+03  0.20299445686E+03  0.47000000000E+01 0.  1.
          5    1    4    4  503    0 -0.33706781617E+02 -0.18844682625E+02 -0.19252910481E+03  0.19641999742E+03  0.47000000000E+01 0. -1.
         -5    1    4    4    0  503 -0.32216432335E+02  0.69072766867E+02 -0.25590804860E+03  0.26705798054E+03  0.47000000000E+01 0.  1.
<mgrwt>
<rscale>  0 0.12140595E+03</rscale>
<asrwt>0</asrwt>
<pdfrwt beam="1">  1        1 0.20913951E+00 0.12287088E+03</pdfrwt>
<pdfrwt beam="2">  1       -1 0.17997058E-02 0.12287088E+03</pdfrwt>
<totfact> 0.69172947E+03</totfact>
</mgrwt>
</event>
<event>
 8    1  0.3466492E-004  0.1141825E+03  0.7546771E-02  0.1253163E+00
          1   -1    0    0  501    0  0.00000000000E+00  0.00000000000E+00  0.76098923034E+02  0.76098923034E+02  0.00000000000E+00 0. -1.
         -1   -1    0    0    0  501 -0.00000000000E+00 -0.00000000000E+00 -0.23177037120E+03  0.23177037120E+03  0.00000000000E+00 0.  1.
         23    2    1    2    0    0 -0.26407609581E+02  0.62305788888E+02 -0.15685975385E+03  0.19401710287E+03  0.91968911355E+02 0.  0.
         23    2    1    2    0    0  0.26407609581E+02 -0.62305788888E+02  0.11883056782E+01  0.11385219137E+03  0.91550730397E+02 0.  0.
          5    1    4    4  502    0  0.57307898295E+02 -0.59011048829E+02 -0.19023580582E+00  0.82393114279E+02  0.47000000000E+01 0. -1.
         -5    1    4    4    0  502 -0.30900288714E+02 -0.32947400582E+01  0.13785414840E+01  0.31459077089E+02  0.47000000000E+01 0.  1.
          5    1    3    3  503    0 -0.22901629649E+02 -0.16168516214E+02 -0.76199469552E+02  0.81328683237E+02  0.47000000000E+01 0. -1.
         -5    1    3    3    0  503 -0.35059799321E+01  0.78474305101E+02 -0.80660284296E+02  0.11268841963E+03  0.47000000000E+01 0.  1.
<mgrwt>
<rscale>  0 0.11409831E+03</rscale>
<asrwt>0</asrwt>
<pdfrwt beam="1">  1        1 0.11707527E-01 0.11418255E+03</pdfrwt>
<pdfrwt beam="2">  1       -1 0.35656980E-01 0.11418255E+03</pdfrwt>
<totfact> 0.37295555E+03</totfact>
</mgrwt>
</event>
<event>
 8    1  0.3466492E-004  0.1017392E+03  0.7546771E-02  0.1279407E+00
         -1   -1    0    0    0  501 -0.00000000000E+00  0.00000000000E+00  0.95106052881E+02  0.95106052881E+02  0.00000000000E+00 0.  1.
          1   -1    0    0  501    0  0.00000000000E+00 -0.00000000000E+00 -0.11295076829E+03  0.11295076829E+03  0.00000000000E+00 0. -1.
         23    2    1    2    0    0 -0.25613929246E+02  0.16314600675E+02  0.21555862258E+02  0.98954696952E+02  0.91679535801E+02 0.  0.
         23    2    1    2    0    0  0.25613929246E+02 -0.16314600675E+02 -0.39400577667E+02  0.10910212422E+03  0.97101124719E+02 0.  0.
          5    1    3    3  502    0  0.27527273183E+01  0.25585887183E+02 -0.29625601171E+02  0.39521910067E+02  0.47000000000E+01 0. -1.
         -5    1    3    3    0  502 -0.28366656565E+02 -0.92712865084E+01  0.51181463429E+02  0.59432786885E+02  0.47000000000E+01 0.  1.
          5    1    4    4  503    0  0.43104400466E+02  0.34343942600E+01 -0.60837152504E+02  0.74786586554E+02  0.47000000000E+01 0. -1.
         -5    1    4    4    0  503 -0.17490471220E+02 -0.19748994935E+02  0.21436574837E+02  0.34315537664E+02  0.47000000000E+01 0.  1.
<mgrwt>
<rscale>  0 0.10042370E+03</rscale>
<asrwt>0</asrwt>
<pdfrwt beam="1">  1        1 0.17377041E-01 0.10173922E+03</pdfrwt>
<pdfrwt beam="2">  1       -1 0.14631700E-01 0.10173922E+03</pdfrwt>
<totfact> 0.94248302E+03</totfact>
</mgrwt>
</event>
<event>
 8    1  0.3466492E-004  0.1998781E+03  0.7546771E-02  0.1149880E+00
         -1   -1    0    0    0  501 -0.00000000000E+00  0.00000000000E+00  0.78850953581E+03  0.78850953581E+03  0.00000000000E+00 0.  1.
          1   -1    0    0  501    0  0.00000000000E+00 -0.00000000000E+00 -0.76486461696E+02  0.76486461696E+02  0.00000000000E+00 0. -1.
         23    2    1    2    0    0  0.17304980519E+03  0.31867480353E+02  0.10440096989E+03  0.22534305041E+03  0.94435991411E+02 0.  0.
         23    2    1    2    0    0 -0.17304980519E+03 -0.31867480353E+02  0.60762210422E+03  0.63965294709E+03  0.94812972765E+02 0.  0.
          5    1    4    4  502    0 -0.70616832398E+02  0.29942946274E+02  0.29625351620E+03  0.30605808748E+03  0.47000000000E+01 0. -1.
         -5    1    4    4    0  502 -0.10243297279E+03 -0.61810426627E+02  0.31136858802E+03  0.33359485962E+03  0.47000000000E+01 0.  1.
          5    1    3    3  503    0  0.58368457826E+02  0.29196005662E+02 -0.64546464200E+01  0.65749799057E+02  0.47000000000E+01 0. -1.
         -5    1    3    3    0  503  0.11468134736E+03  0.26714746908E+01  0.11085561631E+03  0.15959325135E+03  0.47000000000E+01 0.  1.
<mgrwt>
<rscale>  0 0.19983349E+03</rscale>
<asrwt>0</asrwt>
<pdfrwt beam="1">  1        1 0.11767148E-01 0.19987814E+03</pdfrwt>
<pdfrwt beam="2">  1       -1 0.12130915E+00 0.19987814E+03</pdfrwt>
<totfact> 0.33331654E+02</totfact>
</mgrwt>
</event>
<event>
 8    1  0.3466492E-004  0.1067209E+03  0.7546771E-02  0.1267080E+00
          1   -1    0    0  501    0  0.00000000000E+00  0.00000000000E+00  0.26180027720E+02  0.26180027720E+02  0.00000000000E+00 0. -1.
         -1   -1    0    0    0  501 -0.00000000000E+00 -0.00000000000E+00 -0.84442590612E+03  0.84442590612E+03  0.00000000000E+00 0.  1.
         23    2    1    2    0    0  0.33377592058E+02  0.44435563943E+02 -0.71255395134E+03  0.72040562542E+03  0.90346823816E+02 0.  0.
         23    2    1    2    0    0 -0.33377592058E+02 -0.44435563943E+02 -0.10569192706E+03  0.15020030842E+03  0.91108540812E+02 0.  0.
          5    1    3    3  502    0 -0.28782191377E+02  0.30464582302E+02 -0.28916188817E+03  0.29222113696E+03  0.47000000000E+01 0. -1.
         -5    1    4    4    0  503  0.41957801890E+01 -0.54749206761E+02 -0.94490374540E+02  0.10938739001E+03  0.47000000000E+01 0.  1.
          5    1    4    4  503    0 -0.37573372247E+02  0.10313642818E+02 -0.11201552520E+02  0.40812918409E+02  0.47000000000E+01 0. -1.
         -5    1    3    3    0  502  0.62159783435E+02  0.13970981641E+02 -0.42339206317E+03  0.42818448846E+03  0.47000000000E+01 0.  1.
<mgrwt>
<rscale>  0 0.10655814E+03</rscale>
<asrwt>0</asrwt>
<pdfrwt beam="1">  1        1 0.40276967E-02 0.10672089E+03</pdfrwt>
<pdfrwt beam="2">  1       -1 0.12991167E+00 0.10672089E+03</pdfrwt>
<totfact> 0.11916027E+03</totfact>
</mgrwt>
</event>
<event>
 8    1  0.3466492E-004  0.1350574E+03  0.7546771E-02  0.1220903E+00
         -1   -1    0    0    0  501 -0.00000000000E+00  0.00000000000E+00  0.73510846921E+02  0.73510846921E+02  0.00000000000E+00 0.  1.
          1   -1    0    0  501    0  0.00000000000E+00 -0.00000000000E+00 -0.34704459150E+03  0.34704459150E+03  0.00000000000E+00 0. -1.
         23    2    1    2    0    0 -0.66495897589E+02  0.71614815329E+02 -0.21527552767E+02  0.13464002411E+03  0.90078379165E+02 0.  0.
         23    2    1    2    0    0  0.66495897589E+02 -0.71614815329E+02 -0.25200619181E+03  0.28591541431E+03  0.93220798424E+02 0.  0.
          5    1    4    4  502    0  0.43777721957E+02 -0.89361818092E+02 -0.22528425765E+03  0.24632724213E+03  0.47000000000E+01 0. -1.
         -5    1    4    4    0  502  0.22718175632E+02  0.17747002763E+02 -0.26721934168E+02  0.39588172183E+02  0.47000000000E+01 0.  1.
          5    1    3    3  503    0 -0.64221852950E+01  0.43562017240E+02 -0.45961879990E+02  0.63823806077E+02  0.47000000000E+01 0. -1.
         -5    1    3    3    0  503 -0.60073712294E+02  0.28052798089E+02  0.24434327223E+02  0.70816218031E+02  0.47000000000E+01 0.  1.
<mgrwt>
<rscale>  0 0.13451678E+03</rscale>
<asrwt>0</asrwt>
<pdfrwt beam="1">  1        1 0.53391474E-01 0.13505741E+03</pdfrwt>
<pdfrwt beam="2">  1       -1 0.11309361E-01 0.13505741E+03</pdfrwt>
<totfact> 0.35373866E+03</totfact>
</mgrwt>
</event>
<event>
 8    1  0.3466492E-004  0.1084640E+03  0.7546771E-02  0.1263855E+00
          1   -1    0    0  501    0  0.00000000000E+00  0.00000000000E+00  0.10403890682E+03  0.10403890682E+03  0.00000000000E+00 0. -1.
         -1   -1    0    0    0  501 -0.00000000000E+00 -0.00000000000E+00 -0.11258342804E+03  0.11258342804E+03  0.00000000000E+00 0.  1.
         23    2    1    2    0    0  0.44346429190E+02  0.35627081766E+02 -0.10871482004E+02  0.10900744273E+03  0.92350087775E+02 0.  0.
         23    2    1    2    0    0 -0.44346429190E+02 -0.35627081766E+02  0.23269607816E+01  0.10761489214E+03  0.91321714432E+02 0.  0.
          5    1    3    3  502    0  0.20833418515E+02 -0.76403847370E+01  0.34892941739E+02  0.41617474565E+02  0.47000000000E+01 0. -1.
         -5    1    3    3    0  502  0.23513010675E+02  0.43267466503E+02 -0.45764423743E+02  0.67389968163E+02  0.47000000000E+01 0.  1.
          5    1    4    4  503    0 -0.71224540780E+02 -0.15222627508E+02  0.65724235666E+01  0.73279945067E+02  0.47000000000E+01 0. -1.
         -5    1    4    4    0  503  0.26878111590E+02 -0.20404454257E+02 -0.42454627850E+01  0.34334947072E+02  0.47000000000E+01 0.  1.
<mgrwt>
<rscale>  0 0.10824475E+03</rscale>
<asrwt>0</asrwt>
<pdfrwt beam="1">  1        1 0.16005986E-01 0.10846397E+03</pdfrwt>
<pdfrwt beam="2">  1       -1 0.17320527E-01 0.10846397E+03</pdfrwt>
<totfact> 0.80844626E+03</totfact>
</mgrwt>
</event>
<event>
 8    1  0.3466492E-004  0.9136248E+02  0.7546771E-02  0.1299649E+00
         -1   -1    0    0    0  501 -0.00000000000E+00  0.00000000000E+00  0.16919174326E+02  0.16919174326E+02  0.00000000000E+00 0.  1.
          1   -1    0    0  501    0  0.00000000000E+00 -0.00000000000E+00 -0.52729437139E+03  0.52729437139E+03  0.00000000000E+00 0. -1.
         23    2    1    2    0    0 -0.85891199756E+01 -0.79285889820E+01 -0.32466945406E+03  0.33725044370E+03  0.90503988125E+02 0.  0.
         23    2    1    2    0    0  0.85891199756E+01  0.79285889820E+01 -0.18570574300E+03  0.20696310202E+03  0.90611627891E+02 0.  0.
          5    1    3    3  502    0  0.14637941466E+02  0.24182984514E+02 -0.25772070536E+03  0.25930896251E+03  0.47000000000E+01 0. -1.
         -5    1    3    3    0  502 -0.23227061442E+02 -0.32111573496E+02 -0.66948748706E+02  0.77941481182E+02  0.47000000000E+01 0.  1.
          5    1    4    4  503    0  0.57395785305E+01  0.46337948883E+02 -0.64969007255E+02  0.80144932292E+02  0.47000000000E+01 0. -1.
         -5    1    4    4    0  503  0.28495414451E+01 -0.38409359901E+02 -0.12073673575E+03  0.12681816973E+03  0.47000000000E+01 0.  1.
<mgrwt>
<rscale>  0 0.91335779E+02</rscale>
<asrwt>0</asrwt>
<pdfrwt beam="1">  1        1 0.81122219E-01 0.91362479E+02</pdfrwt>
<pdfrwt beam="2">  1       -1 0.26029496E-02 0.91362479E+02</pdfrwt>
<totfact> 0.17794790E+04</totfact>
</mgrwt>
</event>
<event>
 8    1  0.3466492E-004  0.9328466E+02  0.7546771E-02  0.1298767E+00
         -2   -1    0    0    0  501 -0.00000000000E+00  0.00000000000E+00  0.17588212495E+03  0.17588212495E+03  0.00000000000E+00 0.  1.
          2   -1    0    0  501    0  0.00000000000E+00 -0.00000000000E+00 -0.54003948882E+02  0.54003948882E+02  0.00000000000E+00 0. -1.
         23    2    1    2    0    0  0.13812975764E+02  0.54883128985E+01  0.19239564021E+02  0.95248032779E+02  0.92092926148E+02 0.  0.
         23    2    1    2    0    0 -0.13812975764E+02 -0.54883128985E+01  0.10263861204E+03  0.13463804105E+03  0.85859172704E+02 0.  0.
          5    1    3    3  502    0 -0.77376668609E+01 -0.40406925628E+02  0.15412336028E+02  0.44183947640E+02  0.47000000000E+01 0. -1.
         -5    1    4    4    0  503 -0.24524776965E+02  0.19073971867E+02  0.10273434872E+03  0.10743238569E+03  0.47000000000E+01 0.  1.
          5    1    4    4  503    0  0.10711801201E+02 -0.24562284766E+02 -0.95736679151E-01  0.27205655357E+02  0.47000000000E+01 0. -1.
         -5    1    3    3    0  502  0.21550642625E+02  0.45895238527E+02  0.38272279932E+01  0.51064085139E+02  0.47000000000E+01 0.  1.
<mgrwt>
<rscale>  0 0.91708019E+02</rscale>
<asrwt>0</asrwt>
<pdfrwt beam="1">  1        2 0.83082999E-02 0.93284655E+02</pdfrwt>
<pdfrwt beam="2">  1       -2 0.27058788E-01 0.93284655E+02</pdfrwt>
<totfact> 0.90706744E+03</totfact>
</mgrwt>
</event>
<event>
 8    1  0.3466492E-004  0.1016367E+03  0.7546771E-02  0.1281504E+00
         -1   -1    0    0    0  501 -0.00000000000E+00  0.00000000000E+00  0.13848746548E+03  0.13848746548E+03  0.00000000000E+00 0.  1.
          1   -1    0    0  501    0  0.00000000000E+00 -0.00000000000E+00 -0.70231198564E+02  0.70231198564E+02  0.00000000000E+00 0. -1.
         23    2    1    2    0    0 -0.41353271894E+02  0.21567408917E+02  0.49281091193E+02  0.10532583864E+03  0.80558426701E+02 0.  0.
         23    2    1    2    0    0  0.41353271894E+02 -0.21567408917E+02  0.18975175719E+02  0.10339282540E+03  0.90303780799E+02 0.  0.
          5    1    3    3  502    0 -0.40311432534E+02 -0.23104561362E+02  0.34373324940E+02  0.57986617561E+02  0.47000000000E+01 0. -1.
         -5    1    4    4    0  503  0.68808306562E+02 -0.18702854710E+02  0.38395982962E+01  0.71562646271E+02  0.47000000000E+01 0.  1.
          5    1    4    4  503    0 -0.27455034667E+02 -0.28645542068E+01  0.15135577423E+02  0.31830179128E+02  0.47000000000E+01 0. -1.
         -5    1    3    3    0  502 -0.10418393606E+01  0.44671970279E+02  0.14907766252E+02  0.47339221080E+02  0.47000000000E+01 0.  1.
<mgrwt>
<rscale>  0 0.99427932E+02</rscale>
<asrwt>0</asrwt>
<pdfrwt beam="1">  1        1 0.10804800E-01 0.10163670E+03</pdfrwt>
<pdfrwt beam="2">  1       -1 0.21305764E-01 0.10163670E+03</pdfrwt>
<totfact> 0.96215614E+03</totfact>
</mgrwt>
</event>
<event>
 8    1  0.3466492E-004  0.9232286E+02  0.7546771E-02  0.1297370E+00
         -1   -1    0    0    0  501 -0.00000000000E+00  0.00000000000E+00  0.13422993034E+04  0.13422993034E+04  0.00000000000E+00 0.  1.
          1   -1    0    0  501    0  0.00000000000E+00 -0.00000000000E+00 -0.68869380148E+01  0.68869380148E+01  0.00000000000E+00 0. -1.
         23    2    1    2    0    0 -0.69294450851E+01 -0.52989822939E+01  0.85732332139E+03  0.86227999394E+03  0.91909815252E+02 0.  0.
         23    2    1    2    0    0  0.69294450851E+01  0.52989822939E+01  0.47808904400E+03  0.48690624747E+03  0.91828445551E+02 0.  0.
          5    1    3    3  502    0 -0.38088149825E+02 -0.32801438105E+02  0.47600786342E+03  0.47867757158E+03  0.47000000000E+01 0. -1.
         -5    1    4    4    0  503 -0.25906976888E+02  0.28988724754E+02  0.35697911302E+03  0.35912072448E+03  0.47000000000E+01 0.  1.
          5    1    4    4  503    0  0.32836421974E+02 -0.23689742460E+02  0.12110993097E+03  0.12778552299E+03  0.47000000000E+01 0. -1.
         -5    1    3    3    0  502  0.31158704740E+02  0.27502455811E+02  0.38131545797E+03  0.38360242236E+03  0.47000000000E+01 0.  1.
<mgrwt>
<rscale>  0 0.92302602E+02</rscale>
<asrwt>0</asrwt>
<pdfrwt beam="1">  1        1 0.10595300E-02 0.92322860E+02</pdfrwt>
<pdfrwt beam="2">  1       -1 0.20650738E+00 0.92322860E+02</pdfrwt>
<totfact> 0.21332275E+03</totfact>
</mgrwt>
</event>
<event>
 8    1  0.3466492E-004  0.1031004E+03  0.7546771E-02  0.1275141E+00
          3   -1    0    0  501    0  0.00000000000E+00  0.00000000000E+00  0.24151926304E+03  0.24151926304E+03  0.00000000000E+00 0. -1.
         -3   -1    0    0    0  501 -0.00000000000E+00 -0.00000000000E+00 -0.85155678208E+02  0.85155678208E+02  0.00000000000E+00 0.  1.
         23    2    1    2    0    0 -0.41100457508E+02  0.78608537021E+01  0.19264939056E+03  0.21737557286E+03  0.91582265557E+02 0.  0.
         23    2    1    2    0    0  0.41100457508E+02 -0.78608537021E+01 -0.36285805721E+02  0.10929936840E+03  0.94226597129E+02 0.  0.
          5    1    4    4  502    0  0.11782113217E+02  0.42546237281E+02 -0.19044645781E+02  0.48309305849E+02  0.47000000000E+01 0. -1.
         -5    1    3    3    0  503 -0.26697912486E+02 -0.23663253668E+02  0.19897169498E+02  0.41118310511E+02  0.47000000000E+01 0.  1.
          5    1    3    3  503    0 -0.14402545022E+02  0.31524107370E+02  0.17275222106E+03  0.17625726234E+03  0.47000000000E+01 0. -1.
         -5    1    4    4    0  502  0.29318344291E+02 -0.50407090983E+02 -0.17241159940E+02  0.60990062547E+02  0.47000000000E+01 0.  1.
<mgrwt>
<rscale>  0 0.10249229E+03</rscale>
<asrwt>0</asrwt>
<pdfrwt beam="1">  1        3 0.37156809E-01 0.10310040E+03</pdfrwt>
<pdfrwt beam="2">  1       -3 0.13100874E-01 0.10310040E+03</pdfrwt>
<totfact> 0.74140231E+02</totfact>
</mgrwt>
</event>
<event>
 8    1  0.3466492E-004  0.9574103E+02  0.7546771E-02  0.1289908E+00
          1   -1    0    0  501    0  0.00000000000E+00  0.00000000000E+00  0.83041884880E+03  0.83041884880E+03  0.00000000000E+00 0. -1.
         -1   -1    0    0    0  501 -0.00000000000E+00 -0.00000000000E+00 -0.12036768941E+02  0.12036768941E+02  0.00000000000E+00 0.  1.
         23    2    1    2    0    0  0.29192262764E+02  0.46069336934E+01  0.28443360552E+03  0.30011468054E+03  0.91065544972E+02 0.  0.
         23    2    1    2    0    0 -0.29192262764E+02 -0.46069336934E+01  0.53394847434E+03  0.54234093721E+03  0.90328881736E+02 0.  0.
          5    1    3    3  502    0 -0.32014951330E+02  0.44284316557E+01  0.73493233692E+02  0.80423339362E+02  0.47000000000E+01 0. -1.
         -5    1    3    3    0  502  0.61207214094E+02  0.17850203769E+00  0.21094037183E+03  0.21969134118E+03  0.47000000000E+01 0.  1.
          5    1    4    4  503    0 -0.29112530714E+02 -0.39582310369E+02  0.42410662777E+03  0.42696934369E+03  0.47000000000E+01 0. -1.
         -5    1    4    4    0  503 -0.79732050061E-01  0.34975376676E+02  0.10984184658E+03  0.11537159351E+03  0.47000000000E+01 0.  1.
<mgrwt>
<rscale>  0 0.95565447E+02</rscale>
<asrwt>0</asrwt>
<pdfrwt beam="1">  1        1 0.12775670E+00 0.95741034E+02</pdfrwt>
<pdfrwt beam="2">  1       -1 0.18518113E-02 0.95741034E+02</pdfrwt>
<totfact> 0.15477404E+04</totfact>
</mgrwt>
</event>
<event>
 8    1  0.3466492E-004  0.9730014E+02  0.7546771E-02  0.1286408E+00
          1   -1    0    0  501    0  0.00000000000E+00  0.00000000000E+00  0.12395239444E+03  0.12395239444E+03  0.00000000000E+00 0. -1.
         -1   -1    0    0    0  501 -0.00000000000E+00 -0.00000000000E+00 -0.78357816402E+02  0.78357816402E+02  0.00000000000E+00 0.  1.
         23    2    1    2    0    0 -0.65533303502E+00 -0.29643231569E+02  0.49732088235E+01  0.97427151391E+02  0.92672360405E+02 0.  0.
         23    2    1    2    0    0  0.65533303502E+00  0.29643231569E+02  0.40621369216E+02  0.10488305945E+03  0.92039175811E+02 0.  0.
          5    1    3    3  502    0  0.41894333578E+02 -0.32069084465E+02  0.11087110381E+02  0.54116313447E+02  0.47000000000E+01 0. -1.
         -5    1    3    3    0  502 -0.42549666613E+02  0.24258528969E+01 -0.61139015578E+01  0.43310837945E+02  0.47000000000E+01 0.  1.
          5    1    4    4  503    0  0.35375140796E+02 -0.41686777772E+01  0.43121780504E+02  0.56128035905E+02  0.47000000000E+01 0. -1.
         -5    1    4    4    0  503 -0.34719807761E+02  0.33811909346E+02 -0.25004112877E+01  0.48755023548E+02  0.47000000000E+01 0.  1.
<mgrwt>
<rscale>  0 0.97149068E+02</rscale>
<asrwt>0</asrwt>
<pdfrwt beam="1">  1        1 0.19069599E-01 0.97300139E+02</pdfrwt>
<pdfrwt beam="2">  1       -1 0.12055049E-01 0.97300139E+02</pdfrwt>
<totfact> 0.11245909E+04</totfact>
</mgrwt>
</event>
<event>
 8    1  0.3466492E-004  0.1205195E+03  0.7546771E-02  0.1242810E+00
         -1   -1    0    0    0  501 -0.00000000000E+00  0.00000000000E+00  0.79037006974E+03  0.79037006974E+03  0.00000000000E+00 0.  1.
          1   -1    0    0  501    0  0.00000000000E+00 -0.00000000000E+00 -0.19447657393E+02  0.19447657393E+02  0.00000000000E+00 0. -1.
         23    2    1    2    0    0  0.66288599421E+02 -0.41231189797E+02  0.27954420488E+03  0.30387554481E+03  0.90006637673E+02 0.  0.
         23    2    1    2    0    0 -0.66288599421E+02  0.41231189797E+02  0.49137820746E+03  0.50594218232E+03  0.91819168240E+02 0.  0.
          5    1    4    4  502    0 -0.28522233838E+02 -0.28108290287E+02  0.13503603898E+03  0.14092698688E+03  0.47000000000E+01 0. -1.
         -5    1    4    4    0  502 -0.37766365582E+02  0.69339480084E+02  0.35634216848E+03  0.36501519544E+03  0.47000000000E+01 0.  1.
          5    1    3    3  503    0 -0.19274371923E+02  0.62256527984E+01  0.58981424348E+02  0.62539256343E+02  0.47000000000E+01 0. -1.
         -5    1    3    3    0  503  0.85562971344E+02 -0.47456842596E+02  0.22056278053E+03  0.24133628847E+03  0.47000000000E+01 0.  1.
<mgrwt>
<rscale>  0 0.12017424E+03</rscale>
<asrwt>0</asrwt>
<pdfrwt beam="1">  1        1 0.29919479E-02 0.12051950E+03</pdfrwt>
<pdfrwt beam="2">  1       -1 0.12159537E+00 0.12051950E+03</pdfrwt>
<totfact> 0.21111334E+03</totfact>
</mgrwt>
</event>
<event>
 8    1  0.3466492E-004  0.1948196E+03  0.7546771E-02  0.1154213E+00
         -1   -1    0    0    0  501 -0.00000000000E+00  0.00000000000E+00  0.21202433990E+03  0.21202433990E+03  0.00000000000E+00 0.  1.
          1   -1    0    0  501    0  0.00000000000E+00 -0.00000000000E+00 -0.18047351877E+03  0.18047351877E+03  0.00000000000E+00 0. -1.
         23    2    1    2    0    0  0.21451804685E+02  0.17065064107E+03 -0.25786726851E+01  0.19483669992E+03  0.91503381706E+02 0.  0.
         23    2    1    2    0    0 -0.21451804685E+02 -0.17065064107E+03  0.34129493816E+02  0.19766115874E+03  0.91232067299E+02 0.  0.
          5    1    3    3  502    0  0.22786032933E+02  0.23271397987E+01  0.11109551256E+02  0.25886888681E+02  0.47000000000E+01 0. -1.
         -5    1    3    3    0  502 -0.13342282477E+01  0.16832350127E+03 -0.13688223942E+02  0.16894981124E+03  0.47000000000E+01 0.  1.
          5    1    4    4  503    0 -0.41625185331E+02 -0.16489122550E+03  0.41167733109E+02  0.17503898009E+03  0.47000000000E+01 0. -1.
         -5    1    4    4    0  503  0.20173380645E+02 -0.57594155643E+01 -0.70382392932E+01  0.22622178645E+02  0.47000000000E+01 0.  1.
<mgrwt>
<rscale>  0 0.19478781E+03</rscale>
<asrwt>0</asrwt>
<pdfrwt beam="1">  1        1 0.27765157E-01 0.19481963E+03</pdfrwt>
<pdfrwt beam="2">  1       -1 0.32619129E-01 0.19481963E+03</pdfrwt>
<totfact> 0.14667953E+03</totfact>
</mgrwt>
</event>
<event>
 8    1  0.3466492E-004  0.9225720E+02  0.7546771E-02  0.1297972E+00
         -1   -1    0    0    0  501 -0.00000000000E+00  0.00000000000E+00  0.36092526091E+02  0.36092526091E+02  0.00000000000E+00 0.  1.
          1   -1    0    0  501    0  0.00000000000E+00 -0.00000000000E+00 -0.25391832810E+03  0.25391832810E+03  0.00000000000E+00 0. -1.
         23    2    1    2    0    0 -0.85942042925E+01 -0.22646573846E+01 -0.68426957416E+02  0.11486356562E+03  0.91828106728E+02 0.  0.
         23    2    1    2    0    0  0.85942042925E+01  0.22646573846E+01 -0.14939884460E+03  0.17514728858E+03  0.90981145891E+02 0.  0.
          5    1    3    3  502    0 -0.95899594677E+01  0.43702403941E+02 -0.25118014868E+02  0.51525451029E+02  0.47000000000E+01 0.  1.
         -5    1    4    4    0  503 -0.38806652812E+02  0.90446153286E+01 -0.45594833507E+02  0.60734999889E+02  0.47000000000E+01 0.  1.
          5    1    4    4  503    0  0.47400857105E+02 -0.67799579440E+01 -0.10380401109E+03  0.11441228869E+03  0.47000000000E+01 0. -1.
         -5    1    3    3    0  502  0.99575517523E+00 -0.45967061326E+02 -0.43308942548E+02  0.63338114591E+02  0.47000000000E+01 0. -1.
<mgrwt>
<rscale>  0 0.92045724E+02</rscale>
<asrwt>0</asrwt>
<pdfrwt beam="1">  1        1 0.39064357E-01 0.92257196E+02</pdfrwt>
<pdfrwt beam="2">  1       -1 0.55526966E-02 0.92257196E+02</pdfrwt>
<totfact> 0.14703983E+04</totfact>
</mgrwt>
</event>
<event>
 8    1  0.3466492E-004  0.2068829E+03  0.7546771E-02  0.1144276E+00
         -3   -1    0    0    0  501 -0.00000000000E+00  0.00000000000E+00  0.16186829246E+04  0.16186829246E+04  0.00000000000E+00 0.  1.
          3   -1    0    0  501    0  0.00000000000E+00 -0.00000000000E+00 -0.28160437427E+02  0.28160437427E+02  0.00000000000E+00 0. -1.
         23    2    1    2    0    0  0.18298957878E+03  0.28785412275E+02  0.10085709846E+04  0.10295707766E+04  0.92123651263E+02 0.  0.
         23    2    1    2    0    0 -0.18298957878E+03 -0.28785412275E+02  0.58195150257E+03  0.61727258543E+03  0.89688948519E+02 0.  0.
          5    1    4    4  502    0 -0.47338631274E+02 -0.47189350372E+02  0.15431920371E+03  0.16823878100E+03  0.47000000000E+01 0. -1.
         -5    1    3    3    0  503  0.13255741775E+03  0.61847583793E+02  0.70373244172E+03  0.71878928216E+03  0.47000000000E+01 0.  1.
          5    1    3    3  503    0  0.50432161029E+02 -0.33062171517E+02  0.30483854290E+03  0.31078149444E+03  0.47000000000E+01 0. -1.
         -5    1    4    4    0  502 -0.13565094751E+03  0.18403938096E+02  0.42763229886E+03  0.44903380443E+03  0.47000000000E+01 0.  1.
<mgrwt>
<rscale>  0 0.20661427E+03</rscale>
<asrwt>0</asrwt>
<pdfrwt beam="1">  1        3 0.43323762E-02 0.20688295E+03</pdfrwt>
<pdfrwt beam="2">  1       -3 0.24902807E+00 0.20688295E+03</pdfrwt>
<totfact> 0.58636417E+01</totfact>
</mgrwt>
</event>
<event>
 8    1  0.3466492E-004  0.1054085E+03  0.7546771E-02  0.1273968E+00
         -2   -1    0    0    0  501 -0.00000000000E+00  0.00000000000E+00  0.38500808286E+02  0.38500808286E+02  0.00000000000E+00 0.  1.
          2   -1    0    0  501    0  0.00000000000E+00 -0.00000000000E+00 -0.27862016025E+03  0.27862016025E+03  0.00000000000E+00 0. -1.
         23    2    1    2    0    0 -0.33993756723E+02 -0.20710157650E+02 -0.89327152603E+02  0.13816763036E+03  0.97603625763E+02 0.  0.
         23    2    1    2    0    0  0.33993756723E+02  0.20710157650E+02 -0.15079219937E+03  0.17895333818E+03  0.87758325698E+02 0.  0.
          5    1    4    4  502    0 -0.10733378333E+02  0.35185212911E+02 -0.11149539723E+03  0.11750114136E+03  0.47000000000E+01 0. -1.
         -5    1    3    3    0  503 -0.31227509689E+02 -0.58319075868E+02 -0.66066681225E+02  0.93611795943E+02  0.47000000000E+01 0.  1.
          5    1    3    3  503    0 -0.27662470345E+01  0.37608918219E+02 -0.23260471377E+02  0.44555834421E+02  0.47000000000E+01 0. -1.
         -5    1    4    4    0  502  0.44727135056E+02 -0.14475055261E+02 -0.39296802134E+02  0.61452196813E+02  0.47000000000E+01 0.  1.
<mgrwt>
<rscale>  0 0.10307074E+03</rscale>
<asrwt>0</asrwt>
<pdfrwt beam="1">  1        2 0.42864640E-01 0.10540851E+03</pdfrwt>
<pdfrwt beam="2">  1       -2 0.59232012E-02 0.10540851E+03</pdfrwt>
<totfact> 0.16374208E+04</totfact>
</mgrwt>
</event>
<event>
 8    1  0.3466492E-004  0.9845262E+02  0.7546771E-02  0.1283798E+00
          2   -1    0    0  501    0  0.00000000000E+00  0.00000000000E+00  0.11848630679E+03  0.11848630679E+03  0.00000000000E+00 0. -1.
         -2   -1    0    0    0  501 -0.00000000000E+00 -0.00000000000E+00 -0.84259313875E+02  0.84259313875E+02  0.00000000000E+00 0.  1.
         23    2    1    2    0    0  0.29271421223E+02 -0.16991727332E+02 -0.13425146754E+01  0.98064641060E+02  0.92028998595E+02 0.  0.
         23    2    1    2    0    0 -0.29271421223E+02  0.16991727332E+02  0.35569507586E+02  0.10468097960E+03  0.92452056343E+02 0.  0.
          5    1    3    3  502    0  0.57386156147E+02 -0.14138347373E+02  0.19747954893E+02  0.62491083413E+02  0.47000000000E+01 0. -1.
         -5    1    3    3    0  502 -0.28114734924E+02 -0.28533799596E+01 -0.21090469568E+02  0.35573557647E+02  0.47000000000E+01 0.  1.
          5    1    4    4  503    0  0.26054988023E+02  0.23093875427E+02  0.33862435723E+02  0.48794918139E+02  0.47000000000E+01 0. -1.
         -5    1    4    4    0  503 -0.55326409245E+02 -0.61021480943E+01  0.17070718637E+01  0.55886061462E+02  0.47000000000E+01 0.  1.
<mgrwt>
<rscale>  0 0.98353174E+02</rscale>
<asrwt>0</asrwt>
<pdfrwt beam="1">  1        2 0.18228663E-01 0.98452616E+02</pdfrwt>
<pdfrwt beam="2">  1       -2 0.12962971E-01 0.98452616E+02</pdfrwt>
<totfact> 0.12252065E+04</totfact>
</mgrwt>
</event>
<event>
 8    1  0.3466492E-004  0.9812944E+02  0.7546771E-02  0.1284438E+00
         -1   -1    0    0    0  501 -0.00000000000E+00  0.00000000000E+00  0.17418905556E+03  0.17418905556E+03  0.00000000000E+00 0.  1.
          1   -1    0    0  501    0  0.00000000000E+00 -0.00000000000E+00 -0.55122000034E+02  0.55122000034E+02  0.00000000000E+00 0. -1.
         23    2    1    2    0    0  0.20646036509E+02  0.30265537360E+02  0.58392371003E+02  0.11418868542E+03  0.91033649342E+02 0.  0.
         23    2    1    2    0    0 -0.20646036509E+02 -0.30265537360E+02  0.60674684519E+02  0.11512237017E+03  0.90716488004E+02 0.  0.
          5    1    3    3  502    0 -0.24457197650E+02  0.38463265766E+02  0.91124933572E+01  0.46719427067E+02  0.47000000000E+01 0. -1.
         -5    1    4    4    0  503  0.26597497475E+02 -0.17071954643E+02 -0.56990624859E+01  0.32456860915E+02  0.47000000000E+01 0.  1.
          5    1    4    4  503    0 -0.47243533984E+02 -0.13193582718E+02  0.66373747005E+02  0.82665509251E+02  0.47000000000E+01 0. -1.
         -5    1    3    3    0  502  0.45103234159E+02 -0.81977284052E+01  0.49279877645E+02  0.67469258358E+02  0.47000000000E+01 0.  1.
<mgrwt>
<rscale>  0 0.98055818E+02</rscale>
<asrwt>0</asrwt>
<pdfrwt beam="1">  1        1 0.84803078E-02 0.98129439E+02</pdfrwt>
<pdfrwt beam="2">  1       -1 0.26798316E-01 0.98129439E+02</pdfrwt>
<totfact> 0.90955912E+03</totfact>
</mgrwt>
</event>
<event>
 8    1  0.3466492E-004  0.9564256E+02  0.7546771E-02  0.1306126E+00
          1   -1    0    0  501    0  0.00000000000E+00  0.00000000000E+00  0.17272981915E+03  0.17272981915E+03  0.00000000000E+00 0. -1.
         -1   -1    0    0    0  501 -0.00000000000E+00 -0.00000000000E+00 -0.58042344170E+02  0.58042344170E+02  0.00000000000E+00 0.  1.
         23    2    1    2    0    0  0.28167587776E+02 -0.18101920809E+02  0.11520069669E+03  0.13512822228E+03  0.62187968293E+02 0.  0.
         23    2    1    2    0    0 -0.28167587776E+02  0.18101920809E+02 -0.51322170626E+00  0.95643941045E+02  0.89590220024E+02 0.  0.
          5    1    4    4  502    0 -0.47054112972E+02 -0.18630115756E+02 -0.12577828124E+02  0.52358977463E+02  0.47000000000E+01 0. -1.
         -5    1    4    4    0  502  0.18886525196E+02  0.36732036565E+02  0.12064606418E+02  0.43284963581E+02  0.47000000000E+01 0.  1.
          5    1    3    3  503    0  0.17604382357E+02 -0.40931515535E+02  0.78513092157E+02  0.90397449533E+02  0.47000000000E+01 0. -1.
         -5    1    3    3    0  503  0.10563205419E+02  0.22829594726E+02  0.36687604534E+02  0.44730772746E+02  0.47000000000E+01 0.  1.
<mgrwt>
<rscale>  0 0.88661272E+02</rscale>
<asrwt>0</asrwt>
<pdfrwt beam="1">  1        1 0.26573818E-01 0.95642564E+02</pdfrwt>
<pdfrwt beam="2">  1       -1 0.89295915E-02 0.95642564E+02</pdfrwt>
<totfact> 0.11690125E+04</totfact>
</mgrwt>
</event>
<event>
 8    1  0.3466492E-004  0.1154726E+03  0.7546771E-02  0.1251347E+00
          1   -1    0    0  501    0  0.00000000000E+00  0.00000000000E+00  0.23528659655E+03  0.23528659655E+03  0.00000000000E+00 0. -1.
         -1   -1    0    0    0  501 -0.00000000000E+00 -0.00000000000E+00 -0.56044529430E+02  0.56044529430E+02  0.00000000000E+00 0.  1.
         23    2    1    2    0    0 -0.39242883878E+02 -0.55483149109E+02  0.93680235911E+02  0.14869400870E+03  0.93357045015E+02 0.  0.
         23    2    1    2    0    0  0.39242883878E+02  0.55483149109E+02  0.85561831209E+02  0.14263711728E+03  0.91684985112E+02 0.  0.
          5    1    4    4  502    0  0.62124776622E+02  0.60988231905E+02  0.79251976842E+02  0.11782197645E+03  0.47000000000E+01 0. -1.
         -5    1    4    4    0  502 -0.22881892744E+02 -0.55050827956E+01  0.63098543672E+01  0.24815140827E+02  0.47000000000E+01 0.  1.
          5    1    3    3  503    0  0.59251945774E+01  0.19448350713E+02  0.42184306674E+02  0.47063276616E+02  0.47000000000E+01 0. -1.
         -5    1    3    3    0  503 -0.45168078456E+02 -0.74931499821E+02  0.51495929237E+02  0.10163073209E+03  0.47000000000E+01 0.  1.
<mgrwt>
<rscale>  0 0.11513422E+03</rscale>
<asrwt>0</asrwt>
<pdfrwt beam="1">  1        1 0.36197937E-01 0.11547260E+03</pdfrwt>
<pdfrwt beam="2">  1       -1 0.86222354E-02 0.11547260E+03</pdfrwt>
<totfact> 0.85546990E+03</totfact>
</mgrwt>
</event>
<event>
 8    1  0.3466492E-004  0.1123950E+03  0.7546771E-02  0.1260553E+00
         -1   -1    0    0    0  501 -0.00000000000E+00  0.00000000000E+00  0.19836452075E+02  0.19836452075E+02  0.00000000000E+00 0.  1.
          1   -1    0    0  501    0  0.00000000000E+00 -0.00000000000E+00 -0.73166531635E+03  0.73166531635E+03  0.00000000000E+00 0. -1.
         23    2    1    2    0    0  0.47565215302E+02  0.41026545406E+01 -0.51149849506E+03  0.52179564589E+03  0.91436886098E+02 0.  0.
         23    2    1    2    0    0 -0.47565215302E+02 -0.41026545406E+01 -0.20033036922E+03  0.22970612254E+03  0.10175148362E+03 0.  0.
          5    1    3    3  502    0 -0.51491358557E+01  0.39082074926E+02 -0.19291111033E+03  0.19695356983E+03  0.47000000000E+01 0. -1.
         -5    1    3    3    0  502  0.52714351158E+02 -0.34979420385E+02 -0.31858738473E+03  0.32484207605E+03  0.47000000000E+01 0.  1.
          5    1    4    4  503    0 -0.35855764323E+01 -0.22642866971E+02 -0.17286054553E+03  0.17443742140E+03  0.47000000000E+01 0. -1.
         -5    1    4    4    0  503 -0.43979638870E+02  0.18540212430E+02 -0.27469823684E+02  0.55268701136E+02  0.47000000000E+01 0.  1.
<mgrwt>
<rscale>  0 0.11000895E+03</rscale>
<asrwt>0</asrwt>
<pdfrwt beam="1">  1        1 0.11256390E+00 0.11239504E+03</pdfrwt>
<pdfrwt beam="2">  1       -1 0.30517618E-02 0.11239504E+03</pdfrwt>
<totfact> 0.92067474E+03</totfact>
</mgrwt>
</event>
<event>
 8    1  0.3466492E-004  0.1306116E+03  0.7546771E-02  0.1228931E+00
          1   -1    0    0  501    0  0.00000000000E+00  0.00000000000E+00  0.35075408741E+03  0.35075408741E+03  0.00000000000E+00 0. -1.
         -1   -1    0    0    0  501 -0.00000000000E+00 -0.00000000000E+00 -0.86120314160E+02  0.86120314160E+02  0.00000000000E+00 0.  1.
         23    2    1    2    0    0  0.80203753170E+02  0.21458244505E+02 -0.14394221233E+02  0.13140238868E+03  0.10082805099E+03 0.  0.
         23    2    1    2    0    0 -0.80203753170E+02 -0.21458244505E+02  0.27902799448E+03  0.30547201289E+03  0.92538806309E+02 0.  0.
          5    1    3    3  502    0  0.34332239428E+02 -0.37096677207E+02  0.12303384378E+02  0.52233412593E+02  0.47000000000E+01 0. -1.
         -5    1    4    4    0  503 -0.27147775885E+02  0.71724666788E+01  0.10699646533E+02  0.30414115962E+02  0.47000000000E+01 0.  1.
          5    1    4    4  503    0 -0.53055977285E+02 -0.28630711183E+02  0.26832834795E+03  0.27505789693E+03  0.47000000000E+01 0. -1.
         -5    1    3    3    0  502  0.45871513742E+02  0.58554921712E+02 -0.26697605610E+02  0.79168976089E+02  0.47000000000E+01 0.  1.
<mgrwt>
<rscale>  0 0.12901059E+03</rscale>
<asrwt>0</asrwt>
<pdfrwt beam="1">  1        1 0.53962167E-01 0.13061162E+03</pdfrwt>
<pdfrwt beam="2">  1       -1 0.13249279E-01 0.13061162E+03</pdfrwt>
<totfact> 0.27297732E+03</totfact>
</mgrwt>
</event>
<event>
 8    1  0.3466492E-004  0.1017479E+03  0.7546771E-02  0.1277061E+00
          3   -1    0    0  501    0  0.00000000000E+00  0.00000000000E+00  0.26641044664E+03  0.26641044664E+03  0.00000000000E+00 0. -1.
         -3   -1    0    0    0  501 -0.00000000000E+00 -0.00000000000E+00 -0.45120816927E+02  0.45120816927E+02  0.00000000000E+00 0.  1.
         23    2    1    2    0    0 -0.16740534450E+02  0.37469265715E+02  0.51633948666E+02  0.11409952965E+03  0.93104493153E+02 0.  0.
         23    2    1    2    0    0  0.16740534450E+02 -0.37469265715E+02  0.16965568104E+03  0.19743173391E+03  0.92260761313E+02 0.  0.
          5    1    3    3  502    0 -0.46424783167E+02  0.49173577595E+02  0.44430509280E+02  0.81052213915E+02  0.47000000000E+01 0. -1.
         -5    1    4    4    0  503 -0.57241878598E+01  0.23738642513E+02  0.13839763353E+02  0.28459067530E+02  0.47000000000E+01 0.  1.
          5    1    4    4  503    0  0.22464722310E+02 -0.61207908228E+02  0.15581591769E+03  0.16897266638E+03  0.47000000000E+01 0. -1.
         -5    1    3    3    0  502  0.29684248718E+02 -0.11704311880E+02  0.72034393858E+01  0.33047315738E+02  0.47000000000E+01 0.  1.
<mgrwt>
<rscale>  0 0.10155449E+03</rscale>
<asrwt>0</asrwt>
<pdfrwt beam="1">  1        3 0.40986221E-01 0.10174791E+03</pdfrwt>
<pdfrwt beam="2">  1       -3 0.69416643E-02 0.10174791E+03</pdfrwt>
<totfact> 0.17354398E+03</totfact>
</mgrwt>
</event>
<event>
 8    1  0.3466492E-004  0.1038355E+03  0.7546771E-02  0.1272923E+00
         -1   -1    0    0    0  501 -0.00000000000E+00  0.00000000000E+00  0.46043941086E+03  0.46043941086E+03  0.00000000000E+00 0.  1.
          1   -1    0    0  501    0  0.00000000000E+00 -0.00000000000E+00 -0.23406140565E+02  0.23406140565E+02  0.00000000000E+00 0. -1.
         23    2    1    2    0    0 -0.23548061181E+02 -0.43587804587E+02  0.24041028205E+03  0.26148906446E+03  0.90138888513E+02 0.  0.
         23    2    1    2    0    0  0.23548061181E+02  0.43587804587E+02  0.19662298825E+03  0.22235648697E+03  0.91254588354E+02 0.  0.
          5    1    4    4  502    0  0.54580738889E+02  0.47086982159E+02  0.13497908136E+03  0.15309370775E+03  0.47000000000E+01 0. -1.
         -5    1    3    3    0  503 -0.54893389870E+01  0.27743263273E+02  0.78828594374E+02  0.83880026171E+02  0.47000000000E+01 0.  1.
          5    1    3    3  503    0 -0.18058722194E+02 -0.71331067860E+02  0.16158168767E+03  0.17760903829E+03  0.47000000000E+01 0. -1.
         -5    1    4    4    0  502 -0.31032677707E+02 -0.34991775728E+01  0.61643906885E+02  0.69262779221E+02  0.47000000000E+01 0.  1.
<mgrwt>
<rscale>  0 0.10358983E+03</rscale>
<asrwt>0</asrwt>
<pdfrwt beam="1">  1        1 0.36009450E-02 0.10383548E+03</pdfrwt>
<pdfrwt beam="2">  1       -1 0.70836826E-01 0.10383548E+03</pdfrwt>
<totfact> 0.51550062E+03</totfact>
</mgrwt>
</event>
<event>
 8    1  0.3466492E-004  0.1410288E+03  0.7546771E-02  0.1212029E+00
          1   -1    0    0  501    0  0.00000000000E+00  0.00000000000E+00  0.78095717290E+03  0.78095717290E+03  0.00000000000E+00 0. -1.
         -1   -1    0    0    0  501 -0.00000000000E+00 -0.00000000000E+00 -0.25586322561E+02  0.25586322561E+02  0.00000000000E+00 0.  1.
         23    2    1    2    0    0 -0.84876005603E+02  0.66173329859E+02  0.34541697862E+03  0.37300998836E+03  0.90778391620E+02 0.  0.
         23    2    1    2    0    0  0.84876005603E+02 -0.66173329859E+02  0.40995387171E+03  0.43353350710E+03  0.91138789390E+02 0.  0.
          5    1    4    4  502    0  0.67692707324E+02 -0.39970187348E+02  0.38562769597E+03  0.39358700232E+03  0.47000000000E+01 0. -1.
         -5    1    4    4    0  502  0.17183298279E+02 -0.26203142511E+02  0.24326175748E+02  0.39946504774E+02  0.47000000000E+01 0.  1.
          5    1    3    3  503    0 -0.50184758228E+02 -0.18391143434E+01  0.22320571157E+03  0.22883350274E+03  0.47000000000E+01 0. -1.
         -5    1    3    3    0  503 -0.34691247375E+02  0.68012444203E+02  0.12221126705E+03  0.14417648562E+03  0.47000000000E+01 0.  1.
<mgrwt>
<rscale>  0 0.14097061E+03</rscale>
<asrwt>0</asrwt>
<pdfrwt beam="1">  1        1 0.12014724E+00 0.14102881E+03</pdfrwt>
<pdfrwt beam="2">  1       -1 0.39363579E-02 0.14102881E+03</pdfrwt>
<totfact> 0.58466591E+03</totfact>
</mgrwt>
</event>
<event>
 8    1  0.3466492E-004  0.9702015E+02  0.7546771E-02  0.1288376E+00
         -2   -1    0    0    0  501 -0.00000000000E+00  0.00000000000E+00  0.43205404829E+02  0.43205404829E+02  0.00000000000E+00 0.  1.
          2   -1    0    0  501    0  0.00000000000E+00 -0.00000000000E+00 -0.23658218860E+03  0.23658218860E+03  0.00000000000E+00 0. -1.
         23    2    1    2    0    0 -0.22433094661E+02 -0.87972387884E+01 -0.14394818744E+03  0.17359144815E+03  0.93980184378E+02 0.  0.
         23    2    1    2    0    0  0.22433094661E+02  0.87972387884E+01 -0.49428596333E+02  0.10619614528E+03  0.90850426479E+02 0.  0.
          5    1    4    4  502    0  0.45304107114E+02  0.32846749282E+02 -0.14954678535E+02  0.58112851159E+02  0.47000000000E+01 0. -1.
         -5    1    3    3    0  503 -0.30893326639E+02 -0.28330498737E+02 -0.18150450609E+02  0.45918881158E+02  0.47000000000E+01 0.  1.
          5    1    3    3  503    0  0.84602319775E+01  0.19533259949E+02 -0.12579773683E+03  0.12767256699E+03  0.47000000000E+01 0. -1.
         -5    1    4    4    0  502 -0.22871012452E+02 -0.24049510494E+02 -0.34473917798E+02  0.48083294125E+02  0.47000000000E+01 0.  1.
<mgrwt>
<rscale>  0 0.96254007E+02</rscale>
<asrwt>0</asrwt>
<pdfrwt beam="1">  1        2 0.36397260E-01 0.97020154E+02</pdfrwt>
<pdfrwt beam="2">  1       -2 0.66469853E-02 0.97020154E+02</pdfrwt>
<totfact> 0.16216248E+04</totfact>
</mgrwt>
</event>
<event>
 8    1  0.3466492E-004  0.9130586E+02  0.7546771E-02  0.1302092E+00
          1   -1    0    0  501    0  0.00000000000E+00  0.00000000000E+00  0.17609679992E+03  0.17609679992E+03  0.00000000000E+00 0. -1.
         -1   -1    0    0    0  501 -0.00000000000E+00 -0.00000000000E+00 -0.52363984488E+02  0.52363984488E+02  0.00000000000E+00 0.  1.
         23    2    1    2    0    0 -0.10930524319E+02 -0.64824058212E+01  0.10486278166E+03  0.13904302319E+03  0.90417151981E+02 0.  0.
         23    2    1    2    0    0  0.10930524319E+02  0.64824058212E+01  0.18870033776E+02  0.89417761225E+02  0.86475198183E+02 0.  0.
          5    1    4    4  502    0  0.22284013195E+00  0.28880514178E+02  0.44608941894E+02  0.53349615311E+02  0.47000000000E+01 0. -1.
         -5    1    3    3    0  503  0.16693692136E+02 -0.37606305512E+02  0.80667844857E+02  0.90676925209E+02  0.47000000000E+01 0.  1.
          5    1    3    3  503    0 -0.27624216455E+02  0.31123899691E+02  0.24194936803E+02  0.48366097978E+02  0.47000000000E+01 0. -1.
         -5    1    4    4    0  502  0.10707684187E+02 -0.22398108357E+02 -0.25738908118E+02  0.36068145915E+02  0.47000000000E+01 0.  1.
<mgrwt>
<rscale>  0 0.90314356E+02</rscale>
<asrwt>0</asrwt>
<pdfrwt beam="1">  1        1 0.27091815E-01 0.91305856E+02</pdfrwt>
<pdfrwt beam="2">  1       -1 0.80559977E-02 0.91305856E+02</pdfrwt>
<totfact> 0.13259235E+04</totfact>
</mgrwt>
</event>
<event>
 8    1  0.3466492E-004  0.1084875E+03  0.7546771E-02  0.1266146E+00
          1   -1    0    0  501    0  0.00000000000E+00  0.00000000000E+00  0.15949320687E+03  0.15949320687E+03  0.00000000000E+00 0. -1.
         -1   -1    0    0    0  501 -0.00000000000E+00 -0.00000000000E+00 -0.16444320750E+03  0.16444320750E+03  0.00000000000E+00 0.  1.
         23    2    1    2    0    0 -0.47263386786E+02 -0.10134756769E+02  0.12028614248E+03  0.15824504934E+03  0.90753504300E+02 0.  0.
         23    2    1    2    0    0  0.47263386786E+02  0.10134756769E+02 -0.12523614311E+03  0.16569136503E+03  0.97123611333E+02 0.  0.
          5    1    4    4  502    0 -0.25752525082E+02 -0.15956154825E+02 -0.31587149803E+02  0.44018512669E+02  0.47000000000E+01 0. -1.
         -5    1    4    4    0  502  0.73015911868E+02  0.26090911594E+02 -0.93648993310E+02  0.12167285236E+03  0.47000000000E+01 0.  1.
          5    1    3    3  503    0 -0.42006986645E+02  0.36301284410E+02  0.61173769261E+02  0.82744729273E+02  0.47000000000E+01 0. -1.
         -5    1    3    3    0  503 -0.52564001409E+01 -0.46436041178E+02  0.59112373218E+02  0.75500320067E+02  0.47000000000E+01 0.  1.
<mgrwt>
<rscale>  0 0.10704298E+03</rscale>
<asrwt>0</asrwt>
<pdfrwt beam="1">  1        1 0.24537417E-01 0.10848750E+03</pdfrwt>
<pdfrwt beam="2">  1       -1 0.25298955E-01 0.10848750E+03</pdfrwt>
<totfact> 0.25662056E+03</totfact>
</mgrwt>
</event>
<event>
 8    1  0.3466492E-004  0.9355539E+02  0.7546771E-02  0.1296315E+00
         -1   -1    0    0    0  501 -0.00000000000E+00  0.00000000000E+00  0.27824233964E+03  0.27824233964E+03  0.00000000000E+00 0.  1.
          1   -1    0    0  501    0  0.00000000000E+00 -0.00000000000E+00 -0.14786782069E+03  0.14786782069E+03  0.00000000000E+00 0. -1.
         23    2    1    2    0    0  0.57020751213E+01  0.10383204043E+02  0.25530545056E+03  0.27190712244E+03  0.92802400641E+02 0.  0.
         23    2    1    2    0    0 -0.57020751213E+01 -0.10383204043E+02 -0.12493093161E+03  0.15420303788E+03  0.89613138728E+02 0.  0.
          5    1    3    3  502    0  0.29818828249E+01 -0.28988790358E+02  0.26477960476E+02  0.39653675524E+02  0.47000000000E+01 0. -1.
         -5    1    4    4    0  503  0.14191741970E+02  0.17586005399E+02 -0.11620895657E+03  0.11847904757E+03  0.47000000000E+01 0.  1.
          5    1    4    4  503    0 -0.19893817091E+02 -0.27969209442E+02 -0.87219750392E+01  0.35723990312E+02  0.47000000000E+01 0. -1.
         -5    1    3    3    0  502  0.27201922964E+01  0.39371994401E+02  0.22882749008E+03  0.23225344692E+03  0.47000000000E+01 0.  1.
<mgrwt>
<rscale>  0 0.92754487E+02</rscale>
<asrwt>0</asrwt>
<pdfrwt beam="1">  1        1 0.22748896E-01 0.93555385E+02</pdfrwt>
<pdfrwt beam="2">  1       -1 0.42806514E-01 0.93555385E+02</pdfrwt>
<totfact> 0.11523940E+03</totfact>
</mgrwt>
</event>
<event>
 8    1  0.3466492E-004  0.1062826E+03  0.7546771E-02  0.1269112E+00
          1   -1    0    0  501    0  0.00000000000E+00  0.00000000000E+00  0.30196008375E+03  0.30196008375E+03  0.00000000000E+00 0. -1.
         -1   -1    0    0    0  501 -0.00000000000E+00 -0.00000000000E+00 -0.44447685638E+02  0.44447685638E+02  0.00000000000E+00 0.  1.
         23    2    1    2    0    0 -0.58456036620E+01 -0.47167305577E+02  0.56340968096E+02  0.12029253931E+03  0.95063476324E+02 0.  0.
         23    2    1    2    0    0  0.58456036620E+01  0.47167305577E+02  0.20117143002E+03  0.22611523007E+03  0.91647297939E+02 0.  0.
          5    1    4    4  502    0 -0.26062270470E+02  0.62132422623E+02  0.12606142585E+03  0.14301486975E+03  0.47000000000E+01 0. -1.
         -5    1    4    4    0  502  0.31907874132E+02 -0.14965117046E+02  0.75110004170E+02  0.83100360326E+02  0.47000000000E+01 0.  1.
          5    1    3    3  503    0  0.24252949323E+02 -0.31600009794E+02 -0.13665261809E+02  0.42374468140E+02  0.47000000000E+01 0.  1.
         -5    1    3    3    0  503 -0.30098552985E+02 -0.15567295783E+02  0.70006229906E+02  0.77918071173E+02  0.47000000000E+01 0. -1.
<mgrwt>
<rscale>  0 0.10551322E+03</rscale>
<asrwt>0</asrwt>
<pdfrwt beam="1">  1        1 0.46455396E-01 0.10628260E+03</pdfrwt>
<pdfrwt beam="2">  1       -1 0.68381057E-02 0.10628260E+03</pdfrwt>
<totfact> 0.88532250E+03</totfact>
</mgrwt>
</event>
<event>
 8    1  0.3466492E-004  0.1058534E+03  0.7546771E-02  0.1269021E+00
         -2   -1    0    0    0  501 -0.00000000000E+00  0.00000000000E+00  0.23579640214E+02  0.23579640214E+02  0.00000000000E+00 0.  1.
          2   -1    0    0  501    0  0.00000000000E+00 -0.00000000000E+00 -0.53753254977E+03  0.53753254977E+03  0.00000000000E+00 0. -1.
         23    2    1    2    0    0 -0.22595570976E+02  0.48314649346E+02 -0.35520173251E+03  0.37030633891E+03  0.90075794122E+02 0.  0.
         23    2    1    2    0    0  0.22595570976E+02 -0.48314649346E+02 -0.15875117705E+03  0.19080585108E+03  0.91433426181E+02 0.  0.
          5    1    3    3  502    0  0.26378957783E+02 -0.56048776558E+01 -0.56039297643E+02  0.62367916012E+02  0.47000000000E+01 0.  1.
         -5    1    3    3    0  502 -0.48974528759E+02  0.53919527002E+02 -0.29916243487E+03  0.30793842289E+03  0.47000000000E+01 0. -1.
          5    1    4    4  503    0 -0.16095218722E+02 -0.37523447425E+02 -0.14058889410E+03  0.14647317951E+03  0.47000000000E+01 0. -1.
         -5    1    4    4    0  503  0.38690789698E+02 -0.10791201921E+02 -0.18162282946E+02  0.44332671565E+02  0.47000000000E+01 0.  1.
<mgrwt>
<rscale>  0 0.10555954E+03</rscale>
<asrwt>0</asrwt>
<pdfrwt beam="1">  1        2 0.82697305E-01 0.10585337E+03</pdfrwt>
<pdfrwt beam="2">  1       -2 0.36276374E-02 0.10585337E+03</pdfrwt>
<totfact> 0.16879411E+04</totfact>
</mgrwt>
</event>
<event>
 8    1  0.3466492E-004  0.1631903E+03  0.7546771E-02  0.1185393E+00
          1   -1    0    0  501    0  0.00000000000E+00  0.00000000000E+00  0.63986039890E+02  0.63986039890E+02  0.00000000000E+00 0. -1.
         -1   -1    0    0    0  501 -0.00000000000E+00 -0.00000000000E+00 -0.43851187325E+03  0.43851187325E+03  0.00000000000E+00 0.  1.
         23    2    1    2    0    0  0.43062607277E+02  0.12796396791E+03 -0.24631702309E+03  0.29496818492E+03  0.90027712519E+02 0.  0.
         23    2    1    2    0    0 -0.43062607277E+02 -0.12796396791E+03 -0.12820881027E+03  0.20752972822E+03  0.91662008693E+02 0.  0.
          5    1    4    4  502    0 -0.55587109808E+02 -0.38772945653E+02 -0.30222094010E+02  0.74355450760E+02  0.47000000000E+01 0. -1.
         -5    1    4    4    0  502  0.12524502531E+02 -0.89191022254E+02 -0.97986716259E+02  0.13317427746E+03  0.47000000000E+01 0.  1.
          5    1    3    3  503    0 -0.17726456994E+02  0.68342310270E+02 -0.72219052079E+02  0.10110677590E+03  0.47000000000E+01 0. -1.
         -5    1    3    3    0  503  0.60789064271E+02  0.59621657636E+02 -0.17409797101E+03  0.19386140901E+03  0.47000000000E+01 0.  1.
<mgrwt>
<rscale>  0 0.16296178E+03</rscale>
<asrwt>0</asrwt>
<pdfrwt beam="1">  1        1 0.98440058E-02 0.16319035E+03</pdfrwt>
<pdfrwt beam="2">  1       -1 0.67463368E-01 0.16319035E+03</pdfrwt>
<totfact> 0.14890172E+03</totfact>
</mgrwt>
</event>
<event>
 7    1  0.3466492E-004  0.1630537E+03  0.7546771E-02  0.1193800E+00
          2   -1    0    0  501    0  0.00000000000E+00  0.00000000000E+00  0.10739885475E+04  0.10739885475E+04  0.00000000000E+00 0. -1.
         -2   -1    0    0    0  501 -0.00000000000E+00 -0.00000000000E+00 -0.65566368105E+02  0.65566368105E+02  0.00000000000E+00 0.  1.
         23    2    1    2    0    0  0.46957249004E+02  0.88070087258E+02  0.18568459214E+02  0.13636156936E+03  0.91040465821E+02 0.  0.
          5    1    1    2  502    0 -0.60509754596E+02 -0.11218557774E+03  0.90183584335E+03  0.91081118384E+03  0.47000000000E+01 0. -1.
         -5    1    3    3    0  503 -0.43513021450E+01  0.82181746089E+02  0.41483429454E+01  0.82535277123E+02  0.47000000000E+01 0.  1.
          5    1    3    3  503    0  0.51308551149E+02  0.58883411692E+01  0.14420116269E+02  0.53826292237E+02  0.47000000000E+01 0. -1.
         -5    1    1    2    0  502  0.13552505591E+02  0.24115490484E+02  0.88017876812E+02  0.92382162389E+02  0.47000000000E+01 0.  1.
<mgrwt>
<rscale>  0 0.15556249E+03</rscale>
<asrwt>0</asrwt>
<pdfrwt beam="1">  1        2 0.16522900E+00 0.16305368E+03</pdfrwt>
<pdfrwt beam="2">  1       -2 0.10087134E-01 0.16305368E+03</pdfrwt>
<totfact> 0.15490453E+03</totfact>
</mgrwt>
</event>
<event>
 8    1  0.3466492E-004  0.9358568E+02  0.7546771E-02  0.1295614E+00
         -2   -1    0    0    0  501 -0.00000000000E+00  0.00000000000E+00  0.17333430596E+02  0.17333430596E+02  0.00000000000E+00 0.  1.
          2   -1    0    0  501    0  0.00000000000E+00 -0.00000000000E+00 -0.49437018711E+03  0.49437018711E+03  0.00000000000E+00 0. -1.
         23    2    1    2    0    0 -0.88366707990E+01 -0.55808077754E+01 -0.24810048195E+03  0.26516434427E+03  0.93000258935E+02 0.  0.
         23    2    1    2    0    0  0.88366707990E+01  0.55808077754E+01 -0.22893627456E+03  0.24653927343E+03  0.90887641452E+02 0.  0.
          5    1    3    3  502    0 -0.47492362586E+02 -0.16888899046E+02 -0.10732835317E+03  0.11866855021E+03  0.47000000000E+01 0. -1.
         -5    1    3    3    0  502  0.38655691787E+02  0.11308091270E+02 -0.14077212878E+03  0.14649579406E+03  0.47000000000E+01 0.  1.
          5    1    4    4  503    0 -0.33956174764E+02  0.14995020644E+02 -0.16295412298E+03  0.16719452337E+03  0.47000000000E+01 0. -1.
         -5    1    4    4    0  503  0.42792845563E+02 -0.94142128690E+01 -0.65982151585E+02  0.79344750066E+02  0.47000000000E+01 0.  1.
<mgrwt>
<rscale>  0 0.93056437E+02</rscale>
<asrwt>0</asrwt>
<pdfrwt beam="1">  1        2 0.76056957E-01 0.93585684E+02</pdfrwt>
<pdfrwt beam="2">  1       -2 0.26666815E-02 0.93585684E+02</pdfrwt>
<totfact> 0.28630728E+04</totfact>
</mgrwt>
</event>
<event>
 8    1  0.3466492E-004  0.1122963E+03  0.7546771E-02  0.1256825E+00
         -1   -1    0    0    0  501 -0.00000000000E+00  0.00000000000E+00  0.35476723755E+02  0.35476723755E+02  0.00000000000E+00 0.  1.
          1   -1    0    0  501    0  0.00000000000E+00 -0.00000000000E+00 -0.36775018920E+03  0.36775018920E+03  0.00000000000E+00 0. -1.
         23    2    1    2    0    0 -0.65005851099E+02 -0.62880082629E+01 -0.12413063986E+03  0.16672344397E+03  0.90127638901E+02 0.  0.
         23    2    1    2    0    0  0.65005851099E+02  0.62880082629E+01 -0.20814282559E+03  0.23650346899E+03  0.91351821394E+02 0.  0.
          5    1    4    4  502    0  0.37018841145E+02 -0.18184959715E+02 -0.22700456983E+02  0.47312663282E+02  0.47000000000E+01 0. -1.
         -5    1    3    3    0  503 -0.34784900236E+01 -0.25990185278E+02  0.76890938176E-01  0.26639923720E+02  0.47000000000E+01 0.  1.
          5    1    3    3  503    0 -0.61527361076E+02  0.19702177015E+02 -0.12420753080E+03  0.14008352025E+03  0.47000000000E+01 0. -1.
         -5    1    4    4    0  502  0.27987009954E+02  0.24472967978E+02 -0.18544236861E+03  0.18919080570E+03  0.47000000000E+01 0.  1.
<mgrwt>
<rscale>  0 0.11204706E+03</rscale>
<asrwt>0</asrwt>
<pdfrwt beam="1">  1        1 0.56576950E-01 0.11229628E+03</pdfrwt>
<pdfrwt beam="2">  1       -1 0.54579577E-02 0.11229628E+03</pdfrwt>
<totfact> 0.97359541E+03</totfact>
</mgrwt>
</event>
<event>
 8    1  0.3466492E-004  0.9257635E+02  0.7546771E-02  0.1298138E+00
          1   -1    0    0  501    0  0.00000000000E+00  0.00000000000E+00  0.90295081942E+03  0.90295081942E+03  0.00000000000E+00 0. -1.
         -1   -1    0    0    0  501 -0.00000000000E+00 -0.00000000000E+00 -0.10189981342E+02  0.10189981342E+02  0.00000000000E+00 0.  1.
         23    2    1    2    0    0  0.12510736996E+02  0.48941612741E+00  0.31291987908E+03  0.32632687742E+03  0.91725798631E+02 0.  0.
         23    2    1    2    0    0 -0.12510736996E+02 -0.48941612741E+00  0.57984095900E+03  0.58681392335E+03  0.89321245115E+02 0.  0.
          5    1    3    3  502    0  0.32371837438E+01 -0.44221528704E+02  0.11986229657E+03  0.12788699347E+03  0.47000000000E+01 0. -1.
         -5    1    3    3    0  502  0.92735532519E+01  0.44710944831E+02  0.19305758251E+03  0.19843988395E+03  0.47000000000E+01 0.  1.
          5    1    4    4  503    0  0.27338512891E+02  0.28944085248E+02  0.23361267184E+03  0.23702768784E+03  0.47000000000E+01 0.  1.
         -5    1    4    4    0  503 -0.39849249887E+02 -0.29433501375E+02  0.34622828716E+03  0.34978623551E+03  0.47000000000E+01 0. -1.
<mgrwt>
<rscale>  0 0.91975046E+02</rscale>
<asrwt>0</asrwt>
<pdfrwt beam="1">  1        1 0.13891545E+00 0.92576348E+02</pdfrwt>
<pdfrwt beam="2">  1       -1 0.15676901E-02 0.92576348E+02</pdfrwt>
<totfact> 0.17198094E+04</totfact>
</mgrwt>
</event>
<event>
 8    1  0.3466492E-004  0.1011667E+03  0.7546771E-02  0.1278083E+00
          2   -1    0    0  501    0  0.00000000000E+00  0.00000000000E+00  0.39748700131E+02  0.39748700131E+02  0.00000000000E+00 0. -1.
         -2   -1    0    0    0  501 -0.00000000000E+00 -0.00000000000E+00 -0.35845378135E+03  0.35845378135E+03  0.00000000000E+00 0.  1.
         23    2    1    2    0    0  0.29876703057E+02  0.32211077211E+02 -0.26534790873E+03  0.28382729745E+03  0.90654570922E+02 0.  0.
         23    2    1    2    0    0 -0.29876703057E+02 -0.32211077211E+02 -0.53357172488E+02  0.11437518403E+03  0.91129161005E+02 0.  0.
          5    1    4    4  502    0 -0.55070898890E+02 -0.23732343279E+02 -0.67681452537E+01  0.60530370990E+02  0.47000000000E+01 0. -1.
         -5    1    4    4    0  502  0.25194195832E+02 -0.84787339323E+01 -0.46589027235E+02  0.53844813041E+02  0.47000000000E+01 0.  1.
          5    1    3    3  503    0  0.56733671051E+02  0.12283256441E+02 -0.10604817655E+03  0.12098716283E+03  0.47000000000E+01 0. -1.
         -5    1    3    3    0  503 -0.26856967994E+02  0.19927820770E+02 -0.15929973218E+03  0.16284013462E+03  0.47000000000E+01 0.  1.
<mgrwt>
<rscale>  0 0.10105968E+03</rscale>
<asrwt>0</asrwt>
<pdfrwt beam="1">  1        2 0.61151849E-02 0.10116667E+03</pdfrwt>
<pdfrwt beam="2">  1       -2 0.55146733E-01 0.10116667E+03</pdfrwt>
<totfact> 0.35416287E+03</totfact>
</mgrwt>
</event>
<event>
 8    1  0.3466492E-004  0.1049095E+03  0.7546771E-02  0.1270730E+00
          1   -1    0    0  501    0  0.00000000000E+00  0.00000000000E+00  0.38915147531E+03  0.38915147531E+03  0.00000000000E+00 0. -1.
         -1   -1    0    0    0  501 -0.00000000000E+00 -0.00000000000E+00 -0.28287767567E+02  0.28287767567E+02  0.00000000000E+00 0.  1.
         23    2    1    2    0    0  0.32991203712E+02  0.41071647816E+02  0.16193849584E+03  0.19295097947E+03  0.90723228929E+02 0.  0.
         23    2    1    2    0    0 -0.32991203712E+02 -0.41071647816E+02  0.19892521190E+03  0.22448826340E+03  0.89713102161E+02 0.  0.
          5    1    3    3  502    0  0.58724889127E+02  0.27695427512E+02  0.14522763246E+03  0.15915025774E+03  0.47000000000E+01 0. -1.
         -5    1    3    3    0  502 -0.25733685415E+02  0.13376220304E+02  0.16710863376E+02  0.33800721729E+02  0.47000000000E+01 0.  1.
          5    1    4    4  503    0 -0.16916700085E+02 -0.68974068867E+02  0.12810159373E+03  0.14654591510E+03  0.47000000000E+01 0. -1.
         -5    1    4    4    0  503 -0.16074503627E+02  0.27902421051E+02  0.70823618172E+02  0.77942348299E+02  0.47000000000E+01 0.  1.
<mgrwt>
<rscale>  0 0.10469075E+03</rscale>
<asrwt>0</asrwt>
<pdfrwt beam="1">  1        1 0.59869454E-01 0.10490950E+03</pdfrwt>
<pdfrwt beam="2">  1       -1 0.43519645E-02 0.10490950E+03</pdfrwt>
<totfact> 0.12585396E+04</totfact>
</mgrwt>
</event>
<event>
 8    1  0.3466492E-004  0.1039577E+03  0.7546771E-02  0.1274345E+00
         -1   -1    0    0    0  501 -0.00000000000E+00  0.00000000000E+00  0.15585006426E+03  0.15585006426E+03  0.00000000000E+00 0.  1.
          1   -1    0    0  501    0  0.00000000000E+00 -0.00000000000E+00 -0.67720173571E+02  0.67720173571E+02  0.00000000000E+00 0. -1.
         23    2    1    2    0    0 -0.23590752249E+01  0.48866941885E+02  0.59642702586E+02  0.11985180230E+03  0.91726001210E+02 0.  0.
         23    2    1    2    0    0  0.23590752249E+01 -0.48866941885E+02  0.28487188104E+02  0.10371843553E+03  0.86904837252E+02 0.  0.
          5    1    3    3  502    0  0.39448018056E+02  0.53355741735E+01  0.93781613586E+01  0.41166180182E+02  0.47000000000E+01 0. -1.
         -5    1    4    4    0  503 -0.39811300366E+02 -0.31494936416E+02  0.27352849187E+02  0.57854464091E+02  0.47000000000E+01 0.  1.
          5    1    4    4  503    0  0.42170375591E+02 -0.17372005469E+02  0.11343389177E+01  0.45863971440E+02  0.47000000000E+01 0. -1.
         -5    1    3    3    0  502 -0.41807093281E+02  0.43531367712E+02  0.50264541227E+02  0.78685622119E+02  0.47000000000E+01 0.  1.
<mgrwt>
<rscale>  0 0.10288416E+03</rscale>
<asrwt>0</asrwt>
<pdfrwt beam="1">  1        1 0.10418488E-01 0.10395770E+03</pdfrwt>
<pdfrwt beam="2">  1       -1 0.23976933E-01 0.10395770E+03</pdfrwt>
<totfact> 0.83577731E+03</totfact>
</mgrwt>
</event>
<event>
 7    1  0.3466492E-004  0.2258258E+03  0.7546771E-02  0.1152284E+00
         -2   -1    0    0    0  501 -0.00000000000E+00  0.00000000000E+00  0.38383526525E+02  0.38383526525E+02  0.00000000000E+00 0.  1.
          2   -1    0    0  501    0  0.00000000000E+00 -0.00000000000E+00 -0.11532543592E+04  0.11532543592E+04  0.00000000000E+00 0. -1.
         23    2    1    2    0    0  0.98798998223E+02 -0.11926207496E+02 -0.75880320209E+03  0.76999653401E+03  0.84905161229E+02 0.  0.
          5    1    3    3  502    0  0.60280402045E+02  0.23586261837E+02 -0.57990460514E+03  0.58352504632E+03  0.47000000000E+01 0. -1.
         -5    1    3    3    0  502  0.38518596178E+02 -0.35512469333E+02 -0.17889859696E+03  0.18647148769E+03  0.47000000000E+01 0.  1.
          5    1    1    2  503    0 -0.12301952519E+03 -0.11591007870E+02 -0.36584877717E+03  0.38618075146E+03  0.47000000000E+01 0. -1.
         -5    1    1    2    0  503  0.24220526968E+02  0.23517215367E+02  0.97811465525E+01  0.35460600292E+02  0.47000000000E+01 0.  1.
<mgrwt>
<rscale>  0 0.19701253E+03</rscale>
<asrwt>0</asrwt>
<pdfrwt beam="1">  1        2 0.17742375E+00 0.22582576E+03</pdfrwt>
<pdfrwt beam="2">  1       -2 0.59051579E-02 0.22582576E+03</pdfrwt>
<totfact> 0.32134490E+03</totfact>
</mgrwt>
</event>
<event>
 8    1  0.3466492E-004  0.9468086E+02  0.7546771E-02  0.1292156E+00
          1   -1    0    0  501    0  0.00000000000E+00  0.00000000000E+00  0.22881479018E+02  0.22881479018E+02  0.00000000000E+00 0. -1.
         -1   -1    0    0    0  501 -0.00000000000E+00 -0.00000000000E+00 -0.39062611090E+03  0.39062611090E+03  0.00000000000E+00 0.  1.
         23    2    1    2    0    0 -0.21735309882E+02  0.11938521379E+02 -0.19243717648E+03  0.21426610683E+03  0.90900746175E+02 0.  0.
         23    2    1    2    0    0  0.21735309882E+02 -0.11938521379E+02 -0.17530745540E+03  0.19924148309E+03  0.91375667858E+02 0.  0.
          5    1    3    3  502    0 -0.24565608416E+02  0.45005379650E+02 -0.15813519803E+03  0.16630629624E+03  0.47000000000E+01 0. -1.
         -5    1    4    4    0  503 -0.21192907650E+02 -0.37633704268E+02 -0.95708428781E+02  0.10510769892E+03  0.47000000000E+01 0.  1.
          5    1    4    4  503    0  0.42928217532E+02  0.25695182890E+02 -0.79599026620E+02  0.94133784174E+02  0.47000000000E+01 0. -1.
         -5    1    3    3    0  502  0.28302985337E+01 -0.33066858271E+02 -0.34301978452E+02  0.47959810586E+02  0.47000000000E+01 0.  1.
<mgrwt>
<rscale>  0 0.94566083E+02</rscale>
<asrwt>0</asrwt>
<pdfrwt beam="1">  1        1 0.35202279E-02 0.94680857E+02</pdfrwt>
<pdfrwt beam="2">  1       -1 0.60096319E-01 0.94680857E+02</pdfrwt>
<totfact> 0.72379937E+03</totfact>
</mgrwt>
</event>
<event>
 8    1  0.3466492E-004  0.9443201E+02  0.7546771E-02  0.1292601E+00
          2   -1    0    0  501    0  0.00000000000E+00  0.00000000000E+00  0.59358923220E+03  0.59358923220E+03  0.00000000000E+00 0. -1.
         -2   -1    0    0    0  501 -0.00000000000E+00 -0.00000000000E+00 -0.15368737344E+02  0.15368737344E+02  0.00000000000E+00 0.  1.
         23    2    1    2    0    0 -0.72154428677E+01 -0.12737289605E+02  0.33767369012E+03  0.35062932819E+03  0.93290426225E+02 0.  0.
         23    2    1    2    0    0  0.72154428677E+01  0.12737289605E+02  0.24054680474E+03  0.25832864136E+03  0.93040961479E+02 0.  0.
          5    1    3    3  502    0  0.23301625332E+02  0.14082592080E+02  0.27104522572E+03  0.27244979267E+03  0.47000000000E+01 0. -1.
         -5    1    4    4    0  503 -0.19914882848E+02  0.13426269650E+02  0.10486772833E+02  0.26625733417E+02  0.47000000000E+01 0.  1.
          5    1    4    4  503    0  0.27130325716E+02 -0.68898004558E+00  0.23006003191E+03  0.23170290794E+03  0.47000000000E+01 0. -1.
         -5    1    3    3    0  502 -0.30517068200E+02 -0.26819881685E+02  0.66628464402E+02  0.78179535517E+02  0.47000000000E+01 0.  1.
<mgrwt>
<rscale>  0 0.94370341E+02</rscale>
<asrwt>0</asrwt>
<pdfrwt beam="1">  1        2 0.91321403E-01 0.94432011E+02</pdfrwt>
<pdfrwt beam="2">  1       -2 0.23644216E-02 0.94432011E+02</pdfrwt>
<totfact> 0.27903445E+04</totfact>
</mgrwt>
</event>
<event>
 8    1  0.3466492E-004  0.1716430E+03  0.7546771E-02  0.1176303E+00
         -1   -1    0    0    0  501 -0.00000000000E+00  0.00000000000E+00  0.34338102078E+03  0.34338102078E+03  0.00000000000E+00 0.  1.
          1   -1    0    0  501    0  0.00000000000E+00 -0.00000000000E+00 -0.12371800561E+03  0.12371800561E+03  0.00000000000E+00 0. -1.
         23    2    1    2    0    0 -0.74342901831E+02  0.12475270048E+03 -0.19853334843E+02  0.17278734620E+03  0.91494310063E+02 0.  0.
         23    2    1    2    0    0  0.74342901831E+02 -0.12475270048E+03  0.23951635001E+03  0.29431168019E+03  0.90339248632E+02 0.  0.
          5    1    4    4  502    0  0.87387600687E+02 -0.63876128738E+02  0.14422035271E+03  0.18038390369E+03  0.47000000000E+01 0. -1.
         -5    1    3    3    0  503 -0.35457467669E+02  0.12700303187E+03 -0.99174284705E+01  0.13231571148E+03  0.47000000000E+01 0. -1.
          5    1    3    3  503    0 -0.38885434162E+02 -0.22503313923E+01 -0.99359063722E+01  0.40471634719E+02  0.47000000000E+01 0.  1.
         -5    1    4    4    0  502 -0.13044698856E+02 -0.60876571742E+02  0.95295997305E+02  0.11392777650E+03  0.47000000000E+01 0.  1.
<mgrwt>
<rscale>  0 0.17148954E+03</rscale>
<asrwt>0</asrwt>
<pdfrwt beam="1">  1        1 0.19033539E-01 0.17164298E+03</pdfrwt>
<pdfrwt beam="2">  1       -1 0.52827849E-01 0.17164298E+03</pdfrwt>
<totfact> 0.10026462E+03</totfact>
</mgrwt>
</event>
<event>
 8    1  0.3466492E-004  0.1216653E+03  0.7546771E-02  0.1241565E+00
          1   -1    0    0  501    0  0.00000000000E+00  0.00000000000E+00  0.59649509560E+03  0.59649509560E+03  0.00000000000E+00 0. -1.
         -1   -1    0    0    0  501 -0.00000000000E+00 -0.00000000000E+00 -0.26496144356E+02  0.26496144356E+02  0.00000000000E+00 0.  1.
         23    2    1    2    0    0  0.74915677062E+02 -0.12146858593E+02  0.37299503609E+03  0.39144643339E+03  0.91351564984E+02 0.  0.
         23    2    1    2    0    0 -0.74915677062E+02  0.12146858593E+02  0.19700391515E+03  0.23154480656E+03  0.95092323650E+02 0.  0.
          5    1    4    4  502    0 -0.77808775760E+01 -0.31696808562E+02  0.10167897161E+03  0.10689215592E+03  0.47000000000E+01 0. -1.
         -5    1    3    3    0  503 -0.32504817699E+01  0.28109660483E+02  0.63655707688E+02  0.69820181649E+02  0.47000000000E+01 0.  1.
          5    1    3    3  503    0  0.78166158832E+02 -0.40256519076E+02  0.30933932840E+03  0.32162625175E+03  0.47000000000E+01 0. -1.
         -5    1    4    4    0  502 -0.67134799486E+02  0.43843667155E+02  0.95324943545E+02  0.12465265065E+03  0.47000000000E+01 0.  1.
<mgrwt>
<rscale>  0 0.12093356E+03</rscale>
<asrwt>0</asrwt>
<pdfrwt beam="1">  1        1 0.91768466E-01 0.12166534E+03</pdfrwt>
<pdfrwt beam="2">  1       -1 0.40763304E-02 0.12166534E+03</pdfrwt>
<totfact> 0.80705780E+03</totfact>
</mgrwt>
</event>
<event>
 8    1  0.3466492E-004  0.1521036E+03  0.7546771E-02  0.1198167E+00
         -1   -1    0    0    0  501 -0.00000000000E+00  0.00000000000E+00  0.14500332951E+02  0.14500332951E+02  0.00000000000E+00 0.  1.
          1   -1    0    0  501    0  0.00000000000E+00 -0.00000000000E+00 -0.16970763030E+04  0.16970763030E+04  0.00000000000E+00 0. -1.
         23    2    1    2    0    0  0.48915460957E+02  0.10818391049E+03 -0.10573781269E+04  0.10681422196E+04  0.93716685891E+02 0.  0.
         23    2    1    2    0    0 -0.48915460957E+02 -0.10818391049E+03 -0.62519784318E+03  0.64343441640E+03  0.95073783301E+02 0.  0.
          5    1    4    4  502    0 -0.43891707039E+02 -0.63498850747E+02 -0.55206119664E+03  0.55745155918E+03  0.47000000000E+01 0. -1.
         -5    1    3    3    0  503  0.76198604424E+02  0.71596833779E+02 -0.68540155513E+03  0.69334674997E+03  0.47000000000E+01 0.  1.
          5    1    3    3  503    0 -0.27283143467E+02  0.36587076715E+02 -0.37197657177E+03  0.37479546961E+03  0.47000000000E+01 0. -1.
         -5    1    4    4    0  502 -0.50237539175E+01 -0.44685059747E+02 -0.73136646546E+02  0.85982857222E+02  0.47000000000E+01 0.  1.
<mgrwt>
<rscale>  0 0.15189202E+03</rscale>
<asrwt>0</asrwt>
<pdfrwt beam="1">  1        1 0.26108873E+00 0.15210360E+03</pdfrwt>
<pdfrwt beam="2">  1       -1 0.22308199E-02 0.15210360E+03</pdfrwt>
<totfact> 0.30851059E+03</totfact>
</mgrwt>
</event>
<event>
 8    1  0.3466492E-004  0.9136057E+02  0.7546771E-02  0.1303553E+00
         -1   -1    0    0    0  501 -0.00000000000E+00  0.00000000000E+00  0.65684605038E+02  0.65684605038E+02  0.00000000000E+00 0.  1.
          1   -1    0    0  501    0  0.00000000000E+00 -0.00000000000E+00 -0.12406852213E+03  0.12406852213E+03  0.00000000000E+00 0. -1.
         23    2    1    2    0    0 -0.45429231819E+01 -0.39561162299E+01 -0.97589529490E+01  0.91880305207E+02  0.91161748094E+02 0.  0.
         23    2    1    2    0    0  0.45429231819E+01  0.39561162299E+01 -0.48624964147E+02  0.97872821964E+02  0.84725516430E+02 0.  0.
          5    1    4    4  502    0 -0.38100922724E+02 -0.17882152571E+01 -0.96449659435E+01  0.39623142156E+02  0.47000000000E+01 0. -1.
         -5    1    3    3    0  503  0.35161543329E+02 -0.27467251824E+02 -0.25115798774E+01  0.44935310008E+02  0.47000000000E+01 0.  1.
          5    1    3    3  503    0 -0.39704466510E+02  0.23511135594E+02 -0.72473730717E+01  0.46944995199E+02  0.47000000000E+01 0. -1.
         -5    1    4    4    0  502  0.42643845906E+02  0.57443314870E+01 -0.38979998203E+02  0.58249679809E+02  0.47000000000E+01 0.  1.
<mgrwt>
<rscale>  0 0.89711144E+02</rscale>
<asrwt>0</asrwt>
<pdfrwt beam="1">  1        1 0.19087465E-01 0.91360568E+02</pdfrwt>
<pdfrwt beam="2">  1       -1 0.10105324E-01 0.91360568E+02</pdfrwt>
<totfact> 0.14598210E+04</totfact>
</mgrwt>
</event>
<event>
 8    1  0.3466492E-004  0.9251933E+02  0.7546771E-02  0.1298633E+00
          1   -1    0    0  501    0  0.00000000000E+00  0.00000000000E+00  0.32131892597E+03  0.32131892597E+03  0.00000000000E+00 0. -1.
         -1   -1    0    0    0  501 -0.00000000000E+00 -0.00000000000E+00 -0.66900653649E+02  0.66900653649E+02  0.00000000000E+00 0.  1.
         23    2    1    2    0    0  0.58394591207E+01 -0.64568810232E+01 -0.24146332977E+02  0.95618365519E+02  0.92108826032E+02 0.  0.
         23    2    1    2    0    0 -0.58394591207E+01  0.64568810232E+01  0.27856460530E+03  0.29260121410E+03  0.89114760688E+02 0.  0.
          5    1    4    4  502    0 -0.21365196017E+02 -0.14490535881E+02  0.25728477149E+03  0.25861939384E+03  0.47000000000E+01 0. -1.
         -5    1    4    4    0  502  0.15525736896E+02  0.20947416905E+02  0.21279833809E+02  0.33981820259E+02  0.47000000000E+01 0.  1.
          5    1    3    3  503    0 -0.29289661830E+02 -0.27811262705E+02 -0.34090250607E+02  0.53062093907E+02  0.47000000000E+01 0. -1.
         -5    1    3    3    0  503  0.35129120950E+02  0.21354381681E+02  0.99439176305E+01  0.42556271613E+02  0.47000000000E+01 0.  1.
<mgrwt>
<rscale>  0 0.91765072E+02</rscale>
<asrwt>0</asrwt>
<pdfrwt beam="1">  1        1 0.49433680E-01 0.92519330E+02</pdfrwt>
<pdfrwt beam="2">  1       -1 0.10292408E-01 0.92519330E+02</pdfrwt>
<totfact> 0.43994928E+03</totfact>
</mgrwt>
</event>
<event>
 8    1  0.3466492E-004  0.1046390E+03  0.7546771E-02  0.1272587E+00
          2   -1    0    0  501    0  0.00000000000E+00  0.00000000000E+00  0.34982529404E+03  0.34982529404E+03  0.00000000000E+00 0. -1.
         -2   -1    0    0    0  501 -0.00000000000E+00 -0.00000000000E+00 -0.45949192260E+02  0.45949192260E+02  0.00000000000E+00 0.  1.
         23    2    1    2    0    0  0.40195190540E+02 -0.29138284412E+02  0.34647107844E+02  0.10692577966E+03  0.88136299635E+02 0.  0.
         23    2    1    2    0    0 -0.40195190540E+02  0.29138284412E+02  0.26922899393E+03  0.28884870664E+03  0.92112057786E+02 0.  0.
          5    1    4    4  502    0 -0.12193914256E+02  0.44923496779E+02  0.24193968289E+03  0.24642181775E+03  0.47000000000E+01 0. -1.
         -5    1    3    3    0  503  0.58569970162E+02 -0.19816423883E+01 -0.27603859766E+00  0.58792299739E+02  0.47000000000E+01 0.  1.
          5    1    3    3  503    0 -0.18374779621E+02 -0.27156642024E+02  0.34923146441E+02  0.48133479923E+02  0.47000000000E+01 0. -1.
         -5    1    4    4    0  502 -0.28001276284E+02 -0.15785212367E+02  0.27289311044E+02  0.42426888883E+02  0.47000000000E+01 0.  1.
<mgrwt>
<rscale>  0 0.10375739E+03</rscale>
<asrwt>0</asrwt>
<pdfrwt beam="1">  1        2 0.53819274E-01 0.10463902E+03</pdfrwt>
<pdfrwt beam="2">  1       -2 0.70691068E-02 0.10463902E+03</pdfrwt>
<totfact> 0.98583545E+03</totfact>
</mgrwt>
</event>
<event>
 8    1  0.3466492E-004  0.2399752E+03  0.7546771E-02  0.1119899E+00
         -2   -1    0    0    0  501 -0.00000000000E+00  0.00000000000E+00  0.89335678028E+02  0.89335678028E+02  0.00000000000E+00 0.  1.
          2   -1    0    0  501    0  0.00000000000E+00 -0.00000000000E+00 -0.65175249621E+03  0.65175249621E+03  0.00000000000E+00 0. -1.
         23    2    1    2    0    0 -0.54891404731E+02  0.21497069522E+03 -0.32339754707E+03  0.40238729449E+03  0.90022748230E+02 0.  0.
         23    2    1    2    0    0  0.54891404731E+02 -0.21497069522E+03 -0.23901927111E+03  0.33870087975E+03  0.91447295562E+02 0.  0.
          5    1    4    4  502    0 -0.95126729167E+01 -0.44416108376E+02 -0.11461347471E+02  0.47082205929E+02  0.47000000000E+01 0. -1.
         -5    1    3    3    0  503 -0.50152373753E+02  0.44118880152E+02 -0.71686697906E+02  0.98095916508E+02  0.47000000000E+01 0.  1.
          5    1    3    3  503    0 -0.47390309779E+01  0.17085181506E+03 -0.25171084917E+03  0.30429137798E+03  0.47000000000E+01 0. -1.
         -5    1    4    4    0  502  0.64404077648E+02 -0.17055458684E+03 -0.22755792363E+03  0.29161867382E+03  0.47000000000E+01 0.  1.
<mgrwt>
<rscale>  0 0.23984023E+03</rscale>
<asrwt>0</asrwt>
<pdfrwt beam="1">  1        2 0.10026962E+00 0.23997515E+03</pdfrwt>
<pdfrwt beam="2">  1       -2 0.13743950E-01 0.23997515E+03</pdfrwt>
<totfact> 0.18056684E+03</totfact>
</mgrwt>
</event>
<event>
 8    1  0.3466492E-004  0.1261563E+03  0.7546771E-02  0.1234113E+00
          1   -1    0    0  501    0  0.00000000000E+00  0.00000000000E+00  0.14005535716E+03  0.14005535716E+03  0.00000000000E+00 0. -1.
         -1   -1    0    0    0  501 -0.00000000000E+00 -0.00000000000E+00 -0.11170962875E+03  0.11170962875E+03  0.00000000000E+00 0.  1.
         23    2    1    2    0    0 -0.83738227163E+02  0.15102688568E+02  0.13020227119E+02  0.12468126020E+03  0.90198162064E+02 0.  0.
         23    2    1    2    0    0  0.83738227163E+02 -0.15102688568E+02  0.15325501293E+02  0.12708372571E+03  0.93140863541E+02 0.  0.
          5    1    3    3  502    0 -0.21569761518E+02 -0.16470505834E+02  0.41009119442E+02  0.49400101739E+02  0.47000000000E+01 0. -1.
         -5    1    3    3    0  502 -0.62168465645E+02  0.31573194402E+02 -0.27988892323E+02  0.75281158458E+02  0.47000000000E+01 0.  1.
          5    1    4    4  503    0  0.31359408060E+02  0.98630284342E+01 -0.36355124794E+02  0.49238977473E+02  0.47000000000E+01 0. -1.
         -5    1    4    4    0  503  0.52378819102E+02 -0.24965717002E+02  0.51680626087E+02  0.77844748241E+02  0.47000000000E+01 0.  1.
<mgrwt>
<rscale>  0 0.12561359E+03</rscale>
<asrwt>0</asrwt>
<pdfrwt beam="1">  1        1 0.21546978E-01 0.12615626E+03</pdfrwt>
<pdfrwt beam="2">  1       -1 0.17186097E-01 0.12615626E+03</pdfrwt>
<totfact> 0.56717468E+03</totfact>
</mgrwt>
</event>
<event>
 8    1  0.3466492E-004  0.9173213E+02  0.7546771E-02  0.1299229E+00
         -2   -1    0    0    0  501 -0.00000000000E+00  0.00000000000E+00  0.13463807328E+02  0.13463807328E+02  0.00000000000E+00 0.  1.
          2   -1    0    0  501    0  0.00000000000E+00 -0.00000000000E+00 -0.66948721207E+03  0.66948721207E+03  0.00000000000E+00 0. -1.
         23    2    1    2    0    0  0.14286706810E+02 -0.33105060948E+01 -0.23283866361E+03  0.24993819137E+03  0.89667088667E+02 0.  0.
         23    2    1    2    0    0 -0.14286706810E+02  0.33105060948E+01 -0.42318474113E+03  0.43301282803E+03  0.90552275898E+02 0.  0.
          5    1    4    4  502    0  0.23342741835E+02 -0.31774554836E+02 -0.16504153797E+03  0.16975071484E+03  0.47000000000E+01 0. -1.
         -5    1    3    3    0  503 -0.30863672290E+02 -0.72215583799E+01 -0.37359184553E+02  0.49219059755E+02  0.47000000000E+01 0.  1.
          5    1    3    3  503    0  0.45150379100E+02  0.39110522850E+01 -0.19547947906E+03  0.20071913161E+03  0.47000000000E+01 0. -1.
         -5    1    4    4    0  502 -0.37629448644E+02  0.35085060931E+02 -0.25814320316E+03  0.26326211319E+03  0.47000000000E+01 0.  1.
<mgrwt>
<rscale>  0 0.91512925E+02</rscale>
<asrwt>0</asrwt>
<pdfrwt beam="1">  1        2 0.10299802E+00 0.91732132E+02</pdfrwt>
<pdfrwt beam="2">  1       -2 0.20713553E-02 0.91732132E+02</pdfrwt>
<totfact> 0.29370755E+04</totfact>
</mgrwt>
</event>
<event>
 8    1  0.3466492E-004  0.1178521E+03  0.7546771E-02  0.1247315E+00
          3   -1    0    0  501    0  0.00000000000E+00  0.00000000000E+00  0.24287028195E+03  0.24287028195E+03  0.00000000000E+00 0. -1.
         -3   -1    0    0    0  501 -0.00000000000E+00 -0.00000000000E+00 -0.82658027782E+02  0.82658027782E+02  0.00000000000E+00 0.  1.
         23    2    1    2    0    0 -0.12963299156E+02 -0.73825268536E+02  0.17206888213E+03  0.20855892703E+03  0.90944535013E+02 0.  0.
         23    2    1    2    0    0  0.12963299156E+02  0.73825268536E+02 -0.11856627953E+02  0.11696938271E+03  0.89011456930E+02 0.  0.
          5    1    4    4  502    0 -0.17523412716E+02 -0.13397476356E+02  0.45540155025E+01  0.23008507625E+02  0.47000000000E+01 0. -1.
         -5    1    3    3    0  503  0.22616565523E+02 -0.28561859417E+02  0.12413190501E+02  0.38774555418E+02  0.47000000000E+01 0.  1.
          5    1    3    3  503    0 -0.35579864679E+02 -0.45263409119E+02  0.15965569162E+03  0.16978437161E+03  0.47000000000E+01 0. -1.
         -5    1    4    4    0  502  0.30486711872E+02  0.87222744893E+02 -0.16410643455E+02  0.93960875081E+02  0.47000000000E+01 0.  1.
<mgrwt>
<rscale>  0 0.11747906E+03</rscale>
<asrwt>0</asrwt>
<pdfrwt beam="1">  1        3 0.37364659E-01 0.11785214E+03</pdfrwt>
<pdfrwt beam="2">  1       -3 0.12716620E-01 0.11785214E+03</pdfrwt>
<totfact> 0.78842732E+02</totfact>
</mgrwt>
</event>
<event>
 8    1  0.3466492E-004  0.9221400E+02  0.7546771E-02  0.1297811E+00
         -2   -1    0    0    0  501 -0.00000000000E+00  0.00000000000E+00  0.11188555797E+02  0.11188555797E+02  0.00000000000E+00 0.  1.
          2   -1    0    0  501    0  0.00000000000E+00 -0.00000000000E+00 -0.86741122343E+03  0.86741122343E+03  0.00000000000E+00 0. -1.
         23    2    1    2    0    0 -0.13952297782E+02 -0.33530580499E+01 -0.27037980420E+03  0.28554389501E+03  0.90687197811E+02 0.  0.
         23    2    1    2    0    0  0.13952297782E+02  0.33530580499E+01 -0.58584286343E+03  0.59305588422E+03  0.91090677666E+02 0.  0.
          5    1    3    3  502    0 -0.41711686202E+02 -0.27082427302E+02 -0.19964189957E+03  0.20579674608E+03  0.47000000000E+01 0. -1.
         -5    1    3    3    0  502  0.27759388420E+02  0.23729369252E+02 -0.70737904626E+02  0.79747148923E+02  0.47000000000E+01 0.  1.
          5    1    4    4  503    0 -0.23209831136E+02  0.35576507610E+02 -0.28288590781E+03  0.28609598214E+03  0.47000000000E+01 0. -1.
         -5    1    4    4    0  503  0.37162128917E+02 -0.32223449560E+02 -0.30295695562E+03  0.30695990208E+03  0.47000000000E+01 0.  1.
<mgrwt>
<rscale>  0 0.92114199E+02</rscale>
<asrwt>0</asrwt>
<pdfrwt beam="1">  1        2 0.13344792E+00 0.92213997E+02</pdfrwt>
<pdfrwt beam="2">  1       -2 0.17213158E-02 0.92213997E+02</pdfrwt>
<totfact> 0.28065988E+04</totfact>
</mgrwt>
</event>
<event>
 8    1  0.3466492E-004  0.1033287E+03  0.7546771E-02  0.1273628E+00
         -2   -1    0    0    0  501 -0.00000000000E+00  0.00000000000E+00  0.77882420847E+02  0.77882420847E+02  0.00000000000E+00 0.  1.
          2   -1    0    0  501    0  0.00000000000E+00 -0.00000000000E+00 -0.13662433221E+03  0.13662433221E+03  0.00000000000E+00 0. -1.
         23    2    1    2    0    0  0.57982865564E+02 -0.34106029583E+02 -0.28398020047E+02  0.10681473439E+03  0.77959643331E+02 0.  0.
         23    2    1    2    0    0 -0.57982865564E+02  0.34106029583E+02 -0.30343891316E+02  0.10769201866E+03  0.78432041862E+02 0.  0.
          5    1    4    4  502    0  0.19139970227E+02  0.10558633360E+02 -0.38795231753E+01  0.22692816017E+02  0.47000000000E+01 0. -1.
         -5    1    3    3    0  503  0.41138712702E+02 -0.64520702853E+01 -0.51770040350E+02  0.66605179765E+02  0.47000000000E+01 0. -1.
          5    1    3    3  503    0  0.16844152862E+02 -0.27653959298E+02  0.23372020302E+02  0.40209554629E+02  0.47000000000E+01 0.  1.
         -5    1    4    4    0  502 -0.77122835791E+02  0.23547396223E+02 -0.26464368141E+02  0.84999202646E+02  0.47000000000E+01 0.  1.
<mgrwt>
<rscale>  0 0.10323905E+03</rscale>
<asrwt>0</asrwt>
<pdfrwt beam="1">  1        2 0.21019128E-01 0.10332869E+03</pdfrwt>
<pdfrwt beam="2">  1       -2 0.11981911E-01 0.10332869E+03</pdfrwt>
<totfact> 0.11886853E+04</totfact>
</mgrwt>
</event>
<event>
 8    1  0.3466492E-004  0.1205913E+03  0.7546771E-02  0.1242353E+00
         -2   -1    0    0    0  501 -0.00000000000E+00  0.00000000000E+00  0.21501169547E+02  0.21501169547E+02  0.00000000000E+00 0.  1.
          2   -1    0    0  501    0  0.00000000000E+00 -0.00000000000E+00 -0.68482749246E+03  0.68482749246E+03  0.00000000000E+00 0. -1.
         23    2    1    2    0    0 -0.10850533749E+02 -0.77124828774E+02 -0.28495755812E+03  0.30920755669E+03  0.91337450611E+02 0.  0.
         23    2    1    2    0    0  0.10850533749E+02  0.77124828774E+02 -0.37836876479E+03  0.39712110532E+03  0.92066697710E+02 0.  0.
          5    1    3    3  502    0 -0.35235448082E+02  0.29140364568E+01 -0.71877835525E+02  0.80240523738E+02  0.47000000000E+01 0. -1.
         -5    1    3    3    0  502  0.24384914333E+02 -0.80038865231E+02 -0.21307972260E+03  0.22896703295E+03  0.47000000000E+01 0.  1.
          5    1    4    4  503    0 -0.12616775075E+02  0.82838345266E+02 -0.34829620429E+03  0.35826486066E+03  0.47000000000E+01 0. -1.
         -5    1    4    4    0  503  0.23467308825E+02 -0.57135164922E+01 -0.30072560492E+02  0.38856244655E+02  0.47000000000E+01 0.  1.
<mgrwt>
<rscale>  0 0.12045205E+03</rscale>
<asrwt>0</asrwt>
<pdfrwt beam="1">  1        2 0.10535807E+00 0.12059125E+03</pdfrwt>
<pdfrwt beam="2">  1       -2 0.33078723E-02 0.12059125E+03</pdfrwt>
<totfact> 0.14849287E+04</totfact>
</mgrwt>
</event>
<event>
 8    1  0.3466492E-004  0.1149843E+03  0.7546771E-02  0.1252109E+00
          2   -1    0    0  501    0  0.00000000000E+00  0.00000000000E+00  0.23541729826E+03  0.23541729826E+03  0.00000000000E+00 0. -1.
         -2   -1    0    0    0  501 -0.00000000000E+00 -0.00000000000E+00 -0.63139268776E+02  0.63139268776E+02  0.00000000000E+00 0.  1.
         23    2    1    2    0    0  0.55630076061E+02  0.38442261162E+02  0.13732260087E+03  0.17837640393E+03  0.91586745569E+02 0.  0.
         23    2    1    2    0    0 -0.55630076061E+02 -0.38442261162E+02  0.34955428607E+02  0.12018016310E+03  0.92999337673E+02 0.  0.
          5    1    4    4  502    0 -0.91702615747E+01 -0.22194066312E+02  0.59969620759E+02  0.64769712758E+02  0.47000000000E+01 0. -1.
         -5    1    3    3    0  503  0.25811285116E+02  0.67119725412E+02  0.82688051184E+02  0.10968447378E+03  0.47000000000E+01 0.  1.
          5    1    3    3  503    0  0.29818790945E+02 -0.28677464249E+02  0.54634549689E+02  0.68691930158E+02  0.47000000000E+01 0. -1.
         -5    1    4    4    0  502 -0.46459814486E+02 -0.16248194850E+02 -0.25014192152E+02  0.55410450341E+02  0.47000000000E+01 0.  1.
<mgrwt>
<rscale>  0 0.11469837E+03</rscale>
<asrwt>0</asrwt>
<pdfrwt beam="1">  1        2 0.36218045E-01 0.11498430E+03</pdfrwt>
<pdfrwt beam="2">  1       -2 0.97137338E-02 0.11498430E+03</pdfrwt>
<totfact> 0.92427807E+03</totfact>
</mgrwt>
</event>
<event>
 8    1  0.3466492E-004  0.1012420E+03  0.7546771E-02  0.1277826E+00
         -1   -1    0    0    0  501 -0.00000000000E+00  0.00000000000E+00  0.21410146870E+02  0.21410146870E+02  0.00000000000E+00 0.  1.
          1   -1    0    0  501    0  0.00000000000E+00 -0.00000000000E+00 -0.47992248131E+03  0.47992248131E+03  0.00000000000E+00 0. -1.
         23    2    1    2    0    0 -0.16162020287E+02 -0.37551903270E+02 -0.21225264163E+03  0.23516189809E+03  0.92620613771E+02 0.  0.
         23    2    1    2    0    0  0.16162020287E+02  0.37551903270E+02 -0.24625969281E+03  0.26617073009E+03  0.92367012050E+02 0.  0.
          5    1    3    3  502    0  0.19490629874E+02 -0.32796471168E+02 -0.28471804674E+02  0.47835414029E+02  0.47000000000E+01 0. -1.
         -5    1    4    4    0  503 -0.21686035906E+02  0.23192885910E+02 -0.23671189643E+02  0.39882443873E+02  0.47000000000E+01 0.  1.
          5    1    4    4  503    0  0.37848056193E+02  0.14359017361E+02 -0.22258850317E+03  0.22628828622E+03  0.47000000000E+01 0. -1.
         -5    1    3    3    0  502 -0.35652650161E+02 -0.47554321022E+01 -0.18378083696E+03  0.18732648406E+03  0.47000000000E+01 0.  1.
<mgrwt>
<rscale>  0 0.10118392E+03</rscale>
<asrwt>0</asrwt>
<pdfrwt beam="1">  1        1 0.73834216E-01 0.10124196E+03</pdfrwt>
<pdfrwt beam="2">  1       -1 0.32938693E-02 0.10124196E+03</pdfrwt>
<totfact> 0.14444434E+04</totfact>
</mgrwt>
</event>
<event>
 8    1  0.3466492E-004  0.9401605E+02  0.7546771E-02  0.1295975E+00
          2   -1    0    0  501    0  0.00000000000E+00  0.00000000000E+00  0.69271467395E+03  0.69271467395E+03  0.00000000000E+00 0. -1.
         -2   -1    0    0    0  501 -0.00000000000E+00 -0.00000000000E+00 -0.12188093793E+02  0.12188093793E+02  0.00000000000E+00 0.  1.
         23    2    1    2    0    0 -0.92418536229E+01 -0.51659879903E+01  0.31939923137E+03  0.33173795088E+03  0.89006178254E+02 0.  0.
         23    2    1    2    0    0  0.92418536229E+01  0.51659879903E+01  0.36112734879E+03  0.37316481687E+03  0.93417981186E+02 0.  0.
          5    1    3    3  502    0 -0.29330652652E+02 -0.38382057358E+02  0.21076089623E+03  0.21627694026E+03  0.47000000000E+01 0. -1.
         -5    1    3    3    0  502  0.20088799029E+02  0.33216069368E+02  0.10863833514E+03  0.11546101062E+03  0.47000000000E+01 0.  1.
          5    1    4    4  503    0 -0.34735276764E+02  0.27301270744E+02  0.18067405631E+03  0.18605672108E+03  0.47000000000E+01 0. -1.
         -5    1    4    4    0  503  0.43977130386E+02 -0.22135282753E+02  0.18045329248E+03  0.18710809578E+03  0.47000000000E+01 0.  1.
<mgrwt>
<rscale>  0 0.92900776E+02</rscale>
<asrwt>0</asrwt>
<pdfrwt beam="1">  1        2 0.10657146E+00 0.94016054E+02</pdfrwt>
<pdfrwt beam="2">  1       -2 0.18750919E-02 0.94016054E+02</pdfrwt>
<totfact> 0.32657401E+04</totfact>
</mgrwt>
</event>
<event>
 8    1  0.3466492E-004  0.2921148E+03  0.7546771E-02  0.1089321E+00
          1   -1    0    0  501    0  0.00000000000E+00  0.00000000000E+00  0.65909159540E+02  0.65909159540E+02  0.00000000000E+00 0. -1.
         -1   -1    0    0    0  501 -0.00000000000E+00 -0.00000000000E+00 -0.14032550209E+04  0.14032550209E+04  0.00000000000E+00 0.  1.
         23    2    1    2    0    0 -0.12717819970E+02 -0.27701635086E+03 -0.46265310921E+03  0.54715533456E+03  0.91821887829E+02 0.  0.
         23    2    1    2    0    0  0.12717819970E+02  0.27701635086E+03 -0.87469275216E+03  0.92200884590E+03  0.90072746377E+02 0.  0.
          5    1    3    3  502    0  0.15901906144E+01 -0.18330707949E+03 -0.21879132908E+03  0.28547460444E+03  0.47000000000E+01 0. -1.
         -5    1    4    4    0  503 -0.35612921773E+02  0.17371229327E+03 -0.52526198178E+03  0.55440642180E+03  0.47000000000E+01 0.  1.
          5    1    4    4  503    0  0.48330741743E+02  0.10330405758E+03 -0.34943077038E+03  0.36760242410E+03  0.47000000000E+01 0. -1.
         -5    1    3    3    0  502 -0.14308010584E+02 -0.93709271365E+02 -0.24386178014E+03  0.26168073013E+03  0.47000000000E+01 0.  1.
<mgrwt>
<rscale>  0 0.29197844E+03</rscale>
<asrwt>0</asrwt>
<pdfrwt beam="1">  1        1 0.10139872E-01 0.29211481E+03</pdfrwt>
<pdfrwt beam="2">  1       -1 0.21588537E+00 0.29211481E+03</pdfrwt>
<totfact> 0.82483803E+01</totfact>
</mgrwt>
</event>
<event>
 8    1  0.3466492E-004  0.1100807E+03  0.7546771E-02  0.1261618E+00
         -1   -1    0    0    0  501 -0.00000000000E+00  0.00000000000E+00  0.78411699468E+01  0.78411699468E+01  0.00000000000E+00 0.  1.
          1   -1    0    0  501    0  0.00000000000E+00 -0.00000000000E+00 -0.15179996194E+04  0.15179996194E+04  0.00000000000E+00 0. -1.
         23    2    1    2    0    0  0.57867715818E+02  0.23248697279E+02 -0.80263409485E+03  0.80980414833E+03  0.87590490245E+02 0.  0.
         23    2    1    2    0    0 -0.57867715818E+02 -0.23248697279E+02 -0.70752435460E+03  0.71603664101E+03  0.90711545349E+02 0.  0.
          5    1    4    4  502    0 -0.70998418900E+02  0.12010568516E+02 -0.46632814581E+03  0.47187822457E+03  0.47000000000E+01 0. -1.
         -5    1    4    4    0  502  0.13130703082E+02 -0.35259265794E+02 -0.24119620879E+03  0.24415841645E+03  0.47000000000E+01 0.  1.
          5    1    3    3  503    0  0.15627266047E+02  0.50644735785E+02 -0.30488766796E+03  0.30949584937E+03  0.47000000000E+01 0. -1.
         -5    1    3    3    0  503  0.42240449771E+02 -0.27396038507E+02 -0.49774642690E+03  0.50030829896E+03  0.47000000000E+01 0.  1.
<mgrwt>
<rscale>  0 0.10943571E+03</rscale>
<asrwt>0</asrwt>
<pdfrwt beam="1">  1        1 0.23353840E+00 0.11008069E+03</pdfrwt>
<pdfrwt beam="2">  1       -1 0.12063338E-02 0.11008069E+03</pdfrwt>
<totfact> 0.96126963E+03</totfact>
</mgrwt>
</event>
<event>
 8    1  0.3466492E-004  0.2111662E+03  0.7546771E-02  0.1140735E+00
         -2   -1    0    0    0  501 -0.00000000000E+00  0.00000000000E+00  0.48165850923E+02  0.48165850923E+02  0.00000000000E+00 0.  1.
          2   -1    0    0  501    0  0.00000000000E+00 -0.00000000000E+00 -0.94009658787E+03  0.94009658787E+03  0.00000000000E+00 0. -1.
         23    2    1    2    0    0 -0.18957044798E+03 -0.13010656716E+02 -0.38137703594E+03  0.43593530215E+03  0.92113583067E+02 0.  0.
         23    2    1    2    0    0  0.18957044798E+03  0.13010656716E+02 -0.51055370101E+03  0.55232713664E+03  0.91071138793E+02 0.  0.
          5    1    3    3  502    0 -0.11281104911E+03 -0.37575089963E+02 -0.15378039910E+03  0.19444464851E+03  0.47000000000E+01 0. -1.
         -5    1    3    3    0  502 -0.76759398866E+02  0.24564433247E+02 -0.22759663684E+03  0.24149065364E+03  0.47000000000E+01 0.  1.
          5    1    4    4  503    0  0.22242617133E+01  0.22086793642E+02 -0.45278530251E+02  0.50645918841E+02  0.47000000000E+01 0. -1.
         -5    1    4    4    0  503  0.18734618627E+03 -0.90761369254E+01 -0.46527517076E+03  0.50168121780E+03  0.47000000000E+01 0.  1.
<mgrwt>
<rscale>  0 0.21105290E+03</rscale>
<asrwt>0</asrwt>
<pdfrwt beam="1">  1        2 0.14463025E+00 0.21116615E+03</pdfrwt>
<pdfrwt beam="2">  1       -2 0.74101306E-02 0.21116615E+03</pdfrwt>
<totfact> 0.30331260E+03</totfact>
</mgrwt>
</event>
<event>
 8    1  0.3466492E-004  0.1713297E+03  0.7546771E-02  0.1176672E+00
          1   -1    0    0  501    0  0.00000000000E+00  0.00000000000E+00  0.13681078852E+04  0.13681078852E+04  0.00000000000E+00 0. -1.
         -1   -1    0    0    0  501 -0.00000000000E+00 -0.00000000000E+00 -0.23024234273E+02  0.23024234273E+02  0.00000000000E+00 0.  1.
         23    2    1    2    0    0  0.14387615928E+03  0.46056817890E+01  0.48393357926E+03  0.51310404246E+03  0.91446638732E+02 0.  0.
         23    2    1    2    0    0 -0.14387615928E+03 -0.46056817890E+01  0.86115007162E+03  0.87802807697E+03  0.92910153280E+02 0.  0.
          5    1    4    4  502    0 -0.47668758219E+02 -0.44701227828E+02  0.27782845516E+03  0.28544920875E+03  0.47000000000E+01 0. -1.
         -5    1    4    4    0  502 -0.96207401061E+02  0.40095546039E+02  0.58332161647E+03  0.59257886823E+03  0.47000000000E+01 0.  1.
          5    1    3    3  503    0  0.59738092329E+02 -0.10299579219E+02  0.34203757541E+03  0.34739964594E+03  0.47000000000E+01 0. -1.
         -5    1    3    3    0  503  0.84138066952E+02  0.14905261008E+02  0.14189600385E+03  0.16570439652E+03  0.47000000000E+01 0.  1.
<mgrwt>
<rscale>  0 0.17113203E+03</rscale>
<asrwt>0</asrwt>
<pdfrwt beam="1">  1        1 0.21047807E+00 0.17132968E+03</pdfrwt>
<pdfrwt beam="2">  1       -1 0.35421910E-02 0.17132968E+03</pdfrwt>
<totfact> 0.25753824E+03</totfact>
</mgrwt>
</event>
<event>
 8    1  0.3466492E-004  0.1335287E+03  0.7546771E-02  0.1227695E+00
         -1   -1    0    0    0  501 -0.00000000000E+00  0.00000000000E+00  0.31690407858E+02  0.31690407858E+02  0.00000000000E+00 0.  1.
          1   -1    0    0  501    0  0.00000000000E+00 -0.00000000000E+00 -0.59152346000E+03  0.59152346000E+03  0.00000000000E+00 0. -1.
         23    2    1    2    0    0  0.62768787752E+02  0.43438918140E+02 -0.17396012426E+03  0.21929899686E+03  0.10955849976E+03 0.  0.
         23    2    1    2    0    0 -0.62768787752E+02 -0.43438918140E+02 -0.38587292788E+03  0.40391487099E+03  0.91773886322E+02 0.  0.
          5    1    3    3  502    0  0.55474054055E+02 -0.22635598092E+02 -0.11740924336E+03  0.13189678313E+03  0.47000000000E+01 0. -1.
         -5    1    3    3    0  502  0.72947336970E+01  0.66074516232E+02 -0.56550880897E+02  0.87402213732E+02  0.47000000000E+01 0.  1.
          5    1    4    4  503    0 -0.42787885330E+02 -0.34271084193E+02 -0.37486939788E+03  0.37888582160E+03  0.47000000000E+01 0. -1.
         -5    1    4    4    0  503 -0.19980902422E+02 -0.91678339470E+01 -0.11003530001E+02  0.25029049389E+02  0.47000000000E+01 0.  1.
<mgrwt>
<rscale>  0 0.12983904E+03</rscale>
<asrwt>0</asrwt>
<pdfrwt beam="1">  1        1 0.91003604E-01 0.13352874E+03</pdfrwt>
<pdfrwt beam="2">  1       -1 0.48754476E-02 0.13352874E+03</pdfrwt>
<totfact> 0.63083539E+03</totfact>
</mgrwt>
</event>
<event>
 8    1  0.3466492E-004  0.9400300E+02  0.7546771E-02  0.1294683E+00
         -1   -1    0    0    0  501 -0.00000000000E+00  0.00000000000E+00  0.14296577619E+02  0.14296577619E+02  0.00000000000E+00 0.  1.
          1   -1    0    0  501    0  0.00000000000E+00 -0.00000000000E+00 -0.60462836968E+03  0.60462836968E+03  0.00000000000E+00 0. -1.
         23    2    1    2    0    0  0.17498549429E+02 -0.55029709566E+01 -0.30851648378E+03  0.32251974309E+03  0.92195889247E+02 0.  0.
         23    2    1    2    0    0 -0.17498549429E+02  0.55029709566E+01 -0.28181530828E+03  0.29640520422E+03  0.89998306555E+02 0.  0.
          5    1    4    4  502    0  0.35899840883E+02  0.12704180577E+01 -0.85496909134E+02  0.92855931468E+02  0.47000000000E+01 0. -1.
         -5    1    4    4    0  502 -0.53398390312E+02  0.42325528988E+01 -0.19631839915E+03  0.20354927275E+03  0.47000000000E+01 0.  1.
          5    1    3    3  503    0 -0.85219717581E+01  0.37340730958E+02 -0.18783096381E+03  0.19175378785E+03  0.47000000000E+01 0. -1.
         -5    1    3    3    0  503  0.26020521187E+02 -0.42843701915E+02 -0.12068551997E+03  0.13076595523E+03  0.47000000000E+01 0.  1.
<mgrwt>
<rscale>  0 0.93459724E+02</rscale>
<asrwt>0</asrwt>
<pdfrwt beam="1">  1        1 0.93019746E-01 0.94003000E+02</pdfrwt>
<pdfrwt beam="2">  1       -1 0.21994735E-02 0.94003000E+02</pdfrwt>
<totfact> 0.18958763E+04</totfact>
</mgrwt>
</event>
<event>
 8    1  0.3466492E-004  0.9645838E+02  0.7546771E-02  0.1288868E+00
         -2   -1    0    0    0  501 -0.00000000000E+00  0.00000000000E+00  0.65799574607E+02  0.65799574607E+02  0.00000000000E+00 0.  1.
          2   -1    0    0  501    0  0.00000000000E+00 -0.00000000000E+00 -0.32689861759E+03  0.32689861759E+03  0.00000000000E+00 0. -1.
         23    2    1    2    0    0 -0.13829726882E+02 -0.19813384891E+02  0.18828900005E+02  0.96617339171E+02  0.91632697148E+02 0.  0.
         23    2    1    2    0    0  0.13829726882E+02  0.19813384891E+02 -0.27992794299E+03  0.29608085302E+03  0.93383010748E+02 0.  0.
          5    1    4    4  502    0  0.16922115766E+02  0.51923712774E+02 -0.23008299546E+03  0.23652210203E+03  0.47000000000E+01 0. -1.
         -5    1    4    4    0  502 -0.30923888843E+01 -0.32110327883E+02 -0.49844947532E+02  0.59558750997E+02  0.47000000000E+01 0.  1.
          5    1    3    3  503    0 -0.30759611351E+02  0.40201612463E+01 -0.27442251402E+02  0.41683120672E+02  0.47000000000E+01 0. -1.
         -5    1    3    3    0  503  0.16929884469E+02 -0.23833546137E+02  0.46271151408E+02  0.54934218500E+02  0.47000000000E+01 0.  1.
<mgrwt>
<rscale>  0 0.96032186E+02</rscale>
<asrwt>0</asrwt>
<pdfrwt beam="1">  1        2 0.50292095E-01 0.96458376E+02</pdfrwt>
<pdfrwt beam="2">  1       -2 0.10123012E-01 0.96458376E+02</pdfrwt>
<totfact> 0.60538012E+03</totfact>
</mgrwt>
</event>
<event>
 8    1  0.3466492E-004  0.9161434E+02  0.7546771E-02  0.1300412E+00
          2   -1    0    0  501    0  0.00000000000E+00  0.00000000000E+00  0.94885791280E+02  0.94885791280E+02  0.00000000000E+00 0. -1.
         -2   -1    0    0    0  501 -0.00000000000E+00 -0.00000000000E+00 -0.94099333765E+02  0.94099333765E+02  0.00000000000E+00 0.  1.
         23    2    1    2    0    0  0.83511350242E+01 -0.31304798054E+01 -0.27025051583E+02  0.93242409177E+02  0.88793311100E+02 0.  0.
         23    2    1    2    0    0 -0.83511350242E+01  0.31304798054E+01  0.27811509098E+02  0.95742715868E+02  0.91179198524E+02 0.  0.
          5    1    4    4  502    0 -0.36346853619E+02  0.22602646382E+02  0.40443637530E+02  0.59074116228E+02  0.47000000000E+01 0. -1.
         -5    1    4    4    0  502  0.27995718594E+02 -0.19472166577E+02 -0.12632128432E+02  0.36668599640E+02  0.47000000000E+01 0.  1.
          5    1    3    3  503    0 -0.16690074570E+02  0.28995564024E+02  0.12756573366E+02  0.36112622256E+02  0.47000000000E+01 0. -1.
         -5    1    3    3    0  503  0.25041209594E+02 -0.32126043829E+02 -0.39781624949E+02  0.57129786921E+02  0.47000000000E+01 0.  1.
<mgrwt>
<rscale>  0 0.91014921E+02</rscale>
<asrwt>0</asrwt>
<pdfrwt beam="1">  1        2 0.14597814E-01 0.91614342E+02</pdfrwt>
<pdfrwt beam="2">  1       -2 0.14476821E-01 0.91614342E+02</pdfrwt>
<totfact> 0.13146835E+04</totfact>
</mgrwt>
</event>
<event>
 8    1  0.3466492E-004  0.9423042E+02  0.7546771E-02  0.1293733E+00
          3   -1    0    0  501    0  0.00000000000E+00  0.00000000000E+00  0.52653032417E+02  0.52653032417E+02  0.00000000000E+00 0. -1.
         -3   -1    0    0    0  501 -0.00000000000E+00 -0.00000000000E+00 -0.17210283892E+03  0.17210283892E+03  0.00000000000E+00 0.  1.
         23    2    1    2    0    0  0.22292840796E+02 -0.39442073421E-01 -0.38317881842E+02  0.10041054297E+03  0.90094643374E+02 0.  0.
         23    2    1    2    0    0 -0.22292840796E+02  0.39442073421E-01 -0.81131924665E+02  0.12434532837E+03  0.91555443207E+02 0.  0.
          5    1    4    4  502    0 -0.47811814360E+02 -0.19457649952E+02 -0.20826876447E+02  0.55860706374E+02  0.47000000000E+01 0. -1.
         -5    1    4    4    0  502  0.25518973564E+02  0.19497092025E+02 -0.60305048219E+02  0.68484621995E+02  0.47000000000E+01 0.  1.
          5    1    3    3  503    0 -0.12746859267E+02 -0.37945509209E+02 -0.22787542545E+02  0.46300174790E+02  0.47000000000E+01 0. -1.
         -5    1    3    3    0  503  0.35039700062E+02  0.37906067136E+02 -0.15530339296E+02  0.54110368183E+02  0.47000000000E+01 0.  1.
<mgrwt>
<rscale>  0 0.93873725E+02</rscale>
<asrwt>0</asrwt>
<pdfrwt beam="1">  1        3 0.81004666E-02 0.94230417E+02</pdfrwt>
<pdfrwt beam="2">  1       -3 0.26477360E-01 0.94230417E+02</pdfrwt>
<totfact> 0.30052184E+03</totfact>
</mgrwt>
</event>
<event>
 8    1  0.3466492E-004  0.1109840E+03  0.7546771E-02  0.1262500E+00
         -1   -1    0    0    0  501 -0.00000000000E+00  0.00000000000E+00  0.25899785318E+02  0.25899785318E+02  0.00000000000E+00 0.  1.
          1   -1    0    0  501    0  0.00000000000E+00 -0.00000000000E+00 -0.47702010732E+03  0.47702010732E+03  0.00000000000E+00 0. -1.
         23    2    1    2    0    0  0.60443091198E+02 -0.15462146238E+02 -0.30085707896E+03  0.32067497430E+03  0.91787863804E+02 0.  0.
         23    2    1    2    0    0 -0.60443091198E+02  0.15462146238E+02 -0.15026324304E+03  0.18224491833E+03  0.82107994802E+02 0.  0.
          5    1    3    3  502    0  0.17471663099E+02  0.15594537353E+02 -0.23400622910E+03  0.23522213727E+03  0.47000000000E+01 0. -1.
         -5    1    4    4    0  503  0.19531107232E+02  0.10390532764E+02 -0.28146625807E+02  0.36107476583E+02  0.47000000000E+01 0.  1.
          5    1    4    4  503    0 -0.79974198430E+02  0.50716134738E+01 -0.12211661723E+03  0.14613744175E+03  0.47000000000E+01 0. -1.
         -5    1    3    3    0  502  0.42971428099E+02 -0.31056683591E+02 -0.66850849862E+02  0.85452837026E+02  0.47000000000E+01 0.  1.
<mgrwt>
<rscale>  0 0.10896408E+03</rscale>
<asrwt>0</asrwt>
<pdfrwt beam="1">  1        1 0.73387705E-01 0.11098404E+03</pdfrwt>
<pdfrwt beam="2">  1       -1 0.39845826E-02 0.11098404E+03</pdfrwt>
<totfact> 0.11123020E+04</totfact>
</mgrwt>
</event>
<event>
 8    1  0.3466492E-004  0.1128159E+03  0.7546771E-02  0.1256088E+00
         -1   -1    0    0    0  501 -0.00000000000E+00  0.00000000000E+00  0.18391898971E+02  0.18391898971E+02  0.00000000000E+00 0.  1.
          1   -1    0    0  501    0  0.00000000000E+00 -0.00000000000E+00 -0.90323740063E+03  0.90323740063E+03  0.00000000000E+00 0. -1.
         23    2    1    2    0    0  0.64059635002E+02  0.14221561544E+02 -0.21714842106E+03  0.24470568387E+03  0.91768977872E+02 0.  0.
         23    2    1    2    0    0 -0.64059635002E+02 -0.14221561544E+02 -0.66769708060E+03  0.67692361573E+03  0.90001669128E+02 0.  0.
          5    1    4    4  502    0 -0.86366758715E+02 -0.84404615771E+01 -0.48575603514E+03  0.49346881774E+03  0.47000000000E+01 0. -1.
         -5    1    4    4    0  502  0.22307123713E+02 -0.57810999664E+01 -0.18194104545E+03  0.18345479799E+03  0.47000000000E+01 0.  1.
          5    1    3    3  503    0  0.35687782491E+02 -0.18397080132E+02 -0.18813591038E+03  0.19242993829E+03  0.47000000000E+01 0. -1.
         -5    1    3    3    0  503  0.28371852512E+02  0.32618641675E+02 -0.29012510679E+02  0.52275745576E+02  0.47000000000E+01 0.  1.
<mgrwt>
<rscale>  0 0.11245600E+03</rscale>
<asrwt>0</asrwt>
<pdfrwt beam="1">  1        1 0.13895962E+00 0.11281593E+03</pdfrwt>
<pdfrwt beam="2">  1       -1 0.28295226E-02 0.11281593E+03</pdfrwt>
<totfact> 0.74777808E+03</totfact>
</mgrwt>
</event>
<event>
 8    1  0.3466492E-004  0.9658087E+02  0.7546771E-02  0.1290582E+00
          1   -1    0    0  501    0  0.00000000000E+00  0.00000000000E+00  0.72330116491E+03  0.72330116491E+03  0.00000000000E+00 0. -1.
         -1   -1    0    0    0  501 -0.00000000000E+00 -0.00000000000E+00 -0.15159312712E+02  0.15159312712E+02  0.00000000000E+00 0.  1.
         23    2    1    2    0    0 -0.17061229217E+02  0.49816454165E+01  0.19926866129E+03  0.22144042740E+03  0.94931349815E+02 0.  0.
         23    2    1    2    0    0  0.17061229217E+02 -0.49816454165E+01  0.50887319090E+03  0.51702005022E+03  0.89676672457E+02 0.  0.
          5    1    3    3  502    0  0.20135894103E+02 -0.20096443841E+02  0.15699395482E+03  0.15961990207E+03  0.47000000000E+01 0. -1.
         -5    1    3    3    0  502 -0.37197123320E+02  0.25078089258E+02  0.42274706472E+02  0.61820525324E+02  0.47000000000E+01 0.  1.
          5    1    4    4  503    0  0.32890409480E+02 -0.30794471407E+02  0.43038281850E+03  0.43276037129E+03  0.47000000000E+01 0. -1.
         -5    1    4    4    0  503 -0.15829180263E+02  0.25812825990E+02  0.78490372404E+02  0.84259678931E+02  0.47000000000E+01 0.  1.
<mgrwt>
<rscale>  0 0.95264231E+02</rscale>
<asrwt>0</asrwt>
<pdfrwt beam="1">  1        1 0.11127708E+00 0.96580865E+02</pdfrwt>
<pdfrwt beam="2">  1       -1 0.23322025E-02 0.96580865E+02</pdfrwt>
<totfact> 0.13636806E+04</totfact>
</mgrwt>
</event>
<event>
 8    1  0.3466492E-004  0.1230701E+03  0.7546771E-02  0.1239310E+00
          1   -1    0    0  501    0  0.00000000000E+00  0.00000000000E+00  0.69923846910E+03  0.69923846910E+03  0.00000000000E+00 0. -1.
         -1   -1    0    0    0  501 -0.00000000000E+00 -0.00000000000E+00 -0.26524702174E+02  0.26524702174E+02  0.00000000000E+00 0.  1.
         23    2    1    2    0    0  0.39605834424E+02  0.66843795684E+02  0.17618895237E+03  0.21491581713E+03  0.95443943616E+02 0.  0.
         23    2    1    2    0    0 -0.39605834424E+02 -0.66843795684E+02  0.49652481455E+03  0.51084735414E+03  0.91604653950E+02 0.  0.
          5    1    4    4  502    0 -0.35195472139E+02 -0.40841973087E+02  0.47014769901E+03  0.47325229731E+03  0.47000000000E+01 0. -1.
         -5    1    4    4    0  502 -0.44103622854E+01 -0.26001822597E+02  0.26377115543E+02  0.37595056833E+02  0.47000000000E+01 0.  1.
          5    1    3    3  503    0  0.59031726778E+02  0.18406744806E+02  0.13396468720E+03  0.14762174784E+03  0.47000000000E+01 0. -1.
         -5    1    3    3    0  503 -0.19425892354E+02  0.48437050878E+02  0.42224265174E+02  0.67294069286E+02  0.47000000000E+01 0.  1.
<mgrwt>
<rscale>  0 0.12232516E+03</rscale>
<asrwt>0</asrwt>
<pdfrwt beam="1">  1        1 0.10757514E+00 0.12307015E+03</pdfrwt>
<pdfrwt beam="2">  1       -1 0.40807239E-02 0.12307015E+03</pdfrwt>
<totfact> 0.64687302E+03</totfact>
</mgrwt>
</event>
<event>
 8    1  0.3466492E-004  0.1277224E+03  0.7546771E-02  0.1231311E+00
          2   -1    0    0  501    0  0.00000000000E+00  0.00000000000E+00  0.13307408668E+04  0.13307408668E+04  0.00000000000E+00 0. -1.
         -2   -1    0    0    0  501 -0.00000000000E+00 -0.00000000000E+00 -0.12281802072E+02  0.12281802072E+02  0.00000000000E+00 0.  1.
         23    2    1    2    0    0 -0.44620225677E+02  0.74987233134E+02  0.73197761543E+03  0.74303716767E+03  0.93268179864E+02 0.  0.
         23    2    1    2    0    0  0.44620225677E+02 -0.74987233134E+02  0.58648144928E+03  0.59998550119E+03  0.91695483035E+02 0.  0.
          5    1    4    4  502    0 -0.24952677931E+02 -0.13274772383E+02  0.22005263909E+03  0.22191013877E+03  0.47000000000E+01 0. -1.
         -5    1    4    4    0  502  0.69572903608E+02 -0.61712460751E+02  0.36642881019E+03  0.37807536241E+03  0.47000000000E+01 0.  1.
          5    1    3    3  503    0 -0.56041393936E+02  0.28100695920E+02  0.58272632549E+03  0.58610779501E+03  0.47000000000E+01 0. -1.
         -5    1    3    3    0  503  0.11421168260E+02  0.46886537214E+02  0.14925128994E+03  0.15692937266E+03  0.47000000000E+01 0.  1.
<mgrwt>
<rscale>  0 0.12743543E+03</rscale>
<asrwt>0</asrwt>
<pdfrwt beam="1">  1        2 0.20472925E+00 0.12772237E+03</pdfrwt>
<pdfrwt beam="2">  1       -2 0.18895091E-02 0.12772237E+03</pdfrwt>
<totfact> 0.13665189E+04</totfact>
</mgrwt>
</event>
<event>
 8    1  0.3466492E-004  0.1002015E+03  0.7546771E-02  0.1280659E+00
         -1   -1    0    0    0  501 -0.00000000000E+00  0.00000000000E+00  0.40393819574E+03  0.40393819574E+03  0.00000000000E+00 0.  1.
          1   -1    0    0  501    0  0.00000000000E+00 -0.00000000000E+00 -0.25538937140E+02  0.25538937140E+02  0.00000000000E+00 0. -1.
         23    2    1    2    0    0  0.29848892638E+02 -0.23863146222E+02  0.14429774155E+03  0.17483256433E+03  0.91017477409E+02 0.  0.
         23    2    1    2    0    0 -0.29848892638E+02  0.23863146222E+02  0.23410151705E+03  0.25464456856E+03  0.92627910849E+02 0.  0.
          5    1    3    3  502    0  0.12981572336E+00 -0.54672068563E+02  0.91579405711E+02  0.10676108600E+03  0.47000000000E+01 0. -1.
         -5    1    3    3    0  502  0.29719076915E+02  0.30808922341E+02  0.52718335838E+02  0.68071478329E+02  0.47000000000E+01 0.  1.
          5    1    4    4  503    0 -0.50896014638E+02 -0.16551429516E+02  0.11161240814E+03  0.12386998739E+03  0.47000000000E+01 0. -1.
         -5    1    4    4    0  503  0.21047122000E+02  0.40414575738E+02  0.12248910891E+03  0.13077458116E+03  0.47000000000E+01 0.  1.
<mgrwt>
<rscale>  0 0.99827691E+02</rscale>
<asrwt>0</asrwt>
<pdfrwt beam="1">  1        1 0.39290675E-02 0.10020148E+03</pdfrwt>
<pdfrwt beam="2">  1       -1 0.62144333E-01 0.10020148E+03</pdfrwt>
<totfact> 0.58759107E+03</totfact>
</mgrwt>
</event>
<event>
 8    1  0.3466492E-004  0.8185493E+02  0.7546771E-02  0.1324632E+00
         -2   -1    0    0    0  501 -0.00000000000E+00  0.00000000000E+00  0.30877613141E+02  0.30877613141E+02  0.00000000000E+00 0. -1.
          2   -1    0    0  501    0  0.00000000000E+00 -0.00000000000E+00 -0.24899304241E+03  0.24899304241E+03  0.00000000000E+00 0.  1.
         23    2    1    2    0    0 -0.20286683562E+02 -0.47170075820E+01 -0.56023533407E+02  0.98283176812E+02  0.78020169562E+02 0.  0.
         23    2    1    2    0    0  0.20286683562E+02  0.47170075820E+01 -0.16209189586E+03  0.18158747874E+03  0.79160786000E+02 0.  0.
          5    1    4    4  502    0 -0.22422977785E+02  0.17859458395E+02 -0.10494702093E+03  0.10889314666E+03  0.47000000000E+01 0. -1.
         -5    1    4    4    0  502  0.42709661347E+02 -0.13142450813E+02 -0.57144874928E+02  0.72694332078E+02  0.47000000000E+01 0.  1.
          5    1    3    3  503    0  0.29089348421E+02  0.37503585364E+01 -0.14546418315E+02  0.33074819221E+02  0.47000000000E+01 0. -1.
         -5    1    3    3    0  503 -0.49376031983E+02 -0.84673661184E+01 -0.41477115092E+02  0.65208357591E+02  0.47000000000E+01 0.  1.
<mgrwt>
<rscale>  0 0.81577889E+02</rscale>
<asrwt>0</asrwt>
<pdfrwt beam="1">  1        2 0.38306621E-01 0.81854931E+02</pdfrwt>
<pdfrwt beam="2">  1       -2 0.47504021E-02 0.81854931E+02</pdfrwt>
<totfact> 0.24924207E+04</totfact>
</mgrwt>
</event>
<event>
 8    1  0.3466492E-004  0.9834565E+02  0.7546771E-02  0.1285511E+00
          1   -1    0    0  501    0  0.00000000000E+00  0.00000000000E+00  0.98812341334E+02  0.98812341334E+02  0.00000000000E+00 0. -1.
         -1   -1    0    0    0  501 -0.00000000000E+00 -0.00000000000E+00 -0.15822982748E+03  0.15822982748E+03  0.00000000000E+00 0.  1.
         23    2    1    2    0    0 -0.21626895381E+02  0.55294038388E+00  0.51932268683E+02  0.10848027874E+03  0.92752261420E+02 0.  0.
         23    2    1    2    0    0  0.21626895381E+02 -0.55294038388E+00 -0.11134975483E+03  0.14856189007E+03  0.95936640207E+02 0.  0.
          5    1    4    4  502    0 -0.38073775773E+01  0.25163637714E+02  0.52352741220E+01  0.26404599640E+02  0.47000000000E+01 0. -1.
         -5    1    3    3    0  503  0.54728026290E+01 -0.42012312426E+02  0.34658713428E+02  0.54939078810E+02  0.47000000000E+01 0.  1.
          5    1    3    3  503    0 -0.27099698010E+02  0.42565252810E+02  0.17273555255E+02  0.53541199932E+02  0.47000000000E+01 0. -1.
         -5    1    4    4    0  502  0.25434272958E+02 -0.25716578098E+02 -0.11658502895E+03  0.12215729043E+03  0.47000000000E+01 0.  1.
<mgrwt>
<rscale>  0 0.97560346E+02</rscale>
<asrwt>0</asrwt>
<pdfrwt beam="1">  1        1 0.15201899E-01 0.98345652E+02</pdfrwt>
<pdfrwt beam="2">  1       -1 0.24343050E-01 0.98345652E+02</pdfrwt>
<totfact> 0.49739005E+03</totfact>
</mgrwt>
</event>
<event>
 8    1  0.3466492E-004  0.1194340E+03  0.7546771E-02  0.1247409E+00
          2   -1    0    0  501    0  0.00000000000E+00  0.00000000000E+00  0.51960238513E+03  0.51960238513E+03  0.00000000000E+00 0. -1.
         -2   -1    0    0    0  501 -0.00000000000E+00 -0.00000000000E+00 -0.30602394506E+02  0.30602394506E+02  0.00000000000E+00 0.  1.
         23    2    1    2    0    0  0.25978055476E+02 -0.68730138657E+02  0.12725714818E+03  0.16925549562E+03  0.83990176273E+02 0.  0.
         23    2    1    2    0    0 -0.25978055476E+02  0.68730138657E+02  0.36174284245E+03  0.38094928401E+03  0.94158279516E+02 0.  0.
          5    1    3    3  502    0  0.48991960508E+02 -0.13545459612E+02  0.50043216860E+02  0.71484999995E+02  0.47000000000E+01 0. -1.
         -5    1    3    3    0  502 -0.23013905032E+02 -0.55184679045E+02  0.77213931315E+02  0.97770495627E+02  0.47000000000E+01 0.  1.
          5    1    4    4  503    0 -0.44753073147E+01  0.46374000702E+02  0.33895401119E+03  0.34217318425E+03  0.47000000000E+01 0. -1.
         -5    1    4    4    0  503 -0.21502748161E+02  0.22356137955E+02  0.22788831255E+02  0.38776099762E+02  0.47000000000E+01 0.  1.
<mgrwt>
<rscale>  0 0.11742358E+03</rscale>
<asrwt>0</asrwt>
<pdfrwt beam="1">  1        2 0.79938822E-01 0.11943397E+03</pdfrwt>
<pdfrwt beam="2">  1       -2 0.47080611E-02 0.11943397E+03</pdfrwt>
<totfact> 0.12028237E+04</totfact>
</mgrwt>
</event>
<event>
 8    1  0.3466492E-004  0.1584474E+03  0.7546771E-02  0.1196638E+00
         -1   -1    0    0    0  501 -0.00000000000E+00  0.00000000000E+00  0.39431257209E+03  0.39431257209E+03  0.00000000000E+00 0.  1.
          1   -1    0    0  501    0  0.00000000000E+00 -0.00000000000E+00 -0.25142201459E+03  0.25142201459E+03  0.00000000000E+00 0. -1.
         23    2    1    2    0    0  0.93166590857E+02  0.41236039587E+02  0.35713394739E+03  0.39070477692E+03  0.12134719493E+03 0.  0.
         23    2    1    2    0    0 -0.93166590857E+02 -0.41236039587E+02 -0.21424338989E+03  0.25502980975E+03  0.93592463053E+02 0.  0.
          5    1    3    3  502    0  0.51330674687E+02 -0.38392859815E+02  0.10666828410E+03  0.12453538726E+03  0.47000000000E+01 0. -1.
         -5    1    4    4    0  503  0.11795307476E+02 -0.22944354374E+02 -0.18411035730E+02  0.32041050432E+02  0.47000000000E+01 0.  1.
          5    1    4    4  503    0 -0.10496189833E+03 -0.18291685213E+02 -0.19583235416E+03  0.22298875932E+03  0.47000000000E+01 0. -1.
         -5    1    3    3    0  502  0.41835916169E+02  0.79628899402E+02  0.25046566329E+03  0.26616938966E+03  0.47000000000E+01 0.  1.
<mgrwt>
<rscale>  0 0.15316390E+03</rscale>
<asrwt>0</asrwt>
<pdfrwt beam="1">  1        1 0.38680310E-01 0.15844736E+03</pdfrwt>
<pdfrwt beam="2">  1       -1 0.60663472E-01 0.15844736E+03</pdfrwt>
<totfact> 0.31641324E+02</totfact>
</mgrwt>
</event>
<event>
 8    1  0.3466492E-004  0.1307873E+03  0.7546771E-02  0.1226968E+00
         -1   -1    0    0    0  501 -0.00000000000E+00  0.00000000000E+00  0.96212320999E+02  0.96212320999E+02  0.00000000000E+00 0.  1.
          1   -1    0    0  501    0  0.00000000000E+00 -0.00000000000E+00 -0.17771479799E+03  0.17771479799E+03  0.00000000000E+00 0. -1.
         23    2    1    2    0    0 -0.93900625772E+02  0.19617870183E+02 -0.24568450402E+02  0.13128488362E+03  0.86197004356E+02 0.  0.
         23    2    1    2    0    0  0.93900625772E+02 -0.19617870183E+02 -0.56934026589E+02  0.14264223537E+03  0.88899581425E+02 0.  0.
          5    1    3    3  502    0 -0.42203945065E+02  0.41778270878E+02 -0.41215471718E+02  0.72438953648E+02  0.47000000000E+01 0. -1.
         -5    1    4    4    0  503 -0.90103162708E+01 -0.18935152143E+02  0.54962542333E+01  0.22181627456E+02  0.47000000000E+01 0.  1.
          5    1    4    4  503    0  0.10291094204E+03 -0.68271803986E+00 -0.62430280823E+02  0.12046060792E+03  0.47000000000E+01 0. -1.
         -5    1    3    3    0  502 -0.51696680707E+02 -0.22160400695E+02  0.16647021316E+02  0.58845929968E+02  0.47000000000E+01 0.  1.
<mgrwt>
<rscale>  0 0.13032948E+03</rscale>
<asrwt>0</asrwt>
<pdfrwt beam="1">  1        1 0.27340738E-01 0.13078732E+03</pdfrwt>
<pdfrwt beam="2">  1       -1 0.14801896E-01 0.13078732E+03</pdfrwt>
<totfact> 0.53324341E+03</totfact>
</mgrwt>
</event>
<event>
 8    1  0.3466492E-004  0.1363140E+03  0.7546771E-02  0.1225114E+00
          3   -1    0    0  501    0  0.00000000000E+00  0.00000000000E+00  0.65737055898E+02  0.65737055898E+02  0.00000000000E+00 0. -1.
         -3   -1    0    0    0  501 -0.00000000000E+00 -0.00000000000E+00 -0.24949656697E+03  0.24949656697E+03  0.00000000000E+00 0.  1.
         23    2    1    2    0    0 -0.68762663480E+02  0.33347740202E+02 -0.10212359522E+03  0.15634395217E+03  0.90409219739E+02 0.  0.
         23    2    1    2    0    0  0.68762663480E+02 -0.33347740202E+02 -0.81635915848E+02  0.15888967070E+03  0.11287660976E+03 0.  0.
          5    1    4    4  502    0  0.81083648065E+02 -0.59234019578E+02 -0.40157994014E+02  0.10824962606E+03  0.47000000000E+01 0. -1.
         -5    1    3    3    0  503 -0.82040478484E+02  0.86296167278E-03 -0.71679697770E+02  0.10904452844E+03  0.47000000000E+01 0.  1.
          5    1    3    3  503    0  0.13277815004E+02  0.33346877241E+02 -0.30443897453E+02  0.47299423730E+02  0.47000000000E+01 0. -1.
         -5    1    4    4    0  502 -0.12320984585E+02  0.25886279375E+02 -0.41477921834E+02  0.50640044635E+02  0.47000000000E+01 0.  1.
<mgrwt>
<rscale>  0 0.13159106E+03</rscale>
<asrwt>0</asrwt>
<pdfrwt beam="1">  1        3 0.10113393E-01 0.13631399E+03</pdfrwt>
<pdfrwt beam="2">  1       -3 0.38384086E-01 0.13631399E+03</pdfrwt>
<totfact> 0.11228419E+03</totfact>
</mgrwt>
</event>
<event>
 8    1  0.3466492E-004  0.1238630E+03  0.7546771E-02  0.1237471E+00
          2   -1    0    0  501    0  0.00000000000E+00  0.00000000000E+00  0.11848159745E+04  0.11848159745E+04  0.00000000000E+00 0. -1.
         -2   -1    0    0    0  501 -0.00000000000E+00 -0.00000000000E+00 -0.13302518772E+02  0.13302518772E+02  0.00000000000E+00 0.  1.
         23    2    1    2    0    0  0.71541557945E+02 -0.38003970698E+02  0.46442398848E+03  0.48026226673E+03  0.91649917998E+02 0.  0.
         23    2    1    2    0    0 -0.71541557945E+02  0.38003970698E+02  0.70708946723E+03  0.71785622652E+03  0.93699258200E+02 0.  0.
          5    1    3    3  502    0  0.25937075261E+02  0.27981272490E+02  0.20875503966E+03  0.21226502318E+03  0.47000000000E+01 0. -1.
         -5    1    4    4    0  503  0.20576381072E+02 -0.38471066219E+01  0.16456562624E+03  0.16595819662E+03  0.47000000000E+01 0.  1.
          5    1    4    4  503    0 -0.92117939017E+02  0.41851077320E+02  0.54252384099E+03  0.55189802990E+03  0.47000000000E+01 0. -1.
         -5    1    3    3    0  502  0.45604482684E+02 -0.65985243188E+02  0.25566894882E+03  0.26799724355E+03  0.47000000000E+01 0.  1.
<mgrwt>
<rscale>  0 0.12347547E+03</rscale>
<asrwt>0</asrwt>
<pdfrwt beam="1">  1        2 0.18227930E+00 0.12386302E+03</pdfrwt>
<pdfrwt beam="2">  1       -2 0.20465423E-02 0.12386302E+03</pdfrwt>
<totfact> 0.14583499E+04</totfact>
</mgrwt>
</event>
<event>
 8    1  0.3466492E-004  0.1084787E+03  0.7546771E-02  0.1264432E+00
         -2   -1    0    0    0  501 -0.00000000000E+00  0.00000000000E+00  0.17571417817E+02  0.17571417817E+02  0.00000000000E+00 0.  1.
          2   -1    0    0  501    0  0.00000000000E+00 -0.00000000000E+00 -0.82972580366E+03  0.82972580366E+03  0.00000000000E+00 0. -1.
         23    2    1    2    0    0  0.53535727309E+02 -0.14208599103E+02 -0.60279134644E+03  0.61247450973E+03  0.93271964319E+02 0.  0.
         23    2    1    2    0    0 -0.53535727309E+02  0.14208599103E+02 -0.20936303940E+03  0.23482271175E+03  0.90779211834E+02 0.  0.
          5    1    3    3  502    0  0.25944419102E+02 -0.45044855775E+02 -0.47966275805E+03  0.48249414854E+03  0.47000000000E+01 0. -1.
         -5    1    4    4    0  503 -0.11225185121E+02  0.41220338376E+02 -0.15425815333E+03  0.16013365963E+03  0.47000000000E+01 0.  1.
          5    1    4    4  503    0 -0.42310542187E+02 -0.27011739272E+02 -0.55104886072E+02  0.74689052127E+02  0.47000000000E+01 0. -1.
         -5    1    3    3    0  502  0.27591308207E+02  0.30836256671E+02 -0.12312858839E+03  0.12998036118E+03  0.47000000000E+01 0.  1.
<mgrwt>
<rscale>  0 0.10794074E+03</rscale>
<asrwt>0</asrwt>
<pdfrwt beam="1">  1        2 0.12765009E+00 0.10847865E+03</pdfrwt>
<pdfrwt beam="2">  1       -2 0.27032957E-02 0.10847865E+03</pdfrwt>
<totfact> 0.15690876E+04</totfact>
</mgrwt>
</event>
<event>
 8    1  0.3466492E-004  0.1070540E+03  0.7546771E-02  0.1277585E+00
         -3   -1    0    0    0  501 -0.00000000000E+00  0.00000000000E+00  0.24455736603E+03  0.24455736603E+03  0.00000000000E+00 0.  1.
          3   -1    0    0  501    0  0.00000000000E+00 -0.00000000000E+00 -0.38554693835E+02  0.38554693835E+02  0.00000000000E+00 0. -1.
         23    2    1    2    0    0 -0.22417117143E+02 -0.21078614819E+02  0.10821041978E+03  0.13811587985E+03  0.80122819317E+02 0.  0.
         23    2    1    2    0    0  0.22417117143E+02  0.21078614819E+02  0.97792252422E+02  0.14499618002E+03  0.10253649322E+03 0.  0.
          5    1    4    4  502    0  0.53116707692E+02  0.39843882293E+02  0.42892161588E+02  0.79188049085E+02  0.47000000000E+01 0. -1.
         -5    1    3    3    0  503 -0.46087390892E+02 -0.58669711446E+01  0.96642956937E+02  0.10733321981E+03  0.47000000000E+01 0.  1.
          5    1    3    3  503    0  0.23670273749E+02 -0.15211643674E+02  0.11567462840E+02  0.30782660040E+02  0.47000000000E+01 0. -1.
         -5    1    4    4    0  502 -0.30699590548E+02 -0.18765267474E+02  0.54900090833E+02  0.65808130932E+02  0.47000000000E+01 0.  1.
<mgrwt>
<rscale>  0 0.10130012E+03</rscale>
<asrwt>0</asrwt>
<pdfrwt beam="1">  1        3 0.59314915E-02 0.10705404E+03</pdfrwt>
<pdfrwt beam="2">  1       -3 0.37624209E-01 0.10705404E+03</pdfrwt>
<totfact> 0.26514094E+03</totfact>
</mgrwt>
</event>
<event>
 8    1  0.3466492E-004  0.1039846E+03  0.7546771E-02  0.1274475E+00
         -3   -1    0    0    0  501 -0.00000000000E+00  0.00000000000E+00  0.49465747893E+03  0.49465747893E+03  0.00000000000E+00 0.  1.
          3   -1    0    0  501    0  0.00000000000E+00 -0.00000000000E+00 -0.35441219807E+02  0.35441219807E+02  0.00000000000E+00 0. -1.
         23    2    1    2    0    0 -0.10994172482E+02  0.37479282055E+02  0.40236867682E+03  0.41558795426E+03  0.96370261151E+02 0.  0.
         23    2    1    2    0    0  0.10994172482E+02 -0.37479282055E+02  0.56847582306E+02  0.11451074447E+03  0.91408394439E+02 0.  0.
          5    1    3    3  502    0  0.98405977803E+01 -0.24734891306E+02  0.47316113519E+02  0.54493640098E+02  0.47000000000E+01 0. -1.
         -5    1    4    4    0  503 -0.30244475911E+02 -0.75997722858E+00  0.50059056954E+02  0.58679681932E+02  0.47000000000E+01 0.  1.
          5    1    4    4  503    0  0.41238648392E+02 -0.36719304826E+02  0.67885253526E+01  0.55831062542E+02  0.47000000000E+01 0. -1.
         -5    1    3    3    0  502 -0.20834770262E+02  0.62214173361E+02  0.35505256330E+03  0.36109431417E+03  0.47000000000E+01 0.  1.
<mgrwt>
<rscale>  0 0.10281991E+03</rscale>
<asrwt>0</asrwt>
<pdfrwt beam="1">  1        3 0.54524957E-02 0.10398459E+03</pdfrwt>
<pdfrwt beam="2">  1       -3 0.76101146E-01 0.10398459E+03</pdfrwt>
<totfact> 0.73086498E+02</totfact>
</mgrwt>
</event>
<event>
 8    1  0.3466492E-004  0.1622011E+03  0.7546771E-02  0.1186768E+00
         -1   -1    0    0    0  501 -0.00000000000E+00  0.00000000000E+00  0.65014487595E+02  0.65014487595E+02  0.00000000000E+00 0.  1.
          1   -1    0    0  501    0  0.00000000000E+00 -0.00000000000E+00 -0.47412147224E+03  0.47412147224E+03  0.00000000000E+00 0. -1.
         23    2    1    2    0    0 -0.11585693799E+03 -0.64030782700E+02 -0.31018042220E+03  0.34914734693E+03  0.90383650820E+02 0.  0.
         23    2    1    2    0    0  0.11585693799E+03  0.64030782700E+02 -0.98926562445E+02  0.18998861291E+03  0.93735996629E+02 0.  0.
          5    1    4    4  502    0  0.68290433049E+01  0.51670494704E+02 -0.29891239180E+02  0.60266508403E+02  0.47000000000E+01 0. -1.
         -5    1    4    4    0  502  0.10902789469E+03  0.12360287996E+02 -0.69035323264E+02  0.12972210451E+03  0.47000000000E+01 0.  1.
          5    1    3    3  503    0 -0.20817133875E+02 -0.46607778042E+02 -0.17874107120E+03  0.18594649383E+03  0.47000000000E+01 0. -1.
         -5    1    3    3    0  503 -0.95039804116E+02 -0.17423004658E+02 -0.13143935101E+03  0.16320085309E+03  0.47000000000E+01 0.  1.
<mgrwt>
<rscale>  0 0.16172051E+03</rscale>
<asrwt>0</asrwt>
<pdfrwt beam="1">  1        1 0.72941768E-01 0.16220114E+03</pdfrwt>
<pdfrwt beam="2">  1       -1 0.10002228E-01 0.16220114E+03</pdfrwt>
<totfact> 0.28969150E+03</totfact>
</mgrwt>
</event>
<event>
 8    1  0.3466492E-004  0.1126144E+03  0.7546771E-02  0.1256011E+00
          4   -1    0    0  501    0  0.00000000000E+00  0.00000000000E+00  0.21715517377E+02  0.21715517377E+02  0.00000000000E+00 0. -1.
         -4   -1    0    0    0  501 -0.00000000000E+00 -0.00000000000E+00 -0.62413042137E+03  0.62413042137E+03  0.00000000000E+00 0.  1.
         23    2    1    2    0    0  0.37978980880E+02  0.54065055502E+02 -0.38491212703E+03  0.40091846243E+03  0.90624691790E+02 0.  0.
         23    2    1    2    0    0 -0.37978980880E+02 -0.54065055502E+02 -0.21750277696E+03  0.24492747632E+03  0.91195271020E+02 0.  0.
          5    1    4    4  502    0 -0.48543210167E+02 -0.72747174200E+02 -0.14734087699E+03  0.17140600526E+03  0.47000000000E+01 0. -1.
         -5    1    4    4    0  502  0.10564229287E+02  0.18682118697E+02 -0.70161899971E+02  0.73521471061E+02  0.47000000000E+01 0.  1.
          5    1    3    3  503    0  0.16311879172E+01  0.43506974520E+02 -0.62823154298E+02  0.76579085408E+02  0.47000000000E+01 0. -1.
         -5    1    3    3    0  503  0.36347792963E+02  0.10558080982E+02 -0.32208897274E+03  0.32433937702E+03  0.47000000000E+01 0.  1.
<mgrwt>
<rscale>  0 0.11249887E+03</rscale>
<asrwt>0</asrwt>
<pdfrwt beam="1">  1        4 0.33408493E-02 0.11261443E+03</pdfrwt>
<pdfrwt beam="2">  1       -4 0.96020052E-01 0.11261443E+03</pdfrwt>
<totfact> 0.68261514E+02</totfact>
</mgrwt>
</event>
<event>
 8    1  0.3466492E-004  0.1001270E+03  0.7546771E-02  0.1281322E+00
         -3   -1    0    0    0  501 -0.00000000000E+00  0.00000000000E+00  0.20167710581E+03  0.20167710581E+03  0.00000000000E+00 0.  1.
          3   -1    0    0  501    0  0.00000000000E+00 -0.00000000000E+00 -0.54435660353E+02  0.54435660353E+02  0.00000000000E+00 0. -1.
         23    2    1    2    0    0 -0.33088488832E+02 -0.18837325711E+02  0.11506013277E+03  0.15094123531E+03  0.89970714296E+02 0.  0.
         23    2    1    2    0    0  0.33088488832E+02  0.18837325711E+02  0.32181312684E+02  0.10517153085E+03  0.92605189281E+02 0.  0.
          5    1    3    3  502    0 -0.17039827917E+02  0.32621361568E+02  0.21554737373E+02  0.42909272532E+02  0.47000000000E+01 0. -1.
         -5    1    3    3    0  502 -0.16048660916E+02 -0.51458687279E+02  0.93505395397E+02  0.10803196278E+03  0.47000000000E+01 0.  1.
          5    1    4    4  503    0  0.64226005840E+02  0.22765506177E+02  0.24030476711E+02  0.72407195144E+02  0.47000000000E+01 0. -1.
         -5    1    4    4    0  503 -0.31137517007E+02 -0.39281804657E+01  0.81508359725E+01  0.32764335705E+02  0.47000000000E+01 0.  1.
<mgrwt>
<rscale>  0 0.99513517E+02</rscale>
<asrwt>0</asrwt>
<pdfrwt beam="1">  1        3 0.83747171E-02 0.10012699E+03</pdfrwt>
<pdfrwt beam="2">  1       -3 0.31027247E-01 0.10012699E+03</pdfrwt>
<totfact> 0.21585680E+03</totfact>
</mgrwt>
</event>
<event>
 8    1  0.3466492E-004  0.1069884E+03  0.7546771E-02  0.1266479E+00
          3   -1    0    0  501    0  0.00000000000E+00  0.00000000000E+00  0.19993910136E+03  0.19993910136E+03  0.00000000000E+00 0. -1.
         -3   -1    0    0    0  501 -0.00000000000E+00 -0.00000000000E+00 -0.57296448709E+02  0.57296448709E+02  0.00000000000E+00 0.  1.
         23    2    1    2    0    0 -0.81511188595E+01 -0.55743755249E+02  0.80468789161E+02  0.13349348884E+03  0.90396230810E+02 0.  0.
         23    2    1    2    0    0  0.81511188595E+01  0.55743755249E+02  0.62173863492E+02  0.12374206124E+03  0.90954392029E+02 0.  0.
          5    1    4    4  502    0 -0.22765689482E+02  0.49182023734E+02  0.72066265028E+02  0.90292771756E+02  0.47000000000E+01 0. -1.
         -5    1    4    4    0  502  0.30916808342E+02  0.65617315144E+01 -0.98924015367E+01  0.33449289479E+02  0.47000000000E+01 0.  1.
          5    1    3    3  503    0 -0.38888609632E+02 -0.48494562292E+02  0.80181241137E+02  0.10156361534E+03  0.47000000000E+01 0. -1.
         -5    1    3    3    0  503  0.30737490772E+02 -0.72491929569E+01  0.28754802349E+00  0.31929873494E+02  0.47000000000E+01 0.  1.
<mgrwt>
<rscale>  0 0.10686963E+03</rscale>
<asrwt>0</asrwt>
<pdfrwt beam="1">  1        3 0.30759861E-01 0.10698836E+03</pdfrwt>
<pdfrwt beam="2">  1       -3 0.88148384E-02 0.10698836E+03</pdfrwt>
<totfact> 0.20448375E+03</totfact>
</mgrwt>
</event>
<event>
 8    1  0.3466492E-004  0.9530918E+02  0.7546771E-02  0.1291812E+00
          1   -1    0    0  501    0  0.00000000000E+00  0.00000000000E+00  0.34890282551E+03  0.34890282551E+03  0.00000000000E+00 0. -1.
         -1   -1    0    0    0  501 -0.00000000000E+00 -0.00000000000E+00 -0.22597071233E+03  0.22597071233E+03  0.00000000000E+00 0.  1.
         23    2    1    2    0    0 -0.24486531554E+02  0.18138574282E+01 -0.20941880221E+03  0.22912656334E+03  0.89665305458E+02 0.  0.
         23    2    1    2    0    0  0.24486531554E+02 -0.18138574282E+01  0.33235091540E+03  0.34574697450E+03  0.92092122904E+02 0.  0.
          5    1    3    3  502    0 -0.98015309063E+01 -0.23858581051E+02 -0.10952951207E+02  0.28414064089E+02  0.47000000000E+01 0. -1.
         -5    1    3    3    0  502 -0.14685000648E+02  0.25672438480E+02 -0.19846585101E+03  0.20071249925E+03  0.47000000000E+01 0.  1.
          5    1    4    4  503    0  0.22387485249E+02 -0.30018317976E+02  0.30062890581E+03  0.30298865972E+03  0.47000000000E+01 0. -1.
         -5    1    4    4    0  503  0.20990463057E+01  0.28204460548E+02  0.31722009585E+02  0.42758314774E+02  0.47000000000E+01 0.  1.
<mgrwt>
<rscale>  0 0.94718000E+02</rscale>
<asrwt>0</asrwt>
<pdfrwt beam="1">  1        1 0.53677358E-01 0.95309178E+02</pdfrwt>
<pdfrwt beam="2">  1       -1 0.34764725E-01 0.95309178E+02</pdfrwt>
<totfact> 0.57492188E+02</totfact>
</mgrwt>
</event>
<event>
 8    1  0.3466492E-004  0.9105716E+02  0.7546771E-02  0.1306518E+00
          2   -1    0    0  501    0  0.00000000000E+00  0.00000000000E+00  0.31914090594E+03  0.31914090594E+03  0.00000000000E+00 0. -1.
         -2   -1    0    0    0  501 -0.00000000000E+00 -0.00000000000E+00 -0.24498758364E+02  0.24498758364E+02  0.00000000000E+00 0.  1.
         23    2    1    2    0    0 -0.11853629046E+02 -0.52538945312E+01  0.17793592580E+03  0.19561348908E+03  0.80220517883E+02 0.  0.
         23    2    1    2    0    0  0.11853629046E+02  0.52538945312E+01  0.11670622178E+03  0.14802617523E+03  0.90129320544E+02 0.  0.
          5    1    4    4  502    0 -0.29914966675E+02 -0.16062520590E+02  0.83819175728E+02  0.90557462522E+02  0.47000000000E+01 0. -1.
         -5    1    3    3    0  503  0.10277286764E+02  0.32296603975E+02  0.51840646092E+02  0.62114699056E+02  0.47000000000E+01 0.  1.
          5    1    3    3  503    0 -0.22130915810E+02 -0.37550498506E+02  0.12609527971E+03  0.13349879002E+03  0.47000000000E+01 0. -1.
         -5    1    4    4    0  502  0.41768595721E+02  0.21316415121E+02  0.32887046048E+02  0.57468712704E+02  0.47000000000E+01 0.  1.
<mgrwt>
<rscale>  0 0.88502774E+02</rscale>
<asrwt>0</asrwt>
<pdfrwt beam="1">  1        2 0.49098598E-01 0.91057160E+02</pdfrwt>
<pdfrwt beam="2">  1       -2 0.37690400E-02 0.91057160E+02</pdfrwt>
<totfact> 0.27373201E+04</totfact>
</mgrwt>
</event>
<event>
 8    1  0.3466492E-004  0.9800709E+02  0.7546771E-02  0.1286001E+00
          1   -1    0    0  501    0  0.00000000000E+00  0.00000000000E+00  0.18562020386E+03  0.18562020386E+03  0.00000000000E+00 0. -1.
         -1   -1    0    0    0  501 -0.00000000000E+00 -0.00000000000E+00 -0.57598536465E+02  0.57598536465E+02  0.00000000000E+00 0.  1.
         23    2    1    2    0    0 -0.30054857509E+02 -0.73282558202E+00  0.21652015707E+02  0.10037031073E+03  0.93282141910E+02 0.  0.
         23    2    1    2    0    0  0.30054857509E+02  0.73282558202E+00  0.10636965169E+03  0.14284842960E+03  0.90483918703E+02 0.  0.
          5    1    3    3  502    0  0.31864670585E+02 -0.10889485901E+02  0.55494422664E+00  0.34004942255E+02  0.47000000000E+01 0. -1.
         -5    1    4    4    0  503  0.11907457736E+02 -0.35873673402E+02  0.12046512778E+02  0.39948923179E+02  0.47000000000E+01 0.  1.
          5    1    4    4  503    0  0.18147399773E+02  0.36606498984E+02  0.94323138914E+02  0.10289950642E+03  0.47000000000E+01 0. -1.
         -5    1    3    3    0  502 -0.61919528094E+02  0.10156660319E+02  0.21097071480E+02  0.66365368478E+02  0.47000000000E+01 0.  1.
<mgrwt>
<rscale>  0 0.97335350E+02</rscale>
<asrwt>0</asrwt>
<pdfrwt beam="1">  1        1 0.28556954E-01 0.98007089E+02</pdfrwt>
<pdfrwt beam="2">  1       -1 0.88613134E-02 0.98007089E+02</pdfrwt>
<totfact> 0.10843757E+04</totfact>
</mgrwt>
</event>
<event>
 8    1  0.3466492E-004  0.1024063E+03  0.7546771E-02  0.1277676E+00
          2   -1    0    0  501    0  0.00000000000E+00  0.00000000000E+00  0.73157824789E+03  0.73157824789E+03  0.00000000000E+00 0. -1.
         -2   -1    0    0    0  501 -0.00000000000E+00 -0.00000000000E+00 -0.13710570370E+02  0.13710570370E+02  0.00000000000E+00 0.  1.
         23    2    1    2    0    0 -0.35301868160E+02  0.10266825240E+02  0.35518149587E+03  0.36842238480E+03  0.90716751601E+02 0.  0.
         23    2    1    2    0    0  0.35301868160E+02 -0.10266825240E+02  0.36268618166E+03  0.37686643346E+03  0.95579352942E+02 0.  0.
          5    1    3    3  502    0  0.14743390862E+02 -0.28259771016E+02  0.84586573570E+02  0.90514974785E+02  0.47000000000E+01 0. -1.
         -5    1    3    3    0  502 -0.50045259022E+02  0.38526596257E+02  0.27059492230E+03  0.27790741002E+03  0.47000000000E+01 0.  1.
          5    1    4    4  503    0  0.45722390086E+02 -0.31277839113E+02  0.33781637177E+03  0.34236067416E+03  0.47000000000E+01 0. -1.
         -5    1    4    4    0  503 -0.10420521926E+02  0.21011013873E+02  0.24869809886E+02  0.34505759301E+02  0.47000000000E+01 0.  1.
<mgrwt>
<rscale>  0 0.10125632E+03</rscale>
<asrwt>0</asrwt>
<pdfrwt beam="1">  1        2 0.11255047E+00 0.10240626E+03</pdfrwt>
<pdfrwt beam="2">  1       -2 0.21093191E-02 0.10240626E+03</pdfrwt>
<totfact> 0.26076369E+04</totfact>
</mgrwt>
</event>
<event>
 8    1  0.3466492E-004  0.9451132E+02  0.7546771E-02  0.1293216E+00
          1   -1    0    0  501    0  0.00000000000E+00  0.00000000000E+00  0.60513985435E+02  0.60513985435E+02  0.00000000000E+00 0. -1.
         -1   -1    0    0    0  501 -0.00000000000E+00 -0.00000000000E+00 -0.14831388208E+03  0.14831388208E+03  0.00000000000E+00 0.  1.
         23    2    1    2    0    0  0.22139571843E+02 -0.14615603633E+02 -0.58974842971E+02  0.11001858569E+03  0.89007193994E+02 0.  0.
         23    2    1    2    0    0 -0.22139571843E+02  0.14615603633E+02 -0.28825053674E+02  0.98809281824E+02  0.90711707868E+02 0.  0.
          5    1    3    3  502    0 -0.86115536342E+01  0.33872348130E+02 -0.22823786484E+02  0.42006071625E+02  0.47000000000E+01 0. -1.
         -5    1    3    3    0  502  0.30751125477E+02 -0.48487951763E+02 -0.36151056487E+02  0.68012514065E+02  0.47000000000E+01 0.  1.
          5    1    4    4  503    0 -0.54328703593E+02  0.24951066426E+02 -0.13915182986E+02  0.61562050546E+02  0.47000000000E+01 0. -1.
         -5    1    4    4    0  503  0.32189131750E+02 -0.10335462793E+02 -0.14909870687E+02  0.37247231278E+02  0.47000000000E+01 0.  1.
<mgrwt>
<rscale>  0 0.94099958E+02</rscale>
<asrwt>0</asrwt>
<pdfrwt beam="1">  1        1 0.93098439E-02 0.94511324E+02</pdfrwt>
<pdfrwt beam="2">  1       -1 0.22817520E-01 0.94511324E+02</pdfrwt>
<totfact> 0.10407764E+04</totfact>
</mgrwt>
</event>
<event>
 8    1  0.3466492E-004  0.2198741E+03  0.7546771E-02  0.1134297E+00
         -1   -1    0    0    0  501 -0.00000000000E+00  0.00000000000E+00  0.55959148704E+02  0.55959148704E+02  0.00000000000E+00 0.  1.
          1   -1    0    0  501    0  0.00000000000E+00 -0.00000000000E+00 -0.10928908513E+04  0.10928908513E+04  0.00000000000E+00 0. -1.
         23    2    1    2    0    0 -0.90484067064E+02  0.17729568074E+03 -0.25013408034E+03  0.33190746275E+03  0.89299389038E+02 0.  0.
         23    2    1    2    0    0  0.90484067064E+02 -0.17729568074E+03 -0.78679762230E+03  0.81694253729E+03  0.93399603788E+02 0.  0.
          5    1    3    3  502    0 -0.49665555309E+02  0.16656828605E+03 -0.18269923431E+03  0.25221570435E+03  0.47000000000E+01 0. -1.
         -5    1    4    4    0  503 -0.10497716813E+02 -0.52462817167E+02 -0.12733816172E+03  0.13820147132E+03  0.47000000000E+01 0.  1.
          5    1    4    4  503    0  0.10098178388E+03 -0.12483286357E+03 -0.65945946057E+03  0.67874106598E+03  0.47000000000E+01 0. -1.
         -5    1    3    3    0  502 -0.40818511754E+02  0.10727394687E+02 -0.67434846031E+02  0.79691758406E+02  0.47000000000E+01 0.  1.
<mgrwt>
<rscale>  0 0.21944529E+03</rscale>
<asrwt>0</asrwt>
<pdfrwt beam="1">  1        1 0.16813705E+00 0.21987408E+03</pdfrwt>
<pdfrwt beam="2">  1       -1 0.86090998E-02 0.21987408E+03</pdfrwt>
<totfact> 0.10530957E+03</totfact>
</mgrwt>
</event>
<event>
 8    1  0.3466492E-004  0.1454989E+03  0.7546771E-02  0.1206672E+00
          1   -1    0    0  501    0  0.00000000000E+00  0.00000000000E+00  0.13274307129E+04  0.13274307129E+04  0.00000000000E+00 0. -1.
         -1   -1    0    0    0  501 -0.00000000000E+00 -0.00000000000E+00 -0.75833915624E+02  0.75833915624E+02  0.00000000000E+00 0.  1.
         23    2    1    2    0    0  0.69936071819E+02  0.86562819298E+02  0.53453622784E+00  0.14377000170E+03  0.91023908029E+02 0.  0.
         23    2    1    2    0    0 -0.69936071819E+02 -0.86562819298E+02  0.12510622611E+04  0.12594946269E+04  0.93732375194E+02 0.  0.
          5    1    4    4  502    0 -0.18921766633E+02 -0.90391377094E+02  0.89107763071E+03  0.89586275079E+03  0.47000000000E+01 0. -1.
         -5    1    3    3    0  503 -0.73962293074E+01  0.55778109640E+02 -0.16198997966E+02  0.58740099235E+02  0.47000000000E+01 0.  1.
          5    1    3    3  503    0  0.77332301126E+02  0.30784709658E+02  0.16733534194E+02  0.85029902462E+02  0.47000000000E+01 0. -1.
         -5    1    4    4    0  502 -0.51014305186E+02  0.38285577965E+01  0.35998463036E+03  0.36363187606E+03  0.47000000000E+01 0.  1.
<mgrwt>
<rscale>  0 0.14506450E+03</rscale>
<asrwt>0</asrwt>
<pdfrwt beam="1">  1        1 0.20422009E+00 0.14549891E+03</pdfrwt>
<pdfrwt beam="2">  1       -1 0.11666757E-01 0.14549891E+03</pdfrwt>
<totfact> 0.45810155E+02</totfact>
</mgrwt>
</event>
<event>
 8    1  0.3466492E-004  0.1045633E+03  0.7546771E-02  0.1271609E+00
         -2   -1    0    0    0  501 -0.00000000000E+00  0.00000000000E+00  0.21199835175E+02  0.21199835175E+02  0.00000000000E+00 0.  1.
          2   -1    0    0  501    0  0.00000000000E+00 -0.00000000000E+00 -0.58068985455E+03  0.58068985455E+03  0.00000000000E+00 0. -1.
         23    2    1    2    0    0 -0.51971737544E+02  0.16594204064E+02 -0.38359223895E+03  0.39725948623E+03  0.87724936621E+02 0.  0.
         23    2    1    2    0    0  0.51971737544E+02 -0.16594204064E+02 -0.17589778042E+03  0.20463020349E+03  0.89202364946E+02 0.  0.
          5    1    4    4  502    0  0.35300606877E+02  0.31010700166E+02 -0.49269875341E+02  0.68245197536E+02  0.47000000000E+01 0. -1.
         -5    1    3    3    0  503  0.86314272870E+01 -0.25357755758E+02 -0.14386841041E+03  0.14641627925E+03  0.47000000000E+01 0.  1.
          5    1    3    3  503    0 -0.60603164831E+02  0.41951959822E+02 -0.23972382854E+03  0.25084320699E+03  0.47000000000E+01 0. -1.
         -5    1    4    4    0  502  0.16671130667E+02 -0.47604904230E+02 -0.12662790508E+03  0.13638500595E+03  0.47000000000E+01 0.  1.
<mgrwt>
<rscale>  0 0.10424753E+03</rscale>
<asrwt>0</asrwt>
<pdfrwt beam="1">  1        2 0.89336903E-01 0.10456333E+03</pdfrwt>
<pdfrwt beam="2">  1       -2 0.32615130E-02 0.10456333E+03</pdfrwt>
<totfact> 0.18092319E+04</totfact>
</mgrwt>
</event>
<event>
 8    1  0.3466492E-004  0.1011536E+03  0.7546771E-02  0.1279294E+00
          1   -1    0    0  501    0  0.00000000000E+00  0.00000000000E+00  0.63215953062E+03  0.63215953062E+03  0.00000000000E+00 0. -1.
         -1   -1    0    0    0  501 -0.00000000000E+00 -0.00000000000E+00 -0.16485947531E+02  0.16485947531E+02  0.00000000000E+00 0.  1.
         23    2    1    2    0    0 -0.32404773768E+02  0.20231372950E+02  0.37980007431E+03  0.39303961565E+03  0.93662506945E+02 0.  0.
         23    2    1    2    0    0  0.32404773768E+02 -0.20231372950E+02  0.23587350878E+03  0.25560586250E+03  0.90767103010E+02 0.  0.
          5    1    3    3  502    0  0.27594520036E+02  0.24822341494E+01  0.50292813399E+02  0.57611423364E+02  0.47000000000E+01 0. -1.
         -5    1    3    3    0  502 -0.59999293804E+02  0.17749138800E+02  0.32950726091E+03  0.33542819229E+03  0.47000000000E+01 0.  1.
          5    1    4    4  503    0  0.85687149701E+01 -0.27151325103E+02  0.22700693118E+03  0.22883368226E+03  0.47000000000E+01 0. -1.
         -5    1    4    4    0  503  0.23836058798E+02  0.69199521530E+01  0.88665775951E+01  0.26772180245E+02  0.47000000000E+01 0.  1.
<mgrwt>
<rscale>  0 0.10047810E+03</rscale>
<asrwt>0</asrwt>
<pdfrwt beam="1">  1        1 0.97255294E-01 0.10115356E+03</pdfrwt>
<pdfrwt beam="2">  1       -1 0.25363001E-02 0.10115356E+03</pdfrwt>
<totfact> 0.14644632E+04</totfact>
</mgrwt>
</event>
<event>
 8    1  0.3466492E-004  0.1436102E+03  0.7546771E-02  0.1208613E+00
          1   -1    0    0  501    0  0.00000000000E+00  0.00000000000E+00  0.35949342261E+02  0.35949342261E+02  0.00000000000E+00 0. -1.
         -1   -1    0    0    0  501 -0.00000000000E+00 -0.00000000000E+00 -0.59704590364E+03  0.59704590364E+03  0.00000000000E+00 0.  1.
         23    2    1    2    0    0  0.60223498826E+02 -0.92707210829E+02 -0.34430572156E+03  0.37305540252E+03  0.91664642609E+02 0.  0.
         23    2    1    2    0    0 -0.60223498826E+02  0.92707210829E+02 -0.21679083982E+03  0.25993984337E+03  0.91372628249E+02 0.  0.
          5    1    3    3  502    0 -0.18993241018E+02 -0.26515179383E+02 -0.14332258466E+03  0.14706206586E+03  0.47000000000E+01 0. -1.
         -5    1    3    3    0  502  0.79216739844E+02 -0.66192031446E+02 -0.20098313690E+03  0.22599333667E+03  0.47000000000E+01 0.  1.
          5    1    4    4  503    0 -0.74474149692E+02  0.45900426200E+02 -0.98392079977E+02  0.13174346094E+03  0.47000000000E+01 0. -1.
         -5    1    4    4    0  503  0.14250650866E+02  0.46806784629E+02 -0.11839875984E+03  0.12819638244E+03  0.47000000000E+01 0.  1.
<mgrwt>
<rscale>  0 0.14356367E+03</rscale>
<asrwt>0</asrwt>
<pdfrwt beam="1">  1        1 0.55306685E-02 0.14361025E+03</pdfrwt>
<pdfrwt beam="2">  1       -1 0.91853208E-01 0.14361025E+03</pdfrwt>
<totfact> 0.17169168E+03</totfact>
</mgrwt>
</event>
<event>
 8    1  0.3466492E-004  0.1126889E+03  0.7546771E-02  0.1261003E+00
         -2   -1    0    0    0  501 -0.00000000000E+00  0.00000000000E+00  0.55228763967E+02  0.55228763967E+02  0.00000000000E+00 0.  1.
          2   -1    0    0  501    0  0.00000000000E+00 -0.00000000000E+00 -0.20778609106E+03  0.20778609106E+03  0.00000000000E+00 0. -1.
         23    2    1    2    0    0 -0.48400969261E+01 -0.58169544371E+02 -0.75990845594E+02  0.13591685018E+03  0.96393252450E+02 0.  0.
         23    2    1    2    0    0  0.48400969261E+01  0.58169544371E+02 -0.76566481499E+02  0.12709800485E+03  0.82972009237E+02 0.  0.
          5    1    3    3  502    0 -0.28060568985E+02 -0.51957836135E+02 -0.89966703003E+02  0.10771773260E+03  0.47000000000E+01 0. -1.
         -5    1    4    4    0  503  0.24559094796E+02  0.69682705003E+02 -0.41159912917E+02  0.84705707866E+02  0.47000000000E+01 0.  1.
          5    1    4    4  503    0 -0.19718997870E+02 -0.11513160632E+02 -0.35406568582E+02  0.42392296983E+02  0.47000000000E+01 0. -1.
         -5    1    3    3    0  502  0.23220472059E+02 -0.62117082359E+01  0.13975857409E+02  0.28199117577E+02  0.47000000000E+01 0.  1.
<mgrwt>
<rscale>  0 0.10976667E+03</rscale>
<asrwt>0</asrwt>
<pdfrwt beam="1">  1        2 0.31967090E-01 0.11268887E+03</pdfrwt>
<pdfrwt beam="2">  1       -2 0.84967330E-02 0.11268887E+03</pdfrwt>
<totfact> 0.12977097E+04</totfact>
</mgrwt>
</event>
<event>
 8    1  0.3466492E-004  0.1259078E+03  0.7546771E-02  0.1246797E+00
         -1   -1    0    0    0  501 -0.00000000000E+00  0.00000000000E+00  0.32213097004E+03  0.32213097004E+03  0.00000000000E+00 0.  1.
          1   -1    0    0  501    0  0.00000000000E+00 -0.00000000000E+00 -0.85906732166E+02  0.85906732166E+02  0.00000000000E+00 0. -1.
         23    2    1    2    0    0  0.11736633775E+02  0.28751852598E+02  0.26229577233E+03  0.27945890510E+03  0.91289593354E+02 0.  0.
         23    2    1    2    0    0 -0.11736633775E+02 -0.28751852598E+02 -0.26071534460E+02  0.12857879711E+03  0.12201788622E+03 0.  0.
          5    1    4    4  502    0 -0.47276793559E+02  0.22396107884E+02 -0.38207051963E+02  0.64950363181E+02  0.47000000000E+01 0. -1.
         -5    1    3    3    0  503  0.37777507099E+02  0.29447439687E+01  0.21999697442E+03  0.22328584888E+03  0.47000000000E+01 0.  1.
          5    1    3    3  503    0 -0.26040873324E+02  0.25807108629E+02  0.42298797919E+02  0.56173056216E+02  0.47000000000E+01 0. -1.
         -5    1    4    4    0  502  0.35540159784E+02 -0.51147960482E+02  0.12135517504E+02  0.63628433927E+02  0.47000000000E+01 0.  1.
<mgrwt>
<rscale>  0 0.11778486E+03</rscale>
<asrwt>0</asrwt>
<pdfrwt beam="1">  1        1 0.13216421E-01 0.12590783E+03</pdfrwt>
<pdfrwt beam="2">  1       -1 0.49558610E-01 0.12590783E+03</pdfrwt>
<totfact> 0.17906875E+03</totfact>
</mgrwt>
</event>
<event>
 8    1  0.3466492E-004  0.1411999E+03  0.7546771E-02  0.1220077E+00
          1   -1    0    0  501    0  0.00000000000E+00  0.00000000000E+00  0.30370467209E+03  0.30370467209E+03  0.00000000000E+00 0. -1.
         -1   -1    0    0    0  501 -0.00000000000E+00 -0.00000000000E+00 -0.64804837326E+02  0.64804837326E+02  0.00000000000E+00 0.  1.
         23    2    1    2    0    0  0.69275870151E+02  0.33501805085E+02  0.40671735509E+02  0.12513367045E+03  0.89903994806E+02 0.  0.
         23    2    1    2    0    0 -0.69275870151E+02 -0.33501805085E+02  0.19822809926E+03  0.24337583897E+03  0.11838877704E+03 0.  0.
          5    1    4    4  502    0 -0.58712262771E+02 -0.74376041924E+02  0.16109184097E+03  0.18695346116E+03  0.47000000000E+01 0. -1.
         -5    1    3    3    0  503  0.33104521733E+02  0.46838499761E+02 -0.12888875279E+02  0.58974295460E+02  0.47000000000E+01 0.  1.
          5    1    3    3  503    0  0.36171348418E+02 -0.13336694676E+02  0.53560610788E+02  0.66159374991E+02  0.47000000000E+01 0. -1.
         -5    1    4    4    0  502 -0.10563607380E+02  0.40874236839E+02  0.37136258288E+02  0.56422377809E+02  0.47000000000E+01 0.  1.
<mgrwt>
<rscale>  0 0.13510092E+03</rscale>
<asrwt>0</asrwt>
<pdfrwt beam="1">  1        1 0.46723795E-01 0.14119993E+03</pdfrwt>
<pdfrwt beam="2">  1       -1 0.99699751E-02 0.14119993E+03</pdfrwt>
<totfact> 0.50762486E+03</totfact>
</mgrwt>
</event>
<event>
 8    1  0.3466492E-004  0.1000069E+03  0.7546771E-02  0.1286211E+00
          1   -1    0    0  501    0  0.00000000000E+00  0.00000000000E+00  0.41051164905E+02  0.41051164905E+02  0.00000000000E+00 0. -1.
         -1   -1    0    0    0  501 -0.00000000000E+00 -0.00000000000E+00 -0.46740312272E+03  0.46740312272E+03  0.00000000000E+00 0.  1.
         23    2    1    2    0    0 -0.63163672521E+01  0.95005386212E+01 -0.22186449361E+02  0.92099714635E+02  0.88656427693E+02 0.  0.
         23    2    1    2    0    0  0.63163672521E+01 -0.95005386212E+01 -0.40416550845E+03  0.41635457299E+03  0.99353990844E+02 0.  0.
          5    1    4    4  502    0 -0.43696108415E+02  0.50332987874E+01 -0.24061621703E+03  0.24464860083E+03  0.47000000000E+01 0. -1.
         -5    1    4    4    0  502  0.50012475667E+02 -0.14533837409E+02 -0.16354929142E+03  0.17170597216E+03  0.47000000000E+01 0.  1.
          5    1    3    3  503    0 -0.42005776134E+02  0.13685230101E+02 -0.31764462804E+02  0.54615399374E+02  0.47000000000E+01 0. -1.
         -5    1    3    3    0  503  0.35689408882E+02 -0.41846914801E+01  0.95780134423E+01  0.37484315261E+02  0.47000000000E+01 0.  1.
<mgrwt>
<rscale>  0 0.97239228E+02</rscale>
<asrwt>0</asrwt>
<pdfrwt beam="1">  1        1 0.63155638E-02 0.10000686E+03</pdfrwt>
<pdfrwt beam="2">  1       -1 0.71908174E-01 0.10000686E+03</pdfrwt>
<totfact> 0.23291958E+03</totfact>
</mgrwt>
</event>
<event>
 8    1  0.3466492E-004  0.1217186E+03  0.7546771E-02  0.1243391E+00
         -1   -1    0    0    0  501 -0.00000000000E+00  0.00000000000E+00  0.44119459978E+03  0.44119459978E+03  0.00000000000E+00 0.  1.
          1   -1    0    0  501    0  0.00000000000E+00 -0.00000000000E+00 -0.35014496665E+02  0.35014496665E+02  0.00000000000E+00 0. -1.
         23    2    1    2    0    0 -0.12594941083E+02  0.70058119204E+02  0.13415512406E+03  0.18114361577E+03  0.98735199472E+02 0.  0.
         23    2    1    2    0    0  0.12594941083E+02 -0.70058119204E+02  0.27202497906E+03  0.29506548068E+03  0.89438672006E+02 0.  0.
          5    1    4    4  502    0  0.62769860768E+01 -0.48050961820E+02  0.43319539073E+02  0.65168765152E+02  0.47000000000E+01 0. -1.
         -5    1    4    4    0  502  0.63179550059E+01 -0.22007157384E+02  0.22870543998E+03  0.22989671553E+03  0.47000000000E+01 0.  1.
          5    1    3    3  503    0 -0.31283251922E+02 -0.63750611021E+01  0.94689549067E+01  0.33630854314E+02  0.47000000000E+01 0. -1.
         -5    1    3    3    0  503  0.18688310839E+02  0.76433180306E+02  0.12468616916E+03  0.14751276146E+03  0.47000000000E+01 0.  1.
<mgrwt>
<rscale>  0 0.11982176E+03</rscale>
<asrwt>0</asrwt>
<pdfrwt beam="1">  1        1 0.53868459E-02 0.12171858E+03</pdfrwt>
<pdfrwt beam="2">  1       -1 0.67876088E-01 0.12171858E+03</pdfrwt>
<totfact> 0.32711066E+03</totfact>
</mgrwt>
</event>
<event>
 8    1  0.3466492E-004  0.9626391E+02  0.7546771E-02  0.1288590E+00
         -1   -1    0    0    0  501 -0.00000000000E+00  0.00000000000E+00  0.87682233295E+02  0.87682233295E+02  0.00000000000E+00 0.  1.
          1   -1    0    0  501    0  0.00000000000E+00 -0.00000000000E+00 -0.12812225201E+03  0.12812225201E+03  0.00000000000E+00 0. -1.
         23    2    1    2    0    0  0.24905495920E+02 -0.18286088279E+02  0.25436535282E+02  0.99157752599E+02  0.90722532052E+02 0.  0.
         23    2    1    2    0    0 -0.24905495920E+02  0.18286088279E+02 -0.65876553992E+02  0.11664673270E+03  0.91170582606E+02 0.  0.
          5    1    4    4  502    0 -0.51920179603E+02  0.17255149200E+02 -0.69924497340E+02  0.88909901317E+02  0.47000000000E+01 0. -1.
         -5    1    4    4    0  502  0.27014683684E+02  0.10309390791E+01  0.40479433481E+01  0.27736831385E+02  0.47000000000E+01 0.  1.
          5    1    3    3  503    0 -0.89531427043E+01 -0.35880455858E+02 -0.17792176935E+02  0.41306384942E+02  0.47000000000E+01 0. -1.
         -5    1    3    3    0  503  0.33858638624E+02  0.17594367579E+02  0.43228712217E+02  0.57851367658E+02  0.47000000000E+01 0.  1.
<mgrwt>
<rscale>  0 0.96157673E+02</rscale>
<asrwt>0</asrwt>
<pdfrwt beam="1">  1        1 0.19711116E-01 0.96263907E+02</pdfrwt>
<pdfrwt beam="2">  1       -1 0.13489574E-01 0.96263907E+02</pdfrwt>
<totfact> 0.90678496E+03</totfact>
</mgrwt>
</event>
<event>
 8    1  0.3466492E-004  0.1402681E+03  0.7546771E-02  0.1213028E+00
          2   -1    0    0  501    0  0.00000000000E+00  0.00000000000E+00  0.40777912500E+03  0.40777912500E+03  0.00000000000E+00 0. -1.
         -2   -1    0    0    0  501 -0.00000000000E+00 -0.00000000000E+00 -0.59796893696E+02  0.59796893696E+02  0.00000000000E+00 0.  1.
         23    2    1    2    0    0  0.51858035928E+02  0.92529410076E+02  0.71072815822E+02  0.15724657763E+03  0.91783404857E+02 0.  0.
         23    2    1    2    0    0 -0.51858035928E+02 -0.92529410076E+02  0.27690941549E+03  0.31032944107E+03  0.91512785954E+02 0.  0.
          5    1    3    3  502    0  0.17503236171E+01  0.70431403403E+02  0.73897697324E+02  0.10220863901E+03  0.47000000000E+01 0. -1.
         -5    1    3    3    0  502  0.50107712311E+02  0.22098006674E+02 -0.28248815018E+01  0.55037938619E+02  0.47000000000E+01 0.  1.
          5    1    4    4  503    0  0.12860475927E+01 -0.33383398487E+02  0.18781164708E+03  0.19081774025E+03  0.47000000000E+01 0. -1.
         -5    1    4    4    0  503 -0.53144083520E+02 -0.59146011589E+02  0.89097768403E+02  0.11951170083E+03  0.47000000000E+01 0.  1.
<mgrwt>
<rscale>  0 0.14022385E+03</rscale>
<asrwt>0</asrwt>
<pdfrwt beam="1">  1        2 0.62735248E-01 0.14026810E+03</pdfrwt>
<pdfrwt beam="2">  1       -2 0.91995223E-02 0.14026810E+03</pdfrwt>
<totfact> 0.56953843E+03</totfact>
</mgrwt>
</event>
<event>
 8    1  0.3466492E-004  0.1051489E+03  0.7546771E-02  0.1270839E+00
          2   -1    0    0  501    0  0.00000000000E+00  0.00000000000E+00  0.75690446622E+03  0.75690446622E+03  0.00000000000E+00 0. -1.
         -2   -1    0    0    0  501 -0.00000000000E+00 -0.00000000000E+00 -0.23547143643E+02  0.23547143643E+02  0.00000000000E+00 0.  1.
         23    2    1    2    0    0  0.48485034070E+02  0.75057028796E+01  0.12030276862E+03  0.15844503364E+03  0.90691446352E+02 0.  0.
         23    2    1    2    0    0 -0.48485034070E+02 -0.75057028796E+01  0.61305455396E+03  0.62200657623E+03  0.93000863648E+02 0.  0.
          5    1    4    4  502    0 -0.56673736545E+02  0.18072938639E+02  0.55105783249E+03  0.55427914292E+03  0.47000000000E+01 0. -1.
         -5    1    4    4    0  502  0.81887024746E+01 -0.25578641518E+02  0.61996721463E+02  0.67727433307E+02  0.47000000000E+01 0.  1.
          5    1    3    3  503    0  0.31777720366E+01  0.43368177313E+02  0.39071304481E+02  0.58647709865E+02  0.47000000000E+01 0. -1.
         -5    1    3    3    0  503  0.45307262033E+02 -0.35862474433E+02  0.81231464141E+02  0.99797323771E+02  0.47000000000E+01 0.  1.
<mgrwt>
<rscale>  0 0.10463593E+03</rscale>
<asrwt>0</asrwt>
<pdfrwt beam="1">  1        2 0.11644682E+00 0.10514892E+03</pdfrwt>
<pdfrwt beam="2">  1       -2 0.36226381E-02 0.10514892E+03</pdfrwt>
<totfact> 0.11417898E+04</totfact>
</mgrwt>
</event>
<event>
 8    1  0.3466492E-004  0.2084912E+03  0.7546771E-02  0.1142827E+00
         -2   -1    0    0    0  501 -0.00000000000E+00  0.00000000000E+00  0.47422563031E+02  0.47422563031E+02  0.00000000000E+00 0.  1.
          2   -1    0    0  501    0  0.00000000000E+00 -0.00000000000E+00 -0.13123267660E+04  0.13123267660E+04  0.00000000000E+00 0. -1.
         23    2    1    2    0    0 -0.17307421700E+03 -0.72327260903E+02 -0.10060887643E+04  0.10274031275E+04  0.90314270276E+02 0.  0.
         23    2    1    2    0    0  0.17307421700E+03  0.72327260903E+02 -0.25881543863E+03  0.33234620153E+03  0.91009060723E+02 0.  0.
          5    1    3    3  502    0 -0.13674054235E+03 -0.11981725373E+02 -0.68787030684E+03  0.70144792159E+03  0.47000000000E+01 0. -1.
         -5    1    4    4    0  503  0.12067215905E+03  0.79663971523E+02 -0.23052354213E+03  0.27216045231E+03  0.47000000000E+01 0.  1.
          5    1    4    4  503    0  0.52402057956E+02 -0.73367106203E+01 -0.28291896507E+02  0.60185749216E+02  0.47000000000E+01 0. -1.
         -5    1    3    3    0  502 -0.36333674654E+02 -0.60345535530E+02 -0.31821845745E+03  0.32595520587E+03  0.47000000000E+01 0.  1.
<mgrwt>
<rscale>  0 0.20841554E+03</rscale>
<asrwt>0</asrwt>
<pdfrwt beam="1">  1        2 0.20189643E+00 0.20849117E+03</pdfrwt>
<pdfrwt beam="2">  1       -2 0.72957787E-02 0.20849117E+03</pdfrwt>
<totfact> 0.18882103E+03</totfact>
</mgrwt>
</event>
<event>
 8    1  0.3466492E-004  0.1132129E+03  0.7546771E-02  0.1255483E+00
          1   -1    0    0  501    0  0.00000000000E+00  0.00000000000E+00  0.12789377176E+04  0.12789377176E+04  0.00000000000E+00 0. -1.
         -1   -1    0    0    0  501 -0.00000000000E+00 -0.00000000000E+00 -0.99169917722E+01  0.99169917722E+01  0.00000000000E+00 0.  1.
         23    2    1    2    0    0  0.27826724091E+02  0.63205698944E+02  0.59702305645E+03  0.60766247783E+03  0.89709921817E+02 0.  0.
         23    2    1    2    0    0 -0.27826724091E+02 -0.63205698944E+02  0.67199766936E+03  0.68119223153E+03  0.87593959360E+02 0.  0.
          5    1    4    4  502    0  0.93639746996E+01 -0.72135215852E+02  0.42459816621E+03  0.43080954741E+03  0.47000000000E+01 0.  1.
         -5    1    3    3    0  503 -0.22420442793E+02  0.35038841007E+02  0.11880572145E+03  0.12596541622E+03  0.47000000000E+01 0.  1.
          5    1    3    3  503    0  0.50247166884E+02  0.28166857938E+02  0.47821733501E+03  0.48169706161E+03  0.47000000000E+01 0. -1.
         -5    1    4    4    0  502 -0.37190698791E+02  0.89295169081E+01  0.24739950315E+03  0.25038268412E+03  0.47000000000E+01 0. -1.
<mgrwt>
<rscale>  0 0.11279325E+03</rscale>
<asrwt>0</asrwt>
<pdfrwt beam="1">  1        1 0.19675952E+00 0.11321288E+03</pdfrwt>
<pdfrwt beam="2">  1       -1 0.15256921E-02 0.11321288E+03</pdfrwt>
<totfact> 0.98672008E+03</totfact>
</mgrwt>
</event>
<event>
 8    1  0.3466492E-004  0.1226908E+03  0.7546771E-02  0.1239533E+00
         -1   -1    0    0    0  501 -0.00000000000E+00  0.00000000000E+00  0.25600747781E+03  0.25600747781E+03  0.00000000000E+00 0.  1.
          1   -1    0    0  501    0  0.00000000000E+00 -0.00000000000E+00 -0.15537505565E+03  0.15537505565E+03  0.00000000000E+00 0. -1.
         23    2    1    2    0    0  0.78678155332E+01 -0.77497278238E+02  0.21343561145E+03  0.24618650458E+03  0.94790844207E+02 0.  0.
         23    2    1    2    0    0 -0.78678155332E+01  0.77497278238E+02 -0.11280318930E+03  0.16519602888E+03  0.92181547964E+02 0.  0.
          5    1    4    4  502    0 -0.24666162073E+02  0.44745488876E+02 -0.11709309303E+03  0.12784154552E+03  0.47000000000E+01 0. -1.
         -5    1    4    4    0  502  0.16798346540E+02  0.32751789362E+02  0.42899037274E+01  0.37354483357E+02  0.47000000000E+01 0.  1.
          5    1    3    3  503    0  0.37130234377E+02 -0.61156141719E+02  0.75341197064E+02  0.10400535539E+03  0.47000000000E+01 0. -1.
         -5    1    3    3    0  503 -0.29262418844E+02 -0.16341136519E+02  0.13809441439E+03  0.14218114919E+03  0.47000000000E+01 0.  1.
<mgrwt>
<rscale>  0 0.12218657E+03</rscale>
<asrwt>0</asrwt>
<pdfrwt beam="1">  1        1 0.23903855E-01 0.12269081E+03</pdfrwt>
<pdfrwt beam="2">  1       -1 0.39385766E-01 0.12269081E+03</pdfrwt>
<totfact> 0.12632523E+03</totfact>
</mgrwt>
</event>
<event>
 8    1  0.3466492E-004  0.1372006E+03  0.7546771E-02  0.1225928E+00
          1   -1    0    0  501    0  0.00000000000E+00  0.00000000000E+00  0.66897337470E+02  0.66897337470E+02  0.00000000000E+00 0. -1.
         -1   -1    0    0    0  501 -0.00000000000E+00 -0.00000000000E+00 -0.24535051775E+03  0.24535051775E+03  0.00000000000E+00 0.  1.
         23    2    1    2    0    0 -0.63362980938E+02  0.37597929409E+02 -0.11154203573E+03  0.15960089863E+03  0.87191452899E+02 0.  0.
         23    2    1    2    0    0  0.63362980938E+02 -0.37597929409E+02 -0.66911144552E+02  0.15264695659E+03  0.11573901867E+03 0.  0.
          5    1    3    3  502    0 -0.36334304055E+02 -0.23548896367E+02 -0.64072916338E+02  0.77473613439E+02  0.47000000000E+01 0. -1.
         -5    1    3    3    0  502 -0.27028676883E+02  0.61146825776E+02 -0.47469119393E+02  0.82127285189E+02  0.47000000000E+01 0.  1.
          5    1    4    4  503    0  0.27038829890E+02 -0.21807915290E+02  0.31080848787E+02  0.46848614200E+02  0.47000000000E+01 0. -1.
         -5    1    4    4    0  503  0.36324151048E+02 -0.15790014119E+02 -0.97991993338E+02  0.10579834240E+03  0.47000000000E+01 0.  1.
<mgrwt>
<rscale>  0 0.13103532E+03</rscale>
<asrwt>0</asrwt>
<pdfrwt beam="1">  1        1 0.10291898E-01 0.13720055E+03</pdfrwt>
<pdfrwt beam="2">  1       -1 0.37746233E-01 0.13720055E+03</pdfrwt>
<totfact> 0.40505551E+03</totfact>
</mgrwt>
</event>
<event>
 8    1  0.3466492E-004  0.1141506E+03  0.7546771E-02  0.1253742E+00
         -3   -1    0    0    0  501 -0.00000000000E+00  0.00000000000E+00  0.55898058764E+02  0.55898058764E+02  0.00000000000E+00 0.  1.
          3   -1    0    0  501    0  0.00000000000E+00 -0.00000000000E+00 -0.46096093909E+03  0.46096093909E+03  0.00000000000E+00 0. -1.
         23    2    1    2    0    0 -0.25829458352E+02  0.64198656103E+02 -0.20292430187E+02  0.11594028061E+03  0.90784016111E+02 0.  0.
         23    2    1    2    0    0  0.25829458352E+02 -0.64198656103E+02 -0.38477045014E+03  0.40091871724E+03  0.88875700682E+02 0.  0.
          5    1    4    4  502    0  0.58078335353E+02 -0.50574698226E+02 -0.27366921296E+03  0.28433751294E+03  0.47000000000E+01 0. -1.
         -5    1    3    3    0  503 -0.23623394927E+01  0.31015829109E+02  0.35062558286E+02  0.47106637502E+02  0.47000000000E+01 0.  1.
          5    1    3    3  503    0 -0.23467118860E+02  0.33182826994E+02 -0.55354988473E+02  0.68833643109E+02  0.47000000000E+01 0. -1.
         -5    1    4    4    0  502 -0.32248877001E+02 -0.13623957877E+02 -0.11110123717E+03  0.11658120430E+03  0.47000000000E+01 0.  1.
<mgrwt>
<rscale>  0 0.11377080E+03</rscale>
<asrwt>0</asrwt>
<pdfrwt beam="1">  1        3 0.70917069E-01 0.11415063E+03</pdfrwt>
<pdfrwt beam="2">  1       -3 0.85997011E-02 0.11415063E+03</pdfrwt>
<totfact> 0.41569017E+02</totfact>
</mgrwt>
</event>
<event>
 8    1  0.3466492E-004  0.1028017E+03  0.7546771E-02  0.1275899E+00
          2   -1    0    0  501    0  0.00000000000E+00  0.00000000000E+00  0.25952562898E+03  0.25952562898E+03  0.00000000000E+00 0. -1.
         -2   -1    0    0    0  501 -0.00000000000E+00 -0.00000000000E+00 -0.18498442701E+03  0.18498442701E+03  0.00000000000E+00 0.  1.
         23    2    1    2    0    0  0.25848489877E+02  0.34203175317E+02  0.23415510766E+03  0.25465539729E+03  0.90458583309E+02 0.  0.
         23    2    1    2    0    0 -0.25848489877E+02 -0.34203175317E+02 -0.15961390568E+03  0.18985465870E+03  0.93435490652E+02 0.  0.
          5    1    3    3  502    0 -0.13938249697E+02  0.21643625989E+02  0.19656984578E+03  0.19830409885E+03  0.47000000000E+01 0. -1.
         -5    1    3    3    0  502  0.39786739574E+02  0.12559549329E+02  0.37585261881E+02  0.56351298440E+02  0.47000000000E+01 0.  1.
          5    1    4    4  503    0  0.29849019981E+02  0.96768447948E+01 -0.50592656064E+02  0.59718608211E+02  0.47000000000E+01 0. -1.
         -5    1    4    4    0  503 -0.55697509858E+02 -0.43880020112E+02 -0.10902124962E+03  0.13013605049E+03  0.47000000000E+01 0.  1.
<mgrwt>
<rscale>  0 0.10212048E+03</rscale>
<asrwt>0</asrwt>
<pdfrwt beam="1">  1        2 0.39927020E-01 0.10280171E+03</pdfrwt>
<pdfrwt beam="2">  1       -2 0.28459143E-01 0.10280171E+03</pdfrwt>
<totfact> 0.14033290E+03</totfact>
</mgrwt>
</event>
<event>
 8    1  0.3466492E-004  0.9281276E+02  0.7546771E-02  0.1297201E+00
          1   -1    0    0  501    0  0.00000000000E+00  0.00000000000E+00  0.12047959207E+04  0.12047959207E+04  0.00000000000E+00 0. -1.
         -1   -1    0    0    0  501 -0.00000000000E+00 -0.00000000000E+00 -0.70602704605E+01  0.70602704605E+01  0.00000000000E+00 0.  1.
         23    2    1    2    0    0  0.82496236420E+01 -0.22466299005E+01  0.55679151385E+03  0.56447409041E+03  0.92418099995E+02 0.  0.
         23    2    1    2    0    0 -0.82496236420E+01  0.22466299005E+01  0.64094413641E+03  0.64738210077E+03  0.90670252956E+02 0.  0.
          5    1    3    3  502    0 -0.33980198317E+02  0.19020520088E+02  0.35516715704E+03  0.35732650825E+03  0.47000000000E+01 0. -1.
         -5    1    3    3    0  502  0.42229821959E+02 -0.21267149989E+02  0.20162435682E+03  0.20714758216E+03  0.47000000000E+01 0.  1.
          5    1    4    4  503    0 -0.49345646193E+02  0.18666944071E+00  0.36330643249E+03  0.36667244447E+03  0.47000000000E+01 0. -1.
         -5    1    4    4    0  503  0.41096022551E+02  0.20599604598E+01  0.27763770392E+03  0.28070965631E+03  0.47000000000E+01 0.  1.
<mgrwt>
<rscale>  0 0.92374601E+02</rscale>
<asrwt>0</asrwt>
<pdfrwt beam="1">  1        1 0.18535305E+00 0.92812762E+02</pdfrwt>
<pdfrwt beam="2">  1       -1 0.10861964E-02 0.92812762E+02</pdfrwt>
<totfact> 0.17685219E+04</totfact>
</mgrwt>
</event>
<event>
 8    1  0.3466492E-004  0.9638747E+02  0.7546771E-02  0.1289059E+00
          1   -1    0    0  501    0  0.00000000000E+00  0.00000000000E+00  0.40495540047E+03  0.40495540047E+03  0.00000000000E+00 0. -1.
         -1   -1    0    0    0  501 -0.00000000000E+00 -0.00000000000E+00 -0.22614954530E+02  0.22614954530E+02  0.00000000000E+00 0.  1.
         23    2    1    2    0    0 -0.30162809489E+02 -0.48818405484E+01  0.17607992362E+03  0.19989965390E+03  0.89566202806E+02 0.  0.
         23    2    1    2    0    0  0.30162809489E+02  0.48818405484E+01  0.20626052232E+03  0.22767070109E+03  0.91416178146E+02 0.  0.
          5    1    4    4  502    0 -0.25998757231E+01 -0.39518294004E+02  0.10387068418E+03  0.11126393821E+03  0.47000000000E+01 0. -1.
         -5    1    4    4    0  502  0.32762685212E+02  0.44400134553E+02  0.10238983814E+03  0.11640676288E+03  0.47000000000E+01 0.  1.
          5    1    3    3  503    0 -0.48033724506E+02  0.13440283983E+02  0.48629367616E+02  0.69819662834E+02  0.47000000000E+01 0. -1.
         -5    1    3    3    0  503  0.17870915017E+02 -0.18322124532E+02  0.12745055600E+03  0.13007999107E+03  0.47000000000E+01 0.  1.
<mgrwt>
<rscale>  0 0.95946268E+02</rscale>
<asrwt>0</asrwt>
<pdfrwt beam="1">  1        1 0.62300825E-01 0.96387474E+02</pdfrwt>
<pdfrwt beam="2">  1       -1 0.34792241E-02 0.96387474E+02</pdfrwt>
<totfact> 0.16459170E+04</totfact>
</mgrwt>
</event>
<event>
 8    1  0.3466492E-004  0.1285440E+03  0.7546771E-02  0.1234735E+00
          2   -1    0    0  501    0  0.00000000000E+00  0.00000000000E+00  0.86333550190E+02  0.86333550190E+02  0.00000000000E+00 0. -1.
         -2   -1    0    0    0  501 -0.00000000000E+00 -0.00000000000E+00 -0.23651486912E+03  0.23651486912E+03  0.00000000000E+00 0.  1.
         23    2    1    2    0    0  0.62398599180E+02 -0.34266339812E+02  0.11489204680E+02  0.11630323730E+03  0.91250610723E+02 0.  0.
         23    2    1    2    0    0 -0.62398599180E+02  0.34266339812E+02 -0.16167052361E+03  0.20654518202E+03  0.10703170925E+03 0.  0.
          5    1    3    3  502    0 -0.15262625957E+02 -0.28272458260E+02 -0.12301802787E+02  0.34723248682E+02  0.47000000000E+01 0. -1.
         -5    1    3    3    0  502  0.77661225137E+02 -0.59938815518E+01  0.23791007467E+02  0.81579988614E+02  0.47000000000E+01 0.  1.
          5    1    4    4  503    0 -0.76515351287E+02 -0.13466846814E+02 -0.87643730188E+02  0.11721547844E+03  0.47000000000E+01 0. -1.
         -5    1    4    4    0  503  0.14116752107E+02  0.47733186627E+02 -0.74026793427E+02  0.89329703575E+02  0.47000000000E+01 0.  1.
<mgrwt>
<rscale>  0 0.12521443E+03</rscale>
<asrwt>0</asrwt>
<pdfrwt beam="1">  1        2 0.13282085E-01 0.12854398E+03</pdfrwt>
<pdfrwt beam="2">  1       -2 0.36386902E-01 0.12854398E+03</pdfrwt>
<totfact> 0.30857591E+03</totfact>
</mgrwt>
</event>
<event>
 8    1  0.3466492E-004  0.1001576E+03  0.7546771E-02  0.1283703E+00
         -3   -1    0    0    0  501 -0.00000000000E+00  0.00000000000E+00  0.11869461380E+03  0.11869461380E+03  0.00000000000E+00 0.  1.
          3   -1    0    0  501    0  0.00000000000E+00 -0.00000000000E+00 -0.78847538047E+02  0.78847538047E+02  0.00000000000E+00 0. -1.
         23    2    1    2    0    0  0.39056096299E+02  0.77203631164E+01  0.17626974630E+02  0.94949423949E+02  0.84378315988E+02 0.  0.
         23    2    1    2    0    0 -0.39056096299E+02 -0.77203631164E+01  0.22220101119E+02  0.10259272789E+03  0.91905126398E+02 0.  0.
          5    1    4    4  502    0 -0.53358204806E+02  0.11056991789E+02 -0.16388879322E+02  0.57096763945E+02  0.47000000000E+01 0. -1.
         -5    1    3    3    0  503  0.65550284797E+02  0.43312476376E+01  0.89017508471E+01  0.66459993313E+02  0.47000000000E+01 0.  1.
          5    1    3    3  503    0 -0.26494188498E+02  0.33891154789E+01  0.87252237830E+01  0.28489430636E+02  0.47000000000E+01 0. -1.
         -5    1    4    4    0  502  0.14302108508E+02 -0.18777354905E+02  0.38608980441E+02  0.45495963949E+02  0.47000000000E+01 0.  1.
<mgrwt>
<rscale>  0 0.98397007E+02</rscale>
<asrwt>0</asrwt>
<pdfrwt beam="1">  1        3 0.12130390E-01 0.10015755E+03</pdfrwt>
<pdfrwt beam="2">  1       -3 0.18260710E-01 0.10015755E+03</pdfrwt>
<totfact> 0.30262308E+03</totfact>
</mgrwt>
</event>
<event>
 8    1  0.3466492E-004  0.1053442E+03  0.7546771E-02  0.1269531E+00
          2   -1    0    0  501    0  0.00000000000E+00  0.00000000000E+00  0.61464364363E+03  0.61464364363E+03  0.00000000000E+00 0. -1.
         -2   -1    0    0    0  501 -0.00000000000E+00 -0.00000000000E+00 -0.18819969092E+02  0.18819969092E+02  0.00000000000E+00 0.  1.
         23    2    1    2    0    0  0.25650176873E+02  0.57389849130E+02  0.23254608771E+03  0.25522030972E+03  0.84310125287E+02 0.  0.
         23    2    1    2    0    0 -0.25650176873E+02 -0.57389849130E+02  0.36327758682E+03  0.37824330300E+03  0.84533217258E+02 0.  0.
          5    1    4    4  502    0 -0.56324156024E+02 -0.31668604810E+02  0.21106226660E+03  0.22078197722E+03  0.47000000000E+01 0. -1.
         -5    1    4    4    0  502  0.30673979151E+02 -0.25721244320E+02  0.15221532022E+03  0.15746132578E+03  0.47000000000E+01 0.  1.
          5    1    3    3  503    0 -0.61788458035E+01  0.27486058045E+02  0.19602799703E+03  0.19809777167E+03  0.47000000000E+01 0. -1.
         -5    1    3    3    0  503  0.31829022676E+02  0.29903791085E+02  0.36518090686E+02  0.57122538049E+02  0.47000000000E+01 0.  1.
<mgrwt>
<rscale>  0 0.10529939E+03</rscale>
<asrwt>0</asrwt>
<pdfrwt beam="1">  1        2 0.94560545E-01 0.10534416E+03</pdfrwt>
<pdfrwt beam="2">  1       -2 0.28953803E-02 0.10534416E+03</pdfrwt>
<totfact> 0.20211070E+04</totfact>
</mgrwt>
</event>
<event>
 8    1  0.3466492E-004  0.9599440E+02  0.7546771E-02  0.1289360E+00
         -1   -1    0    0    0  501 -0.00000000000E+00  0.00000000000E+00  0.57590228978E+03  0.57590228978E+03  0.00000000000E+00 0.  1.
          1   -1    0    0  501    0  0.00000000000E+00 -0.00000000000E+00 -0.16313581823E+02  0.16313581823E+02  0.00000000000E+00 0. -1.
         23    2    1    2    0    0  0.92205557613E+01  0.29846664236E+02  0.23042892189E+03  0.24934404508E+03  0.89995126306E+02 0.  0.
         23    2    1    2    0    0 -0.92205557613E+01 -0.29846664236E+02  0.32915978606E+03  0.34287182651E+03  0.90769392663E+02 0.  0.
          5    1    4    4  502    0  0.15150266112E+02 -0.41557120597E+02  0.29820061016E+03  0.30149994815E+03  0.47000000000E+01 0. -1.
         -5    1    4    4    0  502 -0.24370821873E+02  0.11710456360E+02  0.30959175898E+02  0.41371878362E+02  0.47000000000E+01 0.  1.
          5    1    3    3  503    0  0.44353292981E+02  0.36782564512E+02  0.16131788888E+03  0.17136429886E+03  0.47000000000E+01 0. -1.
         -5    1    3    3    0  503 -0.35132737220E+02 -0.69359002757E+01  0.69111033018E+02  0.77979746229E+02  0.47000000000E+01 0.  1.
<mgrwt>
<rscale>  0 0.95810926E+02</rscale>
<asrwt>0</asrwt>
<pdfrwt beam="1">  1        1 0.25097823E-02 0.95994399E+02</pdfrwt>
<pdfrwt beam="2">  1       -1 0.88600337E-01 0.95994399E+02</pdfrwt>
<totfact> 0.53423899E+03</totfact>
</mgrwt>
</event>
<event>
 8    1  0.3466492E-004  0.9527461E+02  0.7546771E-02  0.1291630E+00
          4   -1    0    0  501    0  0.00000000000E+00  0.00000000000E+00  0.15575758322E+02  0.15575758322E+02  0.00000000000E+00 0. -1.
         -4   -1    0    0    0  501 -0.00000000000E+00 -0.00000000000E+00 -0.68844586892E+03  0.68844586892E+03  0.00000000000E+00 0.  1.
         23    2    1    2    0    0 -0.18389626023E+02 -0.22262156421E+02 -0.47885001057E+03  0.48787110111E+03  0.88809327870E+02 0.  0.
         23    2    1    2    0    0  0.18389626023E+02  0.22262156421E+02 -0.19402010003E+03  0.21615052614E+03  0.90793550325E+02 0.  0.
          5    1    4    4  502    0  0.39767101575E+02 -0.22078144110E+02 -0.88298433738E+02  0.99436262075E+02  0.47000000000E+01 0. -1.
         -5    1    3    3    0  503 -0.50754974527E+02 -0.22097369408E+00 -0.32865968041E+03  0.33258892314E+03  0.47000000000E+01 0.  1.
          5    1    3    3  503    0  0.32365348504E+02 -0.22041182727E+02 -0.15019033016E+03  0.15528217796E+03  0.47000000000E+01 0. -1.
         -5    1    4    4    0  502 -0.21377475552E+02  0.44340300532E+02 -0.10572166629E+03  0.11671426406E+03  0.47000000000E+01 0.  1.
<mgrwt>
<rscale>  0 0.94798814E+02</rscale>
<asrwt>0</asrwt>
<pdfrwt beam="1">  1        4 0.23962711E-02 0.95274607E+02</pdfrwt>
<pdfrwt beam="2">  1       -4 0.10591472E+00 0.95274607E+02</pdfrwt>
<totfact> 0.87878049E+02</totfact>
</mgrwt>
</event>
<event>
 7    1  0.3466492E-004  0.1771430E+03  0.7546771E-02  0.1190552E+00
         -2   -1    0    0    0  501 -0.00000000000E+00  0.00000000000E+00  0.64094830770E+03  0.64094830770E+03  0.00000000000E+00 0.  1.
          2   -1    0    0  501    0  0.00000000000E+00 -0.00000000000E+00 -0.37976018463E+02  0.37976018463E+02  0.00000000000E+00 0. -1.
         23    2    1    2    0    0  0.23307141954E+02 -0.66341939703E+02  0.36577782264E+03  0.38288231703E+03  0.88662152767E+02 0.  0.
          5    1    3    3  502    0  0.45137227193E+02 -0.14900584919E+02  0.94693163503E+02  0.10605791778E+03  0.47000000000E+01 0. -1.
         -5    1    3    3    0  502 -0.21830085239E+02 -0.51441354784E+02  0.27108465913E+03  0.27682439925E+03  0.47000000000E+01 0.  1.
          5    1    1    2  503    0  0.17039202715E+02  0.55177131832E+02  0.29225121849E+01  0.58012769144E+02  0.47000000000E+01 0. -1.
         -5    1    1    2    0  503 -0.40346344668E+02  0.11164807872E+02  0.23427195441E+03  0.23802923998E+03  0.47000000000E+01 0.  1.
<mgrwt>
<rscale>  0 0.15836800E+03</rscale>
<asrwt>0</asrwt>
<pdfrwt beam="1">  1        2 0.58424648E-02 0.17714304E+03</pdfrwt>
<pdfrwt beam="2">  1       -2 0.98607424E-01 0.17714304E+03</pdfrwt>
<totfact> 0.11134749E+03</totfact>
</mgrwt>
</event>
<event>
 8    1  0.3466492E-004  0.1437924E+03  0.7546771E-02  0.1208677E+00
         -1   -1    0    0    0  501 -0.00000000000E+00  0.00000000000E+00  0.46462096114E+03  0.46462096114E+03  0.00000000000E+00 0.  1.
          1   -1    0    0  501    0  0.00000000000E+00 -0.00000000000E+00 -0.45458977720E+02  0.45458977720E+02  0.00000000000E+00 0. -1.
         23    2    1    2    0    0  0.83874478684E+02 -0.72306107104E+02  0.25193177955E+03  0.28953016351E+03  0.89972177561E+02 0.  0.
         23    2    1    2    0    0 -0.83874478684E+02  0.72306107104E+02  0.16723020387E+03  0.22054977535E+03  0.91723285057E+02 0.  0.
          5    1    4    4  502    0 -0.14449868368E+02  0.66838846403E+02  0.11298534641E+03  0.13215146078E+03  0.47000000000E+01 0. -1.
         -5    1    4    4    0  502 -0.69424610316E+02  0.54672607012E+01  0.54244857461E+02  0.88398314566E+02  0.47000000000E+01 0.  1.
          5    1    3    3  503    0  0.34566181336E+02 -0.39532816966E+01  0.15306609651E+02  0.38299237947E+02  0.47000000000E+01 0. -1.
         -5    1    3    3    0  503  0.49308297347E+02 -0.68352825408E+02  0.23662516990E+03  0.25123092556E+03  0.47000000000E+01 0.  1.
<mgrwt>
<rscale>  0 0.14351396E+03</rscale>
<asrwt>0</asrwt>
<pdfrwt beam="1">  1        1 0.69936892E-02 0.14379243E+03</pdfrwt>
<pdfrwt beam="2">  1       -1 0.71480144E-01 0.14379243E+03</pdfrwt>
<totfact> 0.20921077E+03</totfact>
</mgrwt>
</event>
<event>
 8    1  0.3466492E-004  0.9286221E+02  0.7546771E-02  0.1297247E+00
          2   -1    0    0  501    0  0.00000000000E+00  0.00000000000E+00  0.34228093781E+03  0.34228093781E+03  0.00000000000E+00 0. -1.
         -2   -1    0    0    0  501 -0.00000000000E+00 -0.00000000000E+00 -0.36057223299E+02  0.36057223299E+02  0.00000000000E+00 0.  1.
         23    2    1    2    0    0 -0.15570261282E+02 -0.85304399799E+01  0.26064977676E+03  0.27669784237E+03  0.91149264419E+02 0.  0.
         23    2    1    2    0    0  0.15570261282E+02  0.85304399799E+01  0.45573937748E+02  0.10164031874E+03  0.89098648410E+02 0.  0.
          5    1    3    3  502    0  0.25109798213E+02 -0.34621730830E+02  0.99822624630E+02  0.10870056394E+03  0.47000000000E+01 0.  1.
         -5    1    4    4    0  503  0.37879746021E+02  0.34169479921E+02  0.43603537266E+02  0.67273969549E+02  0.47000000000E+01 0.  1.
          5    1    4    4  503    0 -0.22309484739E+02 -0.25639039941E+02  0.19704004812E+01  0.34366349188E+02  0.47000000000E+01 0. -1.
         -5    1    3    3    0  502 -0.40680059495E+02  0.26091290850E+02  0.16082715213E+03  0.16799727844E+03  0.47000000000E+01 0. -1.
<mgrwt>
<rscale>  0 0.92355084E+02</rscale>
<asrwt>0</asrwt>
<pdfrwt beam="1">  1        2 0.52658604E-01 0.92862209E+02</pdfrwt>
<pdfrwt beam="2">  1       -2 0.55472654E-02 0.92862209E+02</pdfrwt>
<totfact> 0.14387462E+04</totfact>
</mgrwt>
</event>
<event>
 8    1  0.3466492E-004  0.1137261E+03  0.7546771E-02  0.1253931E+00
          1   -1    0    0  501    0  0.00000000000E+00  0.00000000000E+00  0.12875955450E+02  0.12875955450E+02  0.00000000000E+00 0. -1.
         -1   -1    0    0    0  501 -0.00000000000E+00 -0.00000000000E+00 -0.10098787240E+04  0.10098787240E+04  0.00000000000E+00 0.  1.
         23    2    1    2    0    0 -0.56983823499E+02  0.37655968352E+02 -0.54226111749E+03  0.55400784348E+03  0.90622530337E+02 0.  0.
         23    2    1    2    0    0  0.56983823499E+02 -0.37655968352E+02 -0.45474165109E+03  0.46874683600E+03  0.90931286859E+02 0.  0.
          5    1    3    3  502    0 -0.53397692911E+02  0.64637490011E+02 -0.35988746845E+03  0.36955432439E+03  0.47000000000E+01 0. -1.
         -5    1    3    3    0  502 -0.35861305880E+01 -0.26981521659E+02 -0.18237364904E+03  0.18445351909E+03  0.47000000000E+01 0.  1.
          5    1    4    4  503    0  0.42305140354E+02  0.19148997525E+02 -0.11792172707E+03  0.12682283990E+03  0.47000000000E+01 0. -1.
         -5    1    4    4    0  503  0.14678683145E+02 -0.56804965878E+02 -0.33681992403E+03  0.34192399610E+03  0.47000000000E+01 0.  1.
<mgrwt>
<rscale>  0 0.11366438E+03</rscale>
<asrwt>0</asrwt>
<pdfrwt beam="1">  1        1 0.19809154E-02 0.11372611E+03</pdfrwt>
<pdfrwt beam="2">  1       -1 0.15536602E+00 0.11372611E+03</pdfrwt>
<totfact> 0.20273465E+03</totfact>
</mgrwt>
</event>
<event>
 8    1  0.3466492E-004  0.9182722E+02  0.7546771E-02  0.1300676E+00
         -1   -1    0    0    0  501 -0.00000000000E+00  0.00000000000E+00  0.19463001367E+02  0.19463001367E+02  0.00000000000E+00 0.  1.
          1   -1    0    0  501    0  0.00000000000E+00 -0.00000000000E+00 -0.43249853278E+03  0.43249853278E+03  0.00000000000E+00 0. -1.
         23    2    1    2    0    0 -0.11014256557E+02 -0.19925600471E+02 -0.25430901092E+03  0.27037993949E+03  0.88960076655E+02 0.  0.
         23    2    1    2    0    0  0.11014256557E+02  0.19925600471E+02 -0.15872652049E+03  0.18158159466E+03  0.85202252383E+02 0.  0.
          5    1    3    3  502    0 -0.28797237040E+01  0.24909757477E+02 -0.18837300348E+03  0.19009278594E+03  0.47000000000E+01 0. -1.
         -5    1    3    3    0  502 -0.81345328526E+01 -0.44835357949E+02 -0.65936007443E+02  0.80287153547E+02  0.47000000000E+01 0.  1.
          5    1    4    4  503    0  0.26252520786E+02 -0.60161140632E+01 -0.14606734531E+03  0.14860399672E+03  0.47000000000E+01 0. -1.
         -5    1    4    4    0  503 -0.15238264229E+02  0.25941714535E+02 -0.12659175185E+02  0.32977597943E+02  0.47000000000E+01 0.  1.
<mgrwt>
<rscale>  0 0.90904514E+02</rscale>
<asrwt>0</asrwt>
<pdfrwt beam="1">  1        1 0.66538241E-01 0.91827222E+02</pdfrwt>
<pdfrwt beam="2">  1       -1 0.29943077E-02 0.91827222E+02</pdfrwt>
<totfact> 0.18740623E+04</totfact>
</mgrwt>
</event>
<event>
 7    1  0.3466492E-004  0.2871070E+03  0.7546771E-02  0.1124557E+00
          1   -1    0    0  501    0  0.00000000000E+00  0.00000000000E+00  0.78589497945E+03  0.78589497945E+03  0.00000000000E+00 0. -1.
         -1   -1    0    0    0  501 -0.00000000000E+00 -0.00000000000E+00 -0.57690702470E+02  0.57690702470E+02  0.00000000000E+00 0.  1.
         23    2    1    2    0    0 -0.60273081029E+02 -0.60511928408E+02  0.12973150946E+03  0.17980855389E+03  0.90588706402E+02 0.  0.
          5    1    1    2  502    0  0.14817709517E+03 -0.37033406201E+02  0.36830009786E+03  0.39874174197E+03  0.47000000000E+01 0. -1.
         -5    1    3    3    0  503 -0.26412775691E+02 -0.41760317869E+01 -0.69893034331E+01  0.28035946990E+02  0.47000000000E+01 0.  1.
          5    1    3    3  503    0 -0.33860305338E+02 -0.56335896621E+02  0.13672081290E+03  0.15177260690E+03  0.47000000000E+01 0. -1.
         -5    1    1    2    0  502 -0.87904014140E+02  0.97545334610E+02  0.23017266965E+03  0.26503538605E+03  0.47000000000E+01 0.  1.
<mgrwt>
<rscale>  0 0.23298463E+03</rscale>
<asrwt>0</asrwt>
<pdfrwt beam="1">  1        1 0.12090691E+00 0.28710699E+03</pdfrwt>
<pdfrwt beam="2">  1       -1 0.88754933E-02 0.28710699E+03</pdfrwt>
<totfact> 0.17372253E+03</totfact>
</mgrwt>
</event>
<event>
 8    1  0.3466492E-004  0.1500520E+03  0.7546771E-02  0.1201063E+00
          2   -1    0    0  501    0  0.00000000000E+00  0.00000000000E+00  0.88873891426E+03  0.88873891426E+03  0.00000000000E+00 0. -1.
         -2   -1    0    0    0  501 -0.00000000000E+00 -0.00000000000E+00 -0.25232634104E+02  0.25232634104E+02  0.00000000000E+00 0.  1.
         23    2    1    2    0    0  0.11646356580E+03 -0.38450574289E+01  0.38289701269E+03  0.41048286029E+03  0.91145541000E+02 0.  0.
         23    2    1    2    0    0 -0.11646356580E+03  0.38450574289E+01  0.48060926747E+03  0.50348868807E+03  0.94535942454E+02 0.  0.
          5    1    3    3  502    0  0.29949432966E+02  0.17858263428E+02  0.23565947328E+03  0.23827161697E+03  0.47000000000E+01 0. -1.
         -5    1    3    3    0  502  0.86514132829E+02 -0.21703320857E+02  0.14723753941E+03  0.17221124332E+03  0.47000000000E+01 0.  1.
          5    1    4    4  503    0 -0.52847525243E+02  0.13227744578E+02  0.38052854186E+03  0.38443711491E+03  0.47000000000E+01 0. -1.
         -5    1    4    4    0  503 -0.63616040552E+02 -0.93826871495E+01  0.10008072560E+03  0.11905157316E+03  0.47000000000E+01 0.  1.
<mgrwt>
<rscale>  0 0.14952100E+03</rscale>
<asrwt>0</asrwt>
<pdfrwt beam="1">  1        2 0.13672904E+00 0.15005196E+03</pdfrwt>
<pdfrwt beam="2">  1       -2 0.38819444E-02 0.15005196E+03</pdfrwt>
<totfact> 0.86170886E+03</totfact>
</mgrwt>
</event>
<event>
 8    1  0.3466492E-004  0.1031967E+03  0.7546771E-02  0.1274759E+00
         -1   -1    0    0    0  501 -0.00000000000E+00  0.00000000000E+00  0.68670223216E+02  0.68670223216E+02  0.00000000000E+00 0.  1.
          1   -1    0    0  501    0  0.00000000000E+00 -0.00000000000E+00 -0.15683343005E+03  0.15683343005E+03  0.00000000000E+00 0. -1.
         23    2    1    2    0    0 -0.40047505903E+02  0.12213216609E+01 -0.24747271344E+02  0.10612246786E+03  0.95101295414E+02 0.  0.
         23    2    1    2    0    0  0.40047505903E+02 -0.12213216609E+01 -0.63415935492E+02  0.11938118541E+03  0.92870836110E+02 0.  0.
          5    1    3    3  502    0  0.30451922536E+02  0.63053294525E+01 -0.12041741740E+01  0.31474065531E+02  0.47000000000E+01 0. -1.
         -5    1    3    3    0  502 -0.70499428439E+02 -0.50840077916E+01 -0.23543097170E+02  0.74648402326E+02  0.47000000000E+01 0.  1.
          5    1    4    4  503    0  0.54424115698E+02 -0.34059493800E+02 -0.46816857371E+02  0.79598628264E+02  0.47000000000E+01 0. -1.
         -5    1    4    4    0  503 -0.14376609794E+02  0.32838172139E+02 -0.16599078121E+02  0.39782557146E+02  0.47000000000E+01 0.  1.
<mgrwt>
<rscale>  0 0.10267985E+03</rscale>
<asrwt>0</asrwt>
<pdfrwt beam="1">  1        1 0.24128220E-01 0.10319666E+03</pdfrwt>
<pdfrwt beam="2">  1       -1 0.10564650E-01 0.10319666E+03</pdfrwt>
<totfact> 0.10293223E+04</totfact>
</mgrwt>
</event>
<event>
 8    1  0.3466492E-004  0.9882800E+02  0.7546771E-02  0.1286683E+00
          2   -1    0    0  501    0  0.00000000000E+00  0.00000000000E+00  0.53742445497E+02  0.53742445497E+02  0.00000000000E+00 0. -1.
         -2   -1    0    0    0  501 -0.00000000000E+00 -0.00000000000E+00 -0.32394778511E+03  0.32394778511E+03  0.00000000000E+00 0.  1.
         23    2    1    2    0    0 -0.38898258084E+02  0.86061461099E+01 -0.19683083737E+01  0.91826490880E+02  0.82710881730E+02 0.  0.
         23    2    1    2    0    0  0.38898258084E+02 -0.86061461099E+01 -0.26823703124E+03  0.28586373973E+03  0.90442426601E+02 0.  0.
          5    1    3    3  502    0  0.38573434548E+01  0.37061798203E+02  0.10034035085E+02  0.38874514076E+02  0.47000000000E+01 0. -1.
         -5    1    3    3    0  502 -0.42755601539E+02 -0.28455652093E+02 -0.12002343459E+02  0.52951976804E+02  0.47000000000E+01 0.  1.
          5    1    4    4  503    0  0.56334751621E+02  0.22255982654E+02 -0.19701242173E+03  0.20616720719E+03  0.47000000000E+01 0. -1.
         -5    1    4    4    0  503 -0.17436493537E+02 -0.30862128764E+02 -0.71224609506E+02  0.79696532534E+02  0.47000000000E+01 0.  1.
<mgrwt>
<rscale>  0 0.97023523E+02</rscale>
<asrwt>0</asrwt>
<pdfrwt beam="1">  1        2 0.82680685E-02 0.98827996E+02</pdfrwt>
<pdfrwt beam="2">  1       -2 0.49838121E-01 0.98827996E+02</pdfrwt>
<totfact> 0.29581892E+03</totfact>
</mgrwt>
</event>
<event>
 8    1  0.3466492E-004  0.1235249E+03  0.7546771E-02  0.1237972E+00
         -1   -1    0    0    0  501 -0.00000000000E+00  0.00000000000E+00  0.42867330482E+02  0.42867330482E+02  0.00000000000E+00 0.  1.
          1   -1    0    0  501    0  0.00000000000E+00 -0.00000000000E+00 -0.35566210711E+03  0.35566210711E+03  0.00000000000E+00 0. -1.
         23    2    1    2    0    0  0.32246680407E+02  0.74538574644E+02 -0.13648764755E+03  0.18408497336E+03  0.93072831555E+02 0.  0.
         23    2    1    2    0    0 -0.32246680407E+02 -0.74538574644E+02 -0.17630712907E+03  0.21444446423E+03  0.91139327249E+02 0.  0.
          5    1    4    4  502    0 -0.17066537077E+02  0.18753573402E+02 -0.53618357585E+02  0.59497743430E+02  0.47000000000E+01 0.  1.
         -5    1    4    4    0  502 -0.15180143331E+02 -0.93292148046E+02 -0.12268877149E+03  0.15494672080E+03  0.47000000000E+01 0. -1.
          5    1    3    3  503    0 -0.32321556314E+02  0.17975782440E+02 -0.47052567178E+02  0.60032040070E+02  0.47000000000E+01 0. -1.
         -5    1    3    3    0  503  0.64568236721E+02  0.56562792204E+02 -0.89435080376E+02  0.12405293329E+03  0.47000000000E+01 0.  1.
<mgrwt>
<rscale>  0 0.12316073E+03</rscale>
<asrwt>0</asrwt>
<pdfrwt beam="1">  1        1 0.54717249E-01 0.12352489E+03</pdfrwt>
<pdfrwt beam="2">  1       -1 0.65949737E-02 0.12352489E+03</pdfrwt>
<totfact> 0.77181322E+03</totfact>
</mgrwt>
</event>
<event>
 8    1  0.3466492E-004  0.1124554E+03  0.7546771E-02  0.1256484E+00
          3   -1    0    0  501    0  0.00000000000E+00  0.00000000000E+00  0.44527619258E+03  0.44527619258E+03  0.00000000000E+00 0. -1.
         -3   -1    0    0    0  501 -0.00000000000E+00 -0.00000000000E+00 -0.65572768507E+02  0.65572768507E+02  0.00000000000E+00 0.  1.
         23    2    1    2    0    0 -0.60651763687E+02 -0.20030835000E+02  0.38305070665E+03  0.39921681109E+03  0.92554565569E+02 0.  0.
         23    2    1    2    0    0  0.60651763687E+02  0.20030835000E+02 -0.33472825727E+01  0.11163215000E+03  0.91491321025E+02 0.  0.
          5    1    3    3  502    0 -0.39168631034E+02  0.33255855820E+01  0.35315154087E+03  0.35536367569E+03  0.47000000000E+01 0. -1.
         -5    1    4    4    0  503  0.19618734672E+02 -0.36420445536E+02 -0.14388151779E+01  0.41659378204E+02  0.47000000000E+01 0.  1.
          5    1    4    4  503    0  0.41033029015E+02  0.56451280537E+02 -0.19084673947E+01  0.69972771792E+02  0.47000000000E+01 0. -1.
         -5    1    3    3    0  502 -0.21483132653E+02 -0.23356420582E+02  0.29899165774E+02  0.43853135407E+02  0.47000000000E+01 0.  1.
<mgrwt>
<rscale>  0 0.11223640E+03</rscale>
<asrwt>0</asrwt>
<pdfrwt beam="1">  1        3 0.68504028E-01 0.11245541E+03</pdfrwt>
<pdfrwt beam="2">  1       -3 0.10088119E-01 0.11245541E+03</pdfrwt>
<totfact> 0.34353636E+02</totfact>
</mgrwt>
</event>
<event>
 8    1  0.3466492E-004  0.1010676E+03  0.7546771E-02  0.1278319E+00
         -2   -1    0    0    0  501 -0.00000000000E+00  0.00000000000E+00  0.85883108442E+02  0.85883108442E+02  0.00000000000E+00 0.  1.
          2   -1    0    0  501    0  0.00000000000E+00 -0.00000000000E+00 -0.15902911052E+03  0.15902911052E+03  0.00000000000E+00 0. -1.
         23    2    1    2    0    0  0.79736281099E+01 -0.44916846452E+02  0.25413526456E+02  0.10374340979E+03  0.89642322077E+02 0.  0.
         23    2    1    2    0    0 -0.79736281099E+01  0.44916846452E+02 -0.98559528534E+02  0.14116880917E+03  0.90186197268E+02 0.  0.
          5    1    3    3  502    0  0.17762668393E+02 -0.65719322170E+02 -0.12153996819E+01  0.68250339862E+02  0.47000000000E+01 0. -1.
         -5    1    3    3    0  502 -0.97890402833E+01  0.20802475717E+02  0.26628926138E+02  0.35493069928E+02  0.47000000000E+01 0.  1.
          5    1    4    4  503    0  0.33482042556E+01  0.70868964778E+02 -0.59601264251E+02  0.92779423046E+02  0.47000000000E+01 0. -1.
         -5    1    4    4    0  503 -0.11321832365E+02 -0.25952118325E+02 -0.38958264283E+02  0.48389386126E+02  0.47000000000E+01 0.  1.
<mgrwt>
<rscale>  0 0.10094609E+03</rscale>
<asrwt>0</asrwt>
<pdfrwt beam="1">  1        2 0.24466016E-01 0.10106756E+03</pdfrwt>
<pdfrwt beam="2">  1       -2 0.13212786E-01 0.10106756E+03</pdfrwt>
<totfact> 0.85841446E+03</totfact>
</mgrwt>
</event>
<event>
 8    1  0.3466492E-004  0.1640979E+03  0.7546771E-02  0.1184288E+00
         -1   -1    0    0    0  501 -0.00000000000E+00  0.00000000000E+00  0.29620839790E+03  0.29620839790E+03  0.00000000000E+00 0.  1.
          1   -1    0    0  501    0  0.00000000000E+00 -0.00000000000E+00 -0.96124192414E+02  0.96124192414E+02  0.00000000000E+00 0. -1.
         23    2    1    2    0    0  0.58115513128E+02  0.12276488968E+03  0.52960193238E+02  0.17193841073E+03  0.91155932412E+02 0.  0.
         23    2    1    2    0    0 -0.58115513128E+02 -0.12276488968E+03  0.14712401225E+03  0.22039417958E+03  0.92084137665E+02 0.  0.
          5    1    3    3  502    0  0.39276494225E+02  0.25979221965E+01  0.11859836933E+01  0.39659661568E+02  0.47000000000E+01 0. -1.
         -5    1    4    4    0  503 -0.26209352571E+02 -0.18299921443E+02 -0.53750490909E+01  0.32753601935E+02  0.47000000000E+01 0.  1.
          5    1    4    4  503    0 -0.31906160558E+02 -0.10446496824E+03  0.15249906134E+03  0.18764057765E+03  0.47000000000E+01 0. -1.
         -5    1    3    3    0  502  0.18839018904E+02  0.12016696748E+03  0.51774209545E+02  0.13227874917E+03  0.47000000000E+01 0.  1.
<mgrwt>
<rscale>  0 0.16396798E+03</rscale>
<asrwt>0</asrwt>
<pdfrwt beam="1">  1        1 0.14788337E-01 0.16409790E+03</pdfrwt>
<pdfrwt beam="2">  1       -1 0.45570522E-01 0.16409790E+03</pdfrwt>
<totfact> 0.18185418E+03</totfact>
</mgrwt>
</event>
<event>
 8    1  0.3466492E-004  0.1015813E+03  0.7546771E-02  0.1277345E+00
          1   -1    0    0  501    0  0.00000000000E+00  0.00000000000E+00  0.11271800165E+03  0.11271800165E+03  0.00000000000E+00 0. -1.
         -1   -1    0    0    0  501 -0.00000000000E+00 -0.00000000000E+00 -0.93407323449E+02  0.93407323449E+02  0.00000000000E+00 0.  1.
         23    2    1    2    0    0  0.14550030989E+02  0.38480823150E+02  0.26387122446E+02  0.10495251883E+03  0.92877735904E+02 0.  0.
         23    2    1    2    0    0 -0.14550030989E+02 -0.38480823150E+02 -0.70764442412E+01  0.10117280627E+03  0.92159554648E+02 0.  0.
          5    1    3    3  502    0  0.37225004478E+02  0.43113759888E+02 -0.13382232883E+02  0.58699841627E+02  0.47000000000E+01 0. -1.
         -5    1    3    3    0  502 -0.22674973490E+02 -0.46329367372E+01  0.39769355329E+02  0.46252677208E+02  0.47000000000E+01 0.  1.
          5    1    4    4  503    0  0.27567085990E+02  0.15663938652E+02 -0.86195496645E-02  0.32052976124E+02  0.47000000000E+01 0. -1.
         -5    1    4    4    0  503 -0.42117116979E+02 -0.54144761803E+02 -0.70678246915E+01  0.69119830144E+02  0.47000000000E+01 0.  1.
<mgrwt>
<rscale>  0 0.10141680E+03</rscale>
<asrwt>0</asrwt>
<pdfrwt beam="1">  1        1 0.17341231E-01 0.10158125E+03</pdfrwt>
<pdfrwt beam="2">  1       -1 0.14370357E-01 0.10158125E+03</pdfrwt>
<totfact> 0.97161529E+03</totfact>
</mgrwt>
</event>
<event>
 8    1  0.3466492E-004  0.1052017E+03  0.7546771E-02  0.1270015E+00
         -3   -1    0    0    0  501 -0.00000000000E+00  0.00000000000E+00  0.21539984954E+03  0.21539984954E+03  0.00000000000E+00 0.  1.
          3   -1    0    0  501    0  0.00000000000E+00 -0.00000000000E+00 -0.56480795354E+02  0.56480795354E+02  0.00000000000E+00 0. -1.
         23    2    1    2    0    0 -0.34690377564E+02 -0.43290498573E+02  0.37265679697E+02  0.11104864196E+03  0.88688107637E+02 0.  0.
         23    2    1    2    0    0  0.34690377564E+02  0.43290498573E+02  0.12165337449E+03  0.16083200293E+03  0.89386241001E+02 0.  0.
          5    1    4    4  502    0  0.22068095087E+02  0.24126947194E+02 -0.37630773064E+01  0.33246972080E+02  0.47000000000E+01 0. -1.
         -5    1    3    3    0  503  0.22910294654E+02 -0.10537658640E+01 -0.98009015350E+01  0.25379907299E+02  0.47000000000E+01 0. -1.
          5    1    3    3  503    0 -0.57600672218E+02 -0.42236732709E+02  0.47066581232E+02  0.85668734663E+02  0.47000000000E+01 0.  1.
         -5    1    4    4    0  502  0.12622282477E+02  0.19163551379E+02  0.12541645180E+03  0.12758503085E+03  0.47000000000E+01 0.  1.
<mgrwt>
<rscale>  0 0.10505321E+03</rscale>
<asrwt>0</asrwt>
<pdfrwt beam="1">  1        3 0.86893533E-02 0.10520166E+03</pdfrwt>
<pdfrwt beam="2">  1       -3 0.33138438E-01 0.10520166E+03</pdfrwt>
<totfact> 0.18168827E+03</totfact>
</mgrwt>
</event>
<event>
 8    1  0.3466492E-004  0.9695374E+02  0.7546771E-02  0.1288424E+00
         -2   -1    0    0    0  501 -0.00000000000E+00  0.00000000000E+00  0.46289044131E+03  0.46289044131E+03  0.00000000000E+00 0.  1.
          2   -1    0    0  501    0  0.00000000000E+00 -0.00000000000E+00 -0.21544833269E+02  0.21544833269E+02  0.00000000000E+00 0. -1.
         23    2    1    2    0    0  0.12225114176E+02 -0.28717372489E+02  0.14705768156E+03  0.17458787595E+03  0.88774004212E+02 0.  0.
         23    2    1    2    0    0 -0.12225114176E+02  0.28717372489E+02  0.29428792648E+03  0.30984739863E+03  0.91792624239E+02 0.  0.
          5    1    3    3  502    0  0.24529755548E+00 -0.60047019376E+02  0.94139422662E+02  0.11175878313E+03  0.47000000000E+01 0. -1.
         -5    1    4    4    0  503 -0.55084639335E+01  0.50210622180E+02  0.82749767692E+02  0.97062164656E+02  0.47000000000E+01 0.  1.
          5    1    4    4  503    0 -0.67166502425E+01 -0.21493249691E+02  0.21153815879E+03  0.21278523397E+03  0.47000000000E+01 0. -1.
         -5    1    3    3    0  502  0.11979816621E+02  0.31329646887E+02  0.52918258901E+02  0.62829092827E+02  0.47000000000E+01 0.  1.
<mgrwt>
<rscale>  0 0.96232499E+02</rscale>
<asrwt>0</asrwt>
<pdfrwt beam="1">  1        2 0.33145901E-02 0.96953735E+02</pdfrwt>
<pdfrwt beam="2">  1       -2 0.71213907E-01 0.96953735E+02</pdfrwt>
<totfact> 0.46219369E+03</totfact>
</mgrwt>
</event>
<event>
 8    1  0.3466492E-004  0.9644669E+02  0.7546771E-02  0.1289814E+00
          3   -1    0    0  501    0  0.00000000000E+00  0.00000000000E+00  0.69862631178E+02  0.69862631178E+02  0.00000000000E+00 0. -1.
         -3   -1    0    0    0  501 -0.00000000000E+00 -0.00000000000E+00 -0.41776603759E+03  0.41776603759E+03  0.00000000000E+00 0.  1.
         23    2    1    2    0    0  0.16838167774E+02  0.22094551626E+02 -0.37584810158E+03  0.38721517781E+03  0.88893786961E+02 0.  0.
         23    2    1    2    0    0 -0.16838167774E+02 -0.22094551626E+02  0.27944695174E+02  0.10041349095E+03  0.92359461188E+02 0.  0.
          5    1    3    3  502    0 -0.34741247840E+02  0.20865323339E+02 -0.14538295378E+03  0.15099870618E+03  0.47000000000E+01 0. -1.
         -5    1    3    3    0  502  0.51579415614E+02  0.12292282874E+01 -0.23046514780E+03  0.23621647163E+03  0.47000000000E+01 0.  1.
          5    1    4    4  503    0 -0.30541451338E+02  0.85865401164E+01  0.50390899713E+02  0.59731412966E+02  0.47000000000E+01 0. -1.
         -5    1    4    4    0  503  0.13703283564E+02 -0.30681091742E+02 -0.22446204539E+02  0.40682077985E+02  0.47000000000E+01 0.  1.
<mgrwt>
<rscale>  0 0.95607431E+02</rscale>
<asrwt>0</asrwt>
<pdfrwt beam="1">  1        3 0.10748097E-01 0.96446686E+02</pdfrwt>
<pdfrwt beam="2">  1       -3 0.64271698E-01 0.96446686E+02</pdfrwt>
<totfact> 0.34497784E+02</totfact>
</mgrwt>
</event>
<event>
 8    1  0.3466492E-004  0.1155677E+03  0.7546771E-02  0.1251136E+00
          1   -1    0    0  501    0  0.00000000000E+00  0.00000000000E+00  0.11668660994E+03  0.11668660994E+03  0.00000000000E+00 0. -1.
         -1   -1    0    0    0  501 -0.00000000000E+00 -0.00000000000E+00 -0.19186129969E+03  0.19186129969E+03  0.00000000000E+00 0.  1.
         23    2    1    2    0    0 -0.13289588936E+02 -0.68399432182E+02 -0.13622930641E+03  0.17784378151E+03  0.90636036991E+02 0.  0.
         23    2    1    2    0    0  0.13289588936E+02  0.68399432182E+02  0.61054616660E+02  0.13070412811E+03  0.92199823175E+02 0.  0.
          5    1    3    3  502    0  0.16753570196E+02 -0.32625056234E+02 -0.12390061701E+03  0.12930015199E+03  0.47000000000E+01 0. -1.
         -5    1    3    3    0  502 -0.30043159132E+02 -0.35774375948E+02 -0.12328689397E+02  0.48543629524E+02  0.47000000000E+01 0.  1.
          5    1    4    4  503    0 -0.19451700801E+02  0.29265351528E+02  0.70209054323E+02  0.78652595463E+02  0.47000000000E+01 0. -1.
         -5    1    4    4    0  503  0.32741289738E+02  0.39134080654E+02 -0.91544376630E+01  0.52051532650E+02  0.47000000000E+01 0.  1.
<mgrwt>
<rscale>  0 0.11525555E+03</rscale>
<asrwt>0</asrwt>
<pdfrwt beam="1">  1        1 0.17951786E-01 0.11556774E+03</pdfrwt>
<pdfrwt beam="2">  1       -1 0.29517123E-01 0.11556774E+03</pdfrwt>
<totfact> 0.29586539E+03</totfact>
</mgrwt>
</event>
<event>
 8    1  0.3466492E-004  0.1086646E+03  0.7546771E-02  0.1263196E+00
          1   -1    0    0  501    0  0.00000000000E+00  0.00000000000E+00  0.56240431183E+03  0.56240431183E+03  0.00000000000E+00 0. -1.
         -1   -1    0    0    0  501 -0.00000000000E+00 -0.00000000000E+00 -0.21051410117E+02  0.21051410117E+02  0.00000000000E+00 0.  1.
         23    2    1    2    0    0  0.17308271233E+02  0.55172298538E+02  0.24920561127E+03  0.27175387634E+03  0.91668826960E+02 0.  0.
         23    2    1    2    0    0 -0.17308271233E+02 -0.55172298538E+02  0.29214729044E+03  0.31170184561E+03  0.92002404674E+02 0.  0.
          5    1    3    3  502    0  0.35247897448E+02  0.26731625691E+02  0.22668993276E+03  0.23101387340E+03  0.47000000000E+01 0. -1.
         -5    1    3    3    0  502 -0.17939626215E+02  0.28440672846E+02  0.22515678507E+02  0.40740002937E+02  0.47000000000E+01 0.  1.
          5    1    4    4  503    0  0.62857174910E+01 -0.70093753770E+02  0.13803426646E+03  0.15501030056E+03  0.47000000000E+01 0. -1.
         -5    1    4    4    0  503 -0.23593988724E+02  0.14921455232E+02  0.15411302399E+03  0.15669154506E+03  0.47000000000E+01 0.  1.
<mgrwt>
<rscale>  0 0.10859399E+03</rscale>
<asrwt>0</asrwt>
<pdfrwt beam="1">  1        1 0.86523729E-01 0.10866463E+03</pdfrwt>
<pdfrwt beam="2">  1       -1 0.32386789E-02 0.10866463E+03</pdfrwt>
<totfact> 0.12112920E+04</totfact>
</mgrwt>
</event>
<event>
 8    1  0.3466492E-004  0.9337151E+02  0.7546771E-02  0.1295903E+00
         -1   -1    0    0    0  501 -0.00000000000E+00  0.00000000000E+00  0.20574088943E+02  0.20574088943E+02  0.00000000000E+00 0.  1.
          1   -1    0    0  501    0  0.00000000000E+00 -0.00000000000E+00 -0.45872541431E+03  0.45872541431E+03  0.00000000000E+00 0. -1.
         23    2    1    2    0    0 -0.19646687170E+02  0.82374571152E+01 -0.29420124750E+03  0.30866262133E+03  0.90908700120E+02 0.  0.
         23    2    1    2    0    0  0.19646687170E+02 -0.82374571152E+01 -0.14395007787E+03  0.17063688192E+03  0.89114940044E+02 0.  0.
          5    1    4    4  502    0  0.41226076687E+02 -0.36781469473E+02 -0.90797225760E+02  0.10638934205E+03  0.47000000000E+01 0. -1.
         -5    1    3    3    0  503  0.32203036048E+01  0.42936559220E+02 -0.85870354428E+02  0.96175497100E+02  0.47000000000E+01 0.  1.
          5    1    3    3  503    0 -0.22866990775E+02 -0.34699102104E+02 -0.20833089307E+03  0.21248712423E+03  0.47000000000E+01 0. -1.
         -5    1    4    4    0  502 -0.21579389516E+02  0.28544012358E+02 -0.53152852105E+02  0.64247539877E+02  0.47000000000E+01 0.  1.
<mgrwt>
<rscale>  0 0.92932039E+02</rscale>
<asrwt>0</asrwt>
<pdfrwt beam="1">  1        1 0.70573138E-01 0.93371515E+02</pdfrwt>
<pdfrwt beam="2">  1       -1 0.31652446E-02 0.93371515E+02</pdfrwt>
<totfact> 0.16087131E+04</totfact>
</mgrwt>
</event>
<event>
 8    1  0.3466492E-004  0.1503650E+03  0.7546771E-02  0.1200124E+00
          2   -1    0    0  501    0  0.00000000000E+00  0.00000000000E+00  0.69041000778E+03  0.69041000778E+03  0.00000000000E+00 0. -1.
         -2   -1    0    0    0  501 -0.00000000000E+00 -0.00000000000E+00 -0.35273663813E+02  0.35273663813E+02  0.00000000000E+00 0.  1.
         23    2    1    2    0    0  0.10634734231E+03  0.56737993376E+02  0.22882147009E+03  0.27362834951E+03  0.89354638223E+02 0.  0.
         23    2    1    2    0    0 -0.10634734231E+03 -0.56737993376E+02  0.42631487387E+03  0.45205532207E+03  0.89892632758E+02 0.  0.
          5    1    3    3  502    0  0.33685765010E+02 -0.17213960656E+02  0.10703259892E+03  0.11361830150E+03  0.47000000000E+01 0. -1.
         -5    1    3    3    0  502  0.72661577304E+02  0.73951954032E+02  0.12178887118E+03  0.16001004801E+03  0.47000000000E+01 0.  1.
          5    1    4    4  503    0 -0.47243149333E+02 -0.73947318677E+02  0.27224632073E+03  0.28607738507E+03  0.47000000000E+01 0. -1.
         -5    1    4    4    0  503 -0.59104192981E+02  0.17209325302E+02  0.15406855314E+03  0.16597793700E+03  0.47000000000E+01 0.  1.
<mgrwt>
<rscale>  0 0.15028471E+03</rscale>
<asrwt>0</asrwt>
<pdfrwt beam="1">  1        2 0.10621691E+00 0.15036503E+03</pdfrwt>
<pdfrwt beam="2">  1       -2 0.54267180E-02 0.15036503E+03</pdfrwt>
<totfact> 0.71353304E+03</totfact>
</mgrwt>
</event>
<event>
 8    1  0.3466492E-004  0.9316046E+02  0.7546771E-02  0.1295746E+00
          2   -1    0    0  501    0  0.00000000000E+00  0.00000000000E+00  0.64026216778E+03  0.64026216778E+03  0.00000000000E+00 0. -1.
         -2   -1    0    0    0  501 -0.00000000000E+00 -0.00000000000E+00 -0.15499662767E+02  0.15499662767E+02  0.00000000000E+00 0.  1.
         23    2    1    2    0    0 -0.40992473092E+01  0.12063137850E+02  0.43032686001E+03  0.44016013304E+03  0.91637400427E+02 0.  0.
         23    2    1    2    0    0  0.40992473092E+01 -0.12063137850E+02  0.19443564500E+03  0.21560169750E+03  0.92285149362E+02 0.  0.
          5    1    3    3  502    0  0.40341381053E+02 -0.11059909102E+02  0.20671353507E+03  0.21095573990E+03  0.47000000000E+01 0. -1.
         -5    1    3    3    0  502 -0.44440628362E+02  0.23123046952E+02  0.22361332493E+03  0.22920439315E+03  0.47000000000E+01 0.  1.
          5    1    4    4  503    0  0.39212042278E+02 -0.22033214257E+02  0.15585375891E+03  0.16228225706E+03  0.47000000000E+01 0. -1.
         -5    1    4    4    0  503 -0.35112794968E+02  0.99700764067E+01  0.38581886091E+02  0.53319440436E+02  0.47000000000E+01 0.  1.
<mgrwt>
<rscale>  0 0.92999642E+02</rscale>
<asrwt>0</asrwt>
<pdfrwt beam="1">  1        2 0.98501851E-01 0.93160463E+02</pdfrwt>
<pdfrwt beam="2">  1       -2 0.23845640E-02 0.93160463E+02</pdfrwt>
<totfact> 0.25273107E+04</totfact>
</mgrwt>
</event>
<event>
 8    1  0.3466492E-004  0.9938693E+02  0.7546771E-02  0.1282276E+00
          3   -1    0    0  501    0  0.00000000000E+00  0.00000000000E+00  0.73613418480E+02  0.73613418480E+02  0.00000000000E+00 0. -1.
         -3   -1    0    0    0  501 -0.00000000000E+00 -0.00000000000E+00 -0.13451162768E+03  0.13451162768E+03  0.00000000000E+00 0.  1.
         23    2    1    2    0    0  0.39054515814E+02  0.26920190522E+01 -0.43504881191E+02  0.10849164583E+03  0.91352396552E+02 0.  0.
         23    2    1    2    0    0 -0.39054515814E+02 -0.26920190522E+01 -0.17393328010E+02  0.99633400329E+02  0.89954346365E+02 0.  0.
          5    1    4    4  502    0 -0.42303372405E+01  0.34675174401E+02 -0.30588274710E+02  0.46669004946E+02  0.47000000000E+01 0. -1.
         -5    1    3    3    0  503 -0.11737483378E+02  0.17564913682E+02 -0.50459985490E+02  0.54905326193E+02  0.47000000000E+01 0.  1.
          5    1    3    3  503    0  0.50791999192E+02 -0.14872894630E+02  0.69551042991E+01  0.53586319639E+02  0.47000000000E+01 0. -1.
         -5    1    4    4    0  502 -0.34824178574E+02 -0.37367193453E+02  0.13194946700E+02  0.52964395383E+02  0.47000000000E+01 0.  1.
<mgrwt>
<rscale>  0 0.99064496E+02</rscale>
<asrwt>0</asrwt>
<pdfrwt beam="1">  1        3 0.11325141E-01 0.99386933E+02</pdfrwt>
<pdfrwt beam="2">  1       -3 0.20694096E-01 0.99386933E+02</pdfrwt>
<totfact> 0.27232117E+03</totfact>
</mgrwt>
</event>
<event>
 8    1  0.3466492E-004  0.9841235E+02  0.7546771E-02  0.1294562E+00
         -1   -1    0    0    0  501 -0.00000000000E+00  0.00000000000E+00  0.19159525606E+03  0.19159525606E+03  0.00000000000E+00 0.  1.
          1   -1    0    0  501    0  0.00000000000E+00 -0.00000000000E+00 -0.42092803951E+02  0.42092803951E+02  0.00000000000E+00 0. -1.
         23    2    1    2    0    0  0.19621214205E+02 -0.26976633759E+02  0.94326851566E+02  0.13631781324E+03  0.92586502611E+02 0.  0.
         23    2    1    2    0    0 -0.19621214205E+02  0.26976633759E+02  0.55175600547E+02  0.97370246769E+02  0.72964972723E+02 0.  0.
          5    1    3    3  502    0 -0.11562660454E+02  0.29761983246E+02  0.21599979288E+02  0.38834519036E+02  0.47000000000E+01 0. -1.
         -5    1    4    4    0  503 -0.34018029441E+01  0.39850321665E+02  0.62974147990E+02  0.74749272339E+02  0.47000000000E+01 0.  1.
          5    1    4    4  503    0 -0.16219411261E+02 -0.12873687907E+02 -0.77985474433E+01  0.22620974430E+02  0.47000000000E+01 0. -1.
         -5    1    3    3    0  502  0.31183874659E+02 -0.56738617005E+02  0.72726872279E+02  0.97483294209E+02  0.47000000000E+01 0.  1.
<mgrwt>
<rscale>  0 0.93512449E+02</rscale>
<asrwt>0</asrwt>
<pdfrwt beam="1">  1        1 0.64758161E-02 0.98412353E+02</pdfrwt>
<pdfrwt beam="2">  1       -1 0.29476193E-01 0.98412353E+02</pdfrwt>
<totfact> 0.11135558E+04</totfact>
</mgrwt>
</event>
<event>
 8    1  0.3466492E-004  0.1176650E+03  0.7546771E-02  0.1248527E+00
          1   -1    0    0  501    0  0.00000000000E+00  0.00000000000E+00  0.42761063591E+03  0.42761063591E+03  0.00000000000E+00 0. -1.
         -1   -1    0    0    0  501 -0.00000000000E+00 -0.00000000000E+00 -0.34745655774E+02  0.34745655774E+02  0.00000000000E+00 0.  1.
         23    2    1    2    0    0  0.69129336149E+02 -0.13482462461E+01  0.12751267482E+03  0.17350656333E+03  0.95206945107E+02 0.  0.
         23    2    1    2    0    0 -0.69129336149E+02  0.13482462461E+01  0.26535230532E+03  0.28884972835E+03  0.90783460749E+02 0.  0.
          5    1    4    4  502    0 -0.23786708307E+02  0.16549317957E+00  0.22967290384E+03  0.23094927503E+03  0.47000000000E+01 0. -1.
         -5    1    4    4    0  502 -0.45342627843E+02  0.11827530666E+01  0.35679401480E+02  0.57900453318E+02  0.47000000000E+01 0.  1.
          5    1    3    3  503    0 -0.20610805376E+02 -0.15731072056E+02  0.34049740883E+02  0.43055159743E+02  0.47000000000E+01 0. -1.
         -5    1    3    3    0  503  0.89740141525E+02  0.14382825810E+02  0.93462933935E+02  0.13045140359E+03  0.47000000000E+01 0.  1.
<mgrwt>
<rscale>  0 0.11676735E+03</rscale>
<asrwt>0</asrwt>
<pdfrwt beam="1">  1        1 0.65786248E-01 0.11766497E+03</pdfrwt>
<pdfrwt beam="2">  1       -1 0.53454858E-02 0.11766497E+03</pdfrwt>
<totfact> 0.83402391E+03</totfact>
</mgrwt>
</event>
<event>
 8    1  0.3466492E-004  0.2738493E+03  0.7546771E-02  0.1099106E+00
          1   -1    0    0  501    0  0.00000000000E+00  0.00000000000E+00  0.96598642864E+03  0.96598642864E+03  0.00000000000E+00 0. -1.
         -1   -1    0    0    0  501 -0.00000000000E+00 -0.00000000000E+00 -0.94963902882E+02  0.94963902882E+02  0.00000000000E+00 0.  1.
         23    2    1    2    0    0 -0.13530687129E+03 -0.22002770222E+03  0.66220403800E+03  0.71656884115E+03  0.90755589361E+02 0.  0.
         23    2    1    2    0    0  0.13530687129E+03  0.22002770222E+03  0.20881848775E+03  0.34438149037E+03  0.90957742483E+02 0.  0.
          5    1    3    3  502    0 -0.11568318748E+03 -0.10348569064E+03  0.36161478690E+03  0.39354698848E+03  0.47000000000E+01 0. -1.
         -5    1    4    4    0  503  0.13346638141E+03  0.14330691694E+03  0.13587882611E+03  0.23840153689E+03  0.47000000000E+01 0.  1.
          5    1    4    4  503    0  0.18404898812E+01  0.76720785281E+02  0.72939661645E+02  0.10597995347E+03  0.47000000000E+01 0. -1.
         -5    1    3    3    0  502 -0.19623683817E+02 -0.11654201158E+03  0.30058925110E+03  0.32302185268E+03  0.47000000000E+01 0.  1.
<mgrwt>
<rscale>  0 0.27383255E+03</rscale>
<asrwt>0</asrwt>
<pdfrwt beam="1">  1        1 0.14861329E+00 0.27384932E+03</pdfrwt>
<pdfrwt beam="2">  1       -1 0.14609832E-01 0.27384932E+03</pdfrwt>
<totfact> 0.57111195E+02</totfact>
</mgrwt>
</event>
<event>
 8    1  0.3466492E-004  0.1238666E+03  0.7546771E-02  0.1237155E+00
         -1   -1    0    0    0  501 -0.00000000000E+00  0.00000000000E+00  0.45619412761E+03  0.45619412761E+03  0.00000000000E+00 0.  1.
          1   -1    0    0  501    0  0.00000000000E+00 -0.00000000000E+00 -0.41785591603E+02  0.41785591603E+02  0.00000000000E+00 0. -1.
         23    2    1    2    0    0 -0.79823614446E+02 -0.25196323929E+02  0.95315523307E+02  0.15568850733E+03  0.90261831184E+02 0.  0.
         23    2    1    2    0    0  0.79823614446E+02  0.25196323929E+02  0.31909301270E+03  0.34229121189E+03  0.91303115040E+02 0.  0.
          5    1    3    3  502    0  0.10309790411E+02  0.18823439516E+02  0.11019652410E+02  0.24579186170E+02  0.47000000000E+01 0.  1.
         -5    1    3    3    0  502 -0.90133404857E+02 -0.44019763445E+02  0.84295870897E+02  0.13110932116E+03  0.47000000000E+01 0. -1.
          5    1    4    4  503    0  0.38799521207E+02  0.51609300656E+02  0.11096449669E+03  0.12846840968E+03  0.47000000000E+01 0. -1.
         -5    1    4    4    0  503  0.41024093239E+02 -0.26412976727E+02  0.20812851601E+03  0.21382280220E+03  0.47000000000E+01 0.  1.
<mgrwt>
<rscale>  0 0.12367473E+03</rscale>
<asrwt>0</asrwt>
<pdfrwt beam="1">  1        1 0.64285529E-02 0.12386655E+03</pdfrwt>
<pdfrwt beam="2">  1       -1 0.70183708E-01 0.12386655E+03</pdfrwt>
<totfact> 0.24134174E+03</totfact>
</mgrwt>
</event>
<event>
 8    1  0.3466492E-004  0.9249061E+02  0.7546771E-02  0.1297121E+00
         -2   -1    0    0    0  501 -0.00000000000E+00  0.00000000000E+00  0.15721023789E+03  0.15721023789E+03  0.00000000000E+00 0.  1.
          2   -1    0    0  501    0  0.00000000000E+00 -0.00000000000E+00 -0.68755344012E+02  0.68755344012E+02  0.00000000000E+00 0. -1.
         23    2    1    2    0    0 -0.11569117224E+02  0.96049800763E+01 -0.76544771354E+01  0.92806813294E+02  0.91260141672E+02 0.  0.
         23    2    1    2    0    0  0.11569117224E+02 -0.96049800763E+01  0.96109371018E+02  0.13315876861E+03  0.90929348097E+02 0.  0.
          5    1    4    4  502    0 -0.12923188469E+00  0.32947153153E+02  0.78768443112E+02  0.85510755067E+02  0.47000000000E+01 0.  1.
         -5    1    4    4    0  502  0.11698349109E+02 -0.42552133229E+02  0.17340927906E+02  0.47648013546E+02  0.47000000000E+01 0. -1.
          5    1    3    3  503    0  0.23953987381E+02  0.31884930815E+02  0.17367302580E+02  0.43751063112E+02  0.47000000000E+01 0.  1.
         -5    1    3    3    0  503 -0.35523104605E+02 -0.22279950739E+02 -0.25021779716E+02  0.49055750181E+02  0.47000000000E+01 0. -1.
<mgrwt>
<rscale>  0 0.92408911E+02</rscale>
<asrwt>0</asrwt>
<pdfrwt beam="1">  1        2 0.10577745E-01 0.92490613E+02</pdfrwt>
<pdfrwt beam="2">  1       -2 0.24186190E-01 0.92490613E+02</pdfrwt>
<totfact> 0.82018581E+03</totfact>
</mgrwt>
</event>
<event>
 8    1  0.3466492E-004  0.9798404E+02  0.7546771E-02  0.1286635E+00
          4   -1    0    0  501    0  0.00000000000E+00  0.00000000000E+00  0.10202349312E+03  0.10202349312E+03  0.00000000000E+00 0.  1.
         -4   -1    0    0    0  501 -0.00000000000E+00 -0.00000000000E+00 -0.21949435106E+03  0.21949435106E+03  0.00000000000E+00 0. -1.
         23    2    1    2    0    0  0.34780684895E+02 -0.73202958094E+00 -0.18239184572E+03  0.20704506066E+03  0.91600435869E+02 0.  0.
         23    2    1    2    0    0 -0.34780684895E+02  0.73202958094E+00  0.64920987781E+02  0.11447278351E+03  0.87630197997E+02 0.  0.
          5    1    3    3  502    0 -0.25546479098E+02 -0.27793230051E+01 -0.10807619762E+03  0.11118858629E+03  0.47000000000E+01 0. -1.
         -5    1    3    3    0  502  0.60327163993E+02  0.20472934242E+01 -0.74315648100E+02  0.95856474368E+02  0.47000000000E+01 0.  1.
          5    1    4    4  503    0 -0.16964884631E+02 -0.40918449180E+02  0.49012750013E+02  0.66230404330E+02  0.47000000000E+01 0. -1.
         -5    1    4    4    0  503 -0.17815800265E+02  0.41650478761E+02  0.15908237767E+02  0.48242379180E+02  0.47000000000E+01 0.  1.
<mgrwt>
<rscale>  0 0.97045376E+02</rscale>
<asrwt>0</asrwt>
<pdfrwt beam="1">  1        4 0.15695922E-01 0.97984038E+02</pdfrwt>
<pdfrwt beam="2">  1       -4 0.33768361E-01 0.97984038E+02</pdfrwt>
<totfact> 0.45716501E+02</totfact>
</mgrwt>
</event>
<event>
 8    1  0.3466492E-004  0.1152648E+03  0.7546771E-02  0.1254636E+00
         -2   -1    0    0    0  501 -0.00000000000E+00  0.00000000000E+00  0.37753948041E+02  0.37753948041E+02  0.00000000000E+00 0.  1.
          2   -1    0    0  501    0  0.00000000000E+00 -0.00000000000E+00 -0.39996690634E+03  0.39996690634E+03  0.00000000000E+00 0. -1.
         23    2    1    2    0    0  0.52354231897E+02  0.13819111074E+02 -0.26834568715E+03  0.28907016337E+03  0.92845129724E+02 0.  0.
         23    2    1    2    0    0 -0.52354231897E+02 -0.13819111074E+02 -0.93867271154E+02  0.14865069101E+03  0.10175475378E+03 0.  0.
          5    1    4    4  502    0 -0.42171355028E+02 -0.55768316347E+02 -0.45009113027E+02  0.83285284105E+02  0.47000000000E+01 0. -1.
         -5    1    4    4    0  502 -0.10182876869E+02  0.41949205273E+02 -0.48858158127E+02  0.65365406905E+02  0.47000000000E+01 0.  1.
          5    1    3    3  503    0  0.31315211782E+02  0.27724755585E+02 -0.25799800134E+03  0.26140842232E+03  0.47000000000E+01 0. -1.
         -5    1    3    3    0  503  0.21039020115E+02 -0.13905644511E+02 -0.10347685801E+02  0.27661741053E+02  0.47000000000E+01 0.  1.
<mgrwt>
<rscale>  0 0.11326748E+03</rscale>
<asrwt>0</asrwt>
<pdfrwt beam="1">  1        2 0.61533368E-01 0.11526475E+03</pdfrwt>
<pdfrwt beam="2">  1       -2 0.58082999E-02 0.11526475E+03</pdfrwt>
<totfact> 0.11610335E+04</totfact>
</mgrwt>
</event>
<event>
 8    1  0.3466492E-004  0.9778597E+02  0.7546771E-02  0.1285276E+00
          2   -1    0    0  501    0  0.00000000000E+00  0.00000000000E+00  0.72334483503E+03  0.72334483503E+03  0.00000000000E+00 0. -1.
         -2   -1    0    0    0  501 -0.00000000000E+00 -0.00000000000E+00 -0.28382081846E+02  0.28382081846E+02  0.00000000000E+00 0.  1.
         23    2    1    2    0    0  0.18047498377E+02  0.19438521441E+02  0.72571830978E+02  0.12177342571E+03  0.94119754800E+02 0.  0.
         23    2    1    2    0    0 -0.18047498377E+02 -0.19438521441E+02  0.62239092220E+03  0.62995349117E+03  0.93634249492E+02 0.  0.
          5    1    3    3  502    0  0.89755420619E+01 -0.35763776698E+02  0.11706970328E+02  0.38971158993E+02  0.47000000000E+01 0. -1.
         -5    1    3    3    0  502  0.90719563147E+01  0.55202298139E+02  0.60864860650E+02  0.82802266715E+02  0.47000000000E+01 0.  1.
          5    1    4    4  503    0  0.34892009106E+01 -0.54280069731E+02  0.29880703724E+03  0.30375357775E+03  0.47000000000E+01 0. -1.
         -5    1    4    4    0  503 -0.21536699287E+02  0.34841548291E+02  0.32358388496E+03  0.32619991341E+03  0.47000000000E+01 0.  1.
<mgrwt>
<rscale>  0 0.97668960E+02</rscale>
<asrwt>0</asrwt>
<pdfrwt beam="1">  1        2 0.11128381E+00 0.97785973E+02</pdfrwt>
<pdfrwt beam="2">  1       -2 0.43664747E-02 0.97785973E+02</pdfrwt>
<totfact> 0.91052927E+03</totfact>
</mgrwt>
</event>
<event>
 8    1  0.3466492E-004  0.9268393E+02  0.7546771E-02  0.1297187E+00
         -3   -1    0    0    0  501 -0.00000000000E+00  0.00000000000E+00  0.51200055177E+02  0.51200055177E+02  0.00000000000E+00 0.  1.
          3   -1    0    0  501    0  0.00000000000E+00 -0.00000000000E+00 -0.19463117810E+03  0.19463117810E+03  0.00000000000E+00 0. -1.
         23    2    1    2    0    0  0.11596110334E+02  0.19635790835E+02 -0.24645460105E+02  0.95904694720E+02  0.89834724406E+02 0.  0.
         23    2    1    2    0    0 -0.11596110334E+02 -0.19635790835E+02 -0.11878566282E+03  0.14992653856E+03  0.88588369530E+02 0.  0.
          5    1    3    3  502    0  0.43171645658E+02  0.21683013294E+02  0.91243568107E+01  0.49389148014E+02  0.47000000000E+01 0. -1.
         -5    1    4    4    0  503 -0.40699191116E+02 -0.14477197498E+02 -0.22169124857E+02  0.48780872295E+02  0.47000000000E+01 0.  1.
          5    1    4    4  503    0  0.29103080782E+02 -0.51585933363E+01 -0.96616537960E+02  0.10114566626E+03  0.47000000000E+01 0. -1.
         -5    1    3    3    0  502 -0.31575535325E+02 -0.20472224594E+01 -0.33769816916E+02  0.46515546706E+02  0.47000000000E+01 0.  1.
<mgrwt>
<rscale>  0 0.92380567E+02</rscale>
<asrwt>0</asrwt>
<pdfrwt beam="1">  1        3 0.29943259E-01 0.92683935E+02</pdfrwt>
<pdfrwt beam="2">  1       -3 0.78769314E-02 0.92683935E+02</pdfrwt>
<totfact> 0.25056084E+03</totfact>
</mgrwt>
</event>
<event>
 8    1  0.3466492E-004  0.9070632E+02  0.7546771E-02  0.1302642E+00
         -4   -1    0    0    0  501 -0.00000000000E+00  0.00000000000E+00  0.66877567140E+02  0.66877567140E+02  0.00000000000E+00 0.  1.
          4   -1    0    0  501    0  0.00000000000E+00 -0.00000000000E+00 -0.12391342415E+03  0.12391342415E+03  0.00000000000E+00 0. -1.
         23    2    1    2    0    0 -0.15198430412E+02  0.82557548530E+01 -0.10593828821E+02  0.88886633741E+02  0.86541635492E+02 0.  0.
         23    2    1    2    0    0  0.15198430412E+02 -0.82557548530E+01 -0.46442028185E+02  0.10190435754E+03  0.89042048098E+02 0.  0.
          5    1    4    4  502    0 -0.25405971116E+02  0.17413584613E+02  0.47821136256E+01  0.31522292242E+02  0.47000000000E+01 0. -1.
         -5    1    4    4    0  502  0.40604401528E+02 -0.25669339466E+02 -0.51224141810E+02  0.70382065303E+02  0.47000000000E+01 0.  1.
          5    1    3    3  503    0 -0.48084254060E+02 -0.37321917077E+01 -0.19868259225E+02  0.52372344497E+02  0.47000000000E+01 0. -1.
         -5    1    3    3    0  503  0.32885823648E+02  0.11987946561E+02  0.92744304037E+01  0.36514289245E+02  0.47000000000E+01 0.  1.
<mgrwt>
<rscale>  0 0.90086686E+02</rscale>
<asrwt>0</asrwt>
<pdfrwt beam="1">  1        4 0.19063603E-01 0.90706318E+02</pdfrwt>
<pdfrwt beam="2">  1       -4 0.10288857E-01 0.90706318E+02</pdfrwt>
<totfact> 0.26361815E+03</totfact>
</mgrwt>
</event>
<event>
 8    1  0.3466492E-004  0.9555553E+02  0.7546771E-02  0.1292144E+00
         -3   -1    0    0    0  501 -0.00000000000E+00  0.00000000000E+00  0.14440066810E+03  0.14440066810E+03  0.00000000000E+00 0.  1.
          3   -1    0    0  501    0  0.00000000000E+00 -0.00000000000E+00 -0.79445337297E+02  0.79445337297E+02  0.00000000000E+00 0. -1.
         23    2    1    2    0    0  0.76831352755E+01 -0.96415741252E+01  0.87356795181E+02  0.12946841189E+03  0.94756896814E+02 0.  0.
         23    2    1    2    0    0 -0.76831352755E+01  0.96415741252E+01 -0.22401464376E+02  0.94377593509E+02  0.90847751933E+02 0.  0.
          5    1    3    3  502    0 -0.35670908238E+02 -0.16260736992E+02  0.73156813912E+02  0.83131430180E+02  0.47000000000E+01 0. -1.
         -5    1    3    3    0  502  0.43354043513E+02  0.66191628664E+01  0.14199981269E+02  0.46336981711E+02  0.47000000000E+01 0.  1.
          5    1    4    4  503    0  0.26457574056E+02  0.21067507307E+02 -0.41185124962E+02  0.53499043049E+02  0.47000000000E+01 0. -1.
         -5    1    4    4    0  503 -0.34140709331E+02 -0.11425933182E+02  0.18783660586E+02  0.40878550460E+02  0.47000000000E+01 0.  1.
<mgrwt>
<rscale>  0 0.94571671E+02</rscale>
<asrwt>0</asrwt>
<pdfrwt beam="1">  1        3 0.12222360E-01 0.95555534E+02</pdfrwt>
<pdfrwt beam="2">  1       -3 0.22215487E-01 0.95555534E+02</pdfrwt>
<totfact> 0.21009921E+03</totfact>
</mgrwt>
</event>
<event>
 8    1  0.3466492E-004  0.2071177E+03  0.7546771E-02  0.1144099E+00
         -1   -1    0    0    0  501 -0.00000000000E+00  0.00000000000E+00  0.13431344460E+04  0.13431344460E+04  0.00000000000E+00 0.  1.
          1   -1    0    0  501    0  0.00000000000E+00 -0.00000000000E+00 -0.91081348787E+02  0.91081348787E+02  0.00000000000E+00 0. -1.
         23    2    1    2    0    0  0.18069677920E+03 -0.42019391861E+02  0.46712708745E+02  0.21120998472E+03  0.89502095958E+02 0.  0.
         23    2    1    2    0    0 -0.18069677920E+03  0.42019391861E+02  0.12053403884E+04  0.12230058101E+04  0.92091281258E+02 0.  0.
          5    1    4    4  502    0 -0.25997092284E+02  0.41253341298E+02  0.20557170087E+03  0.21132794698E+03  0.47000000000E+01 0. -1.
         -5    1    3    3    0  503  0.36870623906E+02  0.25474108738E+02 -0.15872549273E+01  0.45088607224E+02  0.47000000000E+01 0. -1.
          5    1    3    3  503    0  0.14382615529E+03 -0.67493500599E+02  0.48299963672E+02  0.16612137749E+03  0.47000000000E+01 0. -1.
         -5    1    4    4    0  502 -0.15469968692E+03  0.76605056277E+00  0.99976868758E+03  0.10116778631E+04  0.47000000000E+01 0.  1.
<mgrwt>
<rscale>  0 0.20683261E+03</rscale>
<asrwt>0</asrwt>
<pdfrwt beam="1">  1        1 0.14012516E-01 0.20711774E+03</pdfrwt>
<pdfrwt beam="2">  1       -1 0.20663606E+00 0.20711774E+03</pdfrwt>
<totfact> 0.62528585E+01</totfact>
</mgrwt>
</event>
<event>
 8    1  0.3466492E-004  0.9822569E+02  0.7546771E-02  0.1285013E+00
          1   -1    0    0  501    0  0.00000000000E+00  0.00000000000E+00  0.82758988747E+01  0.82758988747E+01  0.00000000000E+00 0. -1.
         -1   -1    0    0    0  501 -0.00000000000E+00 -0.00000000000E+00 -0.11617886713E+04  0.11617886713E+04  0.00000000000E+00 0.  1.
         23    2    1    2    0    0  0.20348109783E+02 -0.25612240790E+02 -0.65135698258E+03  0.65872164472E+03  0.92618864266E+02 0.  0.
         23    2    1    2    0    0 -0.20348109783E+02  0.25612240790E+02 -0.50215578986E+03  0.51134292547E+03  0.90780601931E+02 0.  0.
          5    1    3    3  502    0 -0.30332495564E+02 -0.29500659409E+02 -0.19959195516E+03  0.20408181633E+03  0.47000000000E+01 0. -1.
         -5    1    4    4    0  503 -0.14279821235E+02  0.58760077625E+02 -0.36651986098E+03  0.37150445288E+03  0.47000000000E+01 0.  1.
          5    1    4    4  503    0 -0.60682885485E+01 -0.33147836835E+02 -0.13563592887E+03  0.13983847258E+03  0.47000000000E+01 0. -1.
         -5    1    3    3    0  502  0.50680605347E+02  0.38884186190E+01 -0.45176502742E+03  0.45463982839E+03  0.47000000000E+01 0.  1.
<mgrwt>
<rscale>  0 0.97789953E+02</rscale>
<asrwt>0</asrwt>
<pdfrwt beam="1">  1        1 0.12732152E-02 0.98225691E+02</pdfrwt>
<pdfrwt beam="2">  1       -1 0.17873672E+00 0.98225691E+02</pdfrwt>
<totfact> 0.25358203E+03</totfact>
</mgrwt>
</event>
<event>
 8    1  0.3466492E-004  0.1299962E+03  0.7546771E-02  0.1227753E+00
          2   -1    0    0  501    0  0.00000000000E+00  0.00000000000E+00  0.31288174633E+03  0.31288174633E+03  0.00000000000E+00 0. -1.
         -2   -1    0    0    0  501 -0.00000000000E+00 -0.00000000000E+00 -0.69983409194E+02  0.69983409194E+02  0.00000000000E+00 0.  1.
         23    2    1    2    0    0 -0.84819538902E+02  0.34358160292E+02  0.29351206598E+02  0.13326854274E+03  0.92326452311E+02 0.  0.
         23    2    1    2    0    0  0.84819538902E+02 -0.34358160292E+02  0.21354713054E+03  0.24959661279E+03  0.91220912052E+02 0.  0.
          5    1    4    4  502    0  0.92913288093E+02 -0.49443833887E+01  0.12553024317E+03  0.15632420792E+03  0.47000000000E+01 0. -1.
         -5    1    3    3    0  503 -0.42753923563E+02  0.22893765848E+02 -0.31678602507E+02  0.58117521898E+02  0.47000000000E+01 0.  1.
          5    1    3    3  503    0 -0.42065615339E+02  0.11464394444E+02  0.61029809105E+02  0.75151020839E+02  0.47000000000E+01 0. -1.
         -5    1    4    4    0  502 -0.80937491912E+01 -0.29413776903E+02  0.88016887373E+02  0.93272404872E+02  0.47000000000E+01 0.  1.
<mgrwt>
<rscale>  0 0.12980004E+03</rscale>
<asrwt>0</asrwt>
<pdfrwt beam="1">  1        2 0.48135652E-01 0.12999620E+03</pdfrwt>
<pdfrwt beam="2">  1       -2 0.10766679E-01 0.12999620E+03</pdfrwt>
<totfact> 0.58697185E+03</totfact>
</mgrwt>
</event>
<event>
 8    1  0.3466492E-004  0.1063373E+03  0.7546771E-02  0.1268030E+00
         -1   -1    0    0    0  501 -0.00000000000E+00  0.00000000000E+00  0.76099615973E+02  0.76099615973E+02  0.00000000000E+00 0.  1.
          1   -1    0    0  501    0  0.00000000000E+00 -0.00000000000E+00 -0.15049681287E+03  0.15049681287E+03  0.00000000000E+00 0. -1.
         23    2    1    2    0    0  0.24641516303E+02  0.49677783594E+02 -0.54052327380E+02  0.11833040697E+03  0.89472591395E+02 0.  0.
         23    2    1    2    0    0 -0.24641516303E+02 -0.49677783594E+02 -0.20344869515E+02  0.10826602187E+03  0.90733297453E+02 0.  0.
          5    1    3    3  502    0 -0.15506860323E+02 -0.12691072427E+02  0.74213312971E+01  0.21879035505E+02  0.47000000000E+01 0. -1.
         -5    1    3    3    0  502  0.40148376626E+02  0.62368856021E+02 -0.61473658677E+02  0.96451371469E+02  0.47000000000E+01 0.  1.
          5    1    4    4  503    0  0.22467668101E+02 -0.52117857656E+02 -0.21430901943E+02  0.60847684875E+02  0.47000000000E+01 0. -1.
         -5    1    4    4    0  503 -0.47109184404E+02  0.24400740623E+01  0.10860324278E+01  0.47418336992E+02  0.47000000000E+01 0.  1.
<mgrwt>
<rscale>  0 0.10606785E+03</rscale>
<asrwt>0</asrwt>
<pdfrwt beam="1">  1        1 0.23153355E-01 0.10633728E+03</pdfrwt>
<pdfrwt beam="2">  1       -1 0.11707633E-01 0.10633728E+03</pdfrwt>
<totfact> 0.92900741E+03</totfact>
</mgrwt>
</event>
<event>
 8    1  0.3466492E-004  0.1120640E+03  0.7546771E-02  0.1258572E+00
         -1   -1    0    0    0  501 -0.00000000000E+00  0.00000000000E+00  0.24306020910E+02  0.24306020910E+02  0.00000000000E+00 0.  1.
          1   -1    0    0  501    0  0.00000000000E+00 -0.00000000000E+00 -0.77490875453E+03  0.77490875453E+03  0.00000000000E+00 0. -1.
         23    2    1    2    0    0  0.49155268844E+02  0.38188964694E+02 -0.14112754582E+03  0.18020912521E+03  0.93186410711E+02 0.  0.
         23    2    1    2    0    0 -0.49155268844E+02 -0.38188964694E+02 -0.60947518780E+03  0.61900565023E+03  0.88506231361E+02 0.  0.
          5    1    3    3  502    0 -0.26226901166E+02  0.22417227033E+02 -0.40662475417E+02  0.53534188326E+02  0.47000000000E+01 0. -1.
         -5    1    4    4    0  503 -0.38816911404E+01 -0.53448738503E+02 -0.21534869074E+03  0.22196617710E+03  0.47000000000E+01 0.  1.
          5    1    4    4  503    0 -0.45273577704E+02  0.15259773809E+02 -0.39412649707E+03  0.39703947313E+03  0.47000000000E+01 0. -1.
         -5    1    3    3    0  502  0.75382170010E+02  0.15771737661E+02 -0.10046507040E+03  0.12667493689E+03  0.47000000000E+01 0.  1.
<mgrwt>
<rscale>  0 0.11108616E+03</rscale>
<asrwt>0</asrwt>
<pdfrwt beam="1">  1        1 0.11921671E+00 0.11206402E+03</pdfrwt>
<pdfrwt beam="2">  1       -1 0.37393884E-02 0.11206402E+03</pdfrwt>
<totfact> 0.63007971E+03</totfact>
</mgrwt>
</event>
<event>
 8    1  0.3466492E-004  0.9779500E+02  0.7546771E-02  0.1286895E+00
         -3   -1    0    0    0  501 -0.00000000000E+00  0.00000000000E+00  0.18253588683E+03  0.18253588683E+03  0.00000000000E+00 0.  1.
          3   -1    0    0  501    0  0.00000000000E+00 -0.00000000000E+00 -0.52513930668E+02  0.52513930668E+02  0.00000000000E+00 0. -1.
         23    2    1    2    0    0  0.21288058843E+02  0.13577948980E+02  0.41308739080E+02  0.10301233790E+03  0.90926276112E+02 0.  0.
         23    2    1    2    0    0 -0.21288058843E+02 -0.13577948980E+02  0.88713217078E+02  0.13203747959E+03  0.94479198692E+02 0.  0.
          5    1    4    4  502    0  0.20085601582E+02  0.15664457251E+02 -0.40687822675E+01  0.26219298256E+02  0.47000000000E+01 0. -1.
         -5    1    3    3    0  503 -0.29838381751E+02 -0.15045685475E+02  0.55250843038E+01  0.34195295488E+02  0.47000000000E+01 0.  1.
          5    1    3    3  503    0  0.51126440594E+02  0.28623634455E+02  0.35783654776E+02  0.68817042412E+02  0.47000000000E+01 0. -1.
         -5    1    4    4    0  502 -0.41373660425E+02 -0.29242406231E+02  0.92781999346E+02  0.10581818134E+03  0.47000000000E+01 0.  1.
<mgrwt>
<rscale>  0 0.96926494E+02</rscale>
<asrwt>0</asrwt>
<pdfrwt beam="1">  1        3 0.80790663E-02 0.97794995E+02</pdfrwt>
<pdfrwt beam="2">  1       -3 0.28082444E-01 0.97794995E+02</pdfrwt>
<totfact> 0.27334871E+03</totfact>
</mgrwt>
</event>
<event>
 8    1  0.3466492E-004  0.9490608E+02  0.7546771E-02  0.1291814E+00
         -2   -1    0    0    0  501 -0.00000000000E+00  0.00000000000E+00  0.27755279541E+03  0.27755279541E+03  0.00000000000E+00 0.  1.
          2   -1    0    0  501    0  0.00000000000E+00 -0.00000000000E+00 -0.32218232271E+02  0.32218232271E+02  0.00000000000E+00 0. -1.
         23    2    1    2    0    0 -0.22266457596E+01  0.23612098915E+02  0.11903568198E+03  0.15223882026E+03  0.91894916310E+02 0.  0.
         23    2    1    2    0    0  0.22266457596E+01 -0.23612098915E+02  0.12629888116E+03  0.15753220742E+03  0.91118054337E+02 0.  0.
          5    1    4    4  502    0 -0.26841765039E+02  0.65961339767E+01  0.41984435476E+01  0.28349713615E+02  0.47000000000E+01 0. -1.
         -5    1    3    3    0  503  0.14197144492E+02  0.54650724964E+02  0.54495519447E+02  0.78613690224E+02  0.47000000000E+01 0.  1.
          5    1    3    3  503    0 -0.16423790252E+02 -0.31038626049E+02  0.64540162533E+02  0.73625130037E+02  0.47000000000E+01 0. -1.
         -5    1    4    4    0  502  0.29068410798E+02 -0.30208232892E+02  0.12210043761E+03  0.12918249381E+03  0.47000000000E+01 0.  1.
<mgrwt>
<rscale>  0 0.94717520E+02</rscale>
<asrwt>0</asrwt>
<pdfrwt beam="1">  1        2 0.49566513E-02 0.94906084E+02</pdfrwt>
<pdfrwt beam="2">  1       -2 0.42700428E-01 0.94906084E+02</pdfrwt>
<totfact> 0.76007355E+03</totfact>
</mgrwt>
</event>
<event>
 8    1  0.3466492E-004  0.1304551E+03  0.7546771E-02  0.1228097E+00
          1   -1    0    0  501    0  0.00000000000E+00  0.00000000000E+00  0.53707768075E+03  0.53707768075E+03  0.00000000000E+00 0. -1.
         -1   -1    0    0    0  501 -0.00000000000E+00 -0.00000000000E+00 -0.30901399469E+02  0.30901399469E+02  0.00000000000E+00 0.  1.
         23    2    1    2    0    0  0.13529157621E+01 -0.89514307877E+02  0.26910463761E+03  0.29905823282E+03  0.94888771395E+02 0.  0.
         23    2    1    2    0    0 -0.13529157621E+01  0.89514307877E+02  0.23707164366E+03  0.26892084740E+03  0.90004534546E+02 0.  0.
          5    1    4    4  502    0 -0.28805779188E+02  0.85544593930E+02  0.13082422356E+03  0.15901169119E+03  0.47000000000E+01 0. -1.
         -5    1    4    4    0  502  0.27452863426E+02  0.39697139465E+01  0.10624742010E+03  0.10990915620E+03  0.47000000000E+01 0.  1.
          5    1    3    3  503    0  0.41413427454E+02 -0.57774520491E+02  0.20446112031E+03  0.21651652803E+03  0.47000000000E+01 0. -1.
         -5    1    3    3    0  503 -0.40060511692E+02 -0.31739787385E+02  0.64643517298E+02  0.82541704786E+02  0.47000000000E+01 0.  1.
<mgrwt>
<rscale>  0 0.12956897E+03</rscale>
<asrwt>0</asrwt>
<pdfrwt beam="1">  1        1 0.82627329E-01 0.13045505E+03</pdfrwt>
<pdfrwt beam="2">  1       -1 0.47540618E-02 0.13045505E+03</pdfrwt>
<totfact> 0.74402517E+03</totfact>
</mgrwt>
</event>
<event>
 8    1  0.3466492E-004  0.3708555E+03  0.7546771E-02  0.1054376E+00
         -2   -1    0    0    0  501 -0.00000000000E+00  0.00000000000E+00  0.26850158876E+03  0.26850158876E+03  0.00000000000E+00 0.  1.
          2   -1    0    0  501    0  0.00000000000E+00 -0.00000000000E+00 -0.87744503936E+03  0.87744503936E+03  0.00000000000E+00 0. -1.
         23    2    1    2    0    0  0.34391662329E+03  0.10445797801E+03 -0.67422784334E+03  0.76949138855E+03  0.91343852417E+02 0.  0.
         23    2    1    2    0    0 -0.34391662329E+03 -0.10445797801E+03  0.65284392746E+02  0.37645523957E+03  0.90919648671E+02 0.  0.
          5    1    4    4  502    0 -0.10981812118E+03 -0.21804510587E+02 -0.20160058583E+02  0.11385945013E+03  0.47000000000E+01 0. -1.
         -5    1    3    3    0  503  0.38004375826E+02  0.32226793777E+02 -0.15113079504E+03  0.15920271992E+03  0.47000000000E+01 0.  1.
          5    1    3    3  503    0  0.30591224747E+03  0.72231184231E+02 -0.52309704830E+03  0.61028866863E+03  0.47000000000E+01 0. -1.
         -5    1    4    4    0  502 -0.23409850212E+03 -0.82653467421E+02  0.85444451328E+02  0.26259578944E+03  0.47000000000E+01 0.  1.
<mgrwt>
<rscale>  0 0.37082945E+03</rscale>
<asrwt>0</asrwt>
<pdfrwt beam="1">  1        2 0.13499154E+00 0.37085551E+03</pdfrwt>
<pdfrwt beam="2">  1       -2 0.41307937E-01 0.37085551E+03</pdfrwt>
<totfact> 0.17560541E+02</totfact>
</mgrwt>
</event>
<event>
 8    1  0.3466492E-004  0.9745679E+02  0.7546771E-02  0.1289332E+00
          2   -1    0    0  501    0  0.00000000000E+00  0.00000000000E+00  0.92421733972E+02  0.92421733972E+02  0.00000000000E+00 0. -1.
         -2   -1    0    0    0  501 -0.00000000000E+00 -0.00000000000E+00 -0.16448356821E+03  0.16448356821E+03  0.00000000000E+00 0.  1.
         23    2    1    2    0    0 -0.12136578920E+02  0.20166937164E+02 -0.11808021705E+03  0.14912999151E+03  0.87993265687E+02 0.  0.
         23    2    1    2    0    0  0.12136578920E+02 -0.20166937164E+02  0.46018382815E+02  0.10777531067E+03  0.94571793527E+02 0.  0.
          5    1    4    4  502    0  0.43345378764E+02 -0.15645548388E+02 -0.60559570755E+01  0.46715839504E+02  0.47000000000E+01 0. -1.
         -5    1    4    4    0  502 -0.31208799844E+02 -0.45213887759E+01  0.52074339890E+02  0.61059471167E+02  0.47000000000E+01 0.  1.
          5    1    3    3  503    0  0.37581608389E+02  0.36122372560E+01 -0.56773638513E+02  0.68342970210E+02  0.47000000000E+01 0. -1.
         -5    1    3    3    0  503 -0.49718187309E+02  0.16554699908E+02 -0.61306578535E+02  0.80787021296E+02  0.47000000000E+01 0.  1.
<mgrwt>
<rscale>  0 0.95823718E+02</rscale>
<asrwt>0</asrwt>
<pdfrwt beam="1">  1        2 0.14218729E-01 0.97456791E+02</pdfrwt>
<pdfrwt beam="2">  1       -2 0.25305164E-01 0.97456791E+02</pdfrwt>
<totfact> 0.53639235E+03</totfact>
</mgrwt>
</event>
<event>
 8    1  0.3466492E-004  0.1905135E+03  0.7546771E-02  0.1158707E+00
          1   -1    0    0  501    0  0.00000000000E+00  0.00000000000E+00  0.22971742558E+03  0.22971742558E+03  0.00000000000E+00 0. -1.
         -1   -1    0    0    0  501 -0.00000000000E+00 -0.00000000000E+00 -0.17399027829E+03  0.17399027829E+03  0.00000000000E+00 0.  1.
         23    2    1    2    0    0 -0.16370578642E+03 -0.28618971805E+02 -0.37872925178E+02  0.19424145903E+03  0.93149105681E+02 0.  0.
         23    2    1    2    0    0  0.16370578642E+03  0.28618971805E+02  0.93600072471E+02  0.20946624484E+03  0.86582354460E+02 0.  0.
          5    1    4    4  502    0  0.51539865990E+02  0.50092054308E+02  0.47167037971E+02  0.86095244712E+02  0.47000000000E+01 0. -1.
         -5    1    4    4    0  502  0.11216592043E+03 -0.21473082504E+02  0.46433034500E+02  0.12337100012E+03  0.47000000000E+01 0.  1.
          5    1    3    3  503    0 -0.22514000916E+02 -0.42678877241E+02 -0.11841414541E+02  0.49906671880E+02  0.47000000000E+01 0. -1.
         -5    1    3    3    0  503 -0.14119178551E+03  0.14059905437E+02 -0.26031510636E+02  0.14433478715E+03  0.47000000000E+01 0.  1.
<mgrwt>
<rscale>  0 0.18972784E+03</rscale>
<asrwt>0</asrwt>
<pdfrwt beam="1">  1        1 0.35341142E-01 0.19051348E+03</pdfrwt>
<pdfrwt beam="2">  1       -1 0.26767735E-01 0.19051348E+03</pdfrwt>
<totfact> 0.15130283E+03</totfact>
</mgrwt>
</event>
<event>
 8    1  0.3466492E-004  0.1093727E+03  0.7546771E-02  0.1262906E+00
          2   -1    0    0  501    0  0.00000000000E+00  0.00000000000E+00  0.60260567712E+03  0.60260567712E+03  0.00000000000E+00 0. -1.
         -2   -1    0    0    0  501 -0.00000000000E+00 -0.00000000000E+00 -0.27617865154E+02  0.27617865154E+02  0.00000000000E+00 0.  1.
         23    2    1    2    0    0  0.55980909365E+02  0.11633779334E+02  0.45701965688E+03  0.46935443206E+03  0.90318376232E+02 0.  0.
         23    2    1    2    0    0 -0.55980909365E+02 -0.11633779334E+02  0.11796815508E+03  0.16086911021E+03  0.93237213447E+02 0.  0.
          5    1    3    3  502    0  0.46542700242E+02  0.48684733132E+02  0.31853338697E+03  0.32561024984E+03  0.47000000000E+01 0. -1.
         -5    1    3    3    0  502  0.94382091228E+01 -0.37050953798E+02  0.13848626991E+03  0.14374418222E+03  0.47000000000E+01 0.  1.
          5    1    4    4  503    0 -0.42508728490E+02  0.35921456944E+02  0.41034437515E+02  0.69305541834E+02  0.47000000000E+01 0. -1.
         -5    1    4    4    0  503 -0.13472180875E+02 -0.47555236278E+02  0.76933717570E+02  0.91563568378E+02  0.47000000000E+01 0.  1.
<mgrwt>
<rscale>  0 0.10874802E+03</rscale>
<asrwt>0</asrwt>
<pdfrwt beam="1">  1        2 0.92708556E-01 0.10937269E+03</pdfrwt>
<pdfrwt beam="2">  1       -2 0.42489028E-02 0.10937269E+03</pdfrwt>
<totfact> 0.11801430E+04</totfact>
</mgrwt>
</event>
<event>
 8    1  0.3466492E-004  0.1147127E+03  0.7546771E-02  0.1253562E+00
         -1   -1    0    0    0  501 -0.00000000000E+00  0.00000000000E+00  0.18055137184E+02  0.18055137184E+02  0.00000000000E+00 0.  1.
          1   -1    0    0  501    0  0.00000000000E+00 -0.00000000000E+00 -0.71747400520E+03  0.71747400520E+03  0.00000000000E+00 0. -1.
         23    2    1    2    0    0 -0.67114366223E+02 -0.13425701544E+02 -0.30205088045E+03  0.32193474292E+03  0.87878647576E+02 0.  0.
         23    2    1    2    0    0  0.67114366223E+02  0.13425701544E+02 -0.39736798757E+03  0.41359439947E+03  0.92056624496E+02 0.  0.
          5    1    4    4  502    0  0.63202459956E+02 -0.14199518575E+02 -0.36443135238E+03  0.37017357802E+03  0.47000000000E+01 0. -1.
         -5    1    4    4    0  502  0.39119062675E+01  0.27625220119E+02 -0.32936635191E+02  0.43420821446E+02  0.47000000000E+01 0.  1.
          5    1    3    3  503    0  0.19734904012E+02 -0.12792909189E+02 -0.54347146206E+02  0.59403933056E+02  0.47000000000E+01 0. -1.
         -5    1    3    3    0  503 -0.86849270235E+02 -0.63279235492E+00 -0.24770373425E+03  0.26253080986E+03  0.47000000000E+01 0.  1.
<mgrwt>
<rscale>  0 0.11387231E+03</rscale>
<asrwt>0</asrwt>
<pdfrwt beam="1">  1        1 0.11038062E+00 0.11471273E+03</pdfrwt>
<pdfrwt beam="2">  1       -1 0.27777133E-02 0.11471273E+03</pdfrwt>
<totfact> 0.10866996E+04</totfact>
</mgrwt>
</event>
<event>
 8    1  0.3466492E-004  0.1062917E+03  0.7546771E-02  0.1274484E+00
          3   -1    0    0  501    0  0.00000000000E+00  0.00000000000E+00  0.26007655136E+02  0.26007655136E+02  0.00000000000E+00 0. -1.
         -3   -1    0    0    0  501 -0.00000000000E+00 -0.00000000000E+00 -0.43830022958E+03  0.43830022958E+03  0.00000000000E+00 0.  1.
         23    2    1    2    0    0 -0.84320360692E+01  0.24277906680E+02 -0.30112824521E+03  0.31933704921E+03  0.10313784441E+03 0.  0.
         23    2    1    2    0    0  0.84320360692E+01 -0.24277906680E+02 -0.11116432924E+03  0.14497083551E+03  0.89434440056E+02 0.  0.
          5    1    4    4  502    0 -0.11649562431E+02 -0.22882828435E+02  0.53417871662E+01  0.26645090207E+02  0.47000000000E+01 0. -1.
         -5    1    4    4    0  502  0.20081598500E+02 -0.13950782449E+01 -0.11650611640E+03  0.11832574530E+03  0.47000000000E+01 0.  1.
          5    1    3    3  503    0  0.13707857314E+01 -0.36479443703E+02 -0.59618040077E+02  0.70064467235E+02  0.47000000000E+01 0. -1.
         -5    1    3    3    0  503 -0.98028218006E+01  0.60757350383E+02 -0.24151020513E+03  0.24927258198E+03  0.47000000000E+01 0.  1.
<mgrwt>
<rscale>  0 0.10281543E+03</rscale>
<asrwt>0</asrwt>
<pdfrwt beam="1">  1        3 0.40011776E-02 0.10629173E+03</pdfrwt>
<pdfrwt beam="2">  1       -3 0.67430806E-01 0.10629173E+03</pdfrwt>
<totfact> 0.15392368E+03</totfact>
</mgrwt>
</event>
<event>
 8    1  0.3466492E-004  0.1005427E+03  0.7546771E-02  0.1279244E+00
          2   -1    0    0  501    0  0.00000000000E+00  0.00000000000E+00  0.25564373982E+03  0.25564373982E+03  0.00000000000E+00 0. -1.
         -2   -1    0    0    0  501 -0.00000000000E+00 -0.00000000000E+00 -0.61269684635E+02  0.61269684635E+02  0.00000000000E+00 0.  1.
         23    2    1    2    0    0  0.10037618621E+02  0.42087308598E+02  0.19173671100E+03  0.21649897633E+03  0.90756515312E+02 0.  0.
         23    2    1    2    0    0 -0.10037618621E+02 -0.42087308598E+02  0.26373441856E+01  0.10041444813E+03  0.90575992828E+02 0.  0.
          5    1    4    4  502    0 -0.40985038056E+02 -0.94076529627E+01 -0.23250826928E+02  0.48280101818E+02  0.47000000000E+01 0. -1.
         -5    1    4    4    0  502  0.30947419435E+02 -0.32679655635E+02  0.25888171113E+02  0.52134346315E+02  0.47000000000E+01 0.  1.
          5    1    3    3  503    0  0.20143764668E+01  0.68147437913E+02  0.16229329851E+03  0.17609467837E+03  0.47000000000E+01 0. -1.
         -5    1    3    3    0  503  0.80232421542E+01 -0.26060129315E+02  0.29443412491E+02  0.40404297961E+02  0.47000000000E+01 0.  1.
<mgrwt>
<rscale>  0 0.10050197E+03</rscale>
<asrwt>0</asrwt>
<pdfrwt beam="1">  1        2 0.39329806E-01 0.10054273E+03</pdfrwt>
<pdfrwt beam="2">  1       -2 0.94261054E-02 0.10054273E+03</pdfrwt>
<totfact> 0.87809861E+03</totfact>
</mgrwt>
</event>
<event>
 8    1  0.3466492E-004  0.1320310E+03  0.7546771E-02  0.1224873E+00
          2   -1    0    0  501    0  0.00000000000E+00  0.00000000000E+00  0.34619129769E+03  0.34619129769E+03  0.00000000000E+00 0. -1.
         -2   -1    0    0    0  501 -0.00000000000E+00 -0.00000000000E+00 -0.49950684319E+02  0.49950684319E+02  0.00000000000E+00 0.  1.
         23    2    1    2    0    0 -0.48549714019E+02  0.82091716341E+02  0.14549320193E+03  0.19646997782E+03  0.91302002995E+02 0.  0.
         23    2    1    2    0    0  0.48549714019E+02 -0.82091716341E+02  0.15074741144E+03  0.19967200419E+03  0.89710660352E+02 0.  0.
          5    1    4    4  502    0  0.59033233531E+02 -0.63935264194E+02  0.15495281919E+03  0.17777825188E+03  0.47000000000E+01 0. -1.
         -5    1    4    4    0  502 -0.10483519512E+02 -0.18156452146E+02 -0.42054077501E+01  0.21893752311E+02  0.47000000000E+01 0.  1.
          5    1    3    3  503    0  0.12576907167E+02  0.67266990640E+02  0.68504960091E+02  0.96943520571E+02  0.47000000000E+01 0. -1.
         -5    1    3    3    0  503 -0.61126621186E+02  0.14824725701E+02  0.76988241843E+02  0.99526457245E+02  0.47000000000E+01 0.  1.
<mgrwt>
<rscale>  0 0.13175628E+03</rscale>
<asrwt>0</asrwt>
<pdfrwt beam="1">  1        2 0.53260198E-01 0.13203098E+03</pdfrwt>
<pdfrwt beam="2">  1       -2 0.76847209E-02 0.13203098E+03</pdfrwt>
<totfact> 0.89279794E+03</totfact>
</mgrwt>
</event>
<event>
 8    1  0.3466492E-004  0.1043732E+03  0.7546771E-02  0.1272329E+00
          1   -1    0    0  501    0  0.00000000000E+00  0.00000000000E+00  0.73674338056E+02  0.73674338056E+02  0.00000000000E+00 0. -1.
         -1   -1    0    0    0  501 -0.00000000000E+00 -0.00000000000E+00 -0.27667940682E+03  0.27667940682E+03  0.00000000000E+00 0.  1.
         23    2    1    2    0    0 -0.47132168322E+02  0.37475960140E+01 -0.22178900311E+03  0.24430373051E+03  0.90876097371E+02 0.  0.
         23    2    1    2    0    0  0.47132168322E+02 -0.37475960140E+01  0.18783934345E+02  0.10605001437E+03  0.93049898395E+02 0.  0.
          5    1    4    4  502    0  0.48428491120E+02  0.37822341172E+02  0.43677223886E+01  0.61781997723E+02  0.47000000000E+01 0. -1.
         -5    1    4    4    0  502 -0.12963227981E+01 -0.41569937186E+02  0.14416211957E+02  0.44268016644E+02  0.47000000000E+01 0.  1.
          5    1    3    3  503    0 -0.36304538382E+02 -0.20665357312E+02 -0.21095510537E+03  0.21510281956E+03  0.47000000000E+01 0.  1.
         -5    1    3    3    0  503 -0.10827629940E+02  0.24412953326E+02 -0.10833897742E+02  0.29200910954E+02  0.47000000000E+01 0. -1.
<mgrwt>
<rscale>  0 0.10388652E+03</rscale>
<asrwt>0</asrwt>
<pdfrwt beam="1">  1        1 0.11334514E-01 0.10437322E+03</pdfrwt>
<pdfrwt beam="2">  1       -1 0.42566063E-01 0.10437322E+03</pdfrwt>
<totfact> 0.28458385E+03</totfact>
</mgrwt>
</event>
<event>
 8    1  0.3466492E-004  0.9176745E+02  0.7546771E-02  0.1299330E+00
          2   -1    0    0  501    0  0.00000000000E+00  0.00000000000E+00  0.41117315027E+03  0.41117315027E+03  0.00000000000E+00 0.  1.
         -2   -1    0    0    0  501 -0.00000000000E+00 -0.00000000000E+00 -0.20430008227E+02  0.20430008227E+02  0.00000000000E+00 0. -1.
         23    2    1    2    0    0 -0.13739542323E+01  0.52003879619E+01  0.17211740136E+03  0.19449879392E+03  0.90423720331E+02 0.  0.
         23    2    1    2    0    0  0.13739542323E+01 -0.52003879619E+01  0.21862574068E+03  0.23710436458E+03  0.91609679779E+02 0.  0.
          5    1    3    3  502    0 -0.10688848990E+02  0.29723268865E+02  0.16335189147E+03  0.16644414875E+03  0.47000000000E+01 0. -1.
         -5    1    4    4    0  503 -0.32017352306E+02 -0.95457849990E+00  0.18979494067E+03  0.19253631235E+03  0.47000000000E+01 0.  1.
          5    1    4    4  503    0  0.33391306539E+02 -0.42458094620E+01  0.28830800009E+02  0.44568052229E+02  0.47000000000E+01 0. -1.
         -5    1    3    3    0  502  0.93148947574E+01 -0.24522880903E+02  0.87655098940E+01  0.28054645174E+02  0.47000000000E+01 0.  1.
<mgrwt>
<rscale>  0 0.91470036E+02</rscale>
<asrwt>0</asrwt>
<pdfrwt beam="1">  1        2 0.63257402E-01 0.91767452E+02</pdfrwt>
<pdfrwt beam="2">  1       -2 0.31430785E-02 0.91767452E+02</pdfrwt>
<totfact> 0.27387975E+04</totfact>
</mgrwt>
</event>
<event>
 8    1  0.3466492E-004  0.1061938E+03  0.7546771E-02  0.1271961E+00
         -1   -1    0    0    0  501 -0.00000000000E+00  0.00000000000E+00  0.27070692392E+02  0.27070692392E+02  0.00000000000E+00 0.  1.
          1   -1    0    0  501    0  0.00000000000E+00 -0.00000000000E+00 -0.49727075449E+03  0.49727075449E+03  0.00000000000E+00 0. -1.
         23    2    1    2    0    0 -0.19896475986E+02 -0.23853878929E+02 -0.11788635629E+03  0.15866414575E+03  0.10154920409E+03 0.  0.
         23    2    1    2    0    0  0.19896475986E+02  0.23853878929E+02 -0.35231370581E+03  0.36567730113E+03  0.92898137574E+02 0.  0.
          5    1    4    4  502    0  0.18777619935E+02 -0.23578074437E+02 -0.25995236039E+03  0.26173621125E+03  0.47000000000E+01 0. -1.
         -5    1    3    3    0  503 -0.53711607390E+02  0.11088195899E+02 -0.45924407716E+02  0.71687000780E+02  0.47000000000E+01 0.  1.
          5    1    3    3  503    0  0.33815131404E+02 -0.34942074828E+02 -0.71961948573E+02  0.86977144973E+02  0.47000000000E+01 0. -1.
         -5    1    4    4    0  502  0.11188560503E+01  0.47431953366E+02 -0.92361345419E+02  0.10394108989E+03  0.47000000000E+01 0.  1.
<mgrwt>
<rscale>  0 0.10407097E+03</rscale>
<asrwt>0</asrwt>
<pdfrwt beam="1">  1        1 0.76503189E-01 0.10619378E+03</pdfrwt>
<pdfrwt beam="2">  1       -1 0.41647221E-02 0.10619378E+03</pdfrwt>
<totfact> 0.98500968E+03</totfact>
</mgrwt>
</event>
<event>
 8    1  0.3466492E-004  0.1044516E+03  0.7546771E-02  0.1272153E+00
         -2   -1    0    0    0  501 -0.00000000000E+00  0.00000000000E+00  0.37339159568E+02  0.37339159568E+02  0.00000000000E+00 0.  1.
          2   -1    0    0  501    0  0.00000000000E+00 -0.00000000000E+00 -0.38137326446E+03  0.38137326446E+03  0.00000000000E+00 0. -1.
         23    2    1    2    0    0  0.27993148923E+02 -0.37367735305E+02 -0.66644706791E+02  0.12230896288E+03  0.91312657546E+02 0.  0.
         23    2    1    2    0    0 -0.27993148923E+02  0.37367735305E+02 -0.27738939810E+03  0.29640346115E+03  0.93435376466E+02 0.  0.
          5    1    3    3  502    0 -0.13409706300E+02 -0.52494142419E+02 -0.52973667627E+02  0.75919395896E+02  0.47000000000E+01 0. -1.
         -5    1    3    3    0  502  0.41402855222E+02  0.15126407114E+02 -0.13671039163E+02  0.46389566979E+02  0.47000000000E+01 0.  1.
          5    1    4    4  503    0 -0.22464434079E+02 -0.19663099048E+02 -0.18596904417E+03  0.18840876745E+03  0.47000000000E+01 0. -1.
         -5    1    4    4    0  503 -0.55287148440E+01  0.57030834353E+02 -0.91420353933E+02  0.10799469370E+03  0.47000000000E+01 0.  1.
<mgrwt>
<rscale>  0 0.10397472E+03</rscale>
<asrwt>0</asrwt>
<pdfrwt beam="1">  1        2 0.58672811E-01 0.10445158E+03</pdfrwt>
<pdfrwt beam="2">  1       -2 0.57444860E-02 0.10445158E+03</pdfrwt>
<totfact> 0.12314611E+04</totfact>
</mgrwt>
</event>
<event>
 8    1  0.3466492E-004  0.9089779E+02  0.7546771E-02  0.1301721E+00
         -1   -1    0    0    0  501 -0.00000000000E+00  0.00000000000E+00  0.67653995348E+02  0.67653995348E+02  0.00000000000E+00 0.  1.
          1   -1    0    0  501    0  0.00000000000E+00 -0.00000000000E+00 -0.18619952870E+03  0.18619952870E+03  0.00000000000E+00 0. -1.
         23    2    1    2    0    0  0.12779965230E+02  0.16133511813E+02  0.16132703990E+02  0.92318318590E+02  0.88536941977E+02 0.  0.
         23    2    1    2    0    0 -0.12779965230E+02 -0.16133511813E+02 -0.13467823735E+03  0.16153520546E+03  0.86785812631E+02 0.  0.
          5    1    3    3  502    0 -0.56730083199E+01  0.42575662718E+02 -0.16453698795E+02  0.46235097959E+02  0.47000000000E+01 0. -1.
         -5    1    4    4    0  503  0.20418564546E+02 -0.39214569812E+02 -0.46075416717E+02  0.64029167489E+02  0.47000000000E+01 0.  1.
          5    1    4    4  503    0 -0.33198529776E+02  0.23081058000E+02 -0.88602820628E+02  0.97506037972E+02  0.47000000000E+01 0. -1.
         -5    1    3    3    0  502  0.18452973550E+02 -0.26442150905E+02  0.32586402785E+02  0.46083220631E+02  0.47000000000E+01 0.  1.
<mgrwt>
<rscale>  0 0.90468565E+02</rscale>
<asrwt>0</asrwt>
<pdfrwt beam="1">  1        1 0.28646081E-01 0.90897788E+02</pdfrwt>
<pdfrwt beam="2">  1       -1 0.10408307E-01 0.90897788E+02</pdfrwt>
<totfact> 0.84194964E+03</totfact>
</mgrwt>
</event>
<event>
 8    1  0.3466492E-004  0.9715225E+02  0.7546771E-02  0.1286812E+00
         -2   -1    0    0    0  501 -0.00000000000E+00  0.00000000000E+00  0.12896059276E+02  0.12896059276E+02  0.00000000000E+00 0.  1.
          2   -1    0    0  501    0  0.00000000000E+00 -0.00000000000E+00 -0.95296695148E+03  0.95296695148E+03  0.00000000000E+00 0. -1.
         23    2    1    2    0    0  0.54107438326E+01  0.34464752329E+02 -0.23587636454E+03  0.25510040798E+03  0.90672286304E+02 0.  0.
         23    2    1    2    0    0 -0.54107438326E+01 -0.34464752329E+02 -0.70419452766E+03  0.71076260277E+03  0.89869068113E+02 0.  0.
          5    1    4    4  502    0  0.11579988130E+02 -0.58466352782E+02 -0.57883085195E+03  0.58191035023E+03  0.47000000000E+01 0. -1.
         -5    1    3    3    0  503 -0.33986729174E+02  0.43539314696E+02 -0.11743568553E+03  0.12986146434E+03  0.47000000000E+01 0.  1.
          5    1    3    3  503    0  0.39397473007E+02 -0.90745623669E+01 -0.11844067901E+03  0.12523894364E+03  0.47000000000E+01 0. -1.
         -5    1    4    4    0  502 -0.16990731962E+02  0.24001600453E+02 -0.12536367571E+03  0.12885225254E+03  0.47000000000E+01 0.  1.
<mgrwt>
<rscale>  0 0.96964398E+02</rscale>
<asrwt>0</asrwt>
<pdfrwt beam="1">  1        2 0.14661026E+00 0.97152245E+02</pdfrwt>
<pdfrwt beam="2">  1       -2 0.19840096E-02 0.97152245E+02</pdfrwt>
<totfact> 0.20367917E+04</totfact>
</mgrwt>
</event>
<event>
 8    1  0.3466492E-004  0.1088043E+03  0.7546771E-02  0.1263138E+00
         -1   -1    0    0    0  501 -0.00000000000E+00  0.00000000000E+00  0.20541019824E+03  0.20541019824E+03  0.00000000000E+00 0.  1.
          1   -1    0    0  501    0  0.00000000000E+00 -0.00000000000E+00 -0.60654843344E+02  0.60654843344E+02  0.00000000000E+00 0. -1.
         23    2    1    2    0    0 -0.32700637037E+02 -0.49994579825E+02  0.40652654214E+02  0.11548038914E+03  0.90079366708E+02 0.  0.
         23    2    1    2    0    0  0.32700637037E+02  0.49994579825E+02  0.10410270068E+03  0.15058465244E+03  0.90937206841E+02 0.  0.
          5    1    3    3  502    0 -0.36971926487E+02 -0.27076904748E+01 -0.16654993893E+02  0.40911291320E+02  0.47000000000E+01 0. -1.
         -5    1    4    4    0  503 -0.19265064046E+02  0.28281278866E+02  0.28889703478E+01  0.34661355667E+02  0.47000000000E+01 0.  1.
          5    1    4    4  503    0  0.51965701083E+02  0.21713300960E+02  0.10121373033E+03  0.11592329678E+03  0.47000000000E+01 0. -1.
         -5    1    3    3    0  502  0.42712894504E+01 -0.47286889350E+02  0.57307648107E+02  0.74569097819E+02  0.47000000000E+01 0.  1.
<mgrwt>
<rscale>  0 0.10862482E+03</rscale>
<asrwt>0</asrwt>
<pdfrwt beam="1">  1        1 0.93315144E-02 0.10880425E+03</pdfrwt>
<pdfrwt beam="2">  1       -1 0.31601569E-01 0.10880425E+03</pdfrwt>
<totfact> 0.61479263E+03</totfact>
</mgrwt>
</event>
<event>
 8    1  0.3466492E-004  0.9538333E+02  0.7546771E-02  0.1292996E+00
          2   -1    0    0  501    0  0.00000000000E+00  0.00000000000E+00  0.88159953181E+03  0.88159953181E+03  0.00000000000E+00 0. -1.
         -2   -1    0    0    0  501 -0.00000000000E+00 -0.00000000000E+00 -0.14066033035E+02  0.14066033035E+02  0.00000000000E+00 0.  1.
         23    2    1    2    0    0  0.16929391904E+02 -0.43536409383E+00  0.67212480200E+03  0.67822008175E+03  0.89128760599E+02 0.  0.
         23    2    1    2    0    0 -0.16929391904E+02  0.43536409383E+00  0.19540869677E+03  0.21744548310E+03  0.93867915143E+02 0.  0.
          5    1    3    3  502    0  0.50084748605E+02 -0.78342917962E+01  0.50835926210E+03  0.51090222893E+03  0.47000000000E+01 0. -1.
         -5    1    3    3    0  502 -0.33155356701E+02  0.73989277024E+01  0.16376553991E+03  0.16731785281E+03  0.47000000000E+01 0.  1.
          5    1    4    4  503    0 -0.10467832414E+02  0.30162461979E+02  0.18028163838E+03  0.18314723248E+03  0.47000000000E+01 0. -1.
         -5    1    4    4    0  503 -0.64615594896E+01 -0.29727097885E+02  0.15127058387E+02  0.34298250613E+02  0.47000000000E+01 0.  1.
<mgrwt>
<rscale>  0 0.94196366E+02</rscale>
<asrwt>0</asrwt>
<pdfrwt beam="1">  1        2 0.13563065E+00 0.95383328E+02</pdfrwt>
<pdfrwt beam="2">  1       -2 0.21640058E-02 0.95383328E+02</pdfrwt>
<totfact> 0.19852565E+04</totfact>
</mgrwt>
</event>
<event>
 8    1  0.3466492E-004  0.1273264E+03  0.7546771E-02  0.1238788E+00
         -1   -1    0    0    0  501 -0.00000000000E+00  0.00000000000E+00  0.34827759378E+02  0.34827759378E+02  0.00000000000E+00 0.  1.
          1   -1    0    0  501    0  0.00000000000E+00 -0.00000000000E+00 -0.43895859972E+03  0.43895859972E+03  0.00000000000E+00 0. -1.
         23    2    1    2    0    0  0.14720413312E+02  0.58787793510E+02 -0.25580304648E+03  0.27830449581E+03  0.91353700341E+02 0.  0.
         23    2    1    2    0    0 -0.14720413312E+02 -0.58787793510E+02 -0.14832779386E+03  0.19548186329E+03  0.11197914631E+03 0.  0.
          5    1    3    3  502    0  0.32810881581E+02  0.48122245906E+01 -0.18159865941E+03  0.18466151346E+03  0.47000000000E+01 0. -1.
         -5    1    3    3    0  502 -0.18090468268E+02  0.53975568919E+02 -0.74204387076E+02  0.93642982352E+02  0.47000000000E+01 0.  1.
          5    1    4    4  503    0  0.29048509390E+02  0.20998863556E+02 -0.44656041336E+02  0.57454505447E+02  0.47000000000E+01 0. -1.
         -5    1    4    4    0  503 -0.43768922702E+02 -0.79786657066E+02 -0.10367175252E+03  0.13802735784E+03  0.47000000000E+01 0.  1.
<mgrwt>
<rscale>  0 0.12265037E+03</rscale>
<asrwt>0</asrwt>
<pdfrwt beam="1">  1        1 0.67532090E-01 0.12732645E+03</pdfrwt>
<pdfrwt beam="2">  1       -1 0.53581170E-02 0.12732645E+03</pdfrwt>
<totfact> 0.80837923E+03</totfact>
</mgrwt>
</event>
<event>
 8    1  0.3466492E-004  0.1251219E+03  0.7546771E-02  0.1235893E+00
          1   -1    0    0  501    0  0.00000000000E+00  0.00000000000E+00  0.53667507752E+02  0.53667507752E+02  0.00000000000E+00 0. -1.
         -1   -1    0    0    0  501 -0.00000000000E+00 -0.00000000000E+00 -0.28914266145E+03  0.28914266145E+03  0.00000000000E+00 0.  1.
         23    2    1    2    0    0  0.25950668224E+02 -0.79185359980E+02 -0.10037696748E+03  0.16040890378E+03  0.93336608017E+02 0.  0.
         23    2    1    2    0    0 -0.25950668224E+02  0.79185359980E+02 -0.13509818622E+03  0.18240126542E+03  0.89860688237E+02 0.  0.
          5    1    4    4  502    0 -0.21701196581E+02 -0.11549340508E+01  0.30723677339E+01  0.22445606457E+02  0.47000000000E+01 0. -1.
         -5    1    3    3    0  503  0.45985366767E+02 -0.89186840313E+02 -0.91458944240E+02  0.13585203320E+03  0.47000000000E+01 0. -1.
          5    1    3    3  503    0 -0.20034698542E+02  0.10001480333E+02 -0.89180232360E+01  0.24556870586E+02  0.47000000000E+01 0.  1.
         -5    1    4    4    0  502 -0.42494716429E+01  0.80340294031E+02 -0.13817055396E+03  0.15995565897E+03  0.47000000000E+01 0.  1.
<mgrwt>
<rscale>  0 0.12447409E+03</rscale>
<asrwt>0</asrwt>
<pdfrwt beam="1">  1        1 0.82565399E-02 0.12512186E+03</pdfrwt>
<pdfrwt beam="2">  1       -1 0.44483485E-01 0.12512186E+03</pdfrwt>
<totfact> 0.40446671E+03</totfact>
</mgrwt>
</event>
<event>
 8    1  0.3466492E-004  0.1252521E+03  0.7546771E-02  0.1234767E+00
         -1   -1    0    0    0  501 -0.00000000000E+00  0.00000000000E+00  0.34040963398E+02  0.34040963398E+02  0.00000000000E+00 0.  1.
          1   -1    0    0  501    0  0.00000000000E+00 -0.00000000000E+00 -0.52229455556E+03  0.52229455556E+03  0.00000000000E+00 0. -1.
         23    2    1    2    0    0 -0.56058966733E+02 -0.64614997218E+02 -0.14786029607E+03  0.19362946312E+03  0.91170149823E+02 0.  0.
         23    2    1    2    0    0  0.56058966733E+02  0.64614997218E+02 -0.34039329609E+03  0.36270605584E+03  0.91489787947E+02 0.  0.
          5    1    4    4  502    0  0.61134888525E+02  0.32976646176E+02 -0.31188230440E+03  0.31955843845E+03  0.47000000000E+01 0. -1.
         -5    1    4    4    0  502 -0.50759217918E+01  0.31638351042E+02 -0.28510991695E+02  0.43147617387E+02  0.47000000000E+01 0.  1.
          5    1    3    3  503    0 -0.23775937694E+02  0.21309761120E+02 -0.48730511574E+02  0.58447873276E+02  0.47000000000E+01 0. -1.
         -5    1    3    3    0  503 -0.32283029040E+02 -0.85924758338E+02 -0.99129784496E+02  0.13518158985E+03  0.47000000000E+01 0.  1.
<mgrwt>
<rscale>  0 0.12519373E+03</rscale>
<asrwt>0</asrwt>
<pdfrwt beam="1">  1        1 0.80353008E-01 0.12525209E+03</pdfrwt>
<pdfrwt beam="2">  1       -1 0.52370713E-02 0.12525209E+03</pdfrwt>
<totfact> 0.66739203E+03</totfact>
</mgrwt>
</event>
<event>
 8    1  0.3466492E-004  0.1363867E+03  0.7546771E-02  0.1220019E+00
         -1   -1    0    0    0  501 -0.00000000000E+00  0.00000000000E+00  0.86743278228E+03  0.86743278228E+03  0.00000000000E+00 0.  1.
          1   -1    0    0  501    0  0.00000000000E+00 -0.00000000000E+00 -0.20727633577E+02  0.20727633577E+02  0.00000000000E+00 0. -1.
         23    2    1    2    0    0  0.63549825507E+02  0.66879812896E+02  0.45257989732E+03  0.47268371601E+03  0.10044820672E+03 0.  0.
         23    2    1    2    0    0 -0.63549825507E+02 -0.66879812896E+02  0.39412525139E+03  0.41547669984E+03  0.93673286687E+02 0.  0.
          5    1    4    4  502    0  0.76504551895E+01 -0.57526147217E+02  0.20551987727E+03  0.21360781126E+03  0.47000000000E+01 0. -1.
         -5    1    4    4    0  502 -0.71200280697E+02 -0.93536656791E+01  0.18860537412E+03  0.20186888859E+03  0.47000000000E+01 0.  1.
          5    1    3    3  503    0  0.27435888360E+02 -0.23285848048E+02  0.84258543560E+02  0.91741761768E+02  0.47000000000E+01 0. -1.
         -5    1    3    3    0  503  0.36113937147E+02  0.90165660945E+02  0.36832135376E+03  0.38094195425E+03  0.47000000000E+01 0.  1.
<mgrwt>
<rscale>  0 0.13514232E+03</rscale>
<asrwt>0</asrwt>
<pdfrwt beam="1">  1        1 0.31888674E-02 0.13638670E+03</pdfrwt>
<pdfrwt beam="2">  1       -1 0.13345117E+00 0.13638670E+03</pdfrwt>
<totfact> 0.15548038E+03</totfact>
</mgrwt>
</event>
<event>
 8    1  0.3466492E-004  0.1201241E+03  0.7546771E-02  0.1243015E+00
         -2   -1    0    0    0  501 -0.00000000000E+00  0.00000000000E+00  0.58170594215E+02  0.58170594215E+02  0.00000000000E+00 0.  1.
          2   -1    0    0  501    0  0.00000000000E+00 -0.00000000000E+00 -0.48210484941E+03  0.48210484941E+03  0.00000000000E+00 0. -1.
         23    2    1    2    0    0 -0.12529848958E+02 -0.76404573508E+02 -0.23368149408E+02  0.12208529834E+03  0.91455419179E+02 0.  0.
         23    2    1    2    0    0  0.12529848958E+02  0.76404573508E+02 -0.40056610578E+03  0.41819014528E+03  0.91842999390E+02 0.  0.
          5    1    3    3  502    0 -0.20365303956E+02  0.80498563695E+00 -0.37618085222E+02  0.43041885911E+02  0.47000000000E+01 0. -1.
         -5    1    4    4    0  503  0.69842831919E+01  0.28186665352E+02 -0.22611979099E+02  0.37103367962E+02  0.47000000000E+01 0.  1.
          5    1    4    4  503    0  0.55455657662E+01  0.48217908156E+02 -0.37795412668E+03  0.38108677732E+03  0.47000000000E+01 0. -1.
         -5    1    3    3    0  502  0.78354549975E+01 -0.77209559145E+02  0.14249935813E+02  0.79043412433E+02  0.47000000000E+01 0.  1.
<mgrwt>
<rscale>  0 0.12004999E+03</rscale>
<asrwt>0</asrwt>
<pdfrwt beam="1">  1        2 0.74169974E-01 0.12012407E+03</pdfrwt>
<pdfrwt beam="2">  1       -2 0.89493225E-02 0.12012407E+03</pdfrwt>
<totfact> 0.49204766E+03</totfact>
</mgrwt>
</event>
<event>
 8    1  0.3466492E-004  0.1348368E+03  0.7546771E-02  0.1224471E+00
          2   -1    0    0  501    0  0.00000000000E+00  0.00000000000E+00  0.18775579884E+03  0.18775579884E+03  0.00000000000E+00 0. -1.
         -2   -1    0    0    0  501 -0.00000000000E+00 -0.00000000000E+00 -0.14171671840E+03  0.14171671840E+03  0.00000000000E+00 0.  1.
         23    2    1    2    0    0  0.55083294487E+02 -0.62515703158E+02 -0.77833832795E+02  0.14637291141E+03  0.91785299450E+02 0.  0.
         23    2    1    2    0    0 -0.55083294487E+02  0.62515703158E+02  0.12387291324E+03  0.18309960583E+03  0.10601219057E+03 0.  0.
          5    1    3    3  502    0  0.30268046817E+02 -0.34734016843E+02  0.12986770693E+02  0.48097326299E+02  0.47000000000E+01 0.  1.
         -5    1    4    4    0  503 -0.39281248818E+02 -0.71295543372E+01  0.18668575344E+00  0.40199153043E+02  0.47000000000E+01 0.  1.
          5    1    4    4  503    0 -0.15802045668E+02  0.69645257495E+02  0.12368622748E+03  0.14290045279E+03  0.47000000000E+01 0. -1.
         -5    1    3    3    0  502  0.24815247670E+02 -0.27781686315E+02 -0.90820603488E+02  0.98275585113E+02  0.47000000000E+01 0.  1.
<mgrwt>
<rscale>  0 0.13203216E+03</rscale>
<asrwt>0</asrwt>
<pdfrwt beam="1">  1        2 0.28885507E-01 0.13483682E+03</pdfrwt>
<pdfrwt beam="2">  1       -2 0.21802572E-01 0.13483682E+03</pdfrwt>
<totfact> 0.31911155E+03</totfact>
</mgrwt>
</event>
<event>
 8    1  0.3466492E-004  0.9713510E+02  0.7546771E-02  0.1286762E+00
          1   -1    0    0  501    0  0.00000000000E+00  0.00000000000E+00  0.10370342888E+04  0.10370342888E+04  0.00000000000E+00 0. -1.
         -1   -1    0    0    0  501 -0.00000000000E+00 -0.00000000000E+00 -0.11285310139E+02  0.11285310139E+02  0.00000000000E+00 0.  1.
         23    2    1    2    0    0  0.32050024147E+01  0.34807635066E+02  0.74525832415E+03  0.75148591681E+03  0.89995944082E+02 0.  0.
         23    2    1    2    0    0 -0.32050024147E+01 -0.34807635066E+02  0.28049065450E+03  0.29683368212E+03  0.90627722459E+02 0.  0.
          5    1    4    4  502    0  0.10967188567E+02  0.27456035672E+02  0.57416681307E+02  0.64752439430E+02  0.47000000000E+01 0. -1.
         -5    1    3    3    0  503 -0.41495175665E+02  0.47750904231E+01  0.36264673288E+03  0.36507450467E+03  0.47000000000E+01 0.  1.
          5    1    3    3  503    0  0.44700178080E+02  0.30032544643E+02  0.38261159127E+03  0.38641141214E+03  0.47000000000E+01 0. -1.
         -5    1    4    4    0  502 -0.14172190982E+02 -0.62263670738E+02  0.22307397319E+03  0.23208124269E+03  0.47000000000E+01 0.  1.
<mgrwt>
<rscale>  0 0.96987467E+02</rscale>
<asrwt>0</asrwt>
<pdfrwt beam="1">  1        1 0.15954366E+00 0.97135100E+02</pdfrwt>
<pdfrwt beam="2">  1       -1 0.17362024E-02 0.97135100E+02</pdfrwt>
<totfact> 0.11909094E+04</totfact>
</mgrwt>
</event>
<event>
 8    1  0.3466492E-004  0.1401715E+03  0.7546771E-02  0.1213600E+00
         -2   -1    0    0    0  501 -0.00000000000E+00  0.00000000000E+00  0.54083836899E+02  0.54083836899E+02  0.00000000000E+00 0.  1.
          2   -1    0    0  501    0  0.00000000000E+00 -0.00000000000E+00 -0.50329380570E+03  0.50329380570E+03  0.00000000000E+00 0. -1.
         23    2    1    2    0    0 -0.34622839399E+02  0.99924430721E+02 -0.74760703360E+02  0.15755231529E+03  0.89721437917E+02 0.  0.
         23    2    1    2    0    0  0.34622839399E+02 -0.99924430721E+02 -0.37444926544E+03  0.39982532731E+03  0.92002212521E+02 0.  0.
          5    1    4    4  502    0  0.57105472871E+02 -0.87669053670E+02 -0.22571386536E+03  0.24882873029E+03  0.47000000000E+01 0.  1.
         -5    1    4    4    0  502 -0.22482633472E+02 -0.12255377051E+02 -0.14873540008E+03  0.15099659702E+03  0.47000000000E+01 0. -1.
          5    1    3    3  503    0 -0.51161091055E+02  0.61554178784E+02 -0.82228994152E+02  0.11484803718E+03  0.47000000000E+01 0. -1.
         -5    1    3    3    0  503  0.16538251655E+02  0.38370251937E+02  0.74682907924E+01  0.42704278110E+02  0.47000000000E+01 0.  1.
<mgrwt>
<rscale>  0 0.13979840E+03</rscale>
<asrwt>0</asrwt>
<pdfrwt beam="1">  1        2 0.77429812E-01 0.14017147E+03</pdfrwt>
<pdfrwt beam="2">  1       -2 0.83205907E-02 0.14017147E+03</pdfrwt>
<totfact> 0.52993025E+03</totfact>
</mgrwt>
</event>
<event>
 8    1  0.3466492E-004  0.9329996E+02  0.7546771E-02  0.1295088E+00
         -2   -1    0    0    0  501 -0.00000000000E+00  0.00000000000E+00  0.10055861838E+02  0.10055861838E+02  0.00000000000E+00 0.  1.
          2   -1    0    0  501    0  0.00000000000E+00 -0.00000000000E+00 -0.10464911522E+04  0.10464911522E+04  0.00000000000E+00 0. -1.
         23    2    1    2    0    0  0.12174260271E+02  0.15726776028E+02 -0.73831596649E+03  0.74418771129E+03  0.91155576763E+02 0.  0.
         23    2    1    2    0    0 -0.12174260271E+02 -0.15726776028E+02 -0.29811932391E+03  0.31235930278E+03  0.91091485038E+02 0.  0.
          5    1    3    3  502    0 -0.60993051718E+01 -0.36644249083E+02 -0.32043089268E+03  0.32261129785E+03  0.47000000000E+01 0. -1.
         -5    1    4    4    0  503  0.20886910479E+02 -0.31108581399E+02 -0.56497881673E+02  0.67956658979E+02  0.47000000000E+01 0.  1.
          5    1    4    4  503    0 -0.33061170750E+02  0.15381805371E+02 -0.24162144224E+03  0.24440264380E+03  0.47000000000E+01 0. -1.
         -5    1    3    3    0  502  0.18273565443E+02  0.52371025111E+02 -0.41788507381E+03  0.42157641345E+03  0.47000000000E+01 0.  1.
<mgrwt>
<rscale>  0 0.93284306E+02</rscale>
<asrwt>0</asrwt>
<pdfrwt beam="1">  1        2 0.16099860E+00 0.93299964E+02</pdfrwt>
<pdfrwt beam="2">  1       -2 0.15470561E-02 0.93299964E+02</pdfrwt>
<totfact> 0.25544883E+04</totfact>
</mgrwt>
</event>
<event>
 8    1  0.3466492E-004  0.1216672E+03  0.7546771E-02  0.1244573E+00
          1   -1    0    0  501    0  0.00000000000E+00  0.00000000000E+00  0.42604550001E+03  0.42604550001E+03  0.00000000000E+00 0. -1.
         -1   -1    0    0    0  501 -0.00000000000E+00 -0.00000000000E+00 -0.63362029589E+02  0.63362029589E+02  0.00000000000E+00 0.  1.
         23    2    1    2    0    0  0.58461909037E+02  0.29969683249E+02  0.52983959662E+01  0.11188005076E+03  0.90405177040E+02 0.  0.
         23    2    1    2    0    0 -0.58461909037E+02 -0.29969683249E+02  0.35738507446E+03  0.37752747884E+03  0.10240570841E+03 0.  0.
          5    1    4    4  502    0 -0.17392132828E+02 -0.58867192720E+02  0.26716626875E+03  0.27416735368E+03  0.47000000000E+01 0. -1.
         -5    1    3    3    0  503  0.77614555286E+02  0.38258776530E+02  0.15737493110E+02  0.88076738491E+02  0.47000000000E+01 0.  1.
          5    1    3    3  503    0 -0.19152646249E+02 -0.82890932804E+01 -0.10439097144E+02  0.23803312268E+02  0.47000000000E+01 0. -1.
         -5    1    4    4    0  502 -0.41069776209E+02  0.28897509470E+02  0.90218805701E+02  0.10336012516E+03  0.47000000000E+01 0.  1.
<mgrwt>
<rscale>  0 0.11910950E+03</rscale>
<asrwt>0</asrwt>
<pdfrwt beam="1">  1        1 0.65545460E-01 0.12166719E+03</pdfrwt>
<pdfrwt beam="2">  1       -1 0.97480048E-02 0.12166719E+03</pdfrwt>
<totfact> 0.34151800E+03</totfact>
</mgrwt>
</event>
<event>
 8    1  0.3466492E-004  0.9481802E+02  0.7546771E-02  0.1291801E+00
          1   -1    0    0  501    0  0.00000000000E+00  0.00000000000E+00  0.48807894403E+03  0.48807894403E+03  0.00000000000E+00 0. -1.
         -1   -1    0    0    0  501 -0.00000000000E+00 -0.00000000000E+00 -0.20717627973E+02  0.20717627973E+02  0.00000000000E+00 0.  1.
         23    2    1    2    0    0  0.15089085265E+02 -0.21942786397E+02  0.14802976015E+03  0.17579325016E+03  0.91001596365E+02 0.  0.
         23    2    1    2    0    0 -0.15089085265E+02  0.21942786397E+02  0.31933155591E+03  0.33300332185E+03  0.90605758069E+02 0.  0.
          5    1    3    3  502    0 -0.60147750996E+01 -0.40128633503E+02  0.14083506563E+03  0.14663932098E+03  0.47000000000E+01 0. -1.
         -5    1    4    4    0  503 -0.18313313418E+02  0.54952714493E+02  0.23906489885E+03  0.24602701912E+03  0.47000000000E+01 0.  1.
          5    1    4    4  503    0  0.32242281524E+01 -0.33009928095E+02  0.80266657060E+02  0.86976302724E+02  0.47000000000E+01 0. -1.
         -5    1    3    3    0  502  0.21103860365E+02  0.18185847105E+02  0.71946945236E+01  0.29153929178E+02  0.47000000000E+01 0.  1.
<mgrwt>
<rscale>  0 0.94722917E+02</rscale>
<asrwt>0</asrwt>
<pdfrwt beam="1">  1        1 0.75089059E-01 0.94818020E+02</pdfrwt>
<pdfrwt beam="2">  1       -1 0.31873278E-02 0.94818020E+02</pdfrwt>
<totfact> 0.14737605E+04</totfact>
</mgrwt>
</event>
<event>
 8    1  0.3466492E-004  0.9692418E+02  0.7546771E-02  0.1287261E+00
         -2   -1    0    0    0  501 -0.00000000000E+00  0.00000000000E+00  0.30166010438E+02  0.30166010438E+02  0.00000000000E+00 0.  1.
          2   -1    0    0  501    0  0.00000000000E+00 -0.00000000000E+00 -0.55139389295E+03  0.55139389295E+03  0.00000000000E+00 0. -1.
         23    2    1    2    0    0  0.16019899470E+02  0.30657279493E+02 -0.67448635537E+02  0.11754492310E+03  0.89838658422E+02 0.  0.
         23    2    1    2    0    0 -0.16019899470E+02 -0.30657279493E+02 -0.45377924697E+03  0.46401498028E+03  0.90541653273E+02 0.  0.
          5    1    4    4  502    0 -0.43025821419E+02 -0.13030291930E+01 -0.11532940474E+03  0.12319042492E+03  0.47000000000E+01 0. -1.
         -5    1    4    4    0  502  0.27005921949E+02 -0.29354250300E+02 -0.33844984224E+03  0.34082455537E+03  0.47000000000E+01 0.  1.
          5    1    3    3  503    0 -0.28705239681E+02  0.15068787107E+01  0.27175536294E+01  0.29252975341E+02  0.47000000000E+01 0.  1.
         -5    1    3    3    0  503  0.44725139151E+02  0.29150400782E+02 -0.70166189166E+02  0.88291947764E+02  0.47000000000E+01 0. -1.
<mgrwt>
<rscale>  0 0.96759669E+02</rscale>
<asrwt>0</asrwt>
<pdfrwt beam="1">  1        2 0.84829834E-01 0.96924181E+02</pdfrwt>
<pdfrwt beam="2">  1       -2 0.46409244E-02 0.96924181E+02</pdfrwt>
<totfact> 0.11324182E+04</totfact>
</mgrwt>
</event>
<event>
 8    1  0.3466492E-004  0.9466442E+02  0.7546771E-02  0.1295426E+00
         -4   -1    0    0    0  501 -0.00000000000E+00  0.00000000000E+00  0.32203287438E+02  0.32203287438E+02  0.00000000000E+00 0.  1.
          4   -1    0    0  501    0  0.00000000000E+00 -0.00000000000E+00 -0.31262546361E+03  0.31262546361E+03  0.00000000000E+00 0. -1.
         23    2    1    2    0    0 -0.32966552373E+01  0.16254022115E+02 -0.74004466885E+02  0.12015828482E+03  0.93200274260E+02 0.  0.
         23    2    1    2    0    0  0.32966552373E+01 -0.16254022115E+02 -0.20641770929E+03  0.22467046623E+03  0.87140613471E+02 0.  0.
          5    1    3    3  502    0  0.31110745696E+02  0.36874306527E+01 -0.76844772702E+02  0.83118498147E+02  0.47000000000E+01 0. -1.
         -5    1    3    3    0  502 -0.34407400933E+02  0.12566591463E+02  0.28403058166E+01  0.37039786677E+02  0.47000000000E+01 0.  1.
          5    1    4    4  503    0 -0.51980674364E+01  0.34884053618E+02 -0.10138896716E+03  0.10745105753E+03  0.47000000000E+01 0. -1.
         -5    1    4    4    0  503  0.84947226737E+01 -0.51138075733E+02 -0.10502874213E+03  0.11721940870E+03  0.47000000000E+01 0.  1.
<mgrwt>
<rscale>  0 0.93137999E+02</rscale>
<asrwt>0</asrwt>
<pdfrwt beam="1">  1        4 0.48096227E-01 0.94664419E+02</pdfrwt>
<pdfrwt beam="2">  1       -4 0.49543517E-02 0.94664419E+02</pdfrwt>
<totfact> 0.15395773E+03</totfact>
</mgrwt>
</event>
<event>
 8    1  0.3466492E-004  0.1153786E+03  0.7546771E-02  0.1251289E+00
         -1   -1    0    0    0  501 -0.00000000000E+00  0.00000000000E+00  0.14762776573E+03  0.14762776573E+03  0.00000000000E+00 0.  1.
          1   -1    0    0  501    0  0.00000000000E+00 -0.00000000000E+00 -0.93339694374E+02  0.93339694374E+02  0.00000000000E+00 0. -1.
         23    2    1    2    0    0 -0.32650327299E+02  0.61771102646E+02  0.26650723154E+01  0.11456666957E+03  0.90756300995E+02 0.  0.
         23    2    1    2    0    0  0.32650327299E+02 -0.61771102646E+02  0.51622999041E+02  0.12640079054E+03  0.91817824108E+02 0.  0.
          5    1    4    4  502    0  0.34767078912E+02 -0.30745927200E+02 -0.18001825839E+02  0.50002175443E+02  0.47000000000E+01 0. -1.
         -5    1    4    4    0  502 -0.21167516135E+01 -0.31025175445E+02  0.69624824880E+02  0.76398615095E+02  0.47000000000E+01 0.  1.
          5    1    3    3  503    0 -0.12180593871E+01  0.29975444219E+02 -0.41581425495E+02  0.51488987861E+02  0.47000000000E+01 0. -1.
         -5    1    3    3    0  503 -0.31432267912E+02  0.31795658427E+02  0.44246497810E+02  0.63077681705E+02  0.47000000000E+01 0.  1.
<mgrwt>
<rscale>  0 0.11516730E+03</rscale>
<asrwt>0</asrwt>
<pdfrwt beam="1">  1        1 0.14359953E-01 0.11537862E+03</pdfrwt>
<pdfrwt beam="2">  1       -1 0.22711964E-01 0.11537862E+03</pdfrwt>
<totfact> 0.60592653E+03</totfact>
</mgrwt>
</event>
<event>
 8    1  0.3466492E-004  0.2568332E+03  0.7546771E-02  0.1109126E+00
         -2   -1    0    0    0  501 -0.00000000000E+00  0.00000000000E+00  0.45931747983E+03  0.45931747983E+03  0.00000000000E+00 0.  1.
          2   -1    0    0  501    0  0.00000000000E+00 -0.00000000000E+00 -0.20292128086E+03  0.20292128086E+03  0.00000000000E+00 0. -1.
         23    2    1    2    0    0  0.21991534053E+03  0.96721605826E+02  0.30764141130E+03  0.40075743374E+03  0.90804497238E+02 0.  0.
         23    2    1    2    0    0 -0.21991534053E+03 -0.96721605826E+02 -0.51245212340E+02  0.26148132695E+03  0.89602380097E+02 0.  0.
          5    1    4    4  502    0 -0.45607150848E+02 -0.52069672102E+02 -0.42309940576E+02  0.81261823957E+02  0.47000000000E+01 0. -1.
         -5    1    4    4    0  502 -0.17430818968E+03 -0.44651933724E+02 -0.89352717643E+01  0.18021950299E+03  0.47000000000E+01 0.  1.
          5    1    3    3  503    0  0.21614356948E+03  0.74688284426E+02  0.25049141265E+03  0.33921146837E+03  0.47000000000E+01 0. -1.
         -5    1    3    3    0  503  0.37717710512E+01  0.22033321399E+02  0.57149998647E+02  0.61545965377E+02  0.47000000000E+01 0.  1.
<mgrwt>
<rscale>  0 0.25672748E+03</rscale>
<asrwt>0</asrwt>
<pdfrwt beam="1">  1        2 0.31218659E-01 0.25683318E+03</pdfrwt>
<pdfrwt beam="2">  1       -2 0.70664227E-01 0.25683318E+03</pdfrwt>
<totfact> 0.31516625E+02</totfact>
</mgrwt>
</event>
<event>
 8    1  0.3466492E-004  0.1282499E+03  0.7546771E-02  0.1230464E+00
         -3   -1    0    0    0  501 -0.00000000000E+00  0.00000000000E+00  0.38179742244E+03  0.38179742244E+03  0.00000000000E+00 0.  1.
          3   -1    0    0  501    0  0.00000000000E+00 -0.00000000000E+00 -0.42743860510E+02  0.42743860510E+02  0.00000000000E+00 0. -1.
         23    2    1    2    0    0 -0.74867972856E+02  0.35100234490E+02  0.17279148257E+03  0.21518581196E+03  0.98034674476E+02 0.  0.
         23    2    1    2    0    0  0.74867972856E+02 -0.35100234490E+02  0.16626207936E+03  0.20935547099E+03  0.96692266390E+02 0.  0.
          5    1    3    3  502    0 -0.23497871354E+02  0.10909433985E+02 -0.64488419286E+01  0.27107992738E+02  0.47000000000E+01 0. -1.
         -5    1    3    3    0  502 -0.51370101502E+02  0.24190800505E+02  0.17924032450E+03  0.18807781922E+03  0.47000000000E+01 0.  1.
          5    1    4    4  503    0  0.46128839881E+02  0.23679530833E+02  0.11454613332E+03  0.12582327570E+03  0.47000000000E+01 0. -1.
         -5    1    4    4    0  503  0.28739132975E+02 -0.58779765323E+02  0.51715946047E+02  0.83532195297E+02  0.47000000000E+01 0.  1.
<mgrwt>
<rscale>  0 0.12799333E+03</rscale>
<asrwt>0</asrwt>
<pdfrwt beam="1">  1        3 0.65759788E-02 0.12824990E+03</pdfrwt>
<pdfrwt beam="2">  1       -3 0.58738063E-01 0.12824990E+03</pdfrwt>
<totfact> 0.96546890E+02</totfact>
</mgrwt>
</event>
<event>
 8    1  0.3466492E-004  0.1207528E+03  0.7546771E-02  0.1242364E+00
         -2   -1    0    0    0  501 -0.00000000000E+00  0.00000000000E+00  0.26746686670E+02  0.26746686670E+02  0.00000000000E+00 0.  1.
          2   -1    0    0  501    0  0.00000000000E+00 -0.00000000000E+00 -0.57604349025E+03  0.57604349025E+03  0.00000000000E+00 0. -1.
         23    2    1    2    0    0 -0.63881535238E+02 -0.40895633797E+02 -0.34910045457E+03  0.36899580934E+03  0.92376818105E+02 0.  0.
         23    2    1    2    0    0  0.63881535238E+02  0.40895633797E+02 -0.20019634901E+03  0.23379436758E+03  0.93957036704E+02 0.  0.
          5    1    4    4  502    0  0.35954991574E+02 -0.22230130971E+02 -0.36388260129E+02  0.55974419311E+02  0.47000000000E+01 0. -1.
         -5    1    4    4    0  502  0.27926543664E+02  0.63125764768E+02 -0.16380808888E+03  0.17781994826E+03  0.47000000000E+01 0.  1.
          5    1    3    3  503    0 -0.59669278866E+02 -0.16231982934E+02 -0.33332698455E+03  0.33904700078E+03  0.47000000000E+01 0. -1.
         -5    1    3    3    0  503 -0.42122563715E+01 -0.24663650864E+02 -0.15773470019E+02  0.29948808559E+02  0.47000000000E+01 0.  1.
<mgrwt>
<rscale>  0 0.12044522E+03</rscale>
<asrwt>0</asrwt>
<pdfrwt beam="1">  1        2 0.88622078E-01 0.12075276E+03</pdfrwt>
<pdfrwt beam="2">  1       -2 0.41148748E-02 0.12075276E+03</pdfrwt>
<totfact> 0.13117741E+04</totfact>
</mgrwt>
</event>
<event>
 8    1  0.3466492E-004  0.9430689E+02  0.7546771E-02  0.1293983E+00
         -2   -1    0    0    0  501 -0.00000000000E+00  0.00000000000E+00  0.92703191330E+01  0.92703191330E+01  0.00000000000E+00 0.  1.
          2   -1    0    0  501    0  0.00000000000E+00 -0.00000000000E+00 -0.10111717745E+04  0.10111717745E+04  0.00000000000E+00 0. -1.
         23    2    1    2    0    0 -0.25483409832E+01  0.65337265709E+01 -0.36872133282E+03  0.38059060761E+03  0.94045763866E+02 0.  0.
         23    2    1    2    0    0  0.25483409832E+01 -0.65337265709E+01 -0.63318012258E+03  0.63985148606E+03  0.91889460498E+02 0.  0.
          5    1    4    4  502    0  0.16808106531E+02 -0.45376089471E+02 -0.40444118168E+03  0.40735274809E+03  0.47000000000E+01 0. -1.
         -5    1    3    3    0  503 -0.32440656952E+02  0.38312636347E+02 -0.19894923445E+03  0.20523923167E+03  0.47000000000E+01 0.  1.
          5    1    3    3  503    0  0.29892315968E+02 -0.31778909776E+02 -0.16977209837E+03  0.17535137594E+03  0.47000000000E+01 0. -1.
         -5    1    4    4    0  502 -0.14259765548E+02  0.38842362900E+02 -0.22873894091E+03  0.23249873797E+03  0.47000000000E+01 0.  1.
<mgrwt>
<rscale>  0 0.93764683E+02</rscale>
<asrwt>0</asrwt>
<pdfrwt beam="1">  1        2 0.15556490E+00 0.94306889E+02</pdfrwt>
<pdfrwt beam="2">  1       -2 0.14262029E-02 0.94306889E+02</pdfrwt>
<totfact> 0.30103767E+04</totfact>
</mgrwt>
</event>
<event>
 8    1  0.3466492E-004  0.1162450E+03  0.7546771E-02  0.1250009E+00
         -2   -1    0    0    0  501 -0.00000000000E+00  0.00000000000E+00  0.52737067101E+02  0.52737067101E+02  0.00000000000E+00 0. -1.
          2   -1    0    0  501    0  0.00000000000E+00 -0.00000000000E+00 -0.47546280861E+03  0.47546280861E+03  0.00000000000E+00 0.  1.
         23    2    1    2    0    0  0.58869513608E+02  0.38102580237E+02 -0.30161645484E+02  0.11878629426E+03  0.91011167412E+02 0.  0.
         23    2    1    2    0    0 -0.58869513608E+02 -0.38102580237E+02 -0.39256409603E+03  0.40941358145E+03  0.92711838139E+02 0.  0.
          5    1    4    4  502    0  0.10091926048E+02 -0.45381667228E+02 -0.15469106095E+03  0.16159442140E+03  0.47000000000E+01 0. -1.
         -5    1    3    3    0  503 -0.18719022454E+02  0.26355306744E+02 -0.22784554963E+02  0.39827502308E+02  0.47000000000E+01 0.  1.
          5    1    3    3  503    0  0.77588536062E+02  0.11747273493E+02 -0.73770905213E+01  0.78958791957E+02  0.47000000000E+01 0. -1.
         -5    1    4    4    0  502 -0.68961439656E+02  0.72790869905E+01 -0.23787303508E+03  0.24781916005E+03  0.47000000000E+01 0.  1.
<mgrwt>
<rscale>  0 0.11590561E+03</rscale>
<asrwt>0</asrwt>
<pdfrwt beam="1">  1        2 0.73148123E-01 0.11624505E+03</pdfrwt>
<pdfrwt beam="2">  1       -2 0.81133951E-02 0.11624505E+03</pdfrwt>
<totfact> 0.58019687E+03</totfact>
</mgrwt>
</event>
<event>
 8    1  0.3466492E-004  0.9365245E+02  0.7546771E-02  0.1294274E+00
         -1   -1    0    0    0  501 -0.00000000000E+00  0.00000000000E+00  0.61033012862E+02  0.61033012862E+02  0.00000000000E+00 0.  1.
          1   -1    0    0  501    0  0.00000000000E+00 -0.00000000000E+00 -0.19738823844E+03  0.19738823844E+03  0.00000000000E+00 0. -1.
         23    2    1    2    0    0  0.20661588624E+02 -0.13189952382E+02 -0.13563384643E+03  0.16482512492E+03  0.90387529113E+02 0.  0.
         23    2    1    2    0    0 -0.20661588624E+02  0.13189952382E+02 -0.72137914202E+00  0.93596126377E+02  0.90326288513E+02 0.  0.
          5    1    4    4  502    0  0.32448574684E+02  0.21674103213E+02  0.34013477089E+01  0.39450423513E+02  0.47000000000E+01 0. -1.
         -5    1    4    4    0  502 -0.53110163308E+02 -0.84841508313E+01 -0.41227268509E+01  0.54145702864E+02  0.47000000000E+01 0.  1.
          5    1    3    3  503    0  0.38561548527E+02  0.23626947433E+02 -0.10185607194E+03  0.11154360161E+03  0.47000000000E+01 0. -1.
         -5    1    3    3    0  503 -0.17899959903E+02 -0.36816899816E+02 -0.33777774497E+02  0.53281523313E+02  0.47000000000E+01 0.  1.
<mgrwt>
<rscale>  0 0.93637671E+02</rscale>
<asrwt>0</asrwt>
<pdfrwt beam="1">  1        1 0.30367421E-01 0.93652451E+02</pdfrwt>
<pdfrwt beam="2">  1       -1 0.93896942E-02 0.93652451E+02</pdfrwt>
<totfact> 0.91778973E+03</totfact>
</mgrwt>
</event>
<event>
 8    1  0.3466492E-004  0.1168715E+03  0.7546771E-02  0.1249216E+00
          2   -1    0    0  501    0  0.00000000000E+00  0.00000000000E+00  0.43926949700E+03  0.43926949700E+03  0.00000000000E+00 0. -1.
         -2   -1    0    0    0  501 -0.00000000000E+00 -0.00000000000E+00 -0.35535981229E+02  0.35535981229E+02  0.00000000000E+00 0.  1.
         23    2    1    2    0    0  0.55307054409E+02  0.43809855558E+02  0.29218504029E+03  0.31469197542E+03  0.93170638712E+02 0.  0.
         23    2    1    2    0    0 -0.55307054409E+02 -0.43809855558E+02  0.11154847548E+03  0.16011350280E+03  0.90637176069E+02 0.  0.
          5    1    4    4  502    0 -0.27903769358E+02 -0.66485497630E+02  0.98010446080E+02  0.12176649490E+03  0.47000000000E+01 0. -1.
         -5    1    4    4    0  502 -0.27403285051E+02  0.22675642072E+02  0.13538029402E+02  0.38347007902E+02  0.47000000000E+01 0.  1.
          5    1    3    3  503    0  0.41033734025E+02  0.63734950276E+02  0.27256019145E+03  0.28294356182E+03  0.47000000000E+01 0. -1.
         -5    1    3    3    0  503  0.14273320384E+02 -0.19925094718E+02  0.19624848839E+02  0.31748413602E+02  0.47000000000E+01 0.  1.
<mgrwt>
<rscale>  0 0.11636583E+03</rscale>
<asrwt>0</asrwt>
<pdfrwt beam="1">  1        2 0.67579919E-01 0.11687147E+03</pdfrwt>
<pdfrwt beam="2">  1       -2 0.54670743E-02 0.11687147E+03</pdfrwt>
<totfact> 0.11519632E+04</totfact>
</mgrwt>
</event>
<event>
 8    1  0.3466492E-004  0.1018685E+03  0.7546771E-02  0.1276502E+00
          2   -1    0    0  501    0  0.00000000000E+00  0.00000000000E+00  0.19634434010E+03  0.19634434010E+03  0.00000000000E+00 0. -1.
         -2   -1    0    0    0  501 -0.00000000000E+00 -0.00000000000E+00 -0.52961013062E+02  0.52961013062E+02  0.00000000000E+00 0.  1.
         23    2    1    2    0    0  0.35487268163E+02  0.25691157693E+02  0.64143628863E+02  0.12038105594E+03  0.91966361901E+02 0.  0.
         23    2    1    2    0    0 -0.35487268163E+02 -0.25691157693E+02  0.79239698176E+02  0.12892429722E+03  0.91777790674E+02 0.  0.
          5    1    4    4  502    0  0.96514878328E+01 -0.26204781937E+02  0.78587426329E+02  0.83533917607E+02  0.47000000000E+01 0. -1.
         -5    1    4    4    0  502 -0.45138755996E+02  0.51362424417E+00  0.65227184703E+00  0.45390379611E+02  0.47000000000E+01 0.  1.
          5    1    3    3  503    0 -0.54132338047E+01  0.51212468569E+02  0.22082013564E+02  0.56229221586E+02  0.47000000000E+01 0. -1.
         -5    1    3    3    0  503  0.40900501968E+02 -0.25521310876E+02  0.42061615299E+02  0.64151834359E+02  0.47000000000E+01 0.  1.
<mgrwt>
<rscale>  0 0.10182593E+03</rscale>
<asrwt>0</asrwt>
<pdfrwt beam="1">  1        2 0.30206821E-01 0.10186851E+03</pdfrwt>
<pdfrwt beam="2">  1       -2 0.81478483E-02 0.10186851E+03</pdfrwt>
<totfact> 0.14571092E+04</totfact>
</mgrwt>
</event>
<event>
 8    1  0.3466492E-004  0.9081339E+02  0.7546771E-02  0.1303934E+00
          1   -1    0    0  501    0  0.00000000000E+00  0.00000000000E+00  0.48886402423E+03  0.48886402423E+03  0.00000000000E+00 0. -1.
         -1   -1    0    0    0  501 -0.00000000000E+00 -0.00000000000E+00 -0.21795055586E+02  0.21795055586E+02  0.00000000000E+00 0.  1.
         23    2    1    2    0    0  0.53992024805E+01 -0.66213730404E+01  0.10630382445E+03  0.13981263918E+03  0.90410602323E+02 0.  0.
         23    2    1    2    0    0 -0.53992024805E+01  0.66213730404E+01  0.36076514419E+03  0.37084644063E+03  0.85455247365E+02 0.  0.
          5    1    3    3  502    0 -0.35250887047E+02  0.19474710109E+02  0.62107444376E+02  0.74170843452E+02  0.47000000000E+01 0. -1.
         -5    1    4    4    0  503  0.11581436274E+02 -0.22343760899E+02  0.35227401896E+02  0.43548055773E+02  0.47000000000E+01 0.  1.
          5    1    4    4  503    0 -0.16980638755E+02  0.28965133939E+02  0.32553774229E+03  0.32729838486E+03  0.47000000000E+01 0. -1.
         -5    1    3    3    0  502  0.40650089528E+02 -0.26096083149E+02  0.44196380076E+02  0.65641795727E+02  0.47000000000E+01 0.  1.
<mgrwt>
<rscale>  0 0.89554419E+02</rscale>
<asrwt>0</asrwt>
<pdfrwt beam="1">  1        1 0.75209842E-01 0.90813385E+02</pdfrwt>
<pdfrwt beam="2">  1       -1 0.33530858E-02 0.90813385E+02</pdfrwt>
<totfact> 0.13615787E+04</totfact>
</mgrwt>
</event>
<event>
 8    1  0.3466492E-004  0.1072191E+03  0.7546771E-02  0.1268818E+00
         -3   -1    0    0    0  501 -0.00000000000E+00  0.00000000000E+00  0.12776216923E+04  0.12776216923E+04  0.00000000000E+00 0.  1.
          3   -1    0    0  501    0  0.00000000000E+00 -0.00000000000E+00 -0.88682094690E+01  0.88682094690E+01  0.00000000000E+00 0. -1.
         23    2    1    2    0    0 -0.45127580617E+02  0.32137893990E+02  0.48456957363E+03  0.49501006378E+03  0.84604661771E+02 0.  0.
         23    2    1    2    0    0  0.45127580617E+02 -0.32137893990E+02  0.78418390918E+03  0.79147983796E+03  0.91796447262E+02 0.  0.
          5    1    4    4  502    0  0.67570419774E+02 -0.10134392797E+01  0.54462235252E+03  0.54881908271E+03  0.47000000000E+01 0. -1.
         -5    1    3    3    0  503 -0.28337364111E+01 -0.25308241311E+02  0.19664196698E+03  0.19833983543E+03  0.47000000000E+01 0.  1.
          5    1    3    3  503    0 -0.42293844206E+02  0.57446135301E+02  0.28792760665E+03  0.29667022835E+03  0.47000000000E+01 0. -1.
         -5    1    4    4    0  502 -0.22442839157E+02 -0.31124454710E+02  0.23956155666E+03  0.24266075525E+03  0.47000000000E+01 0.  1.
<mgrwt>
<rscale>  0 0.10566329E+03</rscale>
<asrwt>0</asrwt>
<pdfrwt beam="1">  1        3 0.13643409E-02 0.10721908E+03</pdfrwt>
<pdfrwt beam="2">  1       -3 0.19655704E+00 0.10721908E+03</pdfrwt>
<totfact> 0.64564315E+02</totfact>
</mgrwt>
</event>
<event>
 8    1  0.3466492E-004  0.9312595E+02  0.7546771E-02  0.1296175E+00
          4   -1    0    0  501    0  0.00000000000E+00  0.00000000000E+00  0.29516761514E+03  0.29516761514E+03  0.00000000000E+00 0. -1.
         -4   -1    0    0    0  501 -0.00000000000E+00 -0.00000000000E+00 -0.29700074601E+02  0.29700074601E+02  0.00000000000E+00 0.  1.
         23    2    1    2    0    0  0.78805361833E+01 -0.96283844919E+01  0.15694830410E+03  0.18186815397E+03  0.91040906369E+02 0.  0.
         23    2    1    2    0    0 -0.78805361833E+01  0.96283844919E+01  0.10851923644E+03  0.14299953577E+03  0.92291028348E+02 0.  0.
          5    1    3    3  502    0  0.38337866119E+02  0.24151351246E+02  0.67887131637E+02  0.81754708657E+02  0.47000000000E+01 0. -1.
         -5    1    4    4    0  503 -0.48459407764E+02  0.17024716931E+02  0.62042605486E+02  0.80681658901E+02  0.47000000000E+01 0.  1.
          5    1    4    4  503    0  0.40578871580E+02 -0.73963324392E+01  0.46476630958E+02  0.62317876869E+02  0.47000000000E+01 0. -1.
         -5    1    3    3    0  502 -0.30457329936E+02 -0.33779735738E+02  0.89061172459E+02  0.10011344532E+03  0.47000000000E+01 0.  1.
<mgrwt>
<rscale>  0 0.92814702E+02</rscale>
<asrwt>0</asrwt>
<pdfrwt beam="1">  1        4 0.45410400E-01 0.93125950E+02</pdfrwt>
<pdfrwt beam="2">  1       -4 0.45692425E-02 0.93125950E+02</pdfrwt>
<totfact> 0.19560627E+03</totfact>
</mgrwt>
</event>
<event>
 8    1  0.3466492E-004  0.2500088E+03  0.7546771E-02  0.1113374E+00
         -3   -1    0    0    0  501 -0.00000000000E+00  0.00000000000E+00  0.23330112456E+03  0.23330112456E+03  0.00000000000E+00 0.  1.
          3   -1    0    0  501    0  0.00000000000E+00 -0.00000000000E+00 -0.27718179484E+03  0.27718179484E+03  0.00000000000E+00 0. -1.
         23    2    1    2    0    0 -0.22853013891E+03 -0.44157687628E+02  0.26010884015E+02  0.25088856556E+03  0.89958770970E+02 0.  0.
         23    2    1    2    0    0  0.22853013891E+03  0.44157687628E+02 -0.69891554299E+02  0.25959435385E+03  0.91260470207E+02 0.  0.
          5    1    4    4  502    0  0.82008325592E+02  0.61066270912E+02 -0.31951199627E+02  0.10722604193E+03  0.47000000000E+01 0. -1.
         -5    1    4    4    0  502  0.14652181331E+03 -0.16908583284E+02 -0.37940354672E+02  0.15236831192E+03  0.47000000000E+01 0.  1.
          5    1    3    3  503    0 -0.15658782976E+03 -0.86457860333E+01 -0.20185990094E+02  0.15818995619E+03  0.47000000000E+01 0. -1.
         -5    1    3    3    0  503 -0.71942309151E+02 -0.35511901594E+02  0.46196874109E+02  0.92698609365E+02  0.47000000000E+01 0.  1.
<mgrwt>
<rscale>  0 0.24989066E+03</rscale>
<asrwt>0</asrwt>
<pdfrwt beam="1">  1        3 0.42643353E-01 0.25000880E+03</pdfrwt>
<pdfrwt beam="2">  1       -3 0.35892481E-01 0.25000880E+03</pdfrwt>
<totfact> 0.10443245E+02</totfact>
</mgrwt>
</event>
<event>
 8    1  0.3466492E-004  0.1115590E+03  0.7546771E-02  0.1263797E+00
          1   -1    0    0  501    0  0.00000000000E+00  0.00000000000E+00  0.16754734430E+03  0.16754734430E+03  0.00000000000E+00 0. -1.
         -1   -1    0    0    0  501 -0.00000000000E+00 -0.00000000000E+00 -0.26593169736E+03  0.26593169736E+03  0.00000000000E+00 0.  1.
         23    2    1    2    0    0 -0.11180714952E+02  0.34339934132E+02 -0.23623753684E+03  0.25614064510E+03  0.92171670243E+02 0.  0.
         23    2    1    2    0    0  0.11180714952E+02 -0.34339934132E+02  0.13785318378E+03  0.17733839656E+03  0.10555172738E+03 0.  0.
          5    1    3    3  502    0  0.28030462089E+02 -0.16497989895E+02 -0.10395566532E+03  0.10902642262E+03  0.47000000000E+01 0. -1.
         -5    1    4    4    0  503  0.17110520925E+02 -0.12491216239E+02 -0.12617473627E+02  0.25101614493E+02  0.47000000000E+01 0.  1.
          5    1    4    4  503    0 -0.59298059730E+01 -0.21848717894E+02  0.15047065741E+03  0.15223678207E+03  0.47000000000E+01 0. -1.
         -5    1    3    3    0  502 -0.39211177041E+02  0.50837924027E+02 -0.13228187152E+03  0.14711422248E+03  0.47000000000E+01 0.  1.
<mgrwt>
<rscale>  0 0.10827567E+03</rscale>
<asrwt>0</asrwt>
<pdfrwt beam="1">  1        1 0.25776514E-01 0.11155898E+03</pdfrwt>
<pdfrwt beam="2">  1       -1 0.40912569E-01 0.11155898E+03</pdfrwt>
<totfact> 0.10729892E+03</totfact>
</mgrwt>
</event>
<event>
 8    1  0.3466492E-004  0.1066541E+03  0.7546771E-02  0.1267276E+00
         -3   -1    0    0    0  501 -0.00000000000E+00  0.00000000000E+00  0.41952217726E+03  0.41952217726E+03  0.00000000000E+00 0.  1.
          3   -1    0    0  501    0  0.00000000000E+00 -0.00000000000E+00 -0.34811483598E+02  0.34811483598E+02  0.00000000000E+00 0. -1.
         23    2    1    2    0    0 -0.25165003572E+01  0.54827893330E+02  0.29999954974E+03  0.31813129304E+03  0.90528222704E+02 0.  0.
         23    2    1    2    0    0  0.25165003572E+01 -0.54827893330E+02  0.84711143923E+02  0.13620236782E+03  0.91447670468E+02 0.  0.
          5    1    3    3  502    0 -0.28831128884E+02 -0.80443790568E+00  0.32949008792E+02  0.44040984247E+02  0.47000000000E+01 0. -1.
         -5    1    4    4    0  503  0.27795181112E+02 -0.34825849589E+02  0.92436573222E+02  0.10272303520E+03  0.47000000000E+01 0.  1.
          5    1    4    4  503    0 -0.25278680755E+02 -0.20002043742E+02 -0.77254292987E+01  0.33479332616E+02  0.47000000000E+01 0. -1.
         -5    1    3    3    0  502  0.26314628527E+02  0.55632331236E+02  0.26705054095E+03  0.27409030879E+03  0.47000000000E+01 0.  1.
<mgrwt>
<rscale>  0 0.10645678E+03</rscale>
<asrwt>0</asrwt>
<pdfrwt beam="1">  1        3 0.53556132E-02 0.10665415E+03</pdfrwt>
<pdfrwt beam="2">  1       -3 0.64541870E-01 0.10665415E+03</pdfrwt>
<totfact> 0.10684212E+03</totfact>
</mgrwt>
</event>
<event>
 8    1  0.3466492E-004  0.1053318E+03  0.7546771E-02  0.1273960E+00
         -3   -1    0    0    0  501 -0.00000000000E+00  0.00000000000E+00  0.11450455459E+03  0.11450455459E+03  0.00000000000E+00 0.  1.
          3   -1    0    0  501    0  0.00000000000E+00 -0.00000000000E+00 -0.97370929056E+02  0.97370929056E+02  0.00000000000E+00 0. -1.
         23    2    1    2    0    0  0.34776893247E+02 -0.40300012913E+02  0.39906308157E+02  0.11263791293E+03  0.90891488343E+02 0.  0.
         23    2    1    2    0    0 -0.34776893247E+02  0.40300012913E+02 -0.22772682619E+02  0.99237570722E+02  0.80597624186E+02 0.  0.
          5    1    4    4  502    0  0.33982062447E+01  0.33884668656E+02  0.21260105693E+02  0.40420300218E+02  0.47000000000E+01 0. -1.
         -5    1    3    3    0  503 -0.97895615880E+01 -0.21217459670E+02  0.56387220586E+02  0.61217846715E+02  0.47000000000E+01 0.  1.
          5    1    3    3  503    0  0.44566454835E+02 -0.19082553243E+02 -0.16480912430E+02  0.51420066213E+02  0.47000000000E+01 0. -1.
         -5    1    4    4    0  502 -0.38175099491E+02  0.64153442570E+01 -0.44032788311E+02  0.58817270504E+02  0.47000000000E+01 0.  1.
<mgrwt>
<rscale>  0 0.10307466E+03</rscale>
<asrwt>0</asrwt>
<pdfrwt beam="1">  1        3 0.14980143E-01 0.10533179E+03</pdfrwt>
<pdfrwt beam="2">  1       -3 0.17616085E-01 0.10533179E+03</pdfrwt>
<totfact> 0.22806531E+03</totfact>
</mgrwt>
</event>
<event>
 8    1  0.3466492E-004  0.9811584E+02  0.7546771E-02  0.1287447E+00
          4   -1    0    0  501    0  0.00000000000E+00  0.00000000000E+00  0.24146759957E+03  0.24146759957E+03  0.00000000000E+00 0. -1.
         -4   -1    0    0    0  501 -0.00000000000E+00 -0.00000000000E+00 -0.40394198577E+02  0.40394198577E+02  0.00000000000E+00 0.  1.
         23    2    1    2    0    0 -0.17691484594E+02 -0.84434688967E+01  0.60785607693E+02  0.11066780489E+03  0.90378051224E+02 0.  0.
         23    2    1    2    0    0  0.17691484594E+02  0.84434688967E+01  0.14028779330E+03  0.17119399325E+03  0.96137597135E+02 0.  0.
          5    1    3    3  502    0  0.22832573429E+02  0.27878500635E+02  0.34267675189E+02  0.49948981670E+02  0.47000000000E+01 0. -1.
         -5    1    4    4    0  503 -0.12509645206E+02 -0.35526161416E+02  0.29253479286E+02  0.47921346168E+02  0.47000000000E+01 0.  1.
          5    1    4    4  503    0  0.30201129800E+02  0.43969630313E+02  0.11103431401E+03  0.12327264708E+03  0.47000000000E+01 0. -1.
         -5    1    3    3    0  502 -0.40524058023E+02 -0.36321969531E+02  0.26517932503E+02  0.60718823223E+02  0.47000000000E+01 0.  1.
<mgrwt>
<rscale>  0 0.96675364E+02</rscale>
<asrwt>0</asrwt>
<pdfrwt beam="1">  1        4 0.37148861E-01 0.98115842E+02</pdfrwt>
<pdfrwt beam="2">  1       -4 0.62144922E-02 0.98115842E+02</pdfrwt>
<totfact> 0.17956567E+03</totfact>
</mgrwt>
</event>
<event>
 8    1  0.3466492E-004  0.1274743E+03  0.7546771E-02  0.1234998E+00
         -1   -1    0    0    0  501 -0.00000000000E+00  0.00000000000E+00  0.17762950464E+02  0.17762950464E+02  0.00000000000E+00 0.  1.
          1   -1    0    0  501    0  0.00000000000E+00 -0.00000000000E+00 -0.10283692822E+04  0.10283692822E+04  0.00000000000E+00 0. -1.
         23    2    1    2    0    0  0.27748375818E+02 -0.67944475690E+02 -0.27054595414E+03  0.29517347996E+03  0.92443744139E+02 0.  0.
         23    2    1    2    0    0 -0.27748375818E+02  0.67944475690E+02 -0.74006037762E+03  0.75095875273E+03  0.10422697177E+03 0.  0.
          5    1    4    4  502    0  0.13080423418E+02  0.61946987762E+02 -0.63217119303E+03  0.63535111085E+03  0.47000000000E+01 0. -1.
         -5    1    3    3    0  503 -0.19252181360E+02 -0.65912651939E+02 -0.13343894004E+03  0.15014381403E+03  0.47000000000E+01 0.  1.
          5    1    3    3  503    0  0.47000557178E+02 -0.20318237501E+01 -0.13710701410E+03  0.14502966592E+03  0.47000000000E+01 0. -1.
         -5    1    4    4    0  502 -0.40828799236E+02  0.59974879275E+01 -0.10788918460E+03  0.11560764188E+03  0.47000000000E+01 0.  1.
<mgrwt>
<rscale>  0 0.12504594E+03</rscale>
<asrwt>0</asrwt>
<pdfrwt beam="1">  1        1 0.15821069E+00 0.12747426E+03</pdfrwt>
<pdfrwt beam="2">  1       -1 0.27327610E-02 0.12747426E+03</pdfrwt>
<totfact> 0.63941670E+03</totfact>
</mgrwt>
</event>
<event>
 8    1  0.3466492E-004  0.9419055E+02  0.7546771E-02  0.1293209E+00
         -1   -1    0    0    0  501 -0.00000000000E+00  0.00000000000E+00  0.42670399122E+02  0.42670399122E+02  0.00000000000E+00 0.  1.
          1   -1    0    0  501    0  0.00000000000E+00 -0.00000000000E+00 -0.33346262496E+03  0.33346262496E+03  0.00000000000E+00 0. -1.
         23    2    1    2    0    0 -0.60658488803E+01 -0.25178035679E+02 -0.26097730369E+03  0.27733631902E+03  0.90197299331E+02 0.  0.
         23    2    1    2    0    0  0.60658488803E+01  0.25178035679E+02 -0.29814922153E+02  0.98796705060E+02  0.90560097971E+02 0.  0.
          5    1    4    4  502    0  0.15721361678E+02  0.57032215470E+02 -0.11274798731E+02  0.60407333171E+02  0.47000000000E+01 0. -1.
         -5    1    4    4    0  502 -0.96555127982E+01 -0.31854179791E+02 -0.18540123422E+02  0.38389371889E+02  0.47000000000E+01 0.  1.
          5    1    3    3  503    0 -0.13308418252E+02  0.19389667083E+02 -0.19938427507E+03  0.20082144390E+03  0.47000000000E+01 0. -1.
         -5    1    3    3    0  503  0.72425693721E+01 -0.44567702761E+02 -0.61593028615E+02  0.76514875119E+02  0.47000000000E+01 0.  1.
<mgrwt>
<rscale>  0 0.94103236E+02</rscale>
<asrwt>0</asrwt>
<pdfrwt beam="1">  1        1 0.51301941E-01 0.94190548E+02</pdfrwt>
<pdfrwt beam="2">  1       -1 0.65646769E-02 0.94190548E+02</pdfrwt>
<totfact> 0.82477209E+03</totfact>
</mgrwt>
</event>
<event>
 8    1  0.3466492E-004  0.9987426E+02  0.7546771E-02  0.1280673E+00
          2   -1    0    0  501    0  0.00000000000E+00  0.00000000000E+00  0.67241763390E+03  0.67241763390E+03  0.00000000000E+00 0. -1.
         -2   -1    0    0    0  501 -0.00000000000E+00 -0.00000000000E+00 -0.14806914935E+02  0.14806914935E+02  0.00000000000E+00 0.  1.
         23    2    1    2    0    0 -0.19662480130E+02  0.37152902676E+02  0.32258640045E+03  0.33763026601E+03  0.90361825275E+02 0.  0.
         23    2    1    2    0    0  0.19662480130E+02 -0.37152902676E+02  0.33502431851E+03  0.34959428282E+03  0.90597556739E+02 0.  0.
          5    1    4    4  502    0  0.26781769189E+02 -0.64528353509E+02  0.26040411176E+03  0.26965452525E+03  0.47000000000E+01 0. -1.
         -5    1    3    3    0  503 -0.43051682483E+02  0.41477811613E+02  0.12586108913E+03  0.13941649823E+03  0.47000000000E+01 0.  1.
          5    1    3    3  503    0  0.23389202354E+02 -0.43249089362E+01  0.19672531132E+03  0.19821376778E+03  0.47000000000E+01 0. -1.
         -5    1    4    4    0  502 -0.71192890596E+01  0.27375450833E+02  0.74620206752E+02  0.79939757572E+02  0.47000000000E+01 0.  1.
<mgrwt>
<rscale>  0 0.99820774E+02</rscale>
<asrwt>0</asrwt>
<pdfrwt beam="1">  1        2 0.10344884E+00 0.99874264E+02</pdfrwt>
<pdfrwt beam="2">  1       -2 0.22779874E-02 0.99874264E+02</pdfrwt>
<totfact> 0.25698354E+04</totfact>
</mgrwt>
</event>
<event>
 8    1  0.3466492E-004  0.1097530E+03  0.7546771E-02  0.1261129E+00
          2   -1    0    0  501    0  0.00000000000E+00  0.00000000000E+00  0.41663105619E+03  0.41663105619E+03  0.00000000000E+00 0. -1.
         -2   -1    0    0    0  501 -0.00000000000E+00 -0.00000000000E+00 -0.28867872446E+02  0.28867872446E+02  0.00000000000E+00 0.  1.
         23    2    1    2    0    0  0.57805717045E+02 -0.14471826583E+01  0.18935116769E+03  0.21885972174E+03  0.93285142630E+02 0.  0.
         23    2    1    2    0    0 -0.57805717045E+02  0.14471826583E+01  0.19841201605E+03  0.22663920689E+03  0.93029063876E+02 0.  0.
          5    1    4    4  502    0 -0.29341557614E+02 -0.18057540796E+02  0.18668149490E+03  0.18989226504E+03  0.47000000000E+01 0. -1.
         -5    1    3    3    0  503  0.82147753743E+02 -0.11821582173E+01  0.16350050810E+03  0.18304140813E+03  0.47000000000E+01 0.  1.
          5    1    3    3  503    0 -0.24342036698E+02 -0.26502444101E+00  0.25850659592E+02  0.35818313610E+02  0.47000000000E+01 0. -1.
         -5    1    4    4    0  502 -0.28464159431E+02  0.19504723455E+02  0.11730521153E+02  0.36746941855E+02  0.47000000000E+01 0.  1.
<mgrwt>
<rscale>  0 0.10969853E+03</rscale>
<asrwt>0</asrwt>
<pdfrwt beam="1">  1        2 0.64097081E-01 0.10975296E+03</pdfrwt>
<pdfrwt beam="2">  1       -2 0.44412114E-02 0.10975296E+03</pdfrwt>
<totfact> 0.16539198E+04</totfact>
</mgrwt>
</event>
<event>
 8    1  0.3466492E-004  0.9658390E+02  0.7546771E-02  0.1287688E+00
         -1   -1    0    0    0  501 -0.00000000000E+00  0.00000000000E+00  0.10170073911E+02  0.10170073911E+02  0.00000000000E+00 0.  1.
          1   -1    0    0  501    0  0.00000000000E+00 -0.00000000000E+00 -0.96066139013E+03  0.96066139013E+03  0.00000000000E+00 0. -1.
         23    2    1    2    0    0 -0.33857983205E+02  0.17222703804E+01 -0.57908790029E+03  0.58707509930E+03  0.90360648048E+02 0.  0.
         23    2    1    2    0    0  0.33857983205E+02 -0.17222703804E+01 -0.37140341594E+03  0.38375636475E+03  0.90438492202E+02 0.  0.
          5    1    3    3  502    0 -0.52600524604E+02  0.27989352552E+02 -0.44908818201E+03  0.45304801540E+03  0.47000000000E+01 0. -1.
         -5    1    3    3    0  502  0.18742541399E+02 -0.26267082172E+02 -0.12999971828E+03  0.13402708389E+03  0.47000000000E+01 0.  1.
          5    1    4    4  503    0  0.41471135748E+01  0.37107660467E+02 -0.24961750761E+03  0.25243844224E+03  0.47000000000E+01 0. -1.
         -5    1    4    4    0  503  0.29710869630E+02 -0.38829930847E+02 -0.12178590833E+03  0.13131792250E+03  0.47000000000E+01 0.  1.
<mgrwt>
<rscale>  0 0.96565675E+02</rscale>
<asrwt>0</asrwt>
<pdfrwt beam="1">  1        1 0.14779410E+00 0.96583902E+02</pdfrwt>
<pdfrwt beam="2">  1       -1 0.15646263E-02 0.96583902E+02</pdfrwt>
<totfact> 0.15675712E+04</totfact>
</mgrwt>
</event>
<event>
 8    1  0.3466492E-004  0.1216164E+03  0.7546771E-02  0.1240951E+00
          1   -1    0    0  501    0  0.00000000000E+00  0.00000000000E+00  0.69960692567E+02  0.69960692567E+02  0.00000000000E+00 0. -1.
         -1   -1    0    0    0  501 -0.00000000000E+00 -0.00000000000E+00 -0.22256752232E+03  0.22256752232E+03  0.00000000000E+00 0.  1.
         23    2    1    2    0    0 -0.78431983275E+02  0.93502481227E+01 -0.40950411438E+02  0.12832567546E+03  0.92474535111E+02 0.  0.
         23    2    1    2    0    0  0.78431983275E+02 -0.93502481227E+01 -0.11165641832E+03  0.16420253943E+03  0.90864267258E+02 0.  0.
          5    1    3    3  502    0 -0.19498800208E+02 -0.39859059612E+02 -0.17210018549E+02  0.47824915903E+02  0.47000000000E+01 0. -1.
         -5    1    4    4    0  503  0.16092454584E+02  0.19727525846E+02 -0.87333802975E+02  0.91090205361E+02  0.47000000000E+01 0.  1.
          5    1    4    4  503    0  0.62339528691E+02 -0.29077773969E+02 -0.24322615341E+02  0.73112334072E+02  0.47000000000E+01 0. -1.
         -5    1    3    3    0  502 -0.58933183068E+02  0.49209307734E+02 -0.23740392890E+02  0.80500759554E+02  0.47000000000E+01 0.  1.
<mgrwt>
<rscale>  0 0.12131025E+03</rscale>
<asrwt>0</asrwt>
<pdfrwt beam="1">  1        1 0.10763183E-01 0.12161638E+03</pdfrwt>
<pdfrwt beam="2">  1       -1 0.34241158E-01 0.12161638E+03</pdfrwt>
<totfact> 0.44809945E+03</totfact>
</mgrwt>
</event>
<event>
 8    1  0.3466492E-004  0.9790606E+02  0.7546771E-02  0.1285035E+00
         -1   -1    0    0    0  501 -0.00000000000E+00  0.00000000000E+00  0.51608880374E+02  0.51608880374E+02  0.00000000000E+00 0.  1.
          1   -1    0    0  501    0  0.00000000000E+00 -0.00000000000E+00 -0.18727948145E+03  0.18727948145E+03  0.00000000000E+00 0. -1.
         23    2    1    2    0    0 -0.24480188610E+01 -0.35733110363E+02 -0.81808567043E+02  0.12758619617E+03  0.91119415271E+02 0.  0.
         23    2    1    2    0    0  0.24480188610E+01  0.35733110363E+02 -0.53862034037E+02  0.11130216566E+03  0.90577068825E+02 0.  0.
          5    1    3    3  502    0 -0.42533379351E+02 -0.21920192400E+02 -0.66926662786E+02  0.82406622218E+02  0.47000000000E+01 0. -1.
         -5    1    4    4    0  503  0.30137988376E+02  0.76905198315E+01  0.12604081791E+02  0.33887981888E+02  0.47000000000E+01 0.  1.
          5    1    4    4  503    0 -0.27689969515E+02  0.28042590531E+02 -0.66466115828E+02  0.77414183770E+02  0.47000000000E+01 0. -1.
         -5    1    3    3    0  502  0.40085360490E+02 -0.13812917963E+02 -0.14881904258E+02  0.45179573953E+02  0.47000000000E+01 0.  1.
<mgrwt>
<rscale>  0 0.97779674E+02</rscale>
<asrwt>0</asrwt>
<pdfrwt beam="1">  1        1 0.28812227E-01 0.97906056E+02</pdfrwt>
<pdfrwt beam="2">  1       -1 0.79398279E-02 0.97906056E+02</pdfrwt>
<totfact> 0.12642964E+04</totfact>
</mgrwt>
</event>
<event>
 8    1  0.3466492E-004  0.1043069E+03  0.7546771E-02  0.1276136E+00
          4   -1    0    0  501    0  0.00000000000E+00  0.00000000000E+00  0.11724951611E+02  0.11724951611E+02  0.00000000000E+00 0. -1.
         -4   -1    0    0    0  501 -0.00000000000E+00 -0.00000000000E+00 -0.91442286670E+03  0.91442286670E+03  0.00000000000E+00 0.  1.
         23    2    1    2    0    0 -0.50607680523E+00  0.30046082274E+02 -0.55506967713E+03  0.56320797999E+03  0.90542029377E+02 0.  0.
         23    2    1    2    0    0  0.50607680523E+00 -0.30046082274E+02 -0.34762823796E+03  0.36293983832E+03  0.99884489482E+02 0.  0.
          5    1    3    3  502    0  0.19112512487E+02 -0.23812587978E+02 -0.30738845643E+03  0.30893701725E+03  0.47000000000E+01 0. -1.
         -5    1    3    3    0  502 -0.19618589293E+02  0.53858670253E+02 -0.24768122070E+03  0.25427096274E+03  0.47000000000E+01 0.  1.
          5    1    4    4  503    0  0.33154573039E+02  0.18952883635E+02 -0.78716729787E+02  0.87617641259E+02  0.47000000000E+01 0. -1.
         -5    1    4    4    0  503 -0.32648496234E+02 -0.48998965909E+02 -0.26891150818E+03  0.27532219707E+03  0.47000000000E+01 0.  1.
<mgrwt>
<rscale>  0 0.10200473E+03</rscale>
<asrwt>0</asrwt>
<pdfrwt beam="1">  1        4 0.18038393E-02 0.10430692E+03</pdfrwt>
<pdfrwt beam="2">  1       -4 0.14068039E+00 0.10430692E+03</pdfrwt>
<totfact> 0.70280028E+02</totfact>
</mgrwt>
</event>
<event>
 8    1  0.3466492E-004  0.1223083E+03  0.7546771E-02  0.1250629E+00
         -2   -1    0    0    0  501 -0.00000000000E+00  0.00000000000E+00  0.31077717919E+02  0.31077717919E+02  0.00000000000E+00 0.  1.
          2   -1    0    0  501    0  0.00000000000E+00 -0.00000000000E+00 -0.40390287479E+03  0.40390287479E+03  0.00000000000E+00 0. -1.
         23    2    1    2    0    0 -0.35982731479E+02 -0.97430068216E+01 -0.12377231679E+03  0.15751591404E+03  0.90011075018E+02 0.  0.
         23    2    1    2    0    0  0.35982731479E+02  0.97430068216E+01 -0.24905284009E+03  0.27746467867E+03  0.11648883041E+03 0.  0.
          5    1    3    3  502    0  0.26263004931E+02 -0.76482612995E+01 -0.13685946124E+02  0.30945701644E+02  0.47000000000E+01 0. -1.
         -5    1    4    4    0  503  0.66874059647E+02 -0.14606000679E+02 -0.87863247933E+02  0.11147876680E+03  0.47000000000E+01 0.  1.
          5    1    4    4  503    0 -0.30891328168E+02  0.24349007500E+02 -0.16118959215E+03  0.16598591187E+03  0.47000000000E+01 0. -1.
         -5    1    3    3    0  502 -0.62245736410E+02 -0.20947455221E+01 -0.11008637066E+03  0.12657021239E+03  0.47000000000E+01 0.  1.
<mgrwt>
<rscale>  0 0.11554733E+03</rscale>
<asrwt>0</asrwt>
<pdfrwt beam="1">  1        2 0.62138900E-01 0.12230834E+03</pdfrwt>
<pdfrwt beam="2">  1       -2 0.47811876E-02 0.12230834E+03</pdfrwt>
<totfact> 0.15461338E+04</totfact>
</mgrwt>
</event>
<event>
 8    1  0.3466492E-004  0.1115445E+03  0.7546771E-02  0.1260856E+00
          2   -1    0    0  501    0  0.00000000000E+00  0.00000000000E+00  0.25174289681E+03  0.25174289681E+03  0.00000000000E+00 0. -1.
         -2   -1    0    0    0  501 -0.00000000000E+00 -0.00000000000E+00 -0.53333455560E+02  0.53333455560E+02  0.00000000000E+00 0.  1.
         23    2    1    2    0    0 -0.52415647870E+02 -0.35860188383E+02  0.15102677061E+03  0.18388517749E+03  0.83494429789E+02 0.  0.
         23    2    1    2    0    0  0.52415647870E+02  0.35860188383E+02  0.47382670638E+02  0.12119117488E+03  0.91699673610E+02 0.  0.
          5    1    3    3  502    0  0.12044654851E+02 -0.37827017649E+02  0.51426213688E+02  0.65136030191E+02  0.47000000000E+01 0. -1.
         -5    1    4    4    0  503 -0.17098383745E+02  0.16222320716E+02 -0.12640964370E+02  0.27155154139E+02  0.47000000000E+01 0.  1.
          5    1    4    4  503    0  0.69514031615E+02  0.19637867666E+02  0.60023635008E+02  0.94036020744E+02  0.47000000000E+01 0. -1.
         -5    1    3    3    0  502 -0.64460302721E+02  0.19668292664E+01  0.99600556927E+02  0.11874914730E+03  0.47000000000E+01 0.  1.
<mgrwt>
<rscale>  0 0.10984578E+03</rscale>
<asrwt>0</asrwt>
<pdfrwt beam="1">  1        2 0.38729676E-01 0.11154454E+03</pdfrwt>
<pdfrwt beam="2">  1       -2 0.82051472E-02 0.11154454E+03</pdfrwt>
<totfact> 0.11154775E+04</totfact>
</mgrwt>
</event>
<event>
 8    1  0.3466492E-004  0.9350634E+02  0.7546771E-02  0.1295239E+00
          1   -1    0    0  501    0  0.00000000000E+00  0.00000000000E+00  0.21374441679E+03  0.21374441679E+03  0.00000000000E+00 0. -1.
         -1   -1    0    0    0  501 -0.00000000000E+00 -0.00000000000E+00 -0.40685622273E+02  0.40685622273E+02  0.00000000000E+00 0.  1.
         23    2    1    2    0    0  0.13731528458E+02 -0.63374881822E+01  0.97593086540E+02  0.13515859545E+03  0.92275222861E+02 0.  0.
         23    2    1    2    0    0 -0.13731528458E+02  0.63374881822E+01  0.75465707981E+02  0.11927144361E+03  0.91114683507E+02 0.  0.
          5    1    4    4  502    0 -0.44944857652E+02  0.27110738228E+02  0.55500674456E+02  0.76533961231E+02  0.47000000000E+01 0. -1.
         -5    1    4    4    0  502  0.31213329194E+02 -0.20773250046E+02  0.19965033525E+02  0.42737482384E+02  0.47000000000E+01 0.  1.
          5    1    3    3  503    0  0.26218398624E+02  0.18493921514E+02  0.10163388105E+03  0.10668160730E+03  0.47000000000E+01 0. -1.
         -5    1    3    3    0  503 -0.12486870166E+02 -0.24831409696E+02 -0.40407945066E+01  0.28476988153E+02  0.47000000000E+01 0.  1.
<mgrwt>
<rscale>  0 0.93218747E+02</rscale>
<asrwt>0</asrwt>
<pdfrwt beam="1">  1        1 0.32883756E-01 0.93506339E+02</pdfrwt>
<pdfrwt beam="2">  1       -1 0.62593266E-02 0.93506339E+02</pdfrwt>
<totfact> 0.15234756E+04</totfact>
</mgrwt>
</event>
<event>
 8    1  0.3466492E-004  0.1004275E+03  0.7546771E-02  0.1282498E+00
         -1   -1    0    0    0  501 -0.00000000000E+00  0.00000000000E+00  0.15853568510E+02  0.15853568510E+02  0.00000000000E+00 0.  1.
          1   -1    0    0  501    0  0.00000000000E+00 -0.00000000000E+00 -0.63527083683E+03  0.63527083683E+03  0.00000000000E+00 0. -1.
         23    2    1    2    0    0 -0.34350633603E+02 -0.10809048435E+02 -0.37742147351E+03  0.38911745788E+03  0.87570690301E+02 0.  0.
         23    2    1    2    0    0  0.34350633603E+02  0.10809048435E+02 -0.24199579481E+03  0.26200694746E+03  0.93748996030E+02 0.  0.
          5    1    3    3  502    0 -0.15045268378E+02 -0.48186143711E+02 -0.16899814969E+03  0.17643902387E+03  0.47000000000E+01 0. -1.
         -5    1    4    4    0  503 -0.25024156985E+02 -0.57512540348E+01 -0.24156293447E+02  0.35565458930E+02  0.47000000000E+01 0.  1.
          5    1    4    4  503    0  0.59374790589E+02  0.16560302470E+02 -0.21783950136E+03  0.22644148853E+03  0.47000000000E+01 0. -1.
         -5    1    3    3    0  502 -0.19305365225E+02  0.37377095276E+02 -0.20842332383E+03  0.21267843401E+03  0.47000000000E+01 0.  1.
<mgrwt>
<rscale>  0 0.98960243E+02</rscale>
<asrwt>0</asrwt>
<pdfrwt beam="1">  1        1 0.97733977E-01 0.10042747E+03</pdfrwt>
<pdfrwt beam="2">  1       -1 0.24390105E-02 0.10042747E+03</pdfrwt>
<totfact> 0.15378656E+04</totfact>
</mgrwt>
</event>
<event>
 8    1  0.3466492E-004  0.1200195E+03  0.7546771E-02  0.1255527E+00
         -1   -1    0    0    0  501 -0.00000000000E+00  0.00000000000E+00  0.70871913593E+02  0.70871913593E+02  0.00000000000E+00 0.  1.
          1   -1    0    0  501    0  0.00000000000E+00 -0.00000000000E+00 -0.16245485008E+03  0.16245485008E+03  0.00000000000E+00 0. -1.
         23    2    1    2    0    0  0.14005178364E+02  0.14572623898E+02 -0.40021354627E+02  0.12651635898E+03  0.11830542622E+03 0.  0.
         23    2    1    2    0    0 -0.14005178364E+02 -0.14572623898E+02 -0.51561581856E+02  0.10681040469E+03  0.91331043129E+02 0.  0.
          5    1    3    3  502    0  0.40165377938E+02  0.57036681454E+02 -0.23892903888E+02  0.73887762670E+02  0.47000000000E+01 0. -1.
         -5    1    3    3    0  502 -0.26160199574E+02 -0.42464057556E+02 -0.16128450739E+02  0.52628596306E+02  0.47000000000E+01 0.  1.
          5    1    4    4  503    0 -0.26257457409E+02  0.25548813131E+02 -0.52967121820E+02  0.64574003406E+02  0.47000000000E+01 0. -1.
         -5    1    4    4    0  503  0.12252279046E+02 -0.40121437029E+02  0.14055399639E+01  0.42236401287E+02  0.47000000000E+01 0.  1.
<mgrwt>
<rscale>  0 0.11276882E+03</rscale>
<asrwt>0</asrwt>
<pdfrwt beam="1">  1        1 0.24993054E-01 0.12001950E+03</pdfrwt>
<pdfrwt beam="2">  1       -1 0.10903371E-01 0.12001950E+03</pdfrwt>
<totfact> 0.95085860E+03</totfact>
</mgrwt>
</event>
<event>
 8    1  0.3466492E-004  0.9777733E+02  0.7546771E-02  0.1285402E+00
          2   -1    0    0  501    0  0.00000000000E+00  0.00000000000E+00  0.39245044154E+03  0.39245044154E+03  0.00000000000E+00 0. -1.
         -2   -1    0    0    0  501 -0.00000000000E+00 -0.00000000000E+00 -0.45547799501E+02  0.45547799501E+02  0.00000000000E+00 0.  1.
         23    2    1    2    0    0  0.30106726585E+02 -0.20212498005E+02  0.23192747666E+02  0.99843687634E+02  0.90088280896E+02 0.  0.
         23    2    1    2    0    0 -0.30106726585E+02  0.20212498005E+02  0.32370989438E+03  0.33815455341E+03  0.90804439392E+02 0.  0.
          5    1    3    3  502    0 -0.30107138332E+02 -0.85257875208E+01  0.21589150766E+02  0.38305486058E+02  0.47000000000E+01 0. -1.
         -5    1    3    3    0  502  0.60213864917E+02 -0.11686710484E+02  0.16035968995E+01  0.61538201576E+02  0.47000000000E+01 0.  1.
          5    1    4    4  503    0  0.77949014504E+01  0.48690474018E+02  0.18371286334E+03  0.19027356334E+03  0.47000000000E+01 0. -1.
         -5    1    4    4    0  503 -0.37901628036E+02 -0.28477976013E+02  0.13999703103E+03  0.14788099007E+03  0.47000000000E+01 0.  1.
<mgrwt>
<rscale>  0 0.97610724E+02</rscale>
<asrwt>0</asrwt>
<pdfrwt beam="1">  1        2 0.60376989E-01 0.97777330E+02</pdfrwt>
<pdfrwt beam="2">  1       -2 0.70073540E-02 0.97777330E+02</pdfrwt>
<totfact> 0.88039114E+03</totfact>
</mgrwt>
</event>
<event>
 8    1  0.3466492E-004  0.9796378E+02  0.7546771E-02  0.1284974E+00
         -1   -1    0    0    0  501 -0.00000000000E+00  0.00000000000E+00  0.11730567482E+03  0.11730567482E+03  0.00000000000E+00 0.  1.
          1   -1    0    0  501    0  0.00000000000E+00 -0.00000000000E+00 -0.14994103873E+03  0.14994103873E+03  0.00000000000E+00 0. -1.
         23    2    1    2    0    0 -0.11855885063E+02 -0.32013734641E+02 -0.10675933303E+03  0.14489464344E+03  0.91822988903E+02 0.  0.
         23    2    1    2    0    0  0.11855885063E+02  0.32013734641E+02  0.74123969119E+02  0.12235207011E+03  0.91160435756E+02 0.  0.
          5    1    3    3  502    0 -0.50504954221E+02 -0.86629909415E+01 -0.45804629684E+02  0.68890869594E+02  0.47000000000E+01 0. -1.
         -5    1    4    4    0  503  0.15742353490E+02 -0.12966876654E+02  0.74059205712E+02  0.76959843648E+02  0.47000000000E+01 0.  1.
          5    1    4    4  503    0 -0.38864684267E+01  0.44980611295E+02  0.64763406523E-01  0.45392226467E+02  0.47000000000E+01 0. -1.
         -5    1    3    3    0  502  0.38649069158E+02 -0.23350743700E+02 -0.60954703346E+02  0.76003773842E+02  0.47000000000E+01 0.  1.
<mgrwt>
<rscale>  0 0.97808225E+02</rscale>
<asrwt>0</asrwt>
<pdfrwt beam="1">  1        1 0.23067852E-01 0.97963782E+02</pdfrwt>
<pdfrwt beam="2">  1       -1 0.18047027E-01 0.97963782E+02</pdfrwt>
<totfact> 0.47373936E+03</totfact>
</mgrwt>
</event>
<event>
 8    1  0.3466492E-004  0.9748132E+02  0.7546771E-02  0.1289044E+00
         -2   -1    0    0    0  501 -0.00000000000E+00  0.00000000000E+00  0.13435144106E+03  0.13435144106E+03  0.00000000000E+00 0.  1.
          2   -1    0    0  501    0  0.00000000000E+00 -0.00000000000E+00 -0.14829877755E+03  0.14829877755E+03  0.00000000000E+00 0. -1.
         23    2    1    2    0    0  0.10968579105E+02 -0.11664815498E+02  0.97887249025E+02  0.13814674073E+03  0.96157323200E+02 0.  0.
         23    2    1    2    0    0 -0.10968579105E+02  0.11664815498E+02 -0.11183458552E+03  0.14450347788E+03  0.90099405953E+02 0.  0.
          5    1    4    4  502    0  0.15322589388E+02  0.13322775553E+02 -0.11561489962E+03  0.11747839422E+03  0.47000000000E+01 0. -1.
         -5    1    4    4    0  502 -0.26291168493E+02 -0.16579600550E+01  0.37803141007E+01  0.27025083663E+02  0.47000000000E+01 0.  1.
          5    1    3    3  503    0 -0.14608495604E+02  0.38067265163E+02  0.35904974712E+02  0.54532394316E+02  0.47000000000E+01 0. -1.
         -5    1    3    3    0  503  0.25577074709E+02 -0.49732080661E+02  0.61982274312E+02  0.83614346415E+02  0.47000000000E+01 0.  1.
<mgrwt>
<rscale>  0 0.95953209E+02</rscale>
<asrwt>0</asrwt>
<pdfrwt beam="1">  1        2 0.22815197E-01 0.97481324E+02</pdfrwt>
<pdfrwt beam="2">  1       -2 0.20669452E-01 0.97481324E+02</pdfrwt>
<totfact> 0.44359144E+03</totfact>
</mgrwt>
</event>
<event>
 8    1  0.3466492E-004  0.1076893E+03  0.7546771E-02  0.1265315E+00
          1   -1    0    0  501    0  0.00000000000E+00  0.00000000000E+00  0.28921922855E+02  0.28921922855E+02  0.00000000000E+00 0. -1.
         -1   -1    0    0    0  501 -0.00000000000E+00 -0.00000000000E+00 -0.49874188069E+03  0.49874188069E+03  0.00000000000E+00 0.  1.
         23    2    1    2    0    0 -0.14941070042E+02  0.54005505032E+02 -0.11549079068E+03  0.15733133733E+03  0.90968108834E+02 0.  0.
         23    2    1    2    0    0  0.14941070042E+02 -0.54005505032E+02 -0.35432916715E+03  0.37033246622E+03  0.91962746225E+02 0.  0.
          5    1    4    4  502    0  0.53094043336E+02 -0.30248204998E+02 -0.23074644173E+03  0.23874660566E+03  0.47000000000E+01 0. -1.
         -5    1    4    4    0  502 -0.38152973294E+02 -0.23757300034E+02 -0.12358272542E+03  0.13158586056E+03  0.47000000000E+01 0.  1.
          5    1    3    3  503    0  0.74813012506E+01  0.75085566563E+02 -0.78583891275E+02  0.10904737568E+03  0.47000000000E+01 0. -1.
         -5    1    3    3    0  503 -0.22422371292E+02 -0.21080061531E+02 -0.36906899407E+02  0.48283961648E+02  0.47000000000E+01 0.  1.
<mgrwt>
<rscale>  0 0.10747660E+03</rscale>
<asrwt>0</asrwt>
<pdfrwt beam="1">  1        1 0.44495272E-02 0.10768926E+03</pdfrwt>
<pdfrwt beam="2">  1       -1 0.76729510E-01 0.10768926E+03</pdfrwt>
<totfact> 0.33027786E+03</totfact>
</mgrwt>
</event>
<event>
 8    1  0.3466492E-004  0.9896175E+02  0.7546771E-02  0.1282611E+00
          1   -1    0    0  501    0  0.00000000000E+00  0.00000000000E+00  0.91124745072E+03  0.91124745072E+03  0.00000000000E+00 0. -1.
         -1   -1    0    0    0  501 -0.00000000000E+00 -0.00000000000E+00 -0.11461947918E+02  0.11461947918E+02  0.00000000000E+00 0.  1.
         23    2    1    2    0    0 -0.38767802262E+02 -0.68899142444E+01  0.33233536753E+03  0.34669456839E+03  0.90553375616E+02 0.  0.
         23    2    1    2    0    0  0.38767802262E+02  0.68899142444E+01  0.56745013528E+03  0.57601483024E+03  0.90791052559E+02 0.  0.
          5    1    3    3  502    0 -0.46514363608E+02 -0.39232582253E+02  0.25804325723E+03  0.26516258057E+03  0.47000000000E+01 0. -1.
         -5    1    4    4    0  503  0.66700887726E+02  0.15636924253E+02  0.36468976754E+03  0.37109869088E+03  0.47000000000E+01 0.  1.
          5    1    4    4  503    0 -0.27933085463E+02 -0.87470100083E+01  0.20276036773E+03  0.20491613936E+03  0.47000000000E+01 0. -1.
         -5    1    3    3    0  502  0.77465613459E+01  0.32342668009E+02  0.74292110292E+02  0.81531987822E+02  0.47000000000E+01 0.  1.
<mgrwt>
<rscale>  0 0.98907206E+02</rscale>
<asrwt>0</asrwt>
<pdfrwt beam="1">  1        1 0.14019186E+00 0.98961753E+02</pdfrwt>
<pdfrwt beam="2">  1       -1 0.17633773E-02 0.98961753E+02</pdfrwt>
<totfact> 0.14415967E+04</totfact>
</mgrwt>
</event>
<event>
 8    1  0.3466492E-004  0.1040788E+03  0.7546771E-02  0.1272125E+00
          2   -1    0    0  501    0  0.00000000000E+00  0.00000000000E+00  0.16606187637E+03  0.16606187637E+03  0.00000000000E+00 0. -1.
         -2   -1    0    0    0  501 -0.00000000000E+00 -0.00000000000E+00 -0.93381262141E+02  0.93381262141E+02  0.00000000000E+00 0.  1.
         23    2    1    2    0    0 -0.42979418486E+02  0.15698710690E+02  0.10780410097E+03  0.14959755917E+03  0.93080747693E+02 0.  0.
         23    2    1    2    0    0  0.42979418486E+02 -0.15698710690E+02 -0.35123486744E+02  0.10984557935E+03  0.93481078568E+02 0.  0.
          5    1    4    4  502    0 -0.23139506038E+02 -0.23978524652E+02 -0.25784582208E+02  0.42395059427E+02  0.47000000000E+01 0. -1.
         -5    1    3    3    0  503 -0.31574791889E+02  0.54238654158E+02  0.71256842929E+02  0.95070640851E+02  0.47000000000E+01 0.  1.
          5    1    3    3  503    0 -0.11404626597E+02 -0.38539943468E+02  0.36547258044E+02  0.54526918314E+02  0.47000000000E+01 0. -1.
         -5    1    4    4    0  502  0.66118924524E+02  0.82798139627E+01 -0.93389045361E+01  0.67450519919E+02  0.47000000000E+01 0.  1.
<mgrwt>
<rscale>  0 0.10398881E+03</rscale>
<asrwt>0</asrwt>
<pdfrwt beam="1">  1        2 0.25547981E-01 0.10407878E+03</pdfrwt>
<pdfrwt beam="2">  1       -2 0.14366348E-01 0.10407878E+03</pdfrwt>
<totfact> 0.71734265E+03</totfact>
</mgrwt>
</event>
<event>
 8    1  0.3466492E-004  0.1122109E+03  0.7546771E-02  0.1264186E+00
         -1   -1    0    0    0  501 -0.00000000000E+00  0.00000000000E+00  0.16761643906E+03  0.16761643906E+03  0.00000000000E+00 0.  1.
          1   -1    0    0  501    0  0.00000000000E+00 -0.00000000000E+00 -0.72797260186E+02  0.72797260186E+02  0.00000000000E+00 0. -1.
         23    2    1    2    0    0  0.35381827369E+02  0.54025338742E+02  0.11335349372E+02  0.11278198774E+03  0.91764239647E+02 0.  0.
         23    2    1    2    0    0 -0.35381827369E+02 -0.54025338742E+02  0.83483829505E+02  0.12763171151E+03  0.71761361893E+02 0.  0.
          5    1    3    3  502    0  0.65945249510E+02  0.28092272287E+02  0.62388466357E+01  0.72103848042E+02  0.47000000000E+01 0. -1.
         -5    1    4    4    0  503 -0.56171944887E+02 -0.47857231830E+02  0.59073377964E+02  0.94643309404E+02  0.47000000000E+01 0.  1.
          5    1    4    4  503    0  0.20790117518E+02 -0.61681069121E+01  0.24410451540E+02  0.32988402109E+02  0.47000000000E+01 0. -1.
         -5    1    3    3    0  502 -0.30563422141E+02  0.25933066455E+02  0.50965027359E+01  0.40678139693E+02  0.47000000000E+01 0.  1.
<mgrwt>
<rscale>  0 0.10806997E+03</rscale>
<asrwt>0</asrwt>
<pdfrwt beam="1">  1        1 0.11199579E-01 0.11221090E+03</pdfrwt>
<pdfrwt beam="2">  1       -1 0.25787144E-01 0.11221090E+03</pdfrwt>
<totfact> 0.67935242E+03</totfact>
</mgrwt>
</event>
<event>
 8    1  0.3466492E-004  0.2781891E+03  0.7546771E-02  0.1097002E+00
          1   -1    0    0  501    0  0.00000000000E+00  0.00000000000E+00  0.61183496303E+03  0.61183496303E+03  0.00000000000E+00 0. -1.
         -1   -1    0    0    0  501 -0.00000000000E+00 -0.00000000000E+00 -0.17307016833E+03  0.17307016833E+03  0.00000000000E+00 0.  1.
         23    2    1    2    0    0  0.58973995351E+02  0.25589008591E+03  0.14158439067E+02  0.27854916737E+03  0.91823248974E+02 0.  0.
         23    2    1    2    0    0 -0.58973995351E+02 -0.25589008591E+03  0.42460635563E+03  0.50635596399E+03  0.84546654744E+02 0.  0.
          5    1    4    4  502    0 -0.30493163780E+02 -0.20578892956E+02  0.78746493713E+02  0.87042657041E+02  0.47000000000E+01 0. -1.
         -5    1    4    4    0  502 -0.28480831571E+02 -0.23531119295E+03  0.34585986192E+03  0.41931330695E+03  0.47000000000E+01 0.  1.
          5    1    3    3  503    0 -0.63892235783E+01  0.15967804930E+03 -0.78918352427E+01  0.16006958696E+03  0.47000000000E+01 0. -1.
         -5    1    3    3    0  503  0.65363218929E+02  0.96212036612E+02  0.22050274310E+02  0.11847958041E+03  0.47000000000E+01 0.  1.
<mgrwt>
<rscale>  0 0.27760821E+03</rscale>
<asrwt>0</asrwt>
<pdfrwt beam="1">  1        1 0.94128455E-01 0.27818910E+03</pdfrwt>
<pdfrwt beam="2">  1       -1 0.26626180E-01 0.27818910E+03</pdfrwt>
<totfact> 0.43096476E+02</totfact>
</mgrwt>
</event>
<event>
 8    1  0.3466492E-004  0.1354294E+03  0.7546771E-02  0.1227993E+00
         -1   -1    0    0    0  501 -0.00000000000E+00  0.00000000000E+00  0.12526715027E+03  0.12526715027E+03  0.00000000000E+00 0.  1.
          1   -1    0    0  501    0  0.00000000000E+00 -0.00000000000E+00 -0.12856867856E+03  0.12856867856E+03  0.00000000000E+00 0. -1.
         23    2    1    2    0    0  0.45613575686E+02  0.38175241238E+02  0.22368058671E+02  0.13726421258E+03  0.12166834706E+03 0.  0.
         23    2    1    2    0    0 -0.45613575686E+02 -0.38175241238E+02 -0.25669586967E+02  0.11657161625E+03  0.96912675584E+02 0.  0.
          5    1    4    4  502    0 -0.64134306134E+02  0.57110549578E+01 -0.23341634646E+02  0.68649452146E+02  0.47000000000E+01 0. -1.
         -5    1    4    4    0  502  0.18520730448E+02 -0.43886296195E+02 -0.23279523210E+01  0.47922164101E+02  0.47000000000E+01 0.  1.
          5    1    3    3  503    0  0.12986973155E+02 -0.33650319952E+02  0.42272280567E+02  0.55767743445E+02  0.47000000000E+01 0. -1.
         -5    1    3    3    0  503  0.32626602531E+02  0.71825561189E+02 -0.19904221897E+02  0.81496469140E+02  0.47000000000E+01 0.  1.
<mgrwt>
<rscale>  0 0.12963871E+03</rscale>
<asrwt>0</asrwt>
<pdfrwt beam="1">  1        1 0.19779797E-01 0.13542944E+03</pdfrwt>
<pdfrwt beam="2">  1       -1 0.19271869E-01 0.13542944E+03</pdfrwt>
<totfact> 0.52934687E+03</totfact>
</mgrwt>
</event>
<event>
 8    1  0.3466492E-004  0.9748428E+02  0.7546771E-02  0.1286039E+00
         -1   -1    0    0    0  501 -0.00000000000E+00  0.00000000000E+00  0.14703526133E+03  0.14703526133E+03  0.00000000000E+00 0.  1.
          1   -1    0    0  501    0  0.00000000000E+00 -0.00000000000E+00 -0.67532188950E+02  0.67532188950E+02  0.00000000000E+00 0. -1.
         23    2    1    2    0    0 -0.21945155026E+02 -0.29067573432E+02  0.15768328948E+02  0.98097275825E+02  0.89710209409E+02 0.  0.
         23    2    1    2    0    0  0.21945155026E+02  0.29067573432E+02  0.63734743434E+02  0.11647017446E+03  0.90424943256E+02 0.  0.
          5    1    4    4  502    0 -0.18940991694E+02  0.29580405216E+02 -0.55621607448E+01  0.35871843711E+02  0.47000000000E+01 0. -1.
         -5    1    3    3    0  503  0.28612911515E+02 -0.31356796830E+02  0.19869390285E+02  0.47104459270E+02  0.47000000000E+01 0.  1.
          5    1    3    3  503    0 -0.50558066541E+02  0.22892233973E+01 -0.41010613370E+01  0.50992816555E+02  0.47000000000E+01 0. -1.
         -5    1    4    4    0  502  0.40886146720E+02 -0.51283178394E+00  0.69296904179E+02  0.80598330745E+02  0.47000000000E+01 0.  1.
<mgrwt>
<rscale>  0 0.97318200E+02</rscale>
<asrwt>0</asrwt>
<pdfrwt beam="1">  1        1 0.10389568E-01 0.97484276E+02</pdfrwt>
<pdfrwt beam="2">  1       -1 0.22620809E-01 0.97484276E+02</pdfrwt>
<totfact> 0.91639395E+03</totfact>
</mgrwt>
</event>
<event>
 8    1  0.3466492E-004  0.9843691E+02  0.7546771E-02  0.1283824E+00
          1   -1    0    0  501    0  0.00000000000E+00  0.00000000000E+00  0.52704328766E+02  0.52704328766E+02  0.00000000000E+00 0. -1.
         -1   -1    0    0    0  501 -0.00000000000E+00 -0.00000000000E+00 -0.19932264923E+03  0.19932264923E+03  0.00000000000E+00 0.  1.
         23    2    1    2    0    0  0.11568499215E+02 -0.34807070600E+02 -0.10908822888E+03  0.14667834912E+03  0.90933679589E+02 0.  0.
         23    2    1    2    0    0 -0.11568499215E+02  0.34807070600E+02 -0.37530091589E+02  0.10534862888E+03  0.91348034974E+02 0.  0.
          5    1    3    3  502    0 -0.77913960461E+01  0.22964304157E+02 -0.38718802877E+01  0.25002931323E+02  0.47000000000E+01 0. -1.
         -5    1    3    3    0  502  0.19359895261E+02 -0.57771374757E+02 -0.10521634859E+03  0.12167541780E+03  0.47000000000E+01 0.  1.
          5    1    4    4  503    0  0.27722652275E+02  0.46057227630E+02 -0.34606466822E+02  0.64105469439E+02  0.47000000000E+01 0. -1.
         -5    1    4    4    0  503 -0.39291151490E+02 -0.11250157030E+02 -0.29236247668E+01  0.41243159438E+02  0.47000000000E+01 0.  1.
<mgrwt>
<rscale>  0 0.98340673E+02</rscale>
<asrwt>0</asrwt>
<pdfrwt beam="1">  1        1 0.81083582E-02 0.98436913E+02</pdfrwt>
<pdfrwt beam="2">  1       -1 0.30665023E-01 0.98436913E+02</pdfrwt>
<totfact> 0.77239649E+03</totfact>
</mgrwt>
</event>
<event>
 8    1  0.3491078E-004  0.1072578E+03  0.7546771E-02  0.1266742E+00
         -2   -1    0    0    0  501 -0.00000000000E+00  0.00000000000E+00  0.38230058299E+02  0.38230058299E+02  0.00000000000E+00 0.  1.
          2   -1    0    0  501    0  0.00000000000E+00 -0.00000000000E+00 -0.76466334225E+03  0.76466334225E+03  0.00000000000E+00 0. -1.
         23    2    1    2    0    0  0.46639565593E+01 -0.52487216178E+02 -0.67916878802E+03  0.68758597905E+03  0.93421494415E+02 0.  0.
         23    2    1    2    0    0 -0.46639565593E+01  0.52487216178E+02 -0.47264495928E+02  0.11530742149E+03  0.91023120816E+02 0.  0.
          5    1    3    3  502    0  0.46312581979E+02 -0.44491376181E+02 -0.38788456322E+03  0.39319316142E+03  0.47000000000E+01 0. -1.
         -5    1    3    3    0  502 -0.41648625420E+02 -0.79958399971E+01 -0.29128422480E+03  0.29439281763E+03  0.47000000000E+01 0.  1.
          5    1    4    4  503    0  0.38563320710E+02  0.46187945736E+02 -0.34666036817E+02  0.69600863099E+02  0.47000000000E+01 0. -1.
         -5    1    4    4    0  503 -0.43227277269E+02  0.62992704423E+01 -0.12598459111E+02  0.45706558394E+02  0.47000000000E+01 0.  1.
<mgrwt>
<rscale>  0 0.10673337E+03</rscale>
<asrwt>0</asrwt>
<pdfrwt beam="1">  1        2 0.11764051E+00 0.10725780E+03</pdfrwt>
<pdfrwt beam="2">  1       -2 0.58815478E-02 0.10725780E+03</pdfrwt>
<totfact> 0.54940647E+03</totfact>
</mgrwt>
</event>
<event>
 8    1  0.3466492E-004  0.9790230E+02  0.7546771E-02  0.1284842E+00
         -3   -1    0    0    0  501 -0.00000000000E+00  0.00000000000E+00  0.35409738267E+03  0.35409738267E+03  0.00000000000E+00 0.  1.
          3   -1    0    0  501    0  0.00000000000E+00 -0.00000000000E+00 -0.34183963518E+02  0.34183963518E+02  0.00000000000E+00 0. -1.
         23    2    1    2    0    0 -0.21805678675E+02 -0.30010859752E+02  0.24884491426E+03  0.26741101499E+03  0.90601988182E+02 0.  0.
         23    2    1    2    0    0  0.21805678675E+02  0.30010859752E+02  0.71068504892E+02  0.12087033119E+03  0.90458638335E+02 0.  0.
          5    1    4    4  502    0  0.25480914820E+02  0.60850186789E+02  0.44326838282E+02  0.79617716901E+02  0.47000000000E+01 0. -1.
         -5    1    4    4    0  502 -0.36752361453E+01 -0.30839327037E+02  0.26741666610E+02  0.41252614292E+02  0.47000000000E+01 0.  1.
          5    1    3    3  503    0 -0.26760553260E+02 -0.58602347358E+02  0.13245230239E+03  0.14736371580E+03  0.47000000000E+01 0. -1.
         -5    1    3    3    0  503  0.49548745848E+01  0.28591487607E+02  0.11639261187E+03  0.12004729919E+03  0.47000000000E+01 0.  1.
<mgrwt>
<rscale>  0 0.97869118E+02</rscale>
<asrwt>0</asrwt>
<pdfrwt beam="1">  1        3 0.52590716E-02 0.97902296E+02</pdfrwt>
<pdfrwt beam="2">  1       -3 0.54476518E-01 0.97902296E+02</pdfrwt>
<totfact> 0.15300242E+03</totfact>
</mgrwt>
</event>
<event>
 8    1  0.3466492E-004  0.2480816E+03  0.7546771E-02  0.1116632E+00
          1   -1    0    0  501    0  0.00000000000E+00  0.00000000000E+00  0.42361555269E+03  0.42361555269E+03  0.00000000000E+00 0. -1.
         -1   -1    0    0    0  501 -0.00000000000E+00 -0.00000000000E+00 -0.17537938371E+03  0.17537938371E+03  0.00000000000E+00 0.  1.
         23    2    1    2    0    0 -0.14711998310E+03 -0.15872389489E+03 -0.16961551379E+02  0.23584992593E+03  0.92195060069E+02 0.  0.
         23    2    1    2    0    0  0.14711998310E+03  0.15872389489E+03  0.26519772036E+03  0.36314501047E+03  0.12127202278E+03 0.  0.
          5    1    4    4  502    0  0.82777152704E+02  0.13451383483E+02  0.12839188076E+03  0.15342607918E+03  0.47000000000E+01 0. -1.
         -5    1    4    4    0  502  0.64342830398E+02  0.14527251141E+03  0.13680583960E+03  0.20971893129E+03  0.47000000000E+01 0.  1.
          5    1    3    3  503    0 -0.12233418209E+03 -0.15360244540E+03  0.12386706719E+02  0.19681179803E+03  0.47000000000E+01 0. -1.
         -5    1    3    3    0  503 -0.24785801016E+02 -0.51214494864E+01 -0.29348258098E+02  0.39038127904E+02  0.47000000000E+01 0.  1.
<mgrwt>
<rscale>  0 0.24480671E+03</rscale>
<asrwt>0</asrwt>
<pdfrwt beam="1">  1        1 0.65171623E-01 0.24808157E+03</pdfrwt>
<pdfrwt beam="2">  1       -1 0.26981444E-01 0.24808157E+03</pdfrwt>
<totfact> 0.69117549E+02</totfact>
</mgrwt>
</event>
<event>
 8    1  0.3466492E-004  0.1229158E+03  0.7546771E-02  0.1249949E+00
         -2   -1    0    0    0  501 -0.00000000000E+00  0.00000000000E+00  0.14922933903E+02  0.14922933903E+02  0.00000000000E+00 0.  1.
          2   -1    0    0  501    0  0.00000000000E+00 -0.00000000000E+00 -0.12321787061E+04  0.12321787061E+04  0.00000000000E+00 0. -1.
         23    2    1    2    0    0 -0.32799544347E+02 -0.52788403069E+01 -0.10176280031E+04  0.10250244160E+04  0.11834113660E+03 0.  0.
         23    2    1    2    0    0  0.32799544347E+02  0.52788403069E+01 -0.19962776912E+03  0.22207722395E+03  0.91451467596E+02 0.  0.
          5    1    4    4  502    0 -0.14171133993E+02  0.35501819303E+02 -0.56619692289E+02  0.68476855706E+02  0.47000000000E+01 0. -1.
         -5    1    3    3    0  503  0.37071148691E+02  0.26571532502E+02 -0.35729272250E+03  0.36022284208E+03  0.47000000000E+01 0.  1.
          5    1    3    3  503    0 -0.69870693038E+02 -0.31850372809E+02 -0.66033528056E+03  0.66480157397E+03  0.47000000000E+01 0. -1.
         -5    1    4    4    0  502  0.46970678340E+02 -0.30222978996E+02 -0.14300807683E+03  0.15360036824E+03  0.47000000000E+01 0.  1.
<mgrwt>
<rscale>  0 0.11593983E+03</rscale>
<asrwt>0</asrwt>
<pdfrwt beam="1">  1        2 0.18956601E+00 0.12291583E+03</pdfrwt>
<pdfrwt beam="2">  1       -2 0.22958353E-02 0.12291583E+03</pdfrwt>
<totfact> 0.11619131E+04</totfact>
</mgrwt>
</event>
<event>
 8    1  0.3466492E-004  0.1160789E+03  0.7546771E-02  0.1256939E+00
         -1   -1    0    0    0  501 -0.00000000000E+00  0.00000000000E+00  0.47660702938E+02  0.47660702938E+02  0.00000000000E+00 0.  1.
          1   -1    0    0  501    0  0.00000000000E+00 -0.00000000000E+00 -0.34488009283E+03  0.34488009283E+03  0.00000000000E+00 0. -1.
         23    2    1    2    0    0  0.16904542991E+02 -0.36530348691E+02 -0.36182817049E+02  0.10685843460E+03  0.92137391146E+02 0.  0.
         23    2    1    2    0    0 -0.16904542991E+02  0.36530348691E+02 -0.26103657285E+03  0.28568236117E+03  0.10887648584E+03 0.  0.
          5    1    4    4  502    0 -0.49812525273E+02  0.33222754303E+02 -0.23709306965E+03  0.24458179154E+03  0.47000000000E+01 0. -1.
         -5    1    3    3    0  503  0.15093411675E+02 -0.65967736575E+02 -0.13043503811E+02  0.69078045257E+02  0.47000000000E+01 0.  1.
          5    1    3    3  503    0  0.18111313165E+01  0.29437387884E+02 -0.23139313238E+02  0.37780389347E+02  0.47000000000E+01 0. -1.
         -5    1    4    4    0  502  0.32907982281E+02  0.33075943888E+01 -0.23943503202E+02  0.41100569632E+02  0.47000000000E+01 0.  1.
<mgrwt>
<rscale>  0 0.11198412E+03</rscale>
<asrwt>0</asrwt>
<pdfrwt beam="1">  1        1 0.53058477E-01 0.11607893E+03</pdfrwt>
<pdfrwt beam="2">  1       -1 0.73324157E-02 0.11607893E+03</pdfrwt>
<totfact> 0.68153901E+03</totfact>
</mgrwt>
</event>
<event>
 8    1  0.3466492E-004  0.1175557E+03  0.7546771E-02  0.1247450E+00
          2   -1    0    0  501    0  0.00000000000E+00  0.00000000000E+00  0.62407889803E+03  0.62407889803E+03  0.00000000000E+00 0. -1.
         -2   -1    0    0    0  501 -0.00000000000E+00 -0.00000000000E+00 -0.22032043247E+02  0.22032043247E+02  0.00000000000E+00 0.  1.
         23    2    1    2    0    0 -0.56191927683E+02  0.48999319477E+02  0.30717303957E+03  0.32889911568E+03  0.90889416370E+02 0.  0.
         23    2    1    2    0    0  0.56191927683E+02 -0.48999319477E+02  0.29487381521E+03  0.31721182560E+03  0.90079461348E+02 0.  0.
          5    1    4    4  502    0  0.70641217842E+02 -0.11484234979E+02  0.14220041167E+03  0.15926429729E+03  0.47000000000E+01 0. -1.
         -5    1    4    4    0  502 -0.14449290160E+02 -0.37515084498E+02  0.15267340354E+03  0.15794752831E+03  0.47000000000E+01 0.  1.
          5    1    3    3  503    0 -0.27882843910E+02  0.50251347273E+02  0.28947242768E+03  0.29515932524E+03  0.47000000000E+01 0. -1.
         -5    1    3    3    0  503 -0.28309083773E+02 -0.12520277955E+01  0.17700611891E+02  0.33739790440E+02  0.47000000000E+01 0.  1.
<mgrwt>
<rscale>  0 0.11739915E+03</rscale>
<asrwt>0</asrwt>
<pdfrwt beam="1">  1        2 0.96012125E-01 0.11755574E+03</pdfrwt>
<pdfrwt beam="2">  1       -2 0.33895456E-02 0.11755574E+03</pdfrwt>
<totfact> 0.15920085E+04</totfact>
</mgrwt>
</event>
<event>
 8    1  0.3466492E-004  0.9302496E+02  0.7546771E-02  0.1296239E+00
          2   -1    0    0  501    0  0.00000000000E+00  0.00000000000E+00  0.33013631792E+03  0.33013631792E+03  0.00000000000E+00 0. -1.
         -2   -1    0    0    0  501 -0.00000000000E+00 -0.00000000000E+00 -0.26501509288E+02  0.26501509288E+02  0.00000000000E+00 0.  1.
         23    2    1    2    0    0  0.82707803352E+01 -0.49804885461E+01  0.17839584200E+03  0.20119323903E+03  0.92522602187E+02 0.  0.
         23    2    1    2    0    0 -0.82707803352E+01  0.49804885461E+01  0.12523896663E+03  0.15544458818E+03  0.91569701087E+02 0.  0.
          5    1    4    4  502    0  0.16580877131E+02  0.42632072870E+02  0.72846213119E+02  0.86145689907E+02  0.47000000000E+01 0. -1.
         -5    1    3    3    0  503 -0.22857435849E+02  0.11562702561E+01  0.37944448023E+01  0.23670385418E+02  0.47000000000E+01 0.  1.
          5    1    3    3  503    0  0.31128216184E+02 -0.61367588022E+01  0.17460139720E+03  0.17752285362E+03  0.47000000000E+01 0. -1.
         -5    1    4    4    0  502 -0.24851657467E+02 -0.37651584324E+02  0.52392753514E+02  0.69298898272E+02  0.47000000000E+01 0.  1.
<mgrwt>
<rscale>  0 0.92787123E+02</rscale>
<asrwt>0</asrwt>
<pdfrwt beam="1">  1        2 0.50790200E-01 0.93024959E+02</pdfrwt>
<pdfrwt beam="2">  1       -2 0.40771555E-02 0.93024959E+02</pdfrwt>
<totfact> 0.23594156E+04</totfact>
</mgrwt>
</event>
<event>
 8    1  0.3466492E-004  0.9861328E+02  0.7546771E-02  0.1284807E+00
          2   -1    0    0  501    0  0.00000000000E+00  0.00000000000E+00  0.44982272825E+03  0.44982272825E+03  0.00000000000E+00 0. -1.
         -2   -1    0    0    0  501 -0.00000000000E+00 -0.00000000000E+00 -0.44674252397E+02  0.44674252397E+02  0.00000000000E+00 0.  1.
         23    2    1    2    0    0 -0.20362253583E+02  0.27299434899E+02  0.38399510682E+03  0.39645531988E+03  0.92545654056E+02 0.  0.
         23    2    1    2    0    0  0.20362253583E+02 -0.27299434899E+02  0.21153369038E+02  0.98041660769E+02  0.89469669206E+02 0.  0.
          5    1    4    4  502    0 -0.14478751478E+02  0.24794818049E+02 -0.57848077408E+01  0.29664309314E+02  0.47000000000E+01 0. -1.
         -5    1    3    3    0  503  0.17034456576E+02  0.36507896598E+02  0.77103969576E+02  0.87121245109E+02  0.47000000000E+01 0.  1.
          5    1    3    3  503    0 -0.37396710159E+02 -0.92084616994E+01  0.30689113724E+03  0.30933407477E+03  0.47000000000E+01 0. -1.
         -5    1    4    4    0  502  0.34841005062E+02 -0.52094252948E+02  0.26938176779E+02  0.68377351455E+02  0.47000000000E+01 0.  1.
<mgrwt>
<rscale>  0 0.97885044E+02</rscale>
<asrwt>0</asrwt>
<pdfrwt beam="1">  1        2 0.69203493E-01 0.98613278E+02</pdfrwt>
<pdfrwt beam="2">  1       -2 0.68729622E-02 0.98613278E+02</pdfrwt>
<totfact> 0.78496208E+03</totfact>
</mgrwt>
</event>
<event>
 8    1  0.3466492E-004  0.9625239E+02  0.7546771E-02  0.1289290E+00
          3   -1    0    0  501    0  0.00000000000E+00  0.00000000000E+00  0.52565073843E+03  0.52565073843E+03  0.00000000000E+00 0. -1.
         -3   -1    0    0    0  501 -0.00000000000E+00 -0.00000000000E+00 -0.17810959159E+02  0.17810959159E+02  0.00000000000E+00 0.  1.
         23    2    1    2    0    0 -0.16208491209E+02  0.20987211395E+02  0.30079340869E+03  0.31581829799E+03  0.92527533212E+02 0.  0.
         23    2    1    2    0    0  0.16208491209E+02 -0.20987211395E+02  0.20704637058E+03  0.22764339960E+03  0.90830278996E+02 0.  0.
          5    1    3    3  502    0  0.22220735807E+02  0.42356730866E+02  0.20099141819E+03  0.20665791525E+03  0.47000000000E+01 0. -1.
         -5    1    4    4    0  503  0.44478361691E+02 -0.37915531620E+02  0.10444103594E+03  0.11977450558E+03  0.47000000000E+01 0.  1.
          5    1    4    4  503    0 -0.28269870482E+02  0.16928320226E+02  0.10260533463E+03  0.10786889402E+03  0.47000000000E+01 0. -1.
         -5    1    3    3    0  502 -0.38429227016E+02 -0.21369519471E+02  0.99801990508E+02  0.10916038274E+03  0.47000000000E+01 0.  1.
<mgrwt>
<rscale>  0 0.95842171E+02</rscale>
<asrwt>0</asrwt>
<pdfrwt beam="1">  1        3 0.80869333E-01 0.96252390E+02</pdfrwt>
<pdfrwt beam="2">  1       -3 0.27401480E-02 0.96252390E+02</pdfrwt>
<totfact> 0.18427280E+03</totfact>
</mgrwt>
</event>
<event>
 8    1  0.3466492E-004  0.9207945E+02  0.7546771E-02  0.1298525E+00
         -1   -1    0    0    0  501 -0.00000000000E+00  0.00000000000E+00  0.13505084539E+03  0.13505084539E+03  0.00000000000E+00 0.  1.
          1   -1    0    0  501    0  0.00000000000E+00 -0.00000000000E+00 -0.71974860352E+02  0.71974860352E+02  0.00000000000E+00 0. -1.
         23    2    1    2    0    0  0.58368710440E+01  0.45373416717E+01 -0.67351083728E+01  0.92325442491E+02  0.91782182985E+02 0.  0.
         23    2    1    2    0    0 -0.58368710440E+01 -0.45373416717E+01  0.69811093408E+02  0.11470026325E+03  0.90707800620E+02 0.  0.
          5    1    4    4  502    0  0.15800165461E+02 -0.15021424465E+02 -0.14699428935E+02  0.26710515393E+02  0.47000000000E+01 0. -1.
         -5    1    3    3    0  503 -0.34723392355E+02  0.57237922433E+01  0.22552978650E+02  0.42061890355E+02  0.47000000000E+01 0.  1.
          5    1    3    3  503    0  0.40560263399E+02 -0.11864505716E+01 -0.29288087023E+02  0.50263552136E+02  0.47000000000E+01 0. -1.
         -5    1    4    4    0  502 -0.21637036505E+02  0.10484082793E+02  0.84510522344E+02  0.87989747855E+02  0.47000000000E+01 0.  1.
<mgrwt>
<rscale>  0 0.91810559E+02</rscale>
<asrwt>0</asrwt>
<pdfrwt beam="1">  1        1 0.11073055E-01 0.92079453E+02</pdfrwt>
<pdfrwt beam="2">  1       -1 0.20777053E-01 0.92079453E+02</pdfrwt>
<totfact> 0.96130012E+03</totfact>
</mgrwt>
</event>
<event>
 8    1  0.3466492E-004  0.1176362E+03  0.7546771E-02  0.1247360E+00
         -1   -1    0    0    0  501 -0.00000000000E+00  0.00000000000E+00  0.25738293774E+02  0.25738293774E+02  0.00000000000E+00 0.  1.
          1   -1    0    0  501    0  0.00000000000E+00 -0.00000000000E+00 -0.53768694853E+03  0.53768694853E+03  0.00000000000E+00 0. -1.
         23    2    1    2    0    0 -0.24836217168E+02 -0.68348897294E+02 -0.23442725494E+03  0.26228689911E+03  0.92465507849E+02 0.  0.
         23    2    1    2    0    0  0.24836217168E+02  0.68348897294E+02 -0.27752139982E+03  0.30113834319E+03  0.91530131329E+02 0.  0.
          5    1    4    4  502    0  0.19506774231E+01  0.72630582131E+02 -0.10981954515E+03  0.13176277585E+03  0.47000000000E+01 0. -1.
         -5    1    4    4    0  502  0.22885539745E+02 -0.42816848365E+01 -0.16770185466E+03  0.16937556734E+03  0.47000000000E+01 0.  1.
          5    1    3    3  503    0  0.21988044404E+02  0.74192896325E+01 -0.85266996537E+02  0.88493336777E+02  0.47000000000E+01 0. -1.
         -5    1    3    3    0  503 -0.46824261572E+02 -0.75768186927E+02 -0.14916025840E+03  0.17379356233E+03  0.47000000000E+01 0.  1.
<mgrwt>
<rscale>  0 0.11745234E+03</rscale>
<asrwt>0</asrwt>
<pdfrwt beam="1">  1        1 0.82721078E-01 0.11763622E+03</pdfrwt>
<pdfrwt beam="2">  1       -1 0.39597371E-02 0.11763622E+03</pdfrwt>
<totfact> 0.96497024E+03</totfact>
</mgrwt>
</event>
<event>
 8    1  0.3466492E-004  0.1097262E+03  0.7546771E-02  0.1261691E+00
          1   -1    0    0  501    0  0.00000000000E+00  0.00000000000E+00  0.10730741040E+04  0.10730741040E+04  0.00000000000E+00 0. -1.
         -1   -1    0    0    0  501 -0.00000000000E+00 -0.00000000000E+00 -0.11559125535E+02  0.11559125535E+02  0.00000000000E+00 0.  1.
         23    2    1    2    0    0 -0.26752244615E+02  0.66123013309E+02  0.41802009320E+03  0.43185033201E+03  0.81645425240E+02 0.  0.
         23    2    1    2    0    0  0.26752244615E+02 -0.66123013309E+02  0.64349488529E+03  0.65278289755E+03  0.83378105341E+02 0.  0.
          5    1    3    3  502    0 -0.36514702748E+02  0.22684585196E+01  0.86069864092E+02  0.93640701223E+02  0.47000000000E+01 0.  1.
         -5    1    4    4    0  503 -0.30029240338E+02 -0.26069450297E+02  0.24317308032E+03  0.24644798337E+03  0.47000000000E+01 0.  1.
          5    1    4    4  503    0  0.56781484953E+02 -0.40053563012E+02  0.40032180497E+03  0.40633491417E+03  0.47000000000E+01 0. -1.
         -5    1    3    3    0  502  0.97624581330E+01  0.63854554789E+02  0.33195022911E+03  0.33820963079E+03  0.47000000000E+01 0. -1.
<mgrwt>
<rscale>  0 0.10939705E+03</rscale>
<asrwt>0</asrwt>
<pdfrwt beam="1">  1        1 0.16508824E+00 0.10972622E+03</pdfrwt>
<pdfrwt beam="2">  1       -1 0.17783279E-02 0.10972622E+03</pdfrwt>
<totfact> 0.10940908E+04</totfact>
</mgrwt>
</event>
<event>
 8    1  0.3466492E-004  0.1021013E+03  0.7546771E-02  0.1276270E+00
          1   -1    0    0  501    0  0.00000000000E+00  0.00000000000E+00  0.76535977623E+03  0.76535977623E+03  0.00000000000E+00 0. -1.
         -1   -1    0    0    0  501 -0.00000000000E+00 -0.00000000000E+00 -0.13765795414E+02  0.13765795414E+02  0.00000000000E+00 0.  1.
         23    2    1    2    0    0 -0.43538415574E+02  0.20721194238E+01  0.32413485857E+03  0.33964181094E+03  0.91614768949E+02 0.  0.
         23    2    1    2    0    0  0.43538415574E+02 -0.20721194238E+01  0.42745912225E+03  0.43948376070E+03  0.92329775375E+02 0.  0.
          5    1    4    4  502    0  0.68092265372E+02 -0.16406920607E+02  0.24872717634E+03  0.25844349846E+03  0.47000000000E+01 0. -1.
         -5    1    4    4    0  502 -0.24553849798E+02  0.14334801183E+02  0.17873194591E+03  0.18104026224E+03  0.47000000000E+01 0.  1.
          5    1    3    3  503    0 -0.20981164307E+02 -0.43249670319E+02  0.19414129213E+03  0.20005917762E+03  0.47000000000E+01 0. -1.
         -5    1    3    3    0  503 -0.22557251267E+02  0.45321789743E+02  0.12999356644E+03  0.13958263333E+03  0.47000000000E+01 0.  1.
<mgrwt>
<rscale>  0 0.10193938E+03</rscale>
<asrwt>0</asrwt>
<pdfrwt beam="1">  1        1 0.11774762E+00 0.10210130E+03</pdfrwt>
<pdfrwt beam="2">  1       -1 0.21178153E-02 0.10210130E+03</pdfrwt>
<totfact> 0.14497188E+04</totfact>
</mgrwt>
</event>
<event>
 8    1  0.3466492E-004  0.9809984E+02  0.7546771E-02  0.1284934E+00
          2   -1    0    0  501    0  0.00000000000E+00  0.00000000000E+00  0.55723247501E+02  0.55723247501E+02  0.00000000000E+00 0. -1.
         -2   -1    0    0    0  501 -0.00000000000E+00 -0.00000000000E+00 -0.18063961723E+03  0.18063961723E+03  0.00000000000E+00 0.  1.
         23    2    1    2    0    0  0.32940572123E+02  0.19902461084E+01 -0.90383624626E+02  0.13338957637E+03  0.92382558488E+02 0.  0.
         23    2    1    2    0    0 -0.32940572123E+02 -0.19902461084E+01 -0.34532745107E+02  0.10297328836E+03  0.91224696550E+02 0.  0.
          5    1    3    3  502    0 -0.38074833761E+01  0.39612668764E+02 -0.18341923339E+02  0.44070132834E+02  0.47000000000E+01 0. -1.
         -5    1    4    4    0  503  0.16050934570E+00 -0.39967001283E+02 -0.33507667190E+02  0.52366408272E+02  0.47000000000E+01 0.  1.
          5    1    4    4  503    0 -0.33101081468E+02  0.37976755174E+02 -0.10250779164E+01  0.50606880092E+02  0.47000000000E+01 0. -1.
         -5    1    3    3    0  502  0.36748055499E+02 -0.37622422656E+02 -0.72041701288E+02  0.89319443537E+02  0.47000000000E+01 0.  1.
<mgrwt>
<rscale>  0 0.97826303E+02</rscale>
<asrwt>0</asrwt>
<pdfrwt beam="1">  1        2 0.85728072E-02 0.98099844E+02</pdfrwt>
<pdfrwt beam="2">  1       -2 0.27790711E-01 0.98099844E+02</pdfrwt>
<totfact> 0.83654168E+03</totfact>
</mgrwt>
</event>
<event>
 8    1  0.3466492E-004  0.1393471E+03  0.7546771E-02  0.1214388E+00
         -2   -1    0    0    0  501 -0.00000000000E+00  0.00000000000E+00  0.37942324851E+02  0.37942324851E+02  0.00000000000E+00 0.  1.
          2   -1    0    0  501    0  0.00000000000E+00 -0.00000000000E+00 -0.51757521003E+03  0.51757521003E+03  0.00000000000E+00 0. -1.
         23    2    1    2    0    0 -0.46420388600E+01  0.10464174634E+03 -0.27421573410E+03  0.30759044207E+03  0.91903033796E+02 0.  0.
         23    2    1    2    0    0  0.46420388600E+01 -0.10464174634E+03 -0.20541715108E+03  0.24792709282E+03  0.91105399367E+02 0.  0.
          5    1    4    4  502    0 -0.23191843406E+02 -0.15864996073E+02 -0.11363595117E+03  0.11715280235E+03  0.47000000000E+01 0. -1.
         -5    1    4    4    0  502  0.27833882266E+02 -0.88776750263E+02 -0.91781199909E+02  0.13077429046E+03  0.47000000000E+01 0.  1.
          5    1    3    3  503    0 -0.34958305604E+02  0.28774389647E+02 -0.16470952030E+03  0.17088406803E+03  0.47000000000E+01 0. -1.
         -5    1    3    3    0  503  0.30316266744E+02  0.75867356688E+02 -0.10950621380E+03  0.13670637403E+03  0.47000000000E+01 0.  1.
<mgrwt>
<rscale>  0 0.13921571E+03</rscale>
<asrwt>0</asrwt>
<pdfrwt beam="1">  1        2 0.79626951E-01 0.13934709E+03</pdfrwt>
<pdfrwt beam="2">  1       -2 0.58372810E-02 0.13934709E+03</pdfrwt>
<totfact> 0.88398495E+03</totfact>
</mgrwt>
</event>
<event>
 8    1  0.3466492E-004  0.1303995E+03  0.7546771E-02  0.1228036E+00
         -1   -1    0    0    0  501 -0.00000000000E+00  0.00000000000E+00  0.30801603569E+02  0.30801603569E+02  0.00000000000E+00 0.  1.
          1   -1    0    0  501    0  0.00000000000E+00 -0.00000000000E+00 -0.61458091531E+03  0.61458091531E+03  0.00000000000E+00 0. -1.
         23    2    1    2    0    0  0.86514594330E+02 -0.41010587302E+02 -0.40202916711E+03  0.42169266156E+03  0.83848710783E+02 0.  0.
         23    2    1    2    0    0 -0.86514594330E+02  0.41010587302E+02 -0.18175014463E+03  0.22368985732E+03  0.88529056773E+02 0.  0.
          5    1    3    3  502    0  0.67749915799E+02 -0.63117719686E+02 -0.34862048226E+03  0.36073844858E+03  0.47000000000E+01 0. -1.
         -5    1    4    4    0  503 -0.56140495863E+02  0.16219268674E+02 -0.28034777203E+02  0.64983526258E+02  0.47000000000E+01 0.  1.
          5    1    4    4  503    0 -0.30374098467E+02  0.24791318628E+02 -0.15371536743E+03  0.15870633106E+03  0.47000000000E+01 0. -1.
         -5    1    3    3    0  502  0.18764678532E+02  0.22107132385E+02 -0.53408684847E+02  0.60954212978E+02  0.47000000000E+01 0.  1.
<mgrwt>
<rscale>  0 0.12960960E+03</rscale>
<asrwt>0</asrwt>
<pdfrwt beam="1">  1        1 0.94550911E-01 0.13039953E+03</pdfrwt>
<pdfrwt beam="2">  1       -1 0.47387082E-02 0.13039953E+03</pdfrwt>
<totfact> 0.62367904E+03</totfact>
</mgrwt>
</event>
<event>
 8    1  0.3466492E-004  0.1000082E+03  0.7546771E-02  0.1282182E+00
          1   -1    0    0  501    0  0.00000000000E+00  0.00000000000E+00  0.27244428409E+03  0.27244428409E+03  0.00000000000E+00 0. -1.
         -1   -1    0    0    0  501 -0.00000000000E+00 -0.00000000000E+00 -0.35944042785E+02  0.35944042785E+02  0.00000000000E+00 0.  1.
         23    2    1    2    0    0  0.19427826611E+02  0.30990936647E+02  0.13898802403E+03  0.17122879821E+03  0.93079277578E+02 0.  0.
         23    2    1    2    0    0 -0.19427826611E+02 -0.30990936647E+02  0.97512217281E+02  0.13715952866E+03  0.89253712432E+02 0.  0.
          5    1    3    3  502    0 -0.36004399443E+02  0.33931722281E+00  0.45680107249E+02  0.58354041108E+02  0.47000000000E+01 0. -1.
         -5    1    4    4    0  503  0.20553881758E+02  0.15507445609E+02  0.59215121276E+01  0.26834627453E+02  0.47000000000E+01 0.  1.
          5    1    4    4  503    0 -0.39981708370E+02 -0.46498382255E+02  0.91590705154E+02  0.11032490121E+03  0.47000000000E+01 0. -1.
         -5    1    3    3    0  502  0.55432226054E+02  0.30651619424E+02  0.93307916777E+02  0.11287475711E+03  0.47000000000E+01 0.  1.
<mgrwt>
<rscale>  0 0.99108493E+02</rscale>
<asrwt>0</asrwt>
<pdfrwt beam="1">  1        1 0.41914504E-01 0.10000815E+03</pdfrwt>
<pdfrwt beam="2">  1       -1 0.55298529E-02 0.10000815E+03</pdfrwt>
<totfact> 0.13678892E+04</totfact>
</mgrwt>
</event>
<event>
 8    1  0.3466492E-004  0.9864726E+02  0.7546771E-02  0.1283906E+00
         -1   -1    0    0    0  501 -0.00000000000E+00  0.00000000000E+00  0.72461535767E+02  0.72461535767E+02  0.00000000000E+00 0.  1.
          1   -1    0    0  501    0  0.00000000000E+00 -0.00000000000E+00 -0.19154618008E+03  0.19154618008E+03  0.00000000000E+00 0. -1.
         23    2    1    2    0    0 -0.24622998928E+02 -0.25055882106E+02 -0.13258314014E+03  0.16444120062E+03  0.90711245766E+02 0.  0.
         23    2    1    2    0    0  0.24622998928E+02  0.25055882106E+02  0.13498495825E+02  0.99566515228E+02  0.92180216212E+02 0.  0.
          5    1    3    3  502    0 -0.31143055155E+02  0.25059299335E+02 -0.30717700589E+02  0.50631269953E+02  0.47000000000E+01 0. -1.
         -5    1    4    4    0  503 -0.23125924792E+02 -0.83391673159E+01  0.29763554077E+02  0.38888420645E+02  0.47000000000E+01 0.  1.
          5    1    4    4  503    0  0.47748923720E+02  0.33395049422E+02 -0.16265058252E+02  0.60678094583E+02  0.47000000000E+01 0. -1.
         -5    1    3    3    0  502  0.65200562268E+01 -0.50115181441E+02 -0.10186543955E+03  0.11380993067E+03  0.47000000000E+01 0.  1.
<mgrwt>
<rscale>  0 0.98302641E+02</rscale>
<asrwt>0</asrwt>
<pdfrwt beam="1">  1        1 0.29468642E-01 0.98647258E+02</pdfrwt>
<pdfrwt beam="2">  1       -1 0.11147929E-01 0.98647258E+02</pdfrwt>
<totfact> 0.73752462E+03</totfact>
</mgrwt>
</event>
<event>
 8    1  0.3466492E-004  0.1040605E+03  0.7546771E-02  0.1276127E+00
         -1   -1    0    0    0  501 -0.00000000000E+00  0.00000000000E+00  0.49760729547E+03  0.49760729547E+03  0.00000000000E+00 0.  1.
          1   -1    0    0  501    0  0.00000000000E+00 -0.00000000000E+00 -0.27015469272E+02  0.27015469272E+02  0.00000000000E+00 0. -1.
         23    2    1    2    0    0 -0.46157578119E+02 -0.60179436659E+01  0.36069325729E+03  0.37327456022E+03  0.84068625474E+02 0.  0.
         23    2    1    2    0    0  0.46157578119E+02  0.60179436659E+01  0.10989856891E+03  0.15134820452E+03  0.93069038355E+02 0.  0.
          5    1    3    3  502    0 -0.14635987941E+02  0.28293403951E+02  0.52825307879E+02  0.61865434636E+02  0.47000000000E+01 0. -1.
         -5    1    3    3    0  502 -0.31521590178E+02 -0.34311347617E+02  0.30786794941E+03  0.31140912559E+03  0.47000000000E+01 0.  1.
          5    1    4    4  503    0  0.43552828421E+02 -0.15890551010E+02  0.83708703717E+01  0.47344692899E+02  0.47000000000E+01 0. -1.
         -5    1    4    4    0  503  0.26047496976E+01  0.21908494676E+02  0.10152769853E+03  0.10400351162E+03  0.47000000000E+01 0.  1.
<mgrwt>
<rscale>  0 0.10200928E+03</rscale>
<asrwt>0</asrwt>
<pdfrwt beam="1">  1        1 0.41562264E-02 0.10406048E+03</pdfrwt>
<pdfrwt beam="2">  1       -1 0.76554962E-01 0.10406048E+03</pdfrwt>
<totfact> 0.36326461E+03</totfact>
</mgrwt>
</event>
<event>
 8    1  0.3466492E-004  0.1025696E+03  0.7546771E-02  0.1279550E+00
         -1   -1    0    0    0  501 -0.00000000000E+00  0.00000000000E+00  0.22279408802E+03  0.22279408802E+03  0.00000000000E+00 0.  1.
          1   -1    0    0  501    0  0.00000000000E+00 -0.00000000000E+00 -0.68543089080E+02  0.68543089080E+02  0.00000000000E+00 0. -1.
         23    2    1    2    0    0  0.16484211302E+02  0.19253316286E+02  0.16750198913E+03  0.19641140894E+03  0.99388660270E+02 0.  0.
         23    2    1    2    0    0 -0.16484211302E+02 -0.19253316286E+02 -0.13250990189E+02  0.94925768157E+02  0.90514602739E+02 0.  0.
          5    1    4    4  502    0 -0.46484559924E+02 -0.35637880836E+02 -0.26187660578E+01  0.58820241393E+02  0.47000000000E+01 0. -1.
         -5    1    3    3    0  503  0.31346183874E+02 -0.12722641991E+02  0.15498006917E+03  0.15869896251E+03  0.47000000000E+01 0.  1.
          5    1    3    3  503    0 -0.14861972572E+02  0.31975958277E+02  0.12521919963E+02  0.37712446433E+02  0.47000000000E+01 0. -1.
         -5    1    4    4    0  502  0.30000348622E+02  0.16384564551E+02 -0.10632224131E+02  0.36105526764E+02  0.47000000000E+01 0.  1.
<mgrwt>
<rscale>  0 0.10035564E+03</rscale>
<asrwt>0</asrwt>
<pdfrwt beam="1">  1        1 0.10545091E-01 0.10256961E+03</pdfrwt>
<pdfrwt beam="2">  1       -1 0.34276013E-01 0.10256961E+03</pdfrwt>
<totfact> 0.45423177E+03</totfact>
</mgrwt>
</event>
<event>
 8    1  0.3466492E-004  0.1478102E+03  0.7546771E-02  0.1203226E+00
          1   -1    0    0  501    0  0.00000000000E+00  0.00000000000E+00  0.11350703799E+03  0.11350703799E+03  0.00000000000E+00 0. -1.
         -1   -1    0    0    0  501 -0.00000000000E+00 -0.00000000000E+00 -0.31815027487E+03  0.31815027487E+03  0.00000000000E+00 0.  1.
         23    2    1    2    0    0 -0.52903987040E+02  0.10417576685E+03  0.33381778773E+02  0.15153280656E+03  0.90534115488E+02 0.  0.
         23    2    1    2    0    0  0.52903987040E+02 -0.10417576685E+03 -0.23802501566E+03  0.28012450629E+03  0.90346049735E+02 0.  0.
          5    1    4    4  502    0 -0.22336691840E+02 -0.55307344108E+01 -0.40728326770E+02  0.47014927704E+02  0.47000000000E+01 0. -1.
         -5    1    3    3    0  503 -0.77247619340E+02  0.91769255808E+02  0.28502838898E+02  0.12338270880E+03  0.47000000000E+01 0. -1.
          5    1    3    3  503    0  0.24343632300E+02  0.12406511044E+02  0.48789398751E+01  0.28150097765E+02  0.47000000000E+01 0.  1.
         -5    1    4    4    0  502  0.75240678880E+02 -0.98645032441E+02 -0.19729668889E+03  0.23310957859E+03  0.47000000000E+01 0.  1.
<mgrwt>
<rscale>  0 0.14778139E+03</rscale>
<asrwt>0</asrwt>
<pdfrwt beam="1">  1        1 0.17462621E-01 0.14781018E+03</pdfrwt>
<pdfrwt beam="2">  1       -1 0.48946196E-01 0.14781018E+03</pdfrwt>
<totfact> 0.12843130E+03</totfact>
</mgrwt>
</event>
<event>
 8    1  0.3466492E-004  0.9107559E+02  0.7546771E-02  0.1302466E+00
         -4   -1    0    0    0  501 -0.00000000000E+00  0.00000000000E+00  0.54361469590E+02  0.54361469590E+02  0.00000000000E+00 0.  1.
          4   -1    0    0  501    0  0.00000000000E+00 -0.00000000000E+00 -0.15247074371E+03  0.15247074371E+03  0.00000000000E+00 0. -1.
         23    2    1    2    0    0  0.52563986998E+01  0.26809688231E+01 -0.68394288752E+02  0.11103167631E+03  0.87266471741E+02 0.  0.
         23    2    1    2    0    0 -0.52563986998E+01 -0.26809688231E+01 -0.29714985365E+02  0.95800536982E+02  0.90884240711E+02 0.  0.
          5    1    4    4  502    0  0.24130969648E+02 -0.27299393992E+02 -0.41494585333E+02  0.55420675026E+02  0.47000000000E+01 0. -1.
         -5    1    3    3    0  503 -0.39471886112E+02 -0.52754754558E+01 -0.42909877701E+02  0.58729958615E+02  0.47000000000E+01 0.  1.
          5    1    3    3  503    0  0.44728284812E+02  0.79564442789E+01 -0.25484411050E+02  0.52301717700E+02  0.47000000000E+01 0. -1.
         -5    1    4    4    0  502 -0.29387368348E+02  0.24618425168E+02  0.11779599967E+02  0.40379861956E+02  0.47000000000E+01 0.  1.
<mgrwt>
<rscale>  0 0.90159391E+02</rscale>
<asrwt>0</asrwt>
<pdfrwt beam="1">  1        4 0.23457037E-01 0.91075587E+02</pdfrwt>
<pdfrwt beam="2">  1       -4 0.83633030E-02 0.91075587E+02</pdfrwt>
<totfact> 0.25659092E+03</totfact>
</mgrwt>
</event>
<event>
 8    1  0.3466492E-004  0.1761713E+03  0.7546771E-02  0.1171634E+00
          2   -1    0    0  501    0  0.00000000000E+00  0.00000000000E+00  0.77949222532E+02  0.77949222532E+02  0.00000000000E+00 0. -1.
         -2   -1    0    0    0  501 -0.00000000000E+00 -0.00000000000E+00 -0.55638131716E+03  0.55638131716E+03  0.00000000000E+00 0.  1.
         23    2    1    2    0    0 -0.11418989835E+03 -0.97936819929E+02 -0.40884987931E+03  0.44519046602E+03  0.91680824819E+02 0.  0.
         23    2    1    2    0    0  0.11418989835E+03  0.97936819929E+02 -0.69582215314E+02  0.18914007367E+03  0.91111630409E+02 0.  0.
          5    1    4    4  502    0  0.75506086734E+02  0.74150871029E+02 -0.17373513649E-01  0.10593210613E+03  0.47000000000E+01 0. -1.
         -5    1    4    4    0  502  0.38683811619E+02  0.23785948900E+02 -0.69564841801E+02  0.83207967534E+02  0.47000000000E+01 0.  1.
          5    1    3    3  503    0 -0.41482100181E+02  0.92604725822E+01 -0.65833929769E+02  0.78502976356E+02  0.47000000000E+01 0. -1.
         -5    1    3    3    0  503 -0.72707798172E+02 -0.10719729251E+03 -0.34301594954E+03  0.36668748967E+03  0.47000000000E+01 0.  1.
<mgrwt>
<rscale>  0 0.17609737E+03</rscale>
<asrwt>0</asrwt>
<pdfrwt beam="1">  1        2 0.11992188E-01 0.17617130E+03</pdfrwt>
<pdfrwt beam="2">  1       -2 0.85597124E-01 0.17617130E+03</pdfrwt>
<totfact> 0.62089168E+02</totfact>
</mgrwt>
</event>
<event>
 7    1  0.3466492E-004  0.1527824E+03  0.7546771E-02  0.1212944E+00
         -2   -1    0    0    0  501 -0.00000000000E+00  0.00000000000E+00  0.96860037547E+02  0.96860037547E+02  0.00000000000E+00 0.  1.
          2   -1    0    0  501    0  0.00000000000E+00 -0.00000000000E+00 -0.27161730688E+03  0.27161730688E+03  0.00000000000E+00 0. -1.
         23    2    1    2    0    0  0.44431530318E+02 -0.41499746316E+02 -0.18589008682E+03  0.21528985999E+03  0.89990052811E+02 0.  0.
          5    1    3    3  502    0 -0.26645346528E+02 -0.14835615251E+02 -0.37677411993E+02  0.48700588764E+02  0.47000000000E+01 0. -1.
         -5    1    1    2    0  503  0.50014785336E+02  0.25118229821E+02  0.10914821061E+02  0.57215623219E+02  0.47000000000E+01 0.  1.
          5    1    1    2  503    0 -0.94446315654E+02  0.16381516495E+02  0.21799642905E+00  0.95971861218E+02  0.47000000000E+01 0. -1.
         -5    1    3    3    0  502  0.71076876846E+02 -0.26664131065E+02 -0.14821267482E+03  0.16658927122E+03  0.47000000000E+01 0.  1.
<mgrwt>
<rscale>  0 0.14028635E+03</rscale>
<asrwt>0</asrwt>
<pdfrwt beam="1">  1        2 0.41787277E-01 0.15278241E+03</pdfrwt>
<pdfrwt beam="2">  1       -2 0.14901545E-01 0.15278241E+03</pdfrwt>
<totfact> 0.40820895E+03</totfact>
</mgrwt>
</event>
<event>
 8    1  0.3466492E-004  0.1039198E+03  0.7546771E-02  0.1274688E+00
          1   -1    0    0  501    0  0.00000000000E+00  0.00000000000E+00  0.42649181009E+02  0.42649181009E+02  0.00000000000E+00 0. -1.
         -1   -1    0    0    0  501 -0.00000000000E+00 -0.00000000000E+00 -0.27175633900E+03  0.27175633900E+03  0.00000000000E+00 0.  1.
         23    2    1    2    0    0 -0.50379547295E+02 -0.78461986549E+01 -0.64753519371E+02  0.12244323439E+03  0.90552005822E+02 0.  0.
         23    2    1    2    0    0  0.50379547295E+02  0.78461986549E+01 -0.16435363862E+03  0.19196228562E+03  0.85074902019E+02 0.  0.
          5    1    4    4  502    0  0.19738297203E+02 -0.29294266300E+02 -0.22639901584E+02  0.42218592566E+02  0.47000000000E+01 0. -1.
         -5    1    4    4    0  502  0.30641250092E+02  0.37140464955E+02 -0.14171373704E+03  0.14974369306E+03  0.47000000000E+01 0.  1.
          5    1    3    3  503    0 -0.34957723537E+02 -0.48232969155E+02 -0.44317696619E+02  0.74394959386E+02  0.47000000000E+01 0. -1.
         -5    1    3    3    0  503 -0.15421823758E+02  0.40386770500E+02 -0.20435822752E+02  0.48048275006E+02  0.47000000000E+01 0.  1.
<mgrwt>
<rscale>  0 0.10271499E+03</rscale>
<asrwt>0</asrwt>
<pdfrwt beam="1">  1        1 0.65614125E-02 0.10391981E+03</pdfrwt>
<pdfrwt beam="2">  1       -1 0.41808667E-01 0.10391981E+03</pdfrwt>
<totfact> 0.60585991E+03</totfact>
</mgrwt>
</event>
<event>
 8    1  0.3466492E-004  0.1097412E+03  0.7546771E-02  0.1261078E+00
         -2   -1    0    0    0  501 -0.00000000000E+00  0.00000000000E+00  0.24921131700E+03  0.24921131700E+03  0.00000000000E+00 0.  1.
          2   -1    0    0  501    0  0.00000000000E+00 -0.00000000000E+00 -0.12292232607E+03  0.12292232607E+03  0.00000000000E+00 0. -1.
         23    2    1    2    0    0  0.57205122093E+02  0.16260087851E+02 -0.81823744787E+02  0.13688778550E+03  0.92229735756E+02 0.  0.
         23    2    1    2    0    0 -0.57205122093E+02 -0.16260087851E+02  0.20811273572E+03  0.23524585757E+03  0.92156856943E+02 0.  0.
          5    1    4    4  502    0 -0.31858831157E+01  0.26941173277E+02  0.18021501629E+02  0.32906552383E+02  0.47000000000E+01 0. -1.
         -5    1    4    4    0  502 -0.54019238978E+02 -0.43201261129E+02  0.19009123409E+03  0.20233930518E+03  0.47000000000E+01 0.  1.
          5    1    3    3  503    0  0.30963183346E+02  0.24605178838E+02 -0.97169688414E+02  0.10501510318E+03  0.47000000000E+01 0. -1.
         -5    1    3    3    0  503  0.26241938748E+02 -0.83450909866E+01  0.15345943627E+02  0.31872682325E+02  0.47000000000E+01 0.  1.
<mgrwt>
<rscale>  0 0.10972593E+03</rscale>
<asrwt>0</asrwt>
<pdfrwt beam="1">  1        2 0.18911127E-01 0.10974124E+03</pdfrwt>
<pdfrwt beam="2">  1       -2 0.38340203E-01 0.10974124E+03</pdfrwt>
<totfact> 0.18435507E+03</totfact>
</mgrwt>
</event>
<event>
 8    1  0.3466492E-004  0.1491503E+03  0.7546771E-02  0.1202828E+00
          1   -1    0    0  501    0  0.00000000000E+00  0.00000000000E+00  0.27767003302E+03  0.27767003302E+03  0.00000000000E+00 0. -1.
         -1   -1    0    0    0  501 -0.00000000000E+00 -0.00000000000E+00 -0.19130384082E+03  0.19130384082E+03  0.00000000000E+00 0.  1.
         23    2    1    2    0    0 -0.11123152599E+03 -0.36463876994E+02  0.22396465554E+03  0.26908359432E+03  0.92432392068E+02 0.  0.
         23    2    1    2    0    0  0.11123152599E+03  0.36463876994E+02 -0.13759846334E+03  0.19989027953E+03  0.85561206378E+02 0.  0.
          5    1    4    4  502    0  0.27271318051E+02 -0.20655645316E+02 -0.84831681951E+01  0.35558889385E+02  0.47000000000E+01 0. -1.
         -5    1    4    4    0  502  0.83960207938E+02  0.57119522310E+02 -0.12911529514E+03  0.16433139014E+03  0.47000000000E+01 0.  1.
          5    1    3    3  503    0 -0.72402633677E+02 -0.66850453166E+02  0.13420733447E+03  0.16656777323E+03  0.47000000000E+01 0. -1.
         -5    1    3    3    0  503 -0.38828892312E+02  0.30386576172E+02  0.89757321066E+02  0.10251582109E+03  0.47000000000E+01 0.  1.
<mgrwt>
<rscale>  0 0.14809977E+03</rscale>
<asrwt>0</asrwt>
<pdfrwt beam="1">  1        1 0.42718467E-01 0.14915031E+03</pdfrwt>
<pdfrwt beam="2">  1       -1 0.29431360E-01 0.14915031E+03</pdfrwt>
<totfact> 0.10145324E+03</totfact>
</mgrwt>
</event>
<event>
 8    1  0.3466492E-004  0.1056055E+03  0.7546771E-02  0.1269214E+00
         -1   -1    0    0    0  501 -0.00000000000E+00  0.00000000000E+00  0.39587164271E+02  0.39587164271E+02  0.00000000000E+00 0.  1.
          1   -1    0    0  501    0  0.00000000000E+00 -0.00000000000E+00 -0.35521078599E+03  0.35521078599E+03  0.00000000000E+00 0. -1.
         23    2    1    2    0    0  0.34168813307E+02 -0.39899008746E+02 -0.24887161065E+03  0.27035087550E+03  0.91613746747E+02 0.  0.
         23    2    1    2    0    0 -0.34168813307E+02  0.39899008746E+02 -0.66752011074E+02  0.12444707477E+03  0.90949462530E+02 0.  0.
          5    1    3    3  502    0  0.44574933330E+02  0.35380744420E+01 -0.53503364920E+02  0.69886641856E+02  0.47000000000E+01 0. -1.
         -5    1    3    3    0  502 -0.10406120023E+02 -0.43437083188E+02 -0.19536824573E+03  0.20046423364E+03  0.47000000000E+01 0.  1.
          5    1    4    4  503    0  0.30130605235E+02  0.20408266880E+02 -0.31848182462E+02  0.48587523656E+02  0.47000000000E+01 0. -1.
         -5    1    4    4    0  503 -0.64299418542E+02  0.19490741866E+02 -0.34903828612E+02  0.75859551114E+02  0.47000000000E+01 0.  1.
<mgrwt>
<rscale>  0 0.10546125E+03</rscale>
<asrwt>0</asrwt>
<pdfrwt beam="1">  1        1 0.54647814E-01 0.10560548E+03</pdfrwt>
<pdfrwt beam="2">  1       -1 0.60903329E-02 0.10560548E+03</pdfrwt>
<totfact> 0.86021896E+03</totfact>
</mgrwt>
</event>
<event>
 8    1  0.3466492E-004  0.9225142E+02  0.7546771E-02  0.1298539E+00
         -1   -1    0    0    0  501 -0.00000000000E+00  0.00000000000E+00  0.19670164477E+02  0.19670164477E+02  0.00000000000E+00 0.  1.
          1   -1    0    0  501    0  0.00000000000E+00 -0.00000000000E+00 -0.49295512101E+03  0.49295512101E+03  0.00000000000E+00 0. -1.
         23    2    1    2    0    0  0.53143000997E+01  0.76251254170E+01 -0.33026272211E+03  0.34243220675E+03  0.89999812673E+02 0.  0.
         23    2    1    2    0    0 -0.53143000997E+01 -0.76251254170E+01 -0.14302223443E+03  0.17019307874E+03  0.91782025406E+02 0.  0.
          5    1    3    3  502    0 -0.68620604944E+01 -0.24454724891E+02 -0.27627884141E+02  0.37822102345E+02  0.47000000000E+01 0. -1.
         -5    1    4    4    0  503  0.16752906187E+02  0.27196187326E+02 -0.14972368269E+02  0.35588681942E+02  0.47000000000E+01 0.  1.
          5    1    4    4  503    0 -0.22067206287E+02 -0.34821312743E+02 -0.12804986616E+03  0.13460439680E+03  0.47000000000E+01 0. -1.
         -5    1    3    3    0  502  0.12176360594E+02  0.32079850308E+02 -0.30263483797E+03  0.30461010440E+03  0.47000000000E+01 0.  1.
<mgrwt>
<rscale>  0 0.91804948E+02</rscale>
<asrwt>0</asrwt>
<pdfrwt beam="1">  1        1 0.75839248E-01 0.92251420E+02</pdfrwt>
<pdfrwt beam="2">  1       -1 0.30261792E-02 0.92251420E+02</pdfrwt>
<totfact> 0.15642871E+04</totfact>
</mgrwt>
</event>
<event>
 8    1  0.3466492E-004  0.9885369E+02  0.7546771E-02  0.1283048E+00
         -2   -1    0    0    0  501 -0.00000000000E+00  0.00000000000E+00  0.13985295870E+02  0.13985295870E+02  0.00000000000E+00 0.  1.
          2   -1    0    0  501    0  0.00000000000E+00 -0.00000000000E+00 -0.69656353935E+03  0.69656353935E+03  0.00000000000E+00 0. -1.
         23    2    1    2    0    0 -0.28236557111E+02 -0.26069240360E+02 -0.36176268171E+03  0.37502571990E+03  0.91077682555E+02 0.  0.
         23    2    1    2    0    0  0.28236557111E+02  0.26069240360E+02 -0.32081556177E+03  0.33552311532E+03  0.90422496034E+02 0.  0.
          5    1    4    4  502    0  0.30852477138E+01  0.55770504259E+02 -0.14658605183E+03  0.15693765797E+03  0.47000000000E+01 0. -1.
         -5    1    3    3    0  503  0.17967467489E+02  0.23516916649E+02 -0.13599460653E+03  0.13925695050E+03  0.47000000000E+01 0.  1.
          5    1    3    3  503    0 -0.46204024599E+02 -0.49586157008E+02 -0.22576807518E+03  0.23576876940E+03  0.47000000000E+01 0. -1.
         -5    1    4    4    0  502  0.25151309397E+02 -0.29701263899E+02 -0.17422950994E+03  0.17858545735E+03  0.47000000000E+01 0.  1.
<mgrwt>
<rscale>  0 0.98702517E+02</rscale>
<asrwt>0</asrwt>
<pdfrwt beam="1">  1        2 0.10716364E+00 0.98853693E+02</pdfrwt>
<pdfrwt beam="2">  1       -2 0.21515836E-02 0.98853693E+02</pdfrwt>
<totfact> 0.26757230E+04</totfact>
</mgrwt>
</event>
<event>
 8    1  0.3466492E-004  0.9957730E+02  0.7546771E-02  0.1282208E+00
          1   -1    0    0  501    0  0.00000000000E+00  0.00000000000E+00  0.59496756085E+03  0.59496756085E+03  0.00000000000E+00 0. -1.
         -1   -1    0    0    0  501 -0.00000000000E+00 -0.00000000000E+00 -0.16695618385E+02  0.16695618385E+02  0.00000000000E+00 0.  1.
         23    2    1    2    0    0 -0.21672425175E+02 -0.27252989445E+02  0.33054216265E+03  0.34466939074E+03  0.91249373576E+02 0.  0.
         23    2    1    2    0    0  0.21672425175E+02  0.27252989445E+02  0.24772977981E+03  0.26699378849E+03  0.93291049092E+02 0.  0.
          5    1    3    3  502    0  0.14416905314E+02  0.16559502097E+02  0.21165779284E+03  0.21284542639E+03  0.47000000000E+01 0. -1.
         -5    1    4    4    0  503  0.16198618927E+02 -0.13604779489E+02  0.20936929585E+03  0.21048771301E+03  0.47000000000E+01 0.  1.
          5    1    4    4  503    0  0.54738062485E+01  0.40857768934E+02  0.38360483953E+02  0.56506075480E+02  0.47000000000E+01 0. -1.
         -5    1    3    3    0  502 -0.36089330489E+02 -0.43812491542E+02  0.11888436982E+03  0.13182396435E+03  0.47000000000E+01 0.  1.
<mgrwt>
<rscale>  0 0.99096285E+02</rscale>
<asrwt>0</asrwt>
<pdfrwt beam="1">  1        1 0.91533455E-01 0.99577303E+02</pdfrwt>
<pdfrwt beam="2">  1       -1 0.25685571E-02 0.99577303E+02</pdfrwt>
<totfact> 0.15589756E+04</totfact>
</mgrwt>
</event>
<event>
 8    1  0.3466492E-004  0.1121150E+03  0.7546771E-02  0.1260899E+00
         -1   -1    0    0    0  501 -0.00000000000E+00  0.00000000000E+00  0.47273927405E+03  0.47273927405E+03  0.00000000000E+00 0.  1.
          1   -1    0    0  501    0  0.00000000000E+00 -0.00000000000E+00 -0.46098150664E+02  0.46098150664E+02  0.00000000000E+00 0. -1.
         23    2    1    2    0    0 -0.76922765049E+01 -0.46106694730E+02  0.39540521315E+03  0.41099278073E+03  0.10190576434E+03 0.  0.
         23    2    1    2    0    0  0.76922765049E+01  0.46106694730E+02  0.31235910234E+02  0.10784464399E+03  0.92031444255E+02 0.  0.
          5    1    4    4  502    0  0.39052300532E+02  0.57315665505E+02  0.22963955456E+02  0.73209295443E+02  0.47000000000E+01 0. -1.
         -5    1    4    4    0  502 -0.31360024027E+02 -0.11208970775E+02  0.82719547778E+01  0.34635348543E+02  0.47000000000E+01 0.  1.
          5    1    3    3  503    0 -0.23339635426E+02  0.23617788993E+02  0.67659403660E+02  0.75514392286E+02  0.47000000000E+01 0. -1.
         -5    1    3    3    0  503  0.15647358921E+02 -0.69724483723E+02  0.32774580949E+03  0.33547838844E+03  0.47000000000E+01 0.  1.
<mgrwt>
<rscale>  0 0.10982242E+03</rscale>
<asrwt>0</asrwt>
<pdfrwt beam="1">  1        1 0.70920235E-02 0.11211504E+03</pdfrwt>
<pdfrwt beam="2">  1       -1 0.72729116E-01 0.11211504E+03</pdfrwt>
<totfact> 0.19610775E+03</totfact>
</mgrwt>
</event>
<event>
 8    1  0.3466492E-004  0.2036394E+03  0.7546771E-02  0.1148209E+00
         -2   -1    0    0    0  501 -0.00000000000E+00  0.00000000000E+00  0.89987567981E+03  0.89987567981E+03  0.00000000000E+00 0.  1.
          2   -1    0    0  501    0  0.00000000000E+00 -0.00000000000E+00 -0.56889244473E+02  0.56889244473E+02  0.00000000000E+00 0. -1.
         23    2    1    2    0    0 -0.27623942337E+01 -0.17345555754E+03  0.19216068797E+03  0.27482418944E+03  0.92239600165E+02 0.  0.
         23    2    1    2    0    0  0.27623942337E+01  0.17345555754E+03  0.65082574736E+03  0.68194073484E+03  0.10665154071E+03 0.  0.
          5    1    4    4  502    0  0.48697526003E+02  0.44825844501E+02  0.23832012973E+03  0.24738508364E+03  0.47000000000E+01 0. -1.
         -5    1    4    4    0  502 -0.45935131769E+02  0.12862971304E+03  0.41250561764E+03  0.43455565120E+03  0.47000000000E+01 0.  1.
          5    1    3    3  503    0  0.44083939536E+02 -0.88536209801E+02  0.88680932756E+02  0.13292272945E+03  0.47000000000E+01 0. -1.
         -5    1    3    3    0  503 -0.46846333769E+02 -0.84919347738E+02  0.10347975521E+03  0.14190145999E+03  0.47000000000E+01 0.  1.
<mgrwt>
<rscale>  0 0.20182430E+03</rscale>
<asrwt>0</asrwt>
<pdfrwt beam="1">  1        2 0.87521921E-02 0.20363942E+03</pdfrwt>
<pdfrwt beam="2">  1       -2 0.13844240E+00 0.20363942E+03</pdfrwt>
<totfact> 0.29459874E+02</totfact>
</mgrwt>
</event>
<event>
 8    1  0.3466492E-004  0.1240069E+03  0.7546771E-02  0.1238295E+00
         -1   -1    0    0    0  501 -0.00000000000E+00  0.00000000000E+00  0.46325090130E+02  0.46325090130E+02  0.00000000000E+00 0.  1.
          1   -1    0    0  501    0  0.00000000000E+00 -0.00000000000E+00 -0.53646987584E+03  0.53646987584E+03  0.00000000000E+00 0. -1.
         23    2    1    2    0    0 -0.73191918479E+02 -0.42584162497E+02 -0.57904518119E+02  0.13311800445E+03  0.84835146391E+02 0.  0.
         23    2    1    2    0    0  0.73191918479E+02  0.42584162497E+02 -0.43224026759E+03  0.44967696152E+03  0.90593890362E+02 0.  0.
          5    1    3    3  502    0 -0.27848703276E+02 -0.47837162977E+02 -0.66269927063E+02  0.86473913227E+02  0.47000000000E+01 0. -1.
         -5    1    4    4    0  503  0.60175378263E+01 -0.21363320978E+02 -0.34875181673E+02  0.41604934099E+02  0.47000000000E+01 0.  1.
          5    1    4    4  503    0  0.67174380653E+02  0.63947483474E+02 -0.39736508591E+03  0.40807202742E+03  0.47000000000E+01 0. -1.
         -5    1    3    3    0  502 -0.45343215203E+02  0.52530004800E+01  0.83654089437E+01  0.46644091220E+02  0.47000000000E+01 0.  1.
<mgrwt>
<rscale>  0 0.12295807E+03</rscale>
<asrwt>0</asrwt>
<pdfrwt beam="1">  1        1 0.82533831E-01 0.12400694E+03</pdfrwt>
<pdfrwt beam="2">  1       -1 0.71269366E-02 0.12400694E+03</pdfrwt>
<totfact> 0.40719077E+03</totfact>
</mgrwt>
</event>
<event>
 8    1  0.3466492E-004  0.9798883E+02  0.7546771E-02  0.1285050E+00
          2   -1    0    0  501    0  0.00000000000E+00  0.00000000000E+00  0.36517925621E+03  0.36517925621E+03  0.00000000000E+00 0. -1.
         -2   -1    0    0    0  501 -0.00000000000E+00 -0.00000000000E+00 -0.30649749523E+02  0.30649749523E+02  0.00000000000E+00 0.  1.
         23    2    1    2    0    0 -0.31131045318E+02 -0.12655157284E+02  0.24319908134E+03  0.26187731038E+03  0.91129784040E+02 0.  0.
         23    2    1    2    0    0  0.31131045318E+02  0.12655157284E+02  0.91330425349E+02  0.13395169535E+03  0.92046266112E+02 0.  0.
          5    1    4    4  502    0  0.63210279387E+02  0.64350851682E+01  0.49598153635E+02  0.80740427205E+02  0.47000000000E+01 0. -1.
         -5    1    3    3    0  503 -0.59527143215E+02 -0.23894198078E+02  0.13832511031E+03  0.15254618849E+03  0.47000000000E+01 0.  1.
          5    1    3    3  503    0  0.28396097897E+02  0.11239040794E+02  0.10487397104E+03  0.10933112190E+03  0.47000000000E+01 0. -1.
         -5    1    4    4    0  502 -0.32079234069E+02  0.62200721157E+01  0.41732271714E+02  0.53211268149E+02  0.47000000000E+01 0.  1.
<mgrwt>
<rscale>  0 0.97773016E+02</rscale>
<asrwt>0</asrwt>
<pdfrwt beam="1">  1        2 0.56181421E-01 0.97988826E+02</pdfrwt>
<pdfrwt beam="2">  1       -2 0.47153463E-02 0.97988826E+02</pdfrwt>
<totfact> 0.17209233E+04</totfact>
</mgrwt>
</event>
<event>
 8    1  0.3466492E-004  0.1066622E+03  0.7546771E-02  0.1267441E+00
          2   -1    0    0  501    0  0.00000000000E+00  0.00000000000E+00  0.17026074123E+03  0.17026074123E+03  0.00000000000E+00 0. -1.
         -2   -1    0    0    0  501 -0.00000000000E+00 -0.00000000000E+00 -0.66768821610E+02  0.66768821610E+02  0.00000000000E+00 0.  1.
         23    2    1    2    0    0  0.14020237275E+02  0.53931231950E+02  0.40128408566E+02  0.11396097957E+03  0.90948726526E+02 0.  0.
         23    2    1    2    0    0 -0.14020237275E+02 -0.53931231950E+02  0.63363511054E+02  0.12306858327E+03  0.89586811657E+02 0.  0.
          5    1    3    3  502    0  0.41867573802E+02 -0.60632087562E+00  0.31059134096E+01  0.42249237380E+02  0.47000000000E+01 0. -1.
         -5    1    4    4    0  503 -0.33020148068E+02 -0.14028279060E+02 -0.97791993831E+01  0.37481269087E+02  0.47000000000E+01 0.  1.
          5    1    4    4  503    0  0.18999910793E+02 -0.39902952891E+02  0.73142710437E+02  0.85587314186E+02  0.47000000000E+01 0. -1.
         -5    1    3    3    0  502 -0.27847336526E+02  0.54537552826E+02  0.37022495156E+02  0.71711742187E+02  0.47000000000E+01 0.  1.
<mgrwt>
<rscale>  0 0.10637125E+03</rscale>
<asrwt>0</asrwt>
<pdfrwt beam="1">  1        2 0.26193960E-01 0.10666216E+03</pdfrwt>
<pdfrwt beam="2">  1       -2 0.10272127E-01 0.10666216E+03</pdfrwt>
<totfact> 0.11921696E+04</totfact>
</mgrwt>
</event>
<event>
 8    1  0.3466492E-004  0.1005607E+03  0.7546771E-02  0.1281729E+00
          1   -1    0    0  501    0  0.00000000000E+00  0.00000000000E+00  0.33135480253E+03  0.33135480253E+03  0.00000000000E+00 0. -1.
         -1   -1    0    0    0  501 -0.00000000000E+00 -0.00000000000E+00 -0.30481331780E+02  0.30481331780E+02  0.00000000000E+00 0.  1.
         23    2    1    2    0    0  0.42905871767E+02 -0.12003880361E+02  0.11493427408E+03  0.15271654725E+03  0.90152368080E+02 0.  0.
         23    2    1    2    0    0 -0.42905871767E+02  0.12003880361E+02  0.18593919667E+03  0.20911958706E+03  0.84691261989E+02 0.  0.
          5    1    3    3  502    0 -0.13178448188E+02  0.25914551677E+02  0.18435523332E+02  0.34744697521E+02  0.47000000000E+01 0. -1.
         -5    1    3    3    0  502  0.56084319955E+02 -0.37918432039E+02  0.96498750746E+02  0.11797184973E+03  0.47000000000E+01 0.  1.
          5    1    4    4  503    0 -0.20514623421E+02  0.85698845176E+01  0.18454857376E+03  0.18594235336E+03  0.47000000000E+01 0. -1.
         -5    1    4    4    0  503 -0.22391248346E+02  0.34339958438E+01  0.13906229093E+01  0.23177233701E+02  0.47000000000E+01 0.  1.
<mgrwt>
<rscale>  0 0.99321680E+02</rscale>
<asrwt>0</asrwt>
<pdfrwt beam="1">  1        1 0.50977660E-01 0.10056071E+03</pdfrwt>
<pdfrwt beam="2">  1       -1 0.46894359E-02 0.10056071E+03</pdfrwt>
<totfact> 0.13714553E+04</totfact>
</mgrwt>
</event>
<event>
 8    1  0.3466492E-004  0.1005884E+03  0.7546771E-02  0.1281341E+00
         -2   -1    0    0    0  501 -0.00000000000E+00  0.00000000000E+00  0.17757115526E+02  0.17757115526E+02  0.00000000000E+00 0.  1.
          2   -1    0    0  501    0  0.00000000000E+00 -0.00000000000E+00 -0.58134640295E+03  0.58134640295E+03  0.00000000000E+00 0. -1.
         23    2    1    2    0    0  0.60520103770E+01  0.32863888368E+02 -0.35002187788E+03  0.36303349235E+03  0.90340132766E+02 0.  0.
         23    2    1    2    0    0 -0.60520103770E+01 -0.32863888368E+02 -0.21356740955E+03  0.23607002612E+03  0.94875480633E+02 0.  0.
          5    1    4    4  502    0 -0.28890527694E+02  0.24661484023E+02 -0.89539581351E+02  0.97376989136E+02  0.47000000000E+01 0. -1.
         -5    1    3    3    0  503 -0.12658555817E+02 -0.17484631412E+02 -0.24146003143E+02  0.32727218623E+02  0.47000000000E+01 0.  1.
          5    1    3    3  503    0  0.18710566194E+02  0.50348519780E+02 -0.32587587473E+03  0.33030627373E+03  0.47000000000E+01 0. -1.
         -5    1    4    4    0  502  0.22838517317E+02 -0.57525372391E+02 -0.12402782820E+03  0.13869303699E+03  0.47000000000E+01 0.  1.
<mgrwt>
<rscale>  0 0.99504475E+02</rscale>
<asrwt>0</asrwt>
<pdfrwt beam="1">  1        2 0.89437907E-01 0.10058836E+03</pdfrwt>
<pdfrwt beam="2">  1       -2 0.27318640E-02 0.10058836E+03</pdfrwt>
<totfact> 0.23314486E+04</totfact>
</mgrwt>
</event>
<event>
 8    1  0.3466492E-004  0.1019228E+03  0.7546771E-02  0.1277431E+00
          2   -1    0    0  501    0  0.00000000000E+00  0.00000000000E+00  0.36549185961E+03  0.36549185961E+03  0.00000000000E+00 0. -1.
         -2   -1    0    0    0  501 -0.00000000000E+00 -0.00000000000E+00 -0.66571894483E+02  0.66571894483E+02  0.00000000000E+00 0.  1.
         23    2    1    2    0    0 -0.32522236868E+02  0.26887070387E+02 -0.14686745452E+02  0.10297548115E+03  0.92777361364E+02 0.  0.
         23    2    1    2    0    0  0.32522236868E+02 -0.26887070387E+02  0.31360671058E+03  0.32908827294E+03  0.90384246536E+02 0.  0.
          5    1    4    4  502    0  0.55937929570E+02 -0.65346488234E+01  0.11632277918E+03  0.12932452418E+03  0.47000000000E+01 0. -1.
         -5    1    3    3    0  503 -0.42543980949E+02  0.56113333480E+02 -0.12233709113E+02  0.71627160686E+02  0.47000000000E+01 0.  1.
          5    1    3    3  503    0  0.10021744080E+02 -0.29226263093E+02 -0.24530363385E+01  0.31348320467E+02  0.47000000000E+01 0. -1.
         -5    1    4    4    0  502 -0.23415692701E+02 -0.20352421564E+02  0.19728393140E+03  0.19976374876E+03  0.47000000000E+01 0.  1.
<mgrwt>
<rscale>  0 0.10137500E+03</rscale>
<asrwt>0</asrwt>
<pdfrwt beam="1">  1        2 0.56229516E-01 0.10192276E+03</pdfrwt>
<pdfrwt beam="2">  1       -2 0.10241830E-01 0.10192276E+03</pdfrwt>
<totfact> 0.53065308E+03</totfact>
</mgrwt>
</event>
<event>
 8    1  0.3466492E-004  0.1070089E+03  0.7546771E-02  0.1267762E+00
          1   -1    0    0  501    0  0.00000000000E+00  0.00000000000E+00  0.57431706506E+02  0.57431706506E+02  0.00000000000E+00 0. -1.
         -1   -1    0    0    0  501 -0.00000000000E+00 -0.00000000000E+00 -0.20232814462E+03  0.20232814462E+03  0.00000000000E+00 0.  1.
         23    2    1    2    0    0 -0.30020450332E+02 -0.43904052157E+02 -0.10060969932E+03  0.14687825814E+03  0.92855360023E+02 0.  0.
         23    2    1    2    0    0  0.30020450332E+02  0.43904052157E+02 -0.44286738802E+02  0.11288159299E+03  0.89174803434E+02 0.  0.
          5    1    3    3  502    0  0.14970142509E+02 -0.41097733229E+02 -0.90229788550E+02  0.10038243664E+03  0.47000000000E+01 0. -1.
         -5    1    4    4    0  503  0.47312179341E+01  0.24034506199E+02 -0.68142320743E+02  0.72563818723E+02  0.47000000000E+01 0.  1.
          5    1    4    4  503    0  0.25289232398E+02  0.19869545958E+02  0.23855581941E+02  0.40317774264E+02  0.47000000000E+01 0. -1.
         -5    1    3    3    0  502 -0.44990592841E+02 -0.28063189285E+01 -0.10379910766E+02  0.46495821508E+02  0.47000000000E+01 0.  1.
<mgrwt>
<rscale>  0 0.10620552E+03</rscale>
<asrwt>0</asrwt>
<pdfrwt beam="1">  1        1 0.88356472E-02 0.10700893E+03</pdfrwt>
<pdfrwt beam="2">  1       -1 0.31127407E-01 0.10700893E+03</pdfrwt>
<totfact> 0.67695092E+03</totfact>
</mgrwt>
</event>
<event>
 8    1  0.3466492E-004  0.1352073E+03  0.7546771E-02  0.1220155E+00
          4   -1    0    0  501    0  0.00000000000E+00  0.00000000000E+00  0.84849845179E+02  0.84849845179E+02  0.00000000000E+00 0. -1.
         -4   -1    0    0    0  501 -0.00000000000E+00 -0.00000000000E+00 -0.26849624186E+03  0.26849624186E+03  0.00000000000E+00 0.  1.
         23    2    1    2    0    0  0.52742316943E+02 -0.84527545152E+02 -0.17093035650E+03  0.21754217613E+03  0.90447519240E+02 0.  0.
         23    2    1    2    0    0 -0.52742316943E+02  0.84527545152E+02 -0.12716040181E+02  0.13580391091E+03  0.91402115150E+02 0.  0.
          5    1    4    4  502    0 -0.33670741208E+02 -0.76328595057E+01  0.14472490902E+02  0.37729595156E+02  0.47000000000E+01 0. -1.
         -5    1    3    3    0  503  0.74696097456E+02 -0.50923391322E+02 -0.13970680850E+03  0.16647156244E+03  0.47000000000E+01 0.  1.
          5    1    3    3  503    0 -0.21953780513E+02 -0.33604153830E+02 -0.31223548001E+02  0.51070613695E+02  0.47000000000E+01 0. -1.
         -5    1    4    4    0  502 -0.19071575736E+02  0.92160404658E+02 -0.27188531083E+02  0.98074315752E+02  0.47000000000E+01 0.  1.
<mgrwt>
<rscale>  0 0.13504611E+03</rscale>
<asrwt>0</asrwt>
<pdfrwt beam="1">  1        4 0.13053823E-01 0.13520727E+03</pdfrwt>
<pdfrwt beam="2">  1       -4 0.41307113E-01 0.13520727E+03</pdfrwt>
<totfact> 0.45480997E+02</totfact>
</mgrwt>
</event>
<event>
 8    1  0.3466492E-004  0.9436546E+02  0.7546771E-02  0.1293020E+00
          2   -1    0    0  501    0  0.00000000000E+00  0.00000000000E+00  0.19856981701E+03  0.19856981701E+03  0.00000000000E+00 0. -1.
         -2   -1    0    0    0  501 -0.00000000000E+00 -0.00000000000E+00 -0.48742920466E+02  0.48742920466E+02  0.00000000000E+00 0.  1.
         23    2    1    2    0    0  0.10358255557E+02 -0.19316076859E+02  0.11111365835E+03  0.14531491753E+03  0.91048206468E+02 0.  0.
         23    2    1    2    0    0 -0.10358255557E+02  0.19316076859E+02  0.38713238201E+02  0.10199781995E+03  0.91784727377E+02 0.  0.
          5    1    4    4  502    0  0.12941167195E+02  0.37696001899E+02  0.54794324744E+02  0.67918851519E+02  0.47000000000E+01 0. -1.
         -5    1    4    4    0  502 -0.23299422751E+02 -0.18379925040E+02 -0.16081086544E+02  0.34078968433E+02  0.47000000000E+01 0.  1.
          5    1    3    3  503    0  0.27280619218E+02  0.29948899402E+02  0.40861330072E+02  0.57731335127E+02  0.47000000000E+01 0. -1.
         -5    1    3    3    0  503 -0.16922363661E+02 -0.49264976261E+02  0.70252328275E+02  0.87583582399E+02  0.47000000000E+01 0.  1.
<mgrwt>
<rscale>  0 0.94185895E+02</rscale>
<asrwt>0</asrwt>
<pdfrwt beam="1">  1        2 0.30549202E-01 0.94365462E+02</pdfrwt>
<pdfrwt beam="2">  1       -2 0.74989110E-02 0.94365462E+02</pdfrwt>
<totfact> 0.16221910E+04</totfact>
</mgrwt>
</event>
<event>
 8    1  0.3466492E-004  0.1086932E+03  0.7546771E-02  0.1263165E+00
          2   -1    0    0  501    0  0.00000000000E+00  0.00000000000E+00  0.90501057110E+02  0.90501057110E+02  0.00000000000E+00 0. -1.
         -2   -1    0    0    0  501 -0.00000000000E+00 -0.00000000000E+00 -0.14778275836E+03  0.14778275836E+03  0.00000000000E+00 0.  1.
         23    2    1    2    0    0  0.38004552856E+02  0.44913894959E+02 -0.69838149774E+02  0.12919586794E+03  0.91392566053E+02 0.  0.
         23    2    1    2    0    0 -0.38004552856E+02 -0.44913894959E+02  0.12556448523E+02  0.10908794754E+03  0.90999515931E+02 0.  0.
          5    1    3    3  502    0  0.46499375362E+02 -0.13248224705E+02 -0.40940184972E+02  0.63528703060E+02  0.47000000000E+01 0. -1.
         -5    1    4    4    0  503 -0.55220020519E+02 -0.61922506919E+02  0.47812066017E+01  0.83238197157E+02  0.47000000000E+01 0.  1.
          5    1    4    4  503    0  0.17215467664E+02  0.17008611960E+02  0.77752419210E+01  0.25849750378E+02  0.47000000000E+01 0. -1.
         -5    1    3    3    0  502 -0.84948225064E+01  0.58162119664E+02 -0.28897964802E+02  0.65667164877E+02  0.47000000000E+01 0.  1.
<mgrwt>
<rscale>  0 0.10861051E+03</rscale>
<asrwt>0</asrwt>
<pdfrwt beam="1">  1        2 0.13923240E-01 0.10869317E+03</pdfrwt>
<pdfrwt beam="2">  1       -2 0.22735809E-01 0.10869317E+03</pdfrwt>
<totfact> 0.66697060E+03</totfact>
</mgrwt>
</event>
<event>
 8    1  0.3466492E-004  0.1109038E+03  0.7546771E-02  0.1259094E+00
         -1   -1    0    0    0  501 -0.00000000000E+00  0.00000000000E+00  0.95828443875E+03  0.95828443875E+03  0.00000000000E+00 0.  1.
          1   -1    0    0  501    0  0.00000000000E+00 -0.00000000000E+00 -0.26286053857E+02  0.26286053857E+02  0.00000000000E+00 0. -1.
         23    2    1    2    0    0  0.35183504579E+02 -0.54027219087E+02  0.81835219213E+03  0.82577785815E+03  0.89732609794E+02 0.  0.
         23    2    1    2    0    0 -0.35183504579E+02  0.54027219087E+02  0.11364619276E+03  0.15879263445E+03  0.90237598758E+02 0.  0.
          5    1    4    4  502    0 -0.10710595142E+02  0.53217026313E+02  0.14254039631E+02  0.56320834366E+02  0.47000000000E+01 0. -1.
         -5    1    4    4    0  502 -0.24472909437E+02  0.81019277406E+00  0.99392153129E+02  0.10247180008E+03  0.47000000000E+01 0.  1.
          5    1    3    3  503    0  0.93044623683E+01  0.24881675711E+02  0.22952683898E+03  0.23110675156E+03  0.47000000000E+01 0. -1.
         -5    1    3    3    0  503  0.25879042210E+02 -0.78908894797E+02  0.58882535315E+03  0.59467110659E+03  0.47000000000E+01 0.  1.
<mgrwt>
<rscale>  0 0.11080099E+03</rscale>
<asrwt>0</asrwt>
<pdfrwt beam="1">  1        1 0.40440090E-02 0.11090376E+03</pdfrwt>
<pdfrwt beam="2">  1       -1 0.14742835E+00 0.11090376E+03</pdfrwt>
<totfact> 0.86694826E+02</totfact>
</mgrwt>
</event>
<event>
 8    1  0.3466492E-004  0.1389348E+03  0.7546771E-02  0.1216689E+00
          2   -1    0    0  501    0  0.00000000000E+00  0.00000000000E+00  0.69622678555E+02  0.69622678555E+02  0.00000000000E+00 0. -1.
         -2   -1    0    0    0  501 -0.00000000000E+00 -0.00000000000E+00 -0.30537448717E+03  0.30537448717E+03  0.00000000000E+00 0.  1.
         23    2    1    2    0    0 -0.59859767376E+02 -0.81204718209E+02 -0.52930476397E+02  0.14867588379E+03  0.95527404868E+02 0.  0.
         23    2    1    2    0    0  0.59859767376E+02  0.81204718209E+02 -0.18282133222E+03  0.22632128193E+03  0.87294244543E+02 0.  0.
          5    1    3    3  502    0  0.84182029047E+01 -0.49922328105E+02  0.84812363180E+01  0.51547321493E+02  0.47000000000E+01 0. -1.
         -5    1    4    4    0  503  0.71026441190E+02  0.48248102913E+02 -0.79181853076E+02  0.11689521222E+03  0.47000000000E+01 0.  1.
          5    1    4    4  503    0 -0.11166673814E+02  0.32956615295E+02 -0.10363947914E+03  0.10942606971E+03  0.47000000000E+01 0. -1.
         -5    1    3    3    0  502 -0.68277970281E+02 -0.31282390103E+02 -0.61411712715E+02  0.97128562302E+02  0.47000000000E+01 0.  1.
<mgrwt>
<rscale>  0 0.13753200E+03</rscale>
<asrwt>0</asrwt>
<pdfrwt beam="1">  1        2 0.10711181E-01 0.13893482E+03</pdfrwt>
<pdfrwt beam="2">  1       -2 0.46980690E-01 0.13893482E+03</pdfrwt>
<totfact> 0.24675949E+03</totfact>
</mgrwt>
</event>
<event>
 8    1  0.3466492E-004  0.1005172E+03  0.7546771E-02  0.1281274E+00
         -2   -1    0    0    0  501 -0.00000000000E+00  0.00000000000E+00  0.56362560927E+02  0.56362560927E+02  0.00000000000E+00 0.  1.
          2   -1    0    0  501    0  0.00000000000E+00 -0.00000000000E+00 -0.51730868534E+03  0.51730868534E+03  0.00000000000E+00 0. -1.
         23    2    1    2    0    0  0.18674088046E+02  0.33749072136E+02 -0.46616632224E+03  0.47688022609E+03  0.92822349748E+02 0.  0.
         23    2    1    2    0    0 -0.18674088046E+02 -0.33749072136E+02  0.52201978178E+01  0.96791020183E+02  0.88620142679E+02 0.  0.
          5    1    4    4  502    0 -0.37372989576E+02 -0.54472805345E+02 -0.56534231584E+01  0.66468624669E+02  0.47000000000E+01 0. -1.
         -5    1    4    4    0  502  0.18698901530E+02  0.20723733209E+02  0.10873620976E+02  0.30322395514E+02  0.47000000000E+01 0.  1.
          5    1    3    3  503    0  0.12150711551E+01 -0.31965897789E+02 -0.14478755358E+03  0.14835370131E+03  0.47000000000E+01 0. -1.
         -5    1    3    3    0  503  0.17459016891E+02  0.65714969925E+02 -0.32137876866E+03  0.32852652478E+03  0.47000000000E+01 0.  1.
<mgrwt>
<rscale>  0 0.99536178E+02</rscale>
<asrwt>0</asrwt>
<pdfrwt beam="1">  1        2 0.79585953E-01 0.10051721E+03</pdfrwt>
<pdfrwt beam="2">  1       -2 0.86711631E-02 0.10051721E+03</pdfrwt>
<totfact> 0.47380276E+03</totfact>
</mgrwt>
</event>
<event>
 8    1  0.3466492E-004  0.9418843E+02  0.7546771E-02  0.1295397E+00
          1   -1    0    0  501    0  0.00000000000E+00  0.00000000000E+00  0.27036868247E+03  0.27036868247E+03  0.00000000000E+00 0. -1.
         -1   -1    0    0    0  501 -0.00000000000E+00 -0.00000000000E+00 -0.31825758101E+02  0.31825758101E+02  0.00000000000E+00 0.  1.
         23    2    1    2    0    0 -0.15666517694E+02  0.86949134768E+01  0.10451855009E+03  0.14069679563E+03  0.92468479435E+02 0.  0.
         23    2    1    2    0    0  0.15666517694E+02 -0.86949134768E+01  0.13402437428E+03  0.16149764495E+03  0.88305804599E+02 0.  0.
          5    1    4    4  502    0 -0.23393967231E+02 -0.35040988917E+02  0.70565855700E+02  0.82321191669E+02  0.47000000000E+01 0. -1.
         -5    1    3    3    0  503 -0.40163180025E+02 -0.18370400435E+02  0.91404545925E+02  0.10162398171E+03  0.47000000000E+01 0. -1.
          5    1    3    3  503    0  0.24496662331E+02  0.27065313912E+02  0.13114004170E+02  0.39072813923E+02  0.47000000000E+01 0.  1.
         -5    1    4    4    0  502  0.39060484925E+02  0.26346075440E+02  0.63458518577E+02  0.79176453277E+02  0.47000000000E+01 0.  1.
<mgrwt>
<rscale>  0 0.93150611E+02</rscale>
<asrwt>0</asrwt>
<pdfrwt beam="1">  1        1 0.41595180E-01 0.94188433E+02</pdfrwt>
<pdfrwt beam="2">  1       -1 0.48962706E-02 0.94188433E+02</pdfrwt>
<totfact> 0.16412932E+04</totfact>
</mgrwt>
</event>
<event>
 8    1  0.3466492E-004  0.2705388E+03  0.7546771E-02  0.1103222E+00
          2   -1    0    0  501    0  0.00000000000E+00  0.00000000000E+00  0.17434518857E+04  0.17434518857E+04  0.00000000000E+00 0. -1.
         -2   -1    0    0    0  501 -0.00000000000E+00 -0.00000000000E+00 -0.51240429664E+02  0.51240429664E+02  0.00000000000E+00 0.  1.
         23    2    1    2    0    0  0.16554280713E+03 -0.17212566021E+03  0.12919272674E+04  0.13199497391E+04  0.12712035831E+03 0.  0.
         23    2    1    2    0    0 -0.16554280713E+03  0.17212566021E+03  0.40028418860E+03  0.47474257627E+03  0.90118911342E+02 0.  0.
          5    1    4    4  502    0 -0.92910247741E+02  0.10307284836E+03  0.31039992334E+03  0.34003901043E+03  0.47000000000E+01 0. -1.
         -5    1    4    4    0  502 -0.72632559393E+02  0.69052811852E+02  0.89884265265E+02  0.13470356584E+03  0.47000000000E+01 0.  1.
          5    1    3    3  503    0  0.64314813861E+02 -0.12235478546E+01  0.20156659068E+03  0.21163429030E+03  0.47000000000E+01 0. -1.
         -5    1    3    3    0  503  0.10122799327E+03 -0.17090211236E+03  0.10903606767E+04  0.11083154488E+04  0.47000000000E+01 0.  1.
<mgrwt>
<rscale>  0 0.26663310E+03</rscale>
<asrwt>0</asrwt>
<pdfrwt beam="1">  1        2 0.26822332E+00 0.27053881E+03</pdfrwt>
<pdfrwt beam="2">  1       -2 0.78831444E-02 0.27053881E+03</pdfrwt>
<totfact> 0.98165946E+02</totfact>
</mgrwt>
</event>
<event>
 8    1  0.3466492E-004  0.1220811E+03  0.7546771E-02  0.1240210E+00
         -2   -1    0    0    0  501 -0.00000000000E+00  0.00000000000E+00  0.78798248952E+02  0.78798248952E+02  0.00000000000E+00 0.  1.
          2   -1    0    0  501    0  0.00000000000E+00 -0.00000000000E+00 -0.20779597743E+03  0.20779597743E+03  0.00000000000E+00 0. -1.
         23    2    1    2    0    0 -0.69440428410E+02  0.39240068865E+02 -0.10930810026E+03  0.16293551080E+03  0.90763229306E+02 0.  0.
         23    2    1    2    0    0  0.69440428410E+02 -0.39240068865E+02 -0.19689628219E+02  0.12365871559E+03  0.92423159323E+02 0.  0.
          5    1    4    4  502    0  0.50387505705E+02 -0.67902376428E+02 -0.20755118830E+01  0.84711458524E+02  0.47000000000E+01 0. -1.
         -5    1    4    4    0  502  0.19052922705E+02  0.28662307563E+02 -0.17614116336E+02  0.38947257063E+02  0.47000000000E+01 0.  1.
          5    1    3    3  503    0 -0.38806940024E+02  0.29478205586E+02 -0.11928802584E+03  0.12894443109E+03  0.47000000000E+01 0. -1.
         -5    1    3    3    0  503 -0.30633488386E+02  0.97618632790E+01  0.99799255811E+01  0.33991079712E+02  0.47000000000E+01 0.  1.
<mgrwt>
<rscale>  0 0.12176694E+03</rscale>
<asrwt>0</asrwt>
<pdfrwt beam="1">  1        2 0.31968612E-01 0.12208111E+03</pdfrwt>
<pdfrwt beam="2">  1       -2 0.12122808E-01 0.12208111E+03</pdfrwt>
<totfact> 0.74807088E+03</totfact>
</mgrwt>
</event>
<event>
 8    1  0.3466492E-004  0.9156405E+02  0.7546771E-02  0.1301062E+00
         -3   -1    0    0    0  501 -0.00000000000E+00  0.00000000000E+00  0.10199199738E+02  0.10199199738E+02  0.00000000000E+00 0.  1.
          3   -1    0    0  501    0  0.00000000000E+00 -0.00000000000E+00 -0.86869120850E+03  0.86869120850E+03  0.00000000000E+00 0. -1.
         23    2    1    2    0    0  0.57208331647E+01 -0.10379140532E+02 -0.30677141384E+03  0.32014477393E+03  0.90793840294E+02 0.  0.
         23    2    1    2    0    0 -0.57208331647E+01  0.10379140532E+02 -0.55172059493E+03  0.55874563431E+03  0.87524936485E+02 0.  0.
          5    1    4    4  502    0 -0.43215499201E+02  0.20638593481E+02 -0.26086693099E+03  0.26526812209E+03  0.47000000000E+01 0. -1.
         -5    1    3    3    0  503  0.34348901682E+02  0.20441636184E+02 -0.81089595911E+02  0.90528007277E+02  0.47000000000E+01 0.  1.
          5    1    3    3  503    0 -0.28628068518E+02 -0.30820776716E+02 -0.22568181793E+03  0.22961676665E+03  0.47000000000E+01 0. -1.
         -5    1    4    4    0  502  0.37494666036E+02 -0.10259452948E+02 -0.29085366393E+03  0.29347751222E+03  0.47000000000E+01 0.  1.
<mgrwt>
<rscale>  0 0.90742977E+02</rscale>
<asrwt>0</asrwt>
<pdfrwt beam="1">  1        3 0.13364486E+00 0.91564054E+02</pdfrwt>
<pdfrwt beam="2">  1       -3 0.15691070E-02 0.91564054E+02</pdfrwt>
<totfact> 0.13591712E+03</totfact>
</mgrwt>
</event>
<event>
 8    1  0.3466492E-004  0.9790198E+02  0.7546771E-02  0.1299583E+00
         -1   -1    0    0    0  501 -0.00000000000E+00  0.00000000000E+00  0.21689331778E+03  0.21689331778E+03  0.00000000000E+00 0.  1.
          1   -1    0    0  501    0  0.00000000000E+00 -0.00000000000E+00 -0.35462356670E+02  0.35462356670E+02  0.00000000000E+00 0. -1.
         23    2    1    2    0    0  0.28162667423E+02  0.19182819137E+02  0.78773074632E+02  0.12565824383E+03  0.91780611080E+02 0.  0.
         23    2    1    2    0    0 -0.28162667423E+02 -0.19182819137E+02  0.10265788648E+03  0.12669743062E+03  0.65973334630E+02 0.  0.
          5    1    4    4  502    0 -0.31155501219E+02 -0.38980934280E+02  0.52991140951E+02  0.72940588926E+02  0.47000000000E+01 0. -1.
         -5    1    3    3    0  503  0.24219178572E+02 -0.14588995550E+02  0.85939942487E+02  0.90593438596E+02  0.47000000000E+01 0.  1.
          5    1    3    3  503    0  0.39434888505E+01  0.33771814687E+02 -0.71668678552E+01  0.35064805239E+02  0.47000000000E+01 0. -1.
         -5    1    4    4    0  502  0.29928337968E+01  0.19798115142E+02  0.49666745527E+02  0.53756841690E+02  0.47000000000E+01 0.  1.
<mgrwt>
<rscale>  0 0.91363552E+02</rscale>
<asrwt>0</asrwt>
<pdfrwt beam="1">  1        1 0.54557473E-02 0.97901976E+02</pdfrwt>
<pdfrwt beam="2">  1       -1 0.33368202E-01 0.97901976E+02</pdfrwt>
<totfact> 0.11386363E+04</totfact>
</mgrwt>
</event>
<event>
 8    1  0.3466492E-004  0.9785536E+02  0.7546771E-02  0.1285836E+00
          1   -1    0    0  501    0  0.00000000000E+00  0.00000000000E+00  0.26021399309E+03  0.26021399309E+03  0.00000000000E+00 0. -1.
         -1   -1    0    0    0  501 -0.00000000000E+00 -0.00000000000E+00 -0.31530961902E+03  0.31530961902E+03  0.00000000000E+00 0.  1.
         23    2    1    2    0    0  0.24995746520E+02  0.18435026454E+02 -0.29828738017E+03  0.31338261720E+03  0.90932205779E+02 0.  0.
         23    2    1    2    0    0 -0.24995746520E+02 -0.18435026454E+02  0.24319175424E+03  0.26214099492E+03  0.92795659069E+02 0.  0.
          5    1    3    3  502    0 -0.26703017868E+02  0.16120026198E+02 -0.45851410422E+02  0.55653825076E+02  0.47000000000E+01 0. -1.
         -5    1    3    3    0  502  0.51698764388E+02  0.23150002555E+01 -0.25243596975E+03  0.25772879212E+03  0.47000000000E+01 0.  1.
          5    1    4    4  503    0  0.75569385305E+01 -0.49345364470E+02  0.15750303334E+03  0.16529176576E+03  0.47000000000E+01 0. -1.
         -5    1    4    4    0  503 -0.32552685050E+02  0.30910338016E+02  0.85688720895E+02  0.96849229160E+02  0.47000000000E+01 0.  1.
<mgrwt>
<rscale>  0 0.97411024E+02</rscale>
<asrwt>0</asrwt>
<pdfrwt beam="1">  1        1 0.40032922E-01 0.97855362E+02</pdfrwt>
<pdfrwt beam="2">  1       -1 0.48509172E-01 0.97855362E+02</pdfrwt>
<totfact> 0.46027474E+02</totfact>
</mgrwt>
</event>
<event>
 8    1  0.4332442E-004  0.1349007E+03  0.7546771E-02  0.1225425E+00
          1   -1    0    0  501    0  0.00000000000E+00  0.00000000000E+00  0.57122262335E+03  0.57122262335E+03  0.00000000000E+00 0. -1.
         -1   -1    0    0    0  501 -0.00000000000E+00 -0.00000000000E+00 -0.67662312256E+02  0.67662312256E+02  0.00000000000E+00 0.  1.
         23    2    1    2    0    0  0.51031949234E+02  0.55628401423E+02  0.49957328147E+03  0.51746657048E+03  0.11180075633E+03 0.  0.
         23    2    1    2    0    0 -0.51031949234E+02 -0.55628401423E+02  0.39870296232E+01  0.12141836513E+03  0.95014441520E+02 0.  0.
          5    1    4    4  502    0  0.23834825733E+02 -0.17630726753E+02  0.19658489432E+02  0.35881578147E+02  0.47000000000E+01 0. -1.
         -5    1    4    4    0  502 -0.74866774967E+02 -0.37997674670E+02 -0.15671459809E+02  0.85536786980E+02  0.47000000000E+01 0.  1.
          5    1    3    3  503    0  0.56901064396E+02  0.86199544418E+02  0.37869372099E+03  0.39255460372E+03  0.47000000000E+01 0. -1.
         -5    1    3    3    0  503 -0.58691151618E+01 -0.30571142995E+02  0.12087956048E+03  0.12491196676E+03  0.47000000000E+01 0.  1.
<mgrwt>
<rscale>  0 0.13137813E+03</rscale>
<asrwt>0</asrwt>
<pdfrwt beam="1">  1        1 0.87880400E-01 0.13490066E+03</pdfrwt>
<pdfrwt beam="2">  1       -1 0.10409587E-01 0.13490066E+03</pdfrwt>
<totfact> 0.21186604E+03</totfact>
</mgrwt>
</event>
<event>
 8    1  0.3466492E-004  0.1312241E+03  0.7546771E-02  0.1227007E+00
         -1   -1    0    0    0  501 -0.00000000000E+00  0.00000000000E+00  0.74303646247E+02  0.74303646247E+02  0.00000000000E+00 0.  1.
          1   -1    0    0  501    0  0.00000000000E+00 -0.00000000000E+00 -0.39486903161E+03  0.39486903161E+03  0.00000000000E+00 0. -1.
         23    2    1    2    0    0  0.81369450143E+02 -0.39817165853E+02 -0.78776148255E+01  0.13146031478E+03  0.94938735159E+02 0.  0.
         23    2    1    2    0    0 -0.81369450143E+02  0.39817165853E+02 -0.31268777053E+03  0.33771236307E+03  0.89830975822E+02 0.  0.
          5    1    3    3  502    0 -0.37391821839E+01  0.23235945848E+02 -0.84209556706E+01  0.25434094386E+02  0.47000000000E+01 0. -1.
         -5    1    4    4    0  503 -0.68165724660E+01  0.44553405486E+02 -0.67082163488E+02  0.80954173820E+02  0.47000000000E+01 0.  1.
          5    1    4    4  503    0 -0.74552877677E+02 -0.47362396333E+01 -0.24560560705E+03  0.25675818925E+03  0.47000000000E+01 0. -1.
         -5    1    3    3    0  502  0.85108632327E+02 -0.63053111701E+02  0.54334084517E+00  0.10602622039E+03  0.47000000000E+01 0.  1.
<mgrwt>
<rscale>  0 0.13030275E+03</rscale>
<asrwt>0</asrwt>
<pdfrwt beam="1">  1        1 0.60749082E-01 0.13122407E+03</pdfrwt>
<pdfrwt beam="2">  1       -1 0.11431330E-01 0.13122407E+03</pdfrwt>
<totfact> 0.29566358E+03</totfact>
</mgrwt>
</event>
<event>
 8    1  0.3593244E-004  0.1103380E+03  0.7546771E-02  0.1264596E+00
         -1   -1    0    0    0  501 -0.00000000000E+00  0.00000000000E+00  0.25477337909E+03  0.25477337909E+03  0.00000000000E+00 0.  1.
          1   -1    0    0  501    0  0.00000000000E+00 -0.00000000000E+00 -0.72328592661E+02  0.72328592661E+02  0.00000000000E+00 0. -1.
         23    2    1    2    0    0 -0.48009397781E+01 -0.33282961844E+02 -0.14089476091E+02  0.10171299855E+03  0.94953758033E+02 0.  0.
         23    2    1    2    0    0  0.48009397781E+01  0.33282961844E+02  0.19653426252E+03  0.22538897321E+03  0.10508885919E+03 0.  0.
          5    1    4    4  502    0  0.38344391801E+02  0.48652631779E+01  0.20731531521E+02  0.44111784906E+02  0.47000000000E+01 0. -1.
         -5    1    3    3    0  503 -0.27947707923E+02  0.17456307977E+02 -0.28611938851E+02  0.43892255709E+02  0.47000000000E+01 0.  1.
          5    1    3    3  503    0  0.23146768145E+02 -0.50739269821E+02  0.14522462760E+02  0.57820742837E+02  0.47000000000E+01 0. -1.
         -5    1    4    4    0  502 -0.33543452023E+02  0.28417698667E+02  0.17580273100E+03  0.18127718830E+03  0.47000000000E+01 0.  1.
<mgrwt>
<rscale>  0 0.10785397E+03</rscale>
<asrwt>0</asrwt>
<pdfrwt beam="1">  1        1 0.11127476E-01 0.11033799E+03</pdfrwt>
<pdfrwt beam="2">  1       -1 0.39195904E-01 0.11033799E+03</pdfrwt>
<totfact> 0.33788491E+03</totfact>
</mgrwt>
</event>
<event>
 8    1  0.3466492E-004  0.1112484E+03  0.7546771E-02  0.1259794E+00
          1   -1    0    0  501    0  0.00000000000E+00  0.00000000000E+00  0.69137458459E+03  0.69137458459E+03  0.00000000000E+00 0. -1.
         -1   -1    0    0    0  501 -0.00000000000E+00 -0.00000000000E+00 -0.21083460227E+02  0.21083460227E+02  0.00000000000E+00 0.  1.
         23    2    1    2    0    0 -0.63875328783E+02  0.14947207149E+02  0.18993555680E+03  0.22011749975E+03  0.89848324029E+02 0.  0.
         23    2    1    2    0    0  0.63875328783E+02 -0.14947207149E+02  0.48035556757E+03  0.49234054507E+03  0.85757007874E+02 0.  0.
          5    1    4    4  502    0  0.40222892135E+02 -0.43490584846E+02  0.39094865146E+03  0.39543931279E+03  0.47000000000E+01 0. -1.
         -5    1    4    4    0  502  0.23652436648E+02  0.28543377698E+02  0.89406916114E+02  0.96901232287E+02  0.47000000000E+01 0.  1.
          5    1    3    3  503    0 -0.75060047579E+02 -0.12063552693E+02  0.16371507237E+03  0.18056648351E+03  0.47000000000E+01 0. -1.
         -5    1    3    3    0  503  0.11184718796E+02  0.27010759842E+02  0.26220484425E+02  0.39551016236E+02  0.47000000000E+01 0.  1.
<mgrwt>
<rscale>  0 0.11041982E+03</rscale>
<asrwt>0</asrwt>
<pdfrwt beam="1">  1        1 0.10636530E+00 0.11124836E+03</pdfrwt>
<pdfrwt beam="2">  1       -1 0.32436098E-02 0.11124836E+03</pdfrwt>
<totfact> 0.91305051E+03</totfact>
</mgrwt>
</event>
<event>
 8    1  0.3466492E-004  0.1227103E+03  0.7546771E-02  0.1242412E+00
          1   -1    0    0  501    0  0.00000000000E+00  0.00000000000E+00  0.51693616777E+03  0.51693616777E+03  0.00000000000E+00 0. -1.
         -1   -1    0    0    0  501 -0.00000000000E+00 -0.00000000000E+00 -0.27346908809E+02  0.27346908809E+02  0.00000000000E+00 0.  1.
         23    2    1    2    0    0  0.66189525573E+02  0.10957283103E+02  0.28229733519E+03  0.30781421991E+03  0.10274576961E+03 0.  0.
         23    2    1    2    0    0 -0.66189525573E+02 -0.10957283103E+02  0.20729192377E+03  0.23646885667E+03  0.91904641705E+02 0.  0.
          5    1    3    3  502    0  0.84378181820E+02  0.21544965835E+02  0.26826785030E+03  0.28208791649E+03  0.47000000000E+01 0. -1.
         -5    1    3    3    0  502 -0.18188656246E+02 -0.10587682731E+02  0.14029484890E+02  0.25726303426E+02  0.47000000000E+01 0.  1.
          5    1    4    4  503    0 -0.19041850763E+02  0.30408947015E+02  0.25949688785E+02  0.44528333532E+02  0.47000000000E+01 0. -1.
         -5    1    4    4    0  503 -0.47147674810E+02 -0.41366230118E+02  0.18134223499E+03  0.19194052314E+03  0.47000000000E+01 0.  1.
<mgrwt>
<rscale>  0 0.12041601E+03</rscale>
<asrwt>0</asrwt>
<pdfrwt beam="1">  1        1 0.79528634E-01 0.12271026E+03</pdfrwt>
<pdfrwt beam="2">  1       -1 0.42072171E-02 0.12271026E+03</pdfrwt>
<totfact> 0.93260356E+03</totfact>
</mgrwt>
</event>
<event>
 8    1  0.3466492E-004  0.1720377E+03  0.7546771E-02  0.1175847E+00
         -1   -1    0    0    0  501 -0.00000000000E+00  0.00000000000E+00  0.27428514699E+03  0.27428514699E+03  0.00000000000E+00 0.  1.
          1   -1    0    0  501    0  0.00000000000E+00 -0.00000000000E+00 -0.16642228912E+03  0.16642228912E+03  0.00000000000E+00 0. -1.
         23    2    1    2    0    0  0.14234134777E+03  0.31057006873E+02 -0.76981193121E+02  0.18847569536E+03  0.91495282322E+02 0.  0.
         23    2    1    2    0    0 -0.14234134777E+03 -0.31057006873E+02  0.18484405099E+03  0.25223174075E+03  0.90707942837E+02 0.  0.
          5    1    3    3  502    0  0.60231476496E+02 -0.22723360806E+02 -0.61202904533E+02  0.88949802757E+02  0.47000000000E+01 0. -1.
         -5    1    3    3    0  502  0.82109871270E+02  0.53780367679E+02 -0.15778288589E+02  0.99525892603E+02  0.47000000000E+01 0.  1.
          5    1    4    4  503    0 -0.43156499982E+02  0.10951442908E+02  0.85478858289E+01  0.45580411853E+02  0.47000000000E+01 0. -1.
         -5    1    4    4    0  503 -0.99184847784E+02 -0.42008449781E+02  0.17629616516E+03  0.20665132889E+03  0.47000000000E+01 0.  1.
<mgrwt>
<rscale>  0 0.17193328E+03</rscale>
<asrwt>0</asrwt>
<pdfrwt beam="1">  1        1 0.25603429E-01 0.17203774E+03</pdfrwt>
<pdfrwt beam="2">  1       -1 0.42197715E-01 0.17203774E+03</pdfrwt>
<totfact> 0.10340469E+03</totfact>
</mgrwt>
</event>
<event>
 8    1  0.3466492E-004  0.1013272E+03  0.7546771E-02  0.1278687E+00
         -1   -1    0    0    0  501 -0.00000000000E+00  0.00000000000E+00  0.62916501703E+02  0.62916501703E+02  0.00000000000E+00 0.  1.
          1   -1    0    0  501    0  0.00000000000E+00 -0.00000000000E+00 -0.22628130718E+03  0.22628130718E+03  0.00000000000E+00 0. -1.
         23    2    1    2    0    0  0.12660222713E+02 -0.42027311251E+02 -0.38516628238E+01  0.10140040845E+03  0.91327057306E+02 0.  0.
         23    2    1    2    0    0 -0.12660222713E+02  0.42027311251E+02 -0.15951314265E+03  0.18779740044E+03  0.88864193024E+02 0.  0.
          5    1    4    4  502    0 -0.14634253704E+00  0.61558767594E+02 -0.15014572814E+03  0.16234325660E+03  0.47000000000E+01 0. -1.
         -5    1    3    3    0  503  0.51045941962E+02 -0.13430016452E+02 -0.54869427751E+01  0.53275229457E+02  0.47000000000E+01 0.  1.
          5    1    3    3  503    0 -0.38385719249E+02 -0.28597294800E+02  0.16352799513E+01  0.48125178988E+02  0.47000000000E+01 0. -1.
         -5    1    4    4    0  502 -0.12513880176E+02 -0.19531456343E+02 -0.93674145106E+01  0.25454143838E+02  0.47000000000E+01 0.  1.
<mgrwt>
<rscale>  0 0.10076912E+03</rscale>
<asrwt>0</asrwt>
<pdfrwt beam="1">  1        1 0.34812509E-01 0.10132723E+03</pdfrwt>
<pdfrwt beam="2">  1       -1 0.96794618E-02 0.10132723E+03</pdfrwt>
<totfact> 0.74608873E+03</totfact>
</mgrwt>
</event>
<event>
 7    1  0.3466492E-004  0.1533589E+03  0.7546771E-02  0.1205953E+00
         -2   -1    0    0    0  501 -0.00000000000E+00  0.00000000000E+00  0.12780767724E+03  0.12780767724E+03  0.00000000000E+00 0.  1.
          2   -1    0    0  501    0  0.00000000000E+00 -0.00000000000E+00 -0.15129789147E+03  0.15129789147E+03  0.00000000000E+00 0. -1.
         23    2    1    2    0    0  0.82295849090E+02  0.15781110446E+02 -0.13556800283E+02  0.12542532935E+03  0.92336754239E+02 0.  0.
          5    1    1    2  502    0 -0.33258086386E+02 -0.21588623125E+02 -0.67045469398E+02  0.78034312487E+02  0.47000000000E+01 0. -1.
         -5    1    3    3    0  503  0.24496887280E+02  0.48134925916E+02 -0.21956702950E+02  0.58491498389E+02  0.47000000000E+01 0.  1.
          5    1    3    3  503    0  0.57798961810E+02 -0.32353815470E+02  0.83999026673E+01  0.66933830957E+02  0.47000000000E+01 0. -1.
         -5    1    1    2    0  502 -0.49037762704E+02  0.58075126795E+01  0.57112055459E+02  0.75645926878E+02  0.47000000000E+01 0.  1.
<mgrwt>
<rscale>  0 0.14562637E+03</rscale>
<asrwt>0</asrwt>
<pdfrwt beam="1">  1        2 0.23276599E-01 0.15335887E+03</pdfrwt>
<pdfrwt beam="2">  1       -2 0.19662720E-01 0.15335887E+03</pdfrwt>
<totfact> 0.48597949E+03</totfact>
</mgrwt>
</event>
<event>
 8    1  0.3466492E-004  0.1504762E+03  0.7546771E-02  0.1200501E+00
          2   -1    0    0  501    0  0.00000000000E+00  0.00000000000E+00  0.13524077674E+03  0.13524077674E+03  0.00000000000E+00 0. -1.
         -2   -1    0    0    0  501 -0.00000000000E+00 -0.00000000000E+00 -0.33016228810E+03  0.33016228810E+03  0.00000000000E+00 0.  1.
         23    2    1    2    0    0  0.10797838033E+03  0.46248377949E+02  0.66686042115E+02  0.16459071901E+03  0.94046974903E+02 0.  0.
         23    2    1    2    0    0 -0.10797838033E+03 -0.46248377949E+02 -0.26160755347E+03  0.30081234584E+03  0.90836734264E+02 0.  0.
          5    1    3    3  502    0  0.28735759139E+02  0.51218806384E+02  0.61067155354E+02  0.84855155670E+02  0.47000000000E+01 0. -1.
         -5    1    4    4    0  503 -0.42424090964E+02 -0.64445245295E+02 -0.10865142489E+03  0.13334247360E+03  0.47000000000E+01 0.  1.
          5    1    4    4  503    0 -0.65554289366E+02  0.18196867346E+02 -0.15295612859E+03  0.16746987224E+03  0.47000000000E+01 0. -1.
         -5    1    3    3    0  502  0.79242621192E+02 -0.49704284350E+01  0.56188867607E+01  0.79735563337E+02  0.47000000000E+01 0.  1.
<mgrwt>
<rscale>  0 0.14997738E+03</rscale>
<asrwt>0</asrwt>
<pdfrwt beam="1">  1        2 0.20806274E-01 0.15047617E+03</pdfrwt>
<pdfrwt beam="2">  1       -2 0.50794197E-01 0.15047617E+03</pdfrwt>
<totfact> 0.97386723E+02</totfact>
</mgrwt>
</event>
<event>
 8    1  0.4112261E-004  0.1314573E+03  0.7546771E-02  0.1225501E+00
         -1   -1    0    0    0  501 -0.00000000000E+00  0.00000000000E+00  0.11434150938E+03  0.11434150938E+03  0.00000000000E+00 0.  1.
          1   -1    0    0  501    0  0.00000000000E+00 -0.00000000000E+00 -0.10526012731E+04  0.10526012731E+04  0.00000000000E+00 0. -1.
         23    2    1    2    0    0  0.42950717097E+02 -0.84451921700E+02 -0.10091369204E+04  0.10175955393E+04  0.90368503034E+02 0.  0.
         23    2    1    2    0    0 -0.42950717097E+02  0.84451921700E+02  0.70877156731E+02  0.14934724311E+03  0.91127034950E+02 0.  0.
          5    1    4    4  502    0 -0.13303234457E+02  0.88053222107E+02  0.21958512747E+02  0.91840145103E+02  0.47000000000E+01 0. -1.
         -5    1    3    3    0  503 -0.23729087717E+02 -0.24359851014E+02 -0.15578634433E+03  0.15952412678E+03  0.47000000000E+01 0.  1.
          5    1    3    3  503    0  0.66679804814E+02 -0.60092070686E+02 -0.85335057609E+03  0.85807141255E+03  0.47000000000E+01 0. -1.
         -5    1    4    4    0  502 -0.29647482639E+02 -0.36013004066E+01  0.48918643983E+02  0.57507098002E+02  0.47000000000E+01 0.  1.
<mgrwt>
<rscale>  0 0.13132596E+03</rscale>
<asrwt>0</asrwt>
<pdfrwt beam="1">  1        1 0.16193866E+00 0.13145732E+03</pdfrwt>
<pdfrwt beam="2">  1       -1 0.17591001E-01 0.13145732E+03</pdfrwt>
<totfact> 0.37370064E+02</totfact>
</mgrwt>
</event>
<event>
 8    1  0.3466492E-004  0.1012989E+03  0.7546771E-02  0.1278690E+00
          1   -1    0    0  501    0  0.00000000000E+00  0.00000000000E+00  0.74760337715E+02  0.74760337715E+02  0.00000000000E+00 0. -1.
         -1   -1    0    0    0  501 -0.00000000000E+00 -0.00000000000E+00 -0.27443550521E+03  0.27443550521E+03  0.00000000000E+00 0.  1.
         23    2    1    2    0    0  0.28269398066E+02 -0.26898748844E+02 -0.22403339952E+03  0.24500950648E+03  0.91192064402E+02 0.  0.
         23    2    1    2    0    0 -0.28269398066E+02  0.26898748844E+02  0.24358232021E+02  0.10418633645E+03  0.93481376105E+02 0.  0.
          5    1    3    3  502    0  0.59642356012E+02 -0.30584314432E+02 -0.15586126155E+03  0.16972752803E+03  0.47000000000E+01 0. -1.
         -5    1    3    3    0  502 -0.31372957946E+02  0.36855655882E+01 -0.68172137968E+02  0.75281978448E+02  0.47000000000E+01 0.  1.
          5    1    4    4  503    0  0.25525168095E+02 -0.48574692108E+00 -0.16849199762E+02  0.30947628164E+02  0.47000000000E+01 0. -1.
         -5    1    4    4    0  503 -0.53794566161E+02  0.27384495765E+02  0.41207431783E+02  0.73238708283E+02  0.47000000000E+01 0.  1.
<mgrwt>
<rscale>  0 0.10076756E+03</rscale>
<asrwt>0</asrwt>
<pdfrwt beam="1">  1        1 0.11501590E-01 0.10129891E+03</pdfrwt>
<pdfrwt beam="2">  1       -1 0.42220848E-01 0.10129891E+03</pdfrwt>
<totfact> 0.28273567E+03</totfact>
</mgrwt>
</event>
<event>
 8    1  0.3466492E-004  0.1698575E+03  0.7546771E-02  0.1178074E+00
         -1   -1    0    0    0  501 -0.00000000000E+00  0.00000000000E+00  0.24313691592E+02  0.24313691592E+02  0.00000000000E+00 0.  1.
          1   -1    0    0  501    0  0.00000000000E+00 -0.00000000000E+00 -0.11861852489E+04  0.11861852489E+04  0.00000000000E+00 0. -1.
         23    2    1    2    0    0  0.13186193726E+03 -0.59833174112E+02 -0.55807930195E+03  0.58326959926E+03  0.88223233532E+02 0.  0.
         23    2    1    2    0    0 -0.13186193726E+03  0.59833174112E+02 -0.60379225537E+03  0.62722934125E+03  0.88791776940E+02 0.  0.
          5    1    4    4  502    0 -0.16791046649E+02  0.48551799891E+02 -0.23977291601E+03  0.24525977610E+03  0.47000000000E+01 0. -1.
         -5    1    4    4    0  502 -0.11507089061E+03  0.11281374220E+02 -0.36401933936E+03  0.38196956515E+03  0.47000000000E+01 0.  1.
          5    1    3    3  503    0  0.74953018537E+02  0.87944094011E+01 -0.32492579272E+03  0.33360778978E+03  0.47000000000E+01 0. -1.
         -5    1    3    3    0  503  0.56908918718E+02 -0.68627583513E+02 -0.23315350923E+03  0.24966180948E+03  0.47000000000E+01 0.  1.
<mgrwt>
<rscale>  0 0.16978329E+03</rscale>
<asrwt>0</asrwt>
<pdfrwt beam="1">  1        1 0.18249002E+00 0.16985747E+03</pdfrwt>
<pdfrwt beam="2">  1       -1 0.37405684E-02 0.16985747E+03</pdfrwt>
<totfact> 0.31568685E+03</totfact>
</mgrwt>
</event>
<event>
 8    1  0.3466492E-004  0.1176313E+03  0.7546771E-02  0.1247440E+00
          2   -1    0    0  501    0  0.00000000000E+00  0.00000000000E+00  0.79270571041E+03  0.79270571041E+03  0.00000000000E+00 0. -1.
         -2   -1    0    0    0  501 -0.00000000000E+00 -0.00000000000E+00 -0.18588455381E+02  0.18588455381E+02  0.00000000000E+00 0.  1.
         23    2    1    2    0    0 -0.34507959844E+02  0.63704562396E+02  0.49154889413E+03  0.50521901053E+03  0.91525202651E+02 0.  0.
         23    2    1    2    0    0  0.34507959844E+02 -0.63704562396E+02  0.28256836090E+03  0.30607515526E+03  0.92671740691E+02 0.  0.
          5    1    3    3  502    0 -0.21773471903E+02 -0.18762336482E+02  0.19328512678E+03  0.19546697824E+03  0.47000000000E+01 0. -1.
         -5    1    3    3    0  502 -0.12734487941E+02  0.82466898878E+02  0.29826376734E+03  0.30975203228E+03  0.47000000000E+01 0.  1.
          5    1    4    4  503    0  0.37342169783E+02 -0.85939916531E+02  0.24094959380E+03  0.25857088709E+03  0.47000000000E+01 0. -1.
         -5    1    4    4    0  503 -0.28342099384E+01  0.22235354135E+02  0.41618767098E+02  0.47504268169E+02  0.47000000000E+01 0.  1.
<mgrwt>
<rscale>  0 0.11740537E+03</rscale>
<asrwt>0</asrwt>
<pdfrwt beam="1">  1        2 0.12195470E+00 0.11763130E+03</pdfrwt>
<pdfrwt beam="2">  1       -2 0.28597630E-02 0.11763130E+03</pdfrwt>
<totfact> 0.15390862E+04</totfact>
</mgrwt>
</event>
<event>
 8    1  0.3466492E-004  0.2225521E+03  0.7546771E-02  0.1132009E+00
         -1   -1    0    0    0  501 -0.00000000000E+00  0.00000000000E+00  0.19882043938E+03  0.19882043938E+03  0.00000000000E+00 0.  1.
          1   -1    0    0  501    0  0.00000000000E+00 -0.00000000000E+00 -0.28492535593E+03  0.28492535593E+03  0.00000000000E+00 0. -1.
         23    2    1    2    0    0  0.20209108112E+03 -0.22419923968E+02  0.42795464697E+02  0.22662944289E+03  0.90476486031E+02 0.  0.
         23    2    1    2    0    0 -0.20209108112E+03  0.22419923968E+02 -0.12890038124E+03  0.25711635242E+03  0.90277640306E+02 0.  0.
          5    1    3    3  502    0  0.15299430195E+03 -0.40374074413E+02  0.63014008607E+02  0.17038244509E+03  0.47000000000E+01 0. -1.
         -5    1    3    3    0  502  0.49096779168E+02  0.17954150446E+02 -0.20218543910E+02  0.56246997793E+02  0.47000000000E+01 0.  1.
          5    1    4    4  503    0 -0.64282932040E+02  0.38825393838E+02 -0.80178015560E+02  0.10995594908E+03  0.47000000000E+01 0. -1.
         -5    1    4    4    0  503 -0.13780814908E+03 -0.16405469870E+02 -0.48722365679E+02  0.14716040334E+03  0.47000000000E+01 0.  1.
<mgrwt>
<rscale>  0 0.22253194E+03</rscale>
<asrwt>0</asrwt>
<pdfrwt beam="1">  1        1 0.43834670E-01 0.22255213E+03</pdfrwt>
<pdfrwt beam="2">  1       -1 0.30587760E-01 0.22255213E+03</pdfrwt>
<totfact> 0.92480055E+02</totfact>
</mgrwt>
</event>
<event>
 8    1  0.3466492E-004  0.1355371E+03  0.7546771E-02  0.1219649E+00
          2   -1    0    0  501    0  0.00000000000E+00  0.00000000000E+00  0.79630587193E+03  0.79630587193E+03  0.00000000000E+00 0. -1.
         -2   -1    0    0    0  501 -0.00000000000E+00 -0.00000000000E+00 -0.37366721552E+02  0.37366721552E+02  0.00000000000E+00 0.  1.
         23    2    1    2    0    0 -0.51950762384E+02  0.84267379079E+02  0.12036598228E+03  0.18087399783E+03  0.91801745682E+02 0.  0.
         23    2    1    2    0    0  0.51950762384E+02 -0.84267379079E+02  0.63857316810E+03  0.65279859566E+03  0.92576684900E+02 0.  0.
          5    1    3    3  502    0 -0.16937410215E+02 -0.18448605826E+02  0.15129624109E+02  0.29634818160E+02  0.47000000000E+01 0. -1.
         -5    1    4    4    0  503 -0.24366546349E+02 -0.29771104917E+02  0.13097276833E+03  0.13658698076E+03  0.47000000000E+01 0.  1.
          5    1    4    4  503    0  0.76317308733E+02 -0.54496274161E+02  0.50760039977E+03  0.51621161490E+03  0.47000000000E+01 0. -1.
         -5    1    3    3    0  502 -0.35013352169E+02  0.10271598490E+03  0.10523635817E+03  0.15123917967E+03  0.47000000000E+01 0.  1.
<mgrwt>
<rscale>  0 0.13540491E+03</rscale>
<asrwt>0</asrwt>
<pdfrwt beam="1">  1        2 0.12250858E+00 0.13553714E+03</pdfrwt>
<pdfrwt beam="2">  1       -2 0.57487270E-02 0.13553714E+03</pdfrwt>
<totfact> 0.54725974E+03</totfact>
</mgrwt>
</event>
<event>
 8    1  0.3466492E-004  0.9710377E+02  0.7546771E-02  0.1286836E+00
          1   -1    0    0  501    0  0.00000000000E+00  0.00000000000E+00  0.10087132871E+03  0.10087132871E+03  0.00000000000E+00 0. -1.
         -1   -1    0    0    0  501 -0.00000000000E+00 -0.00000000000E+00 -0.14359036941E+03  0.14359036941E+03  0.00000000000E+00 0.  1.
         23    2    1    2    0    0 -0.39272831137E+01 -0.32362565482E+02  0.51221670932E+02  0.10978525148E+03  0.91467932483E+02 0.  0.
         23    2    1    2    0    0  0.39272831137E+01  0.32362565482E+02 -0.93940711634E+02  0.13467644663E+03  0.90830219522E+02 0.  0.
          5    1    4    4  502    0 -0.37825426258E+02  0.28591458797E+02 -0.24884874730E+02  0.53754826556E+02  0.47000000000E+01 0. -1.
         -5    1    4    4    0  502  0.41752709372E+02  0.37711066847E+01 -0.69055836904E+02  0.80921620078E+02  0.47000000000E+01 0.  1.
          5    1    3    3  503    0  0.12609915429E+02 -0.51854579203E+02  0.13986842832E+01  0.53590611763E+02  0.47000000000E+01 0. -1.
         -5    1    3    3    0  503 -0.16537198543E+02  0.19492013721E+02  0.49822986648E+02  0.56194639719E+02  0.47000000000E+01 0.  1.
<mgrwt>
<rscale>  0 0.96953303E+02</rscale>
<asrwt>0</asrwt>
<pdfrwt beam="1">  1        1 0.15518666E-01 0.97103769E+02</pdfrwt>
<pdfrwt beam="2">  1       -1 0.22090826E-01 0.97103769E+02</pdfrwt>
<totfact> 0.56615573E+03</totfact>
</mgrwt>
</event>
<event>
 8    1  0.3466492E-004  0.1140914E+03  0.7546771E-02  0.1256113E+00
         -4   -1    0    0    0  501 -0.00000000000E+00  0.00000000000E+00  0.39807956297E+02  0.39807956297E+02  0.00000000000E+00 0.  1.
          4   -1    0    0  501    0  0.00000000000E+00 -0.00000000000E+00 -0.41343975934E+03  0.41343975934E+03  0.00000000000E+00 0. -1.
         23    2    1    2    0    0  0.28445585750E+02 -0.63254776533E+02 -0.76875717592E+02  0.13757440011E+03  0.90589853230E+02 0.  0.
         23    2    1    2    0    0 -0.28445585750E+02  0.63254776533E+02 -0.29675608545E+03  0.31567331552E+03  0.82311298000E+02 0.  0.
          5    1    3    3  502    0  0.17013759087E+01 -0.24056507577E+02 -0.85636365296E+02  0.89091454685E+02  0.47000000000E+01 0. -1.
         -5    1    3    3    0  502  0.26744209841E+02 -0.39198268956E+02  0.87606477041E+01  0.48482945428E+02  0.47000000000E+01 0.  1.
          5    1    4    4  503    0  0.25947650982E+02  0.36721493989E+02 -0.15521409983E+03  0.16166402042E+03  0.47000000000E+01 0. -1.
         -5    1    4    4    0  503 -0.54393236732E+02  0.26533282544E+02 -0.14154198562E+03  0.15400929510E+03  0.47000000000E+01 0.  1.
<mgrwt>
<rscale>  0 0.11244206E+03</rscale>
<asrwt>0</asrwt>
<pdfrwt beam="1">  1        4 0.63606118E-01 0.11409137E+03</pdfrwt>
<pdfrwt beam="2">  1       -4 0.61243009E-02 0.11409137E+03</pdfrwt>
<totfact> 0.64317170E+02</totfact>
</mgrwt>
</event>
<event>
 7    1  0.3466492E-004  0.1959958E+03  0.7546771E-02  0.1160624E+00
          2   -1    0    0  501    0  0.00000000000E+00  0.00000000000E+00  0.67368944004E+03  0.67368944004E+03  0.00000000000E+00 0. -1.
         -2   -1    0    0    0  501 -0.00000000000E+00 -0.00000000000E+00 -0.80766775510E+02  0.80766775510E+02  0.00000000000E+00 0.  1.
         23    2    1    2    0    0 -0.12683067728E+03  0.48946146439E+02  0.51984977513E+03  0.54528165504E+03  0.92771486318E+02 0.  0.
          5    1    1    2  502    0 -0.17079314529E+01  0.37759361533E+02  0.29128449008E+02  0.47950421842E+02  0.47000000000E+01 0. -1.
         -5    1    3    3    0  503 -0.38332512557E+02 -0.32587285357E+01  0.44861192905E+02  0.59284209191E+02  0.47000000000E+01 0.  1.
          5    1    3    3  503    0 -0.88498164724E+02  0.52204874974E+02  0.47498858222E+03  0.48599744585E+03  0.47000000000E+01 0. -1.
         -5    1    1    2    0  502  0.12853860873E+03 -0.86705507972E+02  0.43944440399E+02  0.16122413867E+03  0.47000000000E+01 0.  1.
<mgrwt>
<rscale>  0 0.18762157E+03</rscale>
<asrwt>0</asrwt>
<pdfrwt beam="1">  1        2 0.10364453E+00 0.19599579E+03</pdfrwt>
<pdfrwt beam="2">  1       -2 0.12425658E-01 0.19599579E+03</pdfrwt>
<totfact> 0.20389004E+03</totfact>
</mgrwt>
</event>
<event>
 8    1  0.3466492E-004  0.1076471E+03  0.7546771E-02  0.1266774E+00
          1   -1    0    0  501    0  0.00000000000E+00  0.00000000000E+00  0.68750544851E+03  0.68750544851E+03  0.00000000000E+00 0. -1.
         -1   -1    0    0    0  501 -0.00000000000E+00 -0.00000000000E+00 -0.30942088756E+02  0.30942088756E+02  0.00000000000E+00 0.  1.
         23    2    1    2    0    0 -0.49982523697E+02  0.74366933158E+01  0.78061292057E+02  0.13001526994E+03  0.90867199903E+02 0.  0.
         23    2    1    2    0    0  0.49982523697E+02 -0.74366933158E+01  0.57850206769E+03  0.58843226732E+03  0.95049112643E+02 0.  0.
          5    1    3    3  502    0 -0.40603428037E+01  0.25678014047E+02  0.75862702240E+02  0.80331104687E+02  0.47000000000E+01 0. -1.
         -5    1    4    4    0  503  0.48953668066E+02  0.34025978094E+02  0.23875081031E+03  0.24612652890E+03  0.47000000000E+01 0.  1.
          5    1    4    4  503    0  0.10288556314E+01 -0.41462671410E+02  0.33975125738E+03  0.34230573842E+03  0.47000000000E+01 0. -1.
         -5    1    3    3    0  502 -0.45922180894E+02 -0.18241320732E+02  0.21985898176E+01  0.49684165257E+02  0.47000000000E+01 0.  1.
<mgrwt>
<rscale>  0 0.10671658E+03</rscale>
<asrwt>0</asrwt>
<pdfrwt beam="1">  1        1 0.10577006E+00 0.10764707E+03</pdfrwt>
<pdfrwt beam="2">  1       -1 0.47603219E-02 0.10764707E+03</pdfrwt>
<totfact> 0.52473724E+03</totfact>
</mgrwt>
</event>
<event>
 8    1  0.3466492E-004  0.1153374E+03  0.7546771E-02  0.1254955E+00
         -2   -1    0    0    0  501 -0.00000000000E+00  0.00000000000E+00  0.28829078515E+02  0.28829078515E+02  0.00000000000E+00 0.  1.
          2   -1    0    0  501    0  0.00000000000E+00 -0.00000000000E+00 -0.66925558172E+03  0.66925558172E+03  0.00000000000E+00 0. -1.
         23    2    1    2    0    0  0.18764092425E+02 -0.66416138250E+02 -0.52200200058E+03  0.53277560971E+03  0.81243874265E+02 0.  0.
         23    2    1    2    0    0 -0.18764092425E+02  0.66416138250E+02 -0.11842450263E+03  0.16530905053E+03  0.92409549181E+02 0.  0.
          5    1    3    3  502    0  0.46022364496E+02 -0.38410259639E+02 -0.40227321042E+03  0.40674221800E+03  0.47000000000E+01 0. -1.
         -5    1    4    4    0  503 -0.47857986492E+02  0.13173112062E+02 -0.30734345915E+02  0.58571390381E+02  0.47000000000E+01 0.  1.
          5    1    4    4  503    0  0.29093894066E+02  0.53243026189E+02 -0.87690156713E+02  0.10673766015E+03  0.47000000000E+01 0. -1.
         -5    1    3    3    0  502 -0.27258272070E+02 -0.28005878611E+02 -0.11972879016E+03  0.12603339171E+03  0.47000000000E+01 0.  1.
<mgrwt>
<rscale>  0 0.11308837E+03</rscale>
<asrwt>0</asrwt>
<pdfrwt beam="1">  1        2 0.10296240E+00 0.11533742E+03</pdfrwt>
<pdfrwt beam="2">  1       -2 0.44352428E-02 0.11533742E+03</pdfrwt>
<totfact> 0.98563399E+03</totfact>
</mgrwt>
</event>
<event>
 8    1  0.3466492E-004  0.1132562E+03  0.7546771E-02  0.1255379E+00
          2   -1    0    0  501    0  0.00000000000E+00  0.00000000000E+00  0.67643702526E+02  0.67643702526E+02  0.00000000000E+00 0. -1.
         -2   -1    0    0    0  501 -0.00000000000E+00 -0.00000000000E+00 -0.19853632001E+03  0.19853632001E+03  0.00000000000E+00 0.  1.
         23    2    1    2    0    0  0.30906534416E+01  0.63996576861E+02 -0.32838398642E+02  0.11637483337E+03  0.91430998183E+02 0.  0.
         23    2    1    2    0    0 -0.30906534416E+01 -0.63996576861E+02 -0.98054218840E+02  0.14980518916E+03  0.93390850080E+02 0.  0.
          5    1    4    4  502    0 -0.43074874733E+02 -0.13160998950E+02 -0.23583181533E+02  0.51057939420E+02  0.47000000000E+01 0. -1.
         -5    1    3    3    0  503 -0.39903545508E+02  0.27492445500E+02  0.39945456835E+01  0.48848478982E+02  0.47000000000E+01 0.  1.
          5    1    3    3  503    0  0.42994198949E+02  0.36504131361E+02 -0.36832944326E+02  0.67526354392E+02  0.47000000000E+01 0. -1.
         -5    1    4    4    0  502  0.39984221291E+02 -0.50835577912E+02 -0.74471037307E+02  0.98747249741E+02  0.47000000000E+01 0.  1.
<mgrwt>
<rscale>  0 0.11285138E+03</rscale>
<asrwt>0</asrwt>
<pdfrwt beam="1">  1        2 0.10406723E-01 0.11325619E+03</pdfrwt>
<pdfrwt beam="2">  1       -2 0.30544049E-01 0.11325619E+03</pdfrwt>
<totfact> 0.56451220E+03</totfact>
</mgrwt>
</event>
<event>
 8    1  0.3466492E-004  0.1028042E+03  0.7546771E-02  0.1274647E+00
          1   -1    0    0  501    0  0.00000000000E+00  0.00000000000E+00  0.39634647556E+03  0.39634647556E+03  0.00000000000E+00 0. -1.
         -1   -1    0    0    0  501 -0.00000000000E+00 -0.00000000000E+00 -0.33235876555E+02  0.33235876555E+02  0.00000000000E+00 0.  1.
         23    2    1    2    0    0 -0.41968957901E+02  0.15208788167E+02  0.85341589217E+02  0.13339941717E+03  0.92301229600E+02 0.  0.
         23    2    1    2    0    0  0.41968957901E+02 -0.15208788167E+02  0.27776900979E+03  0.29618293494E+03  0.92606735665E+02 0.  0.
          5    1    4    4  502    0  0.67188567508E+02  0.67618605936E+01  0.20657804593E+03  0.21738584458E+03  0.47000000000E+01 0. -1.
         -5    1    4    4    0  502 -0.25219609607E+02 -0.21970648761E+02  0.71190963855E+02  0.78797090367E+02  0.47000000000E+01 0.  1.
          5    1    3    3  503    0 -0.30333981150E+02  0.32022590233E+02  0.98918657135E+02  0.10840935120E+03  0.47000000000E+01 0. -1.
         -5    1    3    3    0  503 -0.11634976751E+02 -0.16813802066E+02 -0.13577067918E+02  0.24990065970E+02  0.47000000000E+01 0.  1.
<mgrwt>
<rscale>  0 0.10273537E+03</rscale>
<asrwt>0</asrwt>
<pdfrwt beam="1">  1        1 0.60976378E-01 0.10280422E+03</pdfrwt>
<pdfrwt beam="2">  1       -1 0.51132121E-02 0.10280422E+03</pdfrwt>
<totfact> 0.96959952E+03</totfact>
</mgrwt>
</event>
<event>
 8    1  0.3466492E-004  0.1346773E+03  0.7546771E-02  0.1222488E+00
         -1   -1    0    0    0  501 -0.00000000000E+00  0.00000000000E+00  0.25792645273E+02  0.25792645273E+02  0.00000000000E+00 0.  1.
          1   -1    0    0  501    0  0.00000000000E+00 -0.00000000000E+00 -0.71917395024E+03  0.71917395024E+03  0.00000000000E+00 0. -1.
         23    2    1    2    0    0 -0.23879537678E+02  0.88221086046E+02 -0.26299913577E+03  0.29547678673E+03  0.98918116306E+02 0.  0.
         23    2    1    2    0    0  0.23879537678E+02 -0.88221086046E+02 -0.43038216920E+03  0.44948980879E+03  0.91973280359E+02 0.  0.
          5    1    4    4  502    0  0.12285853603E+02 -0.10477152643E+03 -0.39061895563E+03  0.40463968348E+03  0.47000000000E+01 0. -1.
         -5    1    4    4    0  502  0.11593684075E+02  0.16550440380E+02 -0.39763213563E+02  0.44850125306E+02  0.47000000000E+01 0.  1.
          5    1    3    3  503    0  0.26240117667E+02  0.27794215524E+02 -0.16695873013E+03  0.17134284274E+03  0.47000000000E+01 0. -1.
         -5    1    3    3    0  503 -0.50119655345E+02  0.60426870522E+02 -0.96040405639E+02  0.12413394398E+03  0.47000000000E+01 0.  1.
<mgrwt>
<rscale>  0 0.13340565E+03</rscale>
<asrwt>0</asrwt>
<pdfrwt beam="1">  1        1 0.11064215E+00 0.13467734E+03</pdfrwt>
<pdfrwt beam="2">  1       -1 0.39680993E-02 0.13467734E+03</pdfrwt>
<totfact> 0.65057570E+03</totfact>
</mgrwt>
</event>
<event>
 8    1  0.3466492E-004  0.1702136E+03  0.7546771E-02  0.1177887E+00
          1   -1    0    0  501    0  0.00000000000E+00  0.00000000000E+00  0.55177100054E+03  0.55177100054E+03  0.00000000000E+00 0. -1.
         -1   -1    0    0    0  501 -0.00000000000E+00 -0.00000000000E+00 -0.98560307085E+02  0.98560307085E+02  0.00000000000E+00 0.  1.
         23    2    1    2    0    0  0.10320497898E+03 -0.96335943448E+02  0.44997167673E+03  0.48108957434E+03  0.95083053119E+02 0.  0.
         23    2    1    2    0    0 -0.10320497898E+03  0.96335943448E+02  0.32390167211E+01  0.16924173328E+03  0.93275888466E+02 0.  0.
          5    1    3    3  502    0  0.82684877512E+02 -0.94183079799E+02  0.44031666216E+03  0.45782976582E+03  0.47000000000E+01 0. -1.
         -5    1    4    4    0  503 -0.11193312218E+03  0.55927468379E+02 -0.99084438485E+01  0.12560721644E+03  0.47000000000E+01 0.  1.
          5    1    4    4  503    0  0.87281432026E+01  0.40408475069E+02  0.13147460570E+02  0.43634516849E+02  0.47000000000E+01 0. -1.
         -5    1    3    3    0  502  0.20520101470E+02 -0.21528636488E+01  0.96550145709E+01  0.23259808524E+02  0.47000000000E+01 0.  1.
<mgrwt>
<rscale>  0 0.16996233E+03</rscale>
<asrwt>0</asrwt>
<pdfrwt beam="1">  1        1 0.84887845E-01 0.17021360E+03</pdfrwt>
<pdfrwt beam="2">  1       -1 0.15163124E-01 0.17021360E+03</pdfrwt>
<totfact> 0.12435829E+03</totfact>
</mgrwt>
</event>
<event>
 8    1  0.3466492E-004  0.9198083E+02  0.7546771E-02  0.1298798E+00
          4   -1    0    0  501    0  0.00000000000E+00  0.00000000000E+00  0.53470135204E+02  0.53470135204E+02  0.00000000000E+00 0. -1.
         -4   -1    0    0    0  501 -0.00000000000E+00 -0.00000000000E+00 -0.15876129733E+03  0.15876129733E+03  0.00000000000E+00 0.  1.
         23    2    1    2    0    0 -0.53259213689E+01  0.12436254149E+02 -0.39045918501E+02  0.98878423253E+02  0.89829466088E+02 0.  0.
         23    2    1    2    0    0  0.53259213689E+01 -0.12436254149E+02 -0.66245243624E+02  0.11335300928E+03  0.90980473479E+02 0.  0.
          5    1    4    4  502    0 -0.28611978887E+02 -0.35307044728E+02 -0.16063711652E+02  0.48428974544E+02  0.47000000000E+01 0. -1.
         -5    1    3    3    0  503  0.16954248298E+02  0.12788282919E+02 -0.62506470078E+02  0.66182592250E+02  0.47000000000E+01 0.  1.
          5    1    3    3  503    0 -0.22280169667E+02 -0.35202876939E+00  0.23460551577E+02  0.32695831002E+02  0.47000000000E+01 0. -1.
         -5    1    4    4    0  502  0.33937900256E+02  0.22870790579E+02 -0.50181531972E+02  0.64924034737E+02  0.47000000000E+01 0.  1.
<mgrwt>
<rscale>  0 0.91694913E+02</rscale>
<asrwt>0</asrwt>
<pdfrwt beam="1">  1        4 0.82261747E-02 0.91980826E+02</pdfrwt>
<pdfrwt beam="2">  1       -4 0.24424815E-01 0.91980826E+02</pdfrwt>
<totfact> 0.24559452E+03</totfact>
</mgrwt>
</event>
<event>
 8    1  0.3466492E-004  0.1495541E+03  0.7546771E-02  0.1201539E+00
         -1   -1    0    0    0  501 -0.00000000000E+00  0.00000000000E+00  0.52385338474E+02  0.52385338474E+02  0.00000000000E+00 0.  1.
          1   -1    0    0  501    0  0.00000000000E+00 -0.00000000000E+00 -0.56774488335E+03  0.56774488335E+03  0.00000000000E+00 0. -1.
         23    2    1    2    0    0 -0.29633586111E+01 -0.11698738871E+03 -0.41573233552E+03  0.44181423142E+03  0.93121478042E+02 0.  0.
         23    2    1    2    0    0  0.29633586111E+01  0.11698738871E+03 -0.99627209353E+02  0.17831599040E+03  0.90422237194E+02 0.  0.
          5    1    4    4  502    0 -0.20534910211E+02  0.65238638852E+02 -0.10005269241E+03  0.12128641224E+03  0.47000000000E+01 0. -1.
         -5    1    3    3    0  503  0.24400132629E+02 -0.31192297462E+02 -0.24978704837E+03  0.25295055926E+03  0.47000000000E+01 0.  1.
          5    1    3    3  503    0 -0.27363491241E+02 -0.85795091247E+02 -0.16594528715E+03  0.18886367216E+03  0.47000000000E+01 0. -1.
         -5    1    4    4    0  502  0.23498268822E+02  0.51748749858E+02  0.42548305528E+00  0.57029578162E+02  0.47000000000E+01 0.  1.
<mgrwt>
<rscale>  0 0.14913598E+03</rscale>
<asrwt>0</asrwt>
<pdfrwt beam="1">  1        1 0.87345366E-01 0.14955414E+03</pdfrwt>
<pdfrwt beam="2">  1       -1 0.80592829E-02 0.14955414E+03</pdfrwt>
<totfact> 0.31628643E+03</totfact>
</mgrwt>
</event>
<event>
 8    1  0.3466492E-004  0.1304425E+03  0.7546771E-02  0.1228932E+00
         -1   -1    0    0    0  501 -0.00000000000E+00  0.00000000000E+00  0.81061587434E+02  0.81061587434E+02  0.00000000000E+00 0.  1.
          1   -1    0    0  501    0  0.00000000000E+00 -0.00000000000E+00 -0.34078571672E+03  0.34078571672E+03  0.00000000000E+00 0. -1.
         23    2    1    2    0    0 -0.32204447461E+02  0.81990635093E+02  0.69280200021E+01  0.12499951656E+03  0.88415445488E+02 0.  0.
         23    2    1    2    0    0  0.32204447461E+02 -0.81990635093E+02 -0.26665214928E+03  0.29684778759E+03  0.96206286688E+02 0.  0.
          5    1    4    4  502    0  0.54690892360E+02 -0.72131683655E+02 -0.13346746054E+03  0.16133730665E+03  0.47000000000E+01 0. -1.
         -5    1    4    4    0  502 -0.22486444899E+02 -0.98589514379E+01 -0.13318468875E+03  0.13551048094E+03  0.47000000000E+01 0.  1.
          5    1    3    3  503    0  0.30276969362E+02  0.34416015535E+02  0.43697131541E+01  0.46285433908E+02  0.47000000000E+01 0. -1.
         -5    1    3    3    0  503 -0.62481416823E+02  0.47574619559E+02  0.25583068480E+01  0.78714082656E+02  0.47000000000E+01 0.  1.
<mgrwt>
<rscale>  0 0.12901029E+03</rscale>
<asrwt>0</asrwt>
<pdfrwt beam="1">  1        1 0.52428573E-01 0.13044248E+03</pdfrwt>
<pdfrwt beam="2">  1       -1 0.12471013E-01 0.13044248E+03</pdfrwt>
<totfact> 0.31073742E+03</totfact>
</mgrwt>
</event>
<event>
 8    1  0.3466492E-004  0.1842831E+03  0.7546771E-02  0.1163965E+00
          2   -1    0    0  501    0  0.00000000000E+00  0.00000000000E+00  0.30141404761E+03  0.30141404761E+03  0.00000000000E+00 0. -1.
         -2   -1    0    0    0  501 -0.00000000000E+00 -0.00000000000E+00 -0.11851354666E+03  0.11851354666E+03  0.00000000000E+00 0.  1.
         23    2    1    2    0    0  0.72389907199E+02 -0.14201443168E+03  0.42610903672E+02  0.18914535979E+03  0.92476378330E+02 0.  0.
         23    2    1    2    0    0 -0.72389907199E+02  0.14201443168E+03  0.14028959728E+03  0.23078223448E+03  0.90392871265E+02 0.  0.
          5    1    4    4  502    0 -0.39466908934E+02  0.14111069266E+03  0.95402573297E+02  0.17491027836E+03  0.47000000000E+01 0. -1.
         -5    1    4    4    0  502 -0.32922998265E+02  0.90373902742E+00  0.44887023986E+02  0.55871956126E+02  0.47000000000E+01 0.  1.
          5    1    3    3  503    0  0.32647756555E+02 -0.28811586091E+01 -0.10809340829E+02  0.34829713352E+02  0.47000000000E+01 0. -1.
         -5    1    3    3    0  503  0.39742150644E+02 -0.13913327308E+03  0.53420244500E+02  0.15431564644E+03  0.47000000000E+01 0.  1.
<mgrwt>
<rscale>  0 0.18402343E+03</rscale>
<asrwt>0</asrwt>
<pdfrwt beam="1">  1        2 0.46371392E-01 0.18428315E+03</pdfrwt>
<pdfrwt beam="2">  1       -2 0.18232853E-01 0.18428315E+03</pdfrwt>
<totfact> 0.26350483E+03</totfact>
</mgrwt>
</event>
<event>
 7    1  0.3466492E-004  0.2436364E+03  0.7546771E-02  0.1137719E+00
         -1   -1    0    0    0  501 -0.00000000000E+00  0.00000000000E+00  0.20730404349E+03  0.20730404349E+03  0.00000000000E+00 0.  1.
          1   -1    0    0  501    0  0.00000000000E+00 -0.00000000000E+00 -0.18984542931E+03  0.18984542931E+03  0.00000000000E+00 0. -1.
         23    2    1    2    0    0 -0.43523249945E+02 -0.10838470796E+03 -0.25511794450E+02  0.14975273044E+03  0.90185976810E+02 0.  0.
          5    1    3    3  502    0 -0.43634567456E+02 -0.33906120639E+02 -0.46343220829E+02  0.72272986729E+02  0.47000000000E+01 0. -1.
         -5    1    3    3    0  502  0.11131751064E+00 -0.74478587317E+02  0.20831426380E+02  0.77479743710E+02  0.47000000000E+01 0.  1.
          5    1    1    2  503    0 -0.83810815098E+02  0.21884104756E+02  0.33851550125E+02  0.93119193586E+02  0.47000000000E+01 0. -1.
         -5    1    1    2    0  503  0.12733406504E+03  0.86500603200E+02  0.91188585085E+01  0.15427754877E+03  0.47000000000E+01 0.  1.
<mgrwt>
<rscale>  0 0.21493219E+03</rscale>
<asrwt>0</asrwt>
<pdfrwt beam="1">  1        1 0.29206989E-01 0.24363639E+03</pdfrwt>
<pdfrwt beam="2">  1       -1 0.31892930E-01 0.24363639E+03</pdfrwt>
<totfact> 0.14369602E+03</totfact>
</mgrwt>
</event>
<event>
 8    1  0.3466492E-004  0.9431058E+02  0.7546771E-02  0.1292957E+00
          2   -1    0    0  501    0  0.00000000000E+00  0.00000000000E+00  0.69498491711E+02  0.69498491711E+02  0.00000000000E+00 0. -1.
         -2   -1    0    0    0  501 -0.00000000000E+00 -0.00000000000E+00 -0.14814871482E+03  0.14814871482E+03  0.00000000000E+00 0.  1.
         23    2    1    2    0    0 -0.40570862843E+01  0.31127867709E+02  0.12753735896E+01  0.94319206484E+02  0.88933019947E+02 0.  0.
         23    2    1    2    0    0  0.40570862843E+01 -0.31127867709E+02 -0.79925596694E+02  0.12332800004E+03  0.88522824686E+02 0.  0.
          5    1    3    3  502    0  0.26291530339E+02  0.29381925583E+00  0.31525932948E+02  0.41319551613E+02  0.47000000000E+01 0. -1.
         -5    1    3    3    0  502 -0.30348616623E+02  0.30834048453E+02 -0.30250559358E+02  0.52999654871E+02  0.47000000000E+01 0.  1.
          5    1    4    4  503    0  0.38581156777E+02 -0.40979444055E+01 -0.94746554706E+01  0.40213901861E+02  0.47000000000E+01 0. -1.
         -5    1    4    4    0  503 -0.34524070493E+02 -0.27029923303E+02 -0.70450941224E+02  0.83114098181E+02  0.47000000000E+01 0.  1.
<mgrwt>
<rscale>  0 0.94213758E+02</rscale>
<asrwt>0</asrwt>
<pdfrwt beam="1">  1        2 0.10692076E-01 0.94310583E+02</pdfrwt>
<pdfrwt beam="2">  1       -2 0.22792110E-01 0.94310583E+02</pdfrwt>
<totfact> 0.89800967E+03</totfact>
</mgrwt>
</event>
<event>
 8    1  0.3466492E-004  0.1005389E+03  0.7546771E-02  0.1280836E+00
         -3   -1    0    0    0  501 -0.00000000000E+00  0.00000000000E+00  0.14443267843E+03  0.14443267843E+03  0.00000000000E+00 0.  1.
          3   -1    0    0  501    0  0.00000000000E+00 -0.00000000000E+00 -0.68337214033E+02  0.68337214033E+02  0.00000000000E+00 0. -1.
         23    2    1    2    0    0 -0.29725977023E+02 -0.31108941306E+02  0.28130526722E+02  0.10137548090E+03  0.87374261972E+02 0.  0.
         23    2    1    2    0    0  0.29725977023E+02  0.31108941306E+02  0.47964937674E+02  0.11139441156E+03  0.90866273950E+02 0.  0.
          5    1    3    3  502    0  0.97378577873E+01 -0.45716330728E+02 -0.55055941532E+01  0.47299157883E+02  0.47000000000E+01 0. -1.
         -5    1    4    4    0  503  0.19267246826E+02 -0.20199264000E+02  0.51430758238E+02  0.58706472891E+02  0.47000000000E+01 0.  1.
          5    1    4    4  503    0  0.10458730197E+02  0.51308205306E+02 -0.34658205634E+01  0.52687938669E+02  0.47000000000E+01 0. -1.
         -5    1    3    3    0  502 -0.39463834810E+02  0.14607389422E+02  0.33636120875E+02  0.54076323018E+02  0.47000000000E+01 0.  1.
<mgrwt>
<rscale>  0 0.99743407E+02</rscale>
<asrwt>0</asrwt>
<pdfrwt beam="1">  1        3 0.10513418E-01 0.10053895E+03</pdfrwt>
<pdfrwt beam="2">  1       -3 0.22220412E-01 0.10053895E+03</pdfrwt>
<totfact> 0.27226582E+03</totfact>
</mgrwt>
</event>
<event>
 8    1  0.3466492E-004  0.9709818E+02  0.7546771E-02  0.1287625E+00
         -1   -1    0    0    0  501 -0.00000000000E+00  0.00000000000E+00  0.11316870535E+03  0.11316870535E+03  0.00000000000E+00 0.  1.
          1   -1    0    0  501    0  0.00000000000E+00 -0.00000000000E+00 -0.82384110368E+02  0.82384110368E+02  0.00000000000E+00 0. -1.
         23    2    1    2    0    0 -0.63478062220E+01  0.21840986436E+02  0.60339390328E+01  0.97285483816E+02  0.94396682191E+02 0.  0.
         23    2    1    2    0    0  0.63478062220E+01 -0.21840986436E+02  0.24750655949E+02  0.98267331902E+02  0.92339321076E+02 0.  0.
          5    1    4    4  502    0  0.43561840820E+02 -0.27172243751E+02 -0.24706174172E+01  0.51615489502E+02  0.47000000000E+01 0. -1.
         -5    1    3    3    0  503 -0.86697881294E+01  0.45540443457E+02  0.35884362888E+02  0.58812198703E+02  0.47000000000E+01 0.  1.
          5    1    3    3  503    0  0.23219819074E+01 -0.23699457020E+02 -0.29850423855E+02  0.38473285113E+02  0.47000000000E+01 0. -1.
         -5    1    4    4    0  502 -0.37214034598E+02  0.53312573148E+01  0.27221273366E+02  0.46651842400E+02  0.47000000000E+01 0.  1.
<mgrwt>
<rscale>  0 0.96594552E+02</rscale>
<asrwt>0</asrwt>
<pdfrwt beam="1">  1        1 0.12674479E-01 0.97098182E+02</pdfrwt>
<pdfrwt beam="2">  1       -1 0.17410570E-01 0.97098182E+02</pdfrwt>
<totfact> 0.10723299E+04</totfact>
</mgrwt>
</event>
<event>
 8    1  0.3466492E-004  0.9284229E+02  0.7546771E-02  0.1298824E+00
          2   -1    0    0  501    0  0.00000000000E+00  0.00000000000E+00  0.31285780105E+03  0.31285780105E+03  0.00000000000E+00 0. -1.
         -2   -1    0    0    0  501 -0.00000000000E+00 -0.00000000000E+00 -0.94645072151E+02  0.94645072151E+02  0.00000000000E+00 0.  1.
         23    2    1    2    0    0 -0.15044684952E+02 -0.15221601738E+02 -0.63365812609E+02  0.11240514877E+03  0.90341859393E+02 0.  0.
         23    2    1    2    0    0  0.15044684952E+02  0.15221601738E+02  0.28157854151E+03  0.29509772443E+03  0.85663015469E+02 0.  0.
          5    1    4    4  502    0 -0.65090082894E+00  0.37259088793E+02  0.25181710781E+03  0.25460284593E+03  0.47000000000E+01 0. -1.
         -5    1    4    4    0  502  0.15695585781E+02 -0.22037487055E+02  0.29761433695E+02  0.40494878494E+02  0.47000000000E+01 0.  1.
          5    1    3    3  503    0 -0.31000978585E+02  0.20273920909E+02  0.64590176148E+00  0.37344340018E+02  0.47000000000E+01 0. -1.
         -5    1    3    3    0  503  0.15956293634E+02 -0.35495522647E+02 -0.64011714371E+02  0.75060808757E+02  0.47000000000E+01 0.  1.
<mgrwt>
<rscale>  0 0.91684244E+02</rscale>
<asrwt>0</asrwt>
<pdfrwt beam="1">  1        2 0.48131969E-01 0.92842292E+02</pdfrwt>
<pdfrwt beam="2">  1       -2 0.14560780E-01 0.92842292E+02</pdfrwt>
<totfact> 0.35540915E+03</totfact>
</mgrwt>
</event>
<event>
 8    1  0.3466492E-004  0.1082506E+03  0.7546771E-02  0.1269665E+00
          1   -1    0    0  501    0  0.00000000000E+00  0.00000000000E+00  0.26487391014E+03  0.26487391014E+03  0.00000000000E+00 0. -1.
         -1   -1    0    0    0  501 -0.00000000000E+00 -0.00000000000E+00 -0.42105282768E+03  0.42105282768E+03  0.00000000000E+00 0.  1.
         23    2    1    2    0    0  0.17807935970E+02  0.22568589445E+02 -0.40404780230E+03  0.41545089264E+03  0.92294928568E+02 0.  0.
         23    2    1    2    0    0 -0.17807935970E+02 -0.22568589445E+02  0.24786888476E+03  0.27047584518E+03  0.10436347532E+03 0.  0.
          5    1    3    3  502    0  0.48319088121E+02  0.24667444033E+02 -0.15101053510E+03  0.16052877867E+03  0.47000000000E+01 0. -1.
         -5    1    3    3    0  502 -0.30511152151E+02 -0.20988545871E+01 -0.25303726721E+03  0.25492211397E+03  0.47000000000E+01 0.  1.
          5    1    4    4  503    0  0.39640700292E+02  0.63541296497E+01  0.12972713744E+03  0.13587854971E+03  0.47000000000E+01 0. -1.
         -5    1    4    4    0  503 -0.57448636263E+02 -0.28922719095E+02  0.11814174732E+03  0.13459729547E+03  0.47000000000E+01 0.  1.
<mgrwt>
<rscale>  0 0.10523112E+03</rscale>
<asrwt>0</asrwt>
<pdfrwt beam="1">  1        1 0.40749833E-01 0.10825063E+03</pdfrwt>
<pdfrwt beam="2">  1       -1 0.64777358E-01 0.10825063E+03</pdfrwt>
<totfact> 0.26297925E+02</totfact>
</mgrwt>
</event>
<event>
 8    1  0.3466492E-004  0.1191281E+03  0.7546771E-02  0.1245600E+00
          1   -1    0    0  501    0  0.00000000000E+00  0.00000000000E+00  0.38682591504E+03  0.38682591504E+03  0.00000000000E+00 0. -1.
         -1   -1    0    0    0  501 -0.00000000000E+00 -0.00000000000E+00 -0.40028055223E+02  0.40028055223E+02  0.00000000000E+00 0.  1.
         23    2    1    2    0    0 -0.22149963476E+02  0.72215572367E+02  0.24012943871E+03  0.26694885114E+03  0.88847239764E+02 0.  0.
         23    2    1    2    0    0  0.22149963476E+02 -0.72215572367E+02  0.10666842111E+03  0.15990511912E+03  0.92118322210E+02 0.  0.
          5    1    3    3  502    0 -0.39688697949E+02  0.14591534843E+02  0.16574910008E+03  0.17112264552E+03  0.47000000000E+01 0. -1.
         -5    1    4    4    0  503  0.11540138490E+02  0.20825798082E+02  0.13715812878E+02  0.27876552604E+02  0.47000000000E+01 0.  1.
          5    1    4    4  503    0  0.10609824986E+02 -0.93041370450E+02  0.92952608227E+02  0.13202856652E+03  0.47000000000E+01 0. -1.
         -5    1    3    3    0  502  0.17538734473E+02  0.57624037525E+02  0.74380338639E+02  0.95826205620E+02  0.47000000000E+01 0.  1.
<mgrwt>
<rscale>  0 0.11849529E+03</rscale>
<asrwt>0</asrwt>
<pdfrwt beam="1">  1        1 0.59511677E-01 0.11912806E+03</pdfrwt>
<pdfrwt beam="2">  1       -1 0.61581626E-02 0.11912806E+03</pdfrwt>
<totfact> 0.76775193E+03</totfact>
</mgrwt>
</event>
<event>
 8    1  0.3466492E-004  0.1071763E+03  0.7546771E-02  0.1269520E+00
         -2   -1    0    0    0  501 -0.00000000000E+00  0.00000000000E+00  0.11657441772E+03  0.11657441772E+03  0.00000000000E+00 0.  1.
          2   -1    0    0  501    0  0.00000000000E+00 -0.00000000000E+00 -0.12156141160E+03  0.12156141160E+03  0.00000000000E+00 0. -1.
         23    2    1    2    0    0 -0.16954792252E+02  0.38939623730E+02  0.56315674484E+02  0.11466607191E+03  0.90405163453E+02 0.  0.
         23    2    1    2    0    0  0.16954792252E+02 -0.38939623730E+02 -0.61302668357E+02  0.12346975741E+03  0.98402258967E+02 0.  0.
          5    1    3    3  502    0 -0.37000610491E+02 -0.10626366399E+02  0.28164420777E+01  0.38884279414E+02  0.47000000000E+01 0. -1.
         -5    1    4    4    0  503  0.21232014816E+02  0.78257667186E+01  0.19270941868E+02  0.30091531672E+02  0.47000000000E+01 0.  1.
          5    1    4    4  503    0 -0.42772225640E+01 -0.46765390449E+02 -0.80573610225E+02  0.93378225734E+02  0.47000000000E+01 0. -1.
         -5    1    3    3    0  502  0.20045818239E+02  0.49565990129E+02  0.53499232406E+02  0.75781792500E+02  0.47000000000E+01 0.  1.
<mgrwt>
<rscale>  0 0.10530484E+03</rscale>
<asrwt>0</asrwt>
<pdfrwt beam="1">  1        2 0.18701756E-01 0.10717632E+03</pdfrwt>
<pdfrwt beam="2">  1       -2 0.17934526E-01 0.10717632E+03</pdfrwt>
<totfact> 0.70723892E+03</totfact>
</mgrwt>
</event>
<event>
 8    1  0.3466492E-004  0.1002383E+03  0.7546771E-02  0.1280997E+00
         -2   -1    0    0    0  501 -0.00000000000E+00  0.00000000000E+00  0.45849238558E+02  0.45849238558E+02  0.00000000000E+00 0.  1.
          2   -1    0    0  501    0  0.00000000000E+00 -0.00000000000E+00 -0.37101452780E+03  0.37101452780E+03  0.00000000000E+00 0. -1.
         23    2    1    2    0    0 -0.25564335498E+02 -0.26915091031E+02 -0.29914773082E+03  0.31549499092E+03  0.93111583967E+02 0.  0.
         23    2    1    2    0    0  0.25564335498E+02  0.26915091031E+02 -0.26017558425E+02  0.10136877544E+03  0.90668395333E+02 0.  0.
          5    1    4    4  502    0 -0.24212326539E+02  0.99905224190E+01  0.18424206147E+02  0.32366474427E+02  0.47000000000E+01 0. -1.
         -5    1    4    4    0  502  0.49776662038E+02  0.16924568612E+02 -0.44441764572E+02  0.69002301010E+02  0.47000000000E+01 0.  1.
          5    1    3    3  503    0  0.18597803114E+02  0.19763585811E+02 -0.15739443057E+03  0.15978602686E+03  0.47000000000E+01 0. -1.
         -5    1    3    3    0  503 -0.44162138612E+02 -0.46678676842E+02 -0.14175330025E+03  0.15570896406E+03  0.47000000000E+01 0.  1.
<mgrwt>
<rscale>  0 0.99667148E+02</rscale>
<asrwt>0</asrwt>
<pdfrwt beam="1">  1        2 0.57079158E-01 0.10023834E+03</pdfrwt>
<pdfrwt beam="2">  1       -2 0.70537290E-02 0.10023834E+03</pdfrwt>
<totfact> 0.92651795E+03</totfact>
</mgrwt>
</event>
<event>
 8    1  0.3466492E-004  0.1117705E+03  0.7546771E-02  0.1259032E+00
         -3   -1    0    0    0  501 -0.00000000000E+00  0.00000000000E+00  0.33143841556E+02  0.33143841556E+02  0.00000000000E+00 0.  1.
          3   -1    0    0  501    0  0.00000000000E+00 -0.00000000000E+00 -0.39904832243E+03  0.39904832243E+03  0.00000000000E+00 0. -1.
         23    2    1    2    0    0 -0.67463316604E+01 -0.56105294567E+02 -0.12224207996E+03  0.16563750130E+03  0.96433078629E+02 0.  0.
         23    2    1    2    0    0  0.67463316604E+01  0.56105294567E+02 -0.24366240091E+03  0.26655466269E+03  0.92123316880E+02 0.  0.
          5    1    3    3  502    0  0.27039622549E+02  0.89463181417E+01 -0.69365375801E+02  0.75132038145E+02  0.47000000000E+01 0. -1.
         -5    1    4    4    0  503  0.17638137276E+02 -0.20646685469E+02 -0.39888674150E+02  0.48482840603E+02  0.47000000000E+01 0.  1.
          5    1    4    4  503    0 -0.10891805616E+02  0.76751980036E+02 -0.20377372676E+03  0.21807182209E+03  0.47000000000E+01 0. -1.
         -5    1    3    3    0  502 -0.33785954209E+02 -0.65051612708E+02 -0.52876704160E+02  0.90505463154E+02  0.47000000000E+01 0.  1.
<mgrwt>
<rscale>  0 0.11083476E+03</rscale>
<asrwt>0</asrwt>
<pdfrwt beam="1">  1        3 0.61392053E-01 0.11177055E+03</pdfrwt>
<pdfrwt beam="2">  1       -3 0.50990523E-02 0.11177055E+03</pdfrwt>
<totfact> 0.12919685E+03</totfact>
</mgrwt>
</event>
<event>
 8    1  0.3466492E-004  0.1073095E+03  0.7546771E-02  0.1265638E+00
          3   -1    0    0  501    0  0.00000000000E+00  0.00000000000E+00  0.17664270366E+03  0.17664270366E+03  0.00000000000E+00 0. -1.
         -3   -1    0    0    0  501 -0.00000000000E+00 -0.00000000000E+00 -0.69036667308E+02  0.69036667308E+02  0.00000000000E+00 0.  1.
         23    2    1    2    0    0  0.47001584916E+02  0.32076990138E+02  0.82813198398E+02  0.13554836293E+03  0.90979396475E+02 0.  0.
         23    2    1    2    0    0 -0.47001584916E+02 -0.32076990138E+02  0.24792837951E+02  0.11013100804E+03  0.90972918148E+02 0.  0.
          5    1    4    4  502    0 -0.49624652313E+02 -0.53188274849E+02  0.40389918252E+02  0.83336871762E+02  0.47000000000E+01 0. -1.
         -5    1    4    4    0  502  0.26230673977E+01  0.21111284711E+02 -0.15597080301E+02  0.26794136274E+02  0.47000000000E+01 0.  1.
          5    1    3    3  503    0 -0.69834128964E+01 -0.26096672951E+02  0.26406340183E+02  0.38068217671E+02  0.47000000000E+01 0. -1.
         -5    1    3    3    0  503  0.53984997812E+02  0.58173663088E+02  0.56406858215E+02  0.97480145258E+02  0.47000000000E+01 0.  1.
<mgrwt>
<rscale>  0 0.10730815E+03</rscale>
<asrwt>0</asrwt>
<pdfrwt beam="1">  1        3 0.27175800E-01 0.10730952E+03</pdfrwt>
<pdfrwt beam="2">  1       -3 0.10621026E-01 0.10730952E+03</pdfrwt>
<totfact> 0.18907787E+03</totfact>
</mgrwt>
</event>
<event>
 8    1  0.3466492E-004  0.1079332E+03  0.7546771E-02  0.1265180E+00
          1   -1    0    0  501    0  0.00000000000E+00  0.00000000000E+00  0.13582914171E+03  0.13582914171E+03  0.00000000000E+00 0. -1.
         -1   -1    0    0    0  501 -0.00000000000E+00 -0.00000000000E+00 -0.84818365446E+02  0.84818365446E+02  0.00000000000E+00 0.  1.
         23    2    1    2    0    0 -0.18997840377E+02  0.47105863635E+02  0.19144456621E+02  0.10810845914E+03  0.93493574062E+02 0.  0.
         23    2    1    2    0    0  0.18997840377E+02 -0.47105863635E+02  0.31866319641E+02  0.11253904801E+03  0.95234944597E+02 0.  0.
          5    1    3    3  502    0  0.37743195337E+02  0.22845595349E+02  0.10759710590E+02  0.45654478346E+02  0.47000000000E+01 0. -1.
         -5    1    3    3    0  502 -0.56741035714E+02  0.24260268286E+02  0.83847460301E+01  0.62453980795E+02  0.47000000000E+01 0.  1.
          5    1    4    4  503    0 -0.39013537863E+01 -0.48853672348E+02  0.58893463724E+02  0.76762177748E+02  0.47000000000E+01 0. -1.
         -5    1    4    4    0  503  0.22899194163E+02  0.17478087132E+01 -0.27027144083E+02  0.35776870264E+02  0.47000000000E+01 0.  1.
<mgrwt>
<rscale>  0 0.10754780E+03</rscale>
<asrwt>0</asrwt>
<pdfrwt beam="1">  1        1 0.20896791E-01 0.10793320E+03</pdfrwt>
<pdfrwt beam="2">  1       -1 0.13048979E-01 0.10793320E+03</pdfrwt>
<totfact> 0.89555851E+03</totfact>
</mgrwt>
</event>
<event>
 8    1  0.3466492E-004  0.1171713E+03  0.7546771E-02  0.1248691E+00
          1   -1    0    0  501    0  0.00000000000E+00  0.00000000000E+00  0.52517756443E+02  0.52517756443E+02  0.00000000000E+00 0. -1.
         -1   -1    0    0    0  501 -0.00000000000E+00 -0.00000000000E+00 -0.27050097336E+03  0.27050097336E+03  0.00000000000E+00 0.  1.
         23    2    1    2    0    0  0.40440307368E+02  0.56073423000E+02 -0.73804706015E+02  0.13847833632E+03  0.94601626692E+02 0.  0.
         23    2    1    2    0    0 -0.40440307368E+02 -0.56073423000E+02 -0.14417851090E+03  0.18454039349E+03  0.92130703865E+02 0.  0.
          5    1    3    3  502    0  0.61354363447E+02  0.21505949923E+02 -0.14850349393E+02  0.66854219561E+02  0.47000000000E+01 0. -1.
         -5    1    4    4    0  503  0.13168991319E+02  0.17964728617E+02 -0.38573966802E+02  0.44790565094E+02  0.47000000000E+01 0.  1.
          5    1    4    4  503    0 -0.53609298687E+02 -0.74038151617E+02 -0.10560454410E+03  0.13974982839E+03  0.47000000000E+01 0. -1.
         -5    1    3    3    0  502 -0.20914056078E+02  0.34567473077E+02 -0.58954356622E+02  0.71624116758E+02  0.47000000000E+01 0.  1.
<mgrwt>
<rscale>  0 0.11667168E+03</rscale>
<asrwt>0</asrwt>
<pdfrwt beam="1">  1        1 0.80796547E-02 0.11717131E+03</pdfrwt>
<pdfrwt beam="2">  1       -1 0.41615535E-01 0.11717131E+03</pdfrwt>
<totfact> 0.46642521E+03</totfact>
</mgrwt>
</event>
<event>
 8    1  0.3466492E-004  0.1126578E+03  0.7546771E-02  0.1256414E+00
          1   -1    0    0  501    0  0.00000000000E+00  0.00000000000E+00  0.40883273044E+03  0.40883273044E+03  0.00000000000E+00 0. -1.
         -1   -1    0    0    0  501 -0.00000000000E+00 -0.00000000000E+00 -0.39077801512E+02  0.39077801512E+02  0.00000000000E+00 0.  1.
         23    2    1    2    0    0  0.61244739476E+02 -0.11733052423E+02  0.28804453141E+03  0.30874026740E+03  0.91990858277E+02 0.  0.
         23    2    1    2    0    0 -0.61244739476E+02  0.11733052423E+02  0.81710397509E+02  0.13917026454E+03  0.93825320885E+02 0.  0.
          5    1    4    4  502    0 -0.34022450326E+02 -0.12022738693E+02 -0.12247962769E+02  0.38394999203E+02  0.47000000000E+01 0. -1.
         -5    1    4    4    0  502 -0.27222289150E+02  0.23755791115E+02  0.93958360278E+02  0.10077526534E+03  0.47000000000E+01 0.  1.
          5    1    3    3  503    0  0.45803299325E+02 -0.25270915084E+02  0.28196337226E+03  0.28681351899E+03  0.47000000000E+01 0. -1.
         -5    1    3    3    0  503  0.15441440151E+02  0.13537862661E+02  0.60811591519E+01  0.21926748414E+02  0.47000000000E+01 0.  1.
<mgrwt>
<rscale>  0 0.11227503E+03</rscale>
<asrwt>0</asrwt>
<pdfrwt beam="1">  1        1 0.62897340E-01 0.11265777E+03</pdfrwt>
<pdfrwt beam="2">  1       -1 0.60119697E-02 0.11265777E+03</pdfrwt>
<totfact> 0.73948783E+03</totfact>
</mgrwt>
</event>
<event>
 8    1  0.3466492E-004  0.1169863E+03  0.7546771E-02  0.1248648E+00
          1   -1    0    0  501    0  0.00000000000E+00  0.00000000000E+00  0.16544611849E+03  0.16544611849E+03  0.00000000000E+00 0. -1.
         -1   -1    0    0    0  501 -0.00000000000E+00 -0.00000000000E+00 -0.10564164347E+03  0.10564164347E+03  0.00000000000E+00 0.  1.
         23    2    1    2    0    0  0.59123130805E+02 -0.43339708619E+02  0.94034628466E+02  0.14919643425E+03  0.89683831891E+02 0.  0.
         23    2    1    2    0    0 -0.59123130805E+02  0.43339708619E+02 -0.34230153445E+02  0.12189132771E+03  0.91169717710E+02 0.  0.
          5    1    3    3  502    0  0.53546969784E+02 -0.64515785011E+02  0.44959803404E+02  0.95252498187E+02  0.47000000000E+01 0. -1.
         -5    1    3    3    0  502  0.55761610204E+01  0.21176076392E+02  0.49074825062E+02  0.53943936063E+02  0.47000000000E+01 0.  1.
          5    1    4    4  503    0 -0.37322969961E+01  0.20782137712E+02  0.28046346055E+02  0.35419130647E+02  0.47000000000E+01 0. -1.
         -5    1    4    4    0  503 -0.55390833809E+02  0.22557570907E+02 -0.62276499501E+02  0.86472197065E+02  0.47000000000E+01 0.  1.
<mgrwt>
<rscale>  0 0.11669666E+03</rscale>
<asrwt>0</asrwt>
<pdfrwt beam="1">  1        1 0.25453249E-01 0.11698629E+03</pdfrwt>
<pdfrwt beam="2">  1       -1 0.16252561E-01 0.11698629E+03</pdfrwt>
<totfact> 0.49995530E+03</totfact>
</mgrwt>
</event>
<event>
 8    1  0.3466492E-004  0.1012087E+03  0.7546771E-02  0.1278598E+00
         -2   -1    0    0    0  501 -0.00000000000E+00  0.00000000000E+00  0.10936943272E+03  0.10936943272E+03  0.00000000000E+00 0.  1.
          2   -1    0    0  501    0  0.00000000000E+00 -0.00000000000E+00 -0.10800953867E+03  0.10800953867E+03  0.00000000000E+00 0. -1.
         23    2    1    2    0    0  0.33961023353E+02 -0.23107925984E+02  0.42254972336E+02  0.10822035285E+03  0.90768027044E+02 0.  0.
         23    2    1    2    0    0 -0.33961023353E+02  0.23107925984E+02 -0.40895078290E+02  0.10915861854E+03  0.92497941727E+02 0.  0.
          5    1    3    3  502    0  0.14007519560E+02  0.20584169213E+02 -0.17955357784E+02  0.31054846635E+02  0.47000000000E+01 0. -1.
         -5    1    3    3    0  502  0.19953503793E+02 -0.43692095197E+02  0.60210330120E+02  0.77165506215E+02  0.47000000000E+01 0.  1.
          5    1    4    4  503    0 -0.24885989442E+02  0.53875762503E+02 -0.34542456573E+01  0.59631636477E+02  0.47000000000E+01 0. -1.
         -5    1    4    4    0  503 -0.90750339107E+01 -0.30767836519E+02 -0.37440832633E+02  0.49526982068E+02  0.47000000000E+01 0.  1.
<mgrwt>
<rscale>  0 0.10081171E+03</rscale>
<asrwt>0</asrwt>
<pdfrwt beam="1">  1        2 0.16616852E-01 0.10120868E+03</pdfrwt>
<pdfrwt beam="2">  1       -2 0.16826067E-01 0.10120868E+03</pdfrwt>
<totfact> 0.89472778E+03</totfact>
</mgrwt>
</event>
<event>
 8    1  0.3466492E-004  0.1432777E+03  0.7546771E-02  0.1209460E+00
          2   -1    0    0  501    0  0.00000000000E+00  0.00000000000E+00  0.40881303251E+03  0.40881303251E+03  0.00000000000E+00 0. -1.
         -2   -1    0    0    0  501 -0.00000000000E+00 -0.00000000000E+00 -0.57434597015E+02  0.57434597015E+02  0.00000000000E+00 0.  1.
         23    2    1    2    0    0  0.10251670424E+03 -0.36801990975E+02  0.89422688605E+02  0.16766879428E+03  0.90842424842E+02 0.  0.
         23    2    1    2    0    0 -0.10251670424E+03  0.36801990975E+02  0.26195574689E+03  0.29857883524E+03  0.93083007780E+02 0.  0.
          5    1    3    3  502    0 -0.90268828630E+00  0.21666642466E+02  0.80983518865E+01  0.23620574615E+02  0.47000000000E+01 0. -1.
         -5    1    4    4    0  503 -0.21695374541E+02  0.47068357084E+02  0.53114553849E+02  0.74359702431E+02  0.47000000000E+01 0.  1.
          5    1    4    4  503    0 -0.80821329698E+02 -0.10266366109E+02  0.20884119304E+03  0.22421913281E+03  0.47000000000E+01 0. -1.
         -5    1    3    3    0  502  0.10341939253E+03 -0.58468633441E+02  0.81324336719E+02  0.14404821967E+03  0.47000000000E+01 0.  1.
<mgrwt>
<rscale>  0 0.14291500E+03</rscale>
<asrwt>0</asrwt>
<pdfrwt beam="1">  1        2 0.62894311E-01 0.14327773E+03</pdfrwt>
<pdfrwt beam="2">  1       -2 0.88360921E-02 0.14327773E+03</pdfrwt>
<totfact> 0.60558184E+03</totfact>
</mgrwt>
</event>
<event>
 8    1  0.3466492E-004  0.1357592E+03  0.7546771E-02  0.1219233E+00
          1   -1    0    0  501    0  0.00000000000E+00  0.00000000000E+00  0.28553710395E+03  0.28553710395E+03  0.00000000000E+00 0. -1.
         -1   -1    0    0    0  501 -0.00000000000E+00 -0.00000000000E+00 -0.68271785845E+02  0.68271785845E+02  0.00000000000E+00 0.  1.
         23    2    1    2    0    0  0.10049939182E+03  0.37269544106E+01  0.15064442025E+03  0.20279124575E+03  0.91195011129E+02 0.  0.
         23    2    1    2    0    0 -0.10049939182E+03 -0.37269544106E+01  0.66620897846E+02  0.15101764404E+03  0.90851344709E+02 0.  0.
          5    1    4    4  502    0 -0.68155586656E+02 -0.37131153200E+02  0.11257723760E+02  0.78566741530E+02  0.47000000000E+01 0. -1.
         -5    1    4    4    0  502 -0.32343805163E+02  0.33404198789E+02  0.55363174087E+02  0.72450902507E+02  0.47000000000E+01 0.  1.
          5    1    3    3  503    0 -0.42423639993E+01  0.24300524077E+02  0.50266178425E+02  0.56189783913E+02  0.47000000000E+01 0. -1.
         -5    1    3    3    0  503  0.10474175582E+03 -0.20573569666E+02  0.10037824183E+03  0.14660146184E+03  0.47000000000E+01 0.  1.
<mgrwt>
<rscale>  0 0.13570146E+03</rscale>
<asrwt>0</asrwt>
<pdfrwt beam="1">  1        1 0.43928785E-01 0.13575915E+03</pdfrwt>
<pdfrwt beam="2">  1       -1 0.10503352E-01 0.13575915E+03</pdfrwt>
<totfact> 0.50482024E+03</totfact>
</mgrwt>
</event>
<event>
 8    1  0.3466492E-004  0.1062223E+03  0.7546771E-02  0.1274602E+00
          1   -1    0    0  501    0  0.00000000000E+00  0.00000000000E+00  0.61438191565E+03  0.61438191565E+03  0.00000000000E+00 0. -1.
         -1   -1    0    0    0  501 -0.00000000000E+00 -0.00000000000E+00 -0.29980179937E+02  0.29980179937E+02  0.00000000000E+00 0.  1.
         23    2    1    2    0    0  0.35284396049E+02 -0.19343083999E+02  0.84097552297E+02  0.13548272856E+03  0.98305787892E+02 0.  0.
         23    2    1    2    0    0 -0.35284396049E+02  0.19343083999E+02  0.50030418342E+03  0.50887936703E+03  0.83873659372E+02 0.  0.
          5    1    3    3  502    0  0.69076658889E+02 -0.57263299244E+01  0.56089972839E+02  0.89289141058E+02  0.47000000000E+01 0. -1.
         -5    1    4    4    0  503  0.16369620376E+02 -0.20164499334E+02  0.18782431072E+03  0.18966980044E+03  0.47000000000E+01 0. -1.
          5    1    4    4  503    0 -0.51654016425E+02  0.39507583333E+02  0.31247987270E+03  0.31920956658E+03  0.47000000000E+01 0.  1.
         -5    1    3    3    0  502 -0.33792262841E+02 -0.13616754074E+02  0.28007579458E+02  0.46193587504E+02  0.47000000000E+01 0.  1.
<mgrwt>
<rscale>  0 0.10275747E+03</rscale>
<asrwt>0</asrwt>
<pdfrwt beam="1">  1        1 0.94520285E-01 0.10622227E+03</pdfrwt>
<pdfrwt beam="2">  1       -1 0.46123358E-02 0.10622227E+03</pdfrwt>
<totfact> 0.64149775E+03</totfact>
</mgrwt>
</event>
<event>
 8    1  0.3466492E-004  0.1023198E+03  0.7546771E-02  0.1278397E+00
         -3   -1    0    0    0  501 -0.00000000000E+00  0.00000000000E+00  0.53650743309E+02  0.53650743309E+02  0.00000000000E+00 0.  1.
          3   -1    0    0  501    0  0.00000000000E+00 -0.00000000000E+00 -0.29453420735E+03  0.29453420735E+03  0.00000000000E+00 0. -1.
         23    2    1    2    0    0  0.28693016413E+01 -0.34131831986E+02 -0.22880882804E+03  0.25064481348E+03  0.96416429561E+02 0.  0.
         23    2    1    2    0    0 -0.28693016413E+01  0.34131831986E+02 -0.12074635995E+02  0.97540137172E+02  0.90526607572E+02 0.  0.
          5    1    4    4  502    0 -0.38490967188E+02  0.22048511994E+02 -0.31824737053E+02  0.54795942594E+02  0.47000000000E+01 0. -1.
         -5    1    4    4    0  502  0.35621665547E+02  0.12083319992E+02  0.19750101058E+02  0.42744194579E+02  0.47000000000E+01 0.  1.
          5    1    3    3  503    0 -0.31385827255E+02  0.19608249692E+02 -0.10278796534E+03  0.10934811122E+03  0.47000000000E+01 0. -1.
         -5    1    3    3    0  503  0.34255128896E+02 -0.53740081678E+02 -0.12602086270E+03  0.14129670227E+03  0.47000000000E+01 0.  1.
<mgrwt>
<rscale>  0 0.10090839E+03</rscale>
<asrwt>0</asrwt>
<pdfrwt beam="1">  1        3 0.45312955E-01 0.10231981E+03</pdfrwt>
<pdfrwt beam="2">  1       -3 0.82539604E-02 0.10231981E+03</pdfrwt>
<totfact> 0.10825417E+03</totfact>
</mgrwt>
</event>
<event>
 8    1  0.3466492E-004  0.9912671E+02  0.7546771E-02  0.1284593E+00
         -1   -1    0    0    0  501 -0.00000000000E+00  0.00000000000E+00  0.25032140849E+02  0.25032140849E+02  0.00000000000E+00 0.  1.
          1   -1    0    0  501    0  0.00000000000E+00 -0.00000000000E+00 -0.41378948860E+03  0.41378948860E+03  0.00000000000E+00 0. -1.
         23    2    1    2    0    0 -0.14539070297E+02  0.24525300682E+02 -0.25749890485E+03  0.27433794424E+03  0.90237169244E+02 0.  0.
         23    2    1    2    0    0  0.14539070297E+02 -0.24525300682E+02 -0.13125844291E+03  0.16448368521E+03  0.94938026775E+02 0.  0.
          5    1    4    4  502    0  0.38676928113E+02 -0.15765180410E+02 -0.13183471458E+03  0.13837242373E+03  0.47000000000E+01 0. -1.
         -5    1    3    3    0  503  0.10874519712E+02  0.47561958799E+02 -0.20948992134E+03  0.21514765220E+03  0.47000000000E+01 0.  1.
          5    1    3    3  503    0 -0.25413590009E+02 -0.23036658117E+02 -0.48008983506E+02  0.59190292038E+02  0.47000000000E+01 0. -1.
         -5    1    4    4    0  502 -0.24137857816E+02 -0.87601202719E+01  0.57627166977E+00  0.26111261481E+02  0.47000000000E+01 0.  1.
<mgrwt>
<rscale>  0 0.97983957E+02</rscale>
<asrwt>0</asrwt>
<pdfrwt beam="1">  1        1 0.63659924E-01 0.99126706E+02</pdfrwt>
<pdfrwt beam="2">  1       -1 0.38510985E-02 0.99126706E+02</pdfrwt>
<totfact> 0.13861871E+04</totfact>
</mgrwt>
</event>
<event>
 8    1  0.3466492E-004  0.1082134E+03  0.7546771E-02  0.1266992E+00
          1   -1    0    0  501    0  0.00000000000E+00  0.00000000000E+00  0.90700793677E+02  0.90700793677E+02  0.00000000000E+00 0. -1.
         -1   -1    0    0    0  501 -0.00000000000E+00 -0.00000000000E+00 -0.12441472476E+03  0.12441472476E+03  0.00000000000E+00 0.  1.
         23    2    1    2    0    0  0.20750563272E+02  0.41637984847E+02 -0.33219436142E+02  0.11319744343E+03  0.97702725665E+02 0.  0.
         23    2    1    2    0    0 -0.20750563272E+02 -0.41637984847E+02 -0.49449494289E+00  0.10191807501E+03  0.90679335191E+02 0.  0.
          5    1    4    4  502    0 -0.50988863197E+02 -0.48292950123E+02  0.27094360223E+01  0.70437946061E+02  0.47000000000E+01 0. -1.
         -5    1    3    3    0  503  0.36351858154E+02  0.10140452887E+02 -0.58408938398E+02  0.69699214204E+02  0.47000000000E+01 0.  1.
          5    1    3    3  503    0 -0.15601294882E+02  0.31497531960E+02  0.25189502255E+02  0.43498229222E+02  0.47000000000E+01 0. -1.
         -5    1    4    4    0  502  0.30238299925E+02  0.66549652764E+01 -0.32039309652E+01  0.31480128952E+02  0.47000000000E+01 0.  1.
<mgrwt>
<rscale>  0 0.10660367E+03</rscale>
<asrwt>0</asrwt>
<pdfrwt beam="1">  1        1 0.13953968E-01 0.10821336E+03</pdfrwt>
<pdfrwt beam="2">  1       -1 0.19140727E-01 0.10821336E+03</pdfrwt>
<totfact> 0.82321636E+03</totfact>
</mgrwt>
</event>
<event>
 8    1  0.3466492E-004  0.2317289E+03  0.7546771E-02  0.1125538E+00
          2   -1    0    0  501    0  0.00000000000E+00  0.00000000000E+00  0.11656850977E+04  0.11656850977E+04  0.00000000000E+00 0. -1.
         -2   -1    0    0    0  501 -0.00000000000E+00 -0.00000000000E+00 -0.62353872242E+02  0.62353872242E+02  0.00000000000E+00 0.  1.
         23    2    1    2    0    0 -0.11258793520E+03 -0.18034611216E+03  0.23719858999E+03  0.33160439091E+03  0.92182089670E+02 0.  0.
         23    2    1    2    0    0  0.11258793520E+03  0.18034611216E+03  0.86613263547E+03  0.89643457903E+03  0.90600490800E+02 0.  0.
          5    1    3    3  502    0 -0.10112367416E+03 -0.84804438808E+02  0.16427804455E+03  0.21077750410E+03  0.47000000000E+01 0. -1.
         -5    1    3    3    0  502 -0.11464261043E+02 -0.95541673350E+02  0.72920545441E+02  0.12082688681E+03  0.47000000000E+01 0.  1.
          5    1    4    4  503    0  0.95897147329E+02  0.16448431128E+03  0.83986415154E+03  0.86118826894E+03  0.47000000000E+01 0. -1.
         -5    1    4    4    0  503  0.16690787870E+02  0.15861800876E+02  0.26268483926E+02  0.35246310084E+02  0.47000000000E+01 0.  1.
<mgrwt>
<rscale>  0 0.23157263E+03</rscale>
<asrwt>0</asrwt>
<pdfrwt beam="1">  1        2 0.17933615E+00 0.23172894E+03</pdfrwt>
<pdfrwt beam="2">  1       -2 0.95929043E-02 0.23172894E+03</pdfrwt>
<totfact> 0.14847478E+03</totfact>
</mgrwt>
</event>
<event>
 8    1  0.3466492E-004  0.2301243E+03  0.7546771E-02  0.1126751E+00
          2   -1    0    0  501    0  0.00000000000E+00  0.00000000000E+00  0.54169695030E+03  0.54169695030E+03  0.00000000000E+00 0. -1.
         -2   -1    0    0    0  501 -0.00000000000E+00 -0.00000000000E+00 -0.13485036230E+03  0.13485036230E+03  0.00000000000E+00 0.  1.
         23    2    1    2    0    0  0.12328860529E+03  0.17170718429E+03  0.24519833566E+02  0.23030641057E+03  0.88070330862E+02 0.  0.
         23    2    1    2    0    0 -0.12328860529E+03 -0.17170718429E+03  0.38232675443E+03  0.44624090203E+03  0.90960200992E+02 0.  0.
          5    1    4    4  502    0 -0.61568832442E+02 -0.19908776281E+02  0.13082839753E+03  0.14603164076E+03  0.47000000000E+01 0. -1.
         -5    1    3    3    0  503  0.80632132279E+02  0.13104782946E+03 -0.21441031850E+02  0.15542484424E+03  0.47000000000E+01 0.  1.
          5    1    3    3  503    0  0.42656473008E+02  0.40659354836E+02  0.45960865416E+02  0.74881566323E+02  0.47000000000E+01 0. -1.
         -5    1    4    4    0  502 -0.61719772845E+02 -0.15179840801E+03  0.25149835690E+03  0.30020926128E+03  0.47000000000E+01 0.  1.
<mgrwt>
<rscale>  0 0.22984207E+03</rscale>
<asrwt>0</asrwt>
<pdfrwt beam="1">  1        2 0.83337991E-01 0.23012430E+03</pdfrwt>
<pdfrwt beam="2">  1       -2 0.20746210E-01 0.23012430E+03</pdfrwt>
<totfact> 0.11210733E+03</totfact>
</mgrwt>
</event>
<event>
 7    1  0.3466492E-004  0.3440598E+03  0.7546771E-02  0.1116533E+00
          1   -1    0    0  501    0  0.00000000000E+00  0.00000000000E+00  0.22381994430E+03  0.22381994430E+03  0.00000000000E+00 0. -1.
         -1   -1    0    0    0  501 -0.00000000000E+00 -0.00000000000E+00 -0.27555715282E+03  0.27555715282E+03  0.00000000000E+00 0.  1.
         23    2    1    2    0    0  0.18307605009E+02  0.13811452350E+02 -0.11956284434E+03  0.14869563913E+03  0.85376780985E+02 0.  0.
          5    1    3    3  502    0 -0.31903917688E+02  0.18882327546E+02 -0.44295466459E+02  0.57953262257E+02  0.47000000000E+01 0. -1.
         -5    1    3    3    0  502  0.50211522697E+02 -0.50708751957E+01 -0.75267377881E+02  0.90742376870E+02  0.47000000000E+01 0.  1.
          5    1    1    2  503    0  0.15490202664E+03  0.37705252359E+02  0.57763504890E+02  0.16963206186E+03  0.47000000000E+01 0. -1.
         -5    1    1    2    0  503 -0.17320963165E+03 -0.51516704709E+02  0.10062130929E+02  0.18104939613E+03  0.47000000000E+01 0.  1.
<mgrwt>
<rscale>  0 0.24495845E+03</rscale>
<asrwt>0</asrwt>
<pdfrwt beam="1">  1        1 0.34433838E-01 0.34405983E+03</pdfrwt>
<pdfrwt beam="2">  1       -1 0.42393408E-01 0.34405983E+03</pdfrwt>
<totfact> 0.70866792E+02</totfact>
</mgrwt>
</event>
<event>
 8    1  0.3466492E-004  0.9793548E+02  0.7546771E-02  0.1285653E+00
          1   -1    0    0  501    0  0.00000000000E+00  0.00000000000E+00  0.83967251531E+02  0.83967251531E+02  0.00000000000E+00 0. -1.
         -1   -1    0    0    0  501 -0.00000000000E+00 -0.00000000000E+00 -0.13300311517E+03  0.13300311517E+03  0.00000000000E+00 0.  1.
         23    2    1    2    0    0 -0.32856579558E+02 -0.12004183629E+02  0.18201546281E+02  0.99612517411E+02  0.91475144674E+02 0.  0.
         23    2    1    2    0    0  0.32856579558E+02  0.12004183629E+02 -0.67237409919E+02  0.11735784929E+03  0.89601005865E+02 0.  0.
          5    1    3    3  502    0 -0.43926746220E+00 -0.25704657929E+02  0.47078613043E+02  0.53846153077E+02  0.47000000000E+01 0. -1.
         -5    1    3    3    0  502 -0.32417312096E+02  0.13700474300E+02 -0.28877066763E+02  0.45766364334E+02  0.47000000000E+01 0.  1.
          5    1    4    4  503    0 -0.20662922407E+02  0.30653293369E+02 -0.38716089721E+02  0.53736452805E+02  0.47000000000E+01 0. -1.
         -5    1    4    4    0  503  0.53519501965E+02 -0.18649109740E+02 -0.28521320197E+02  0.63621396483E+02  0.47000000000E+01 0.  1.
<mgrwt>
<rscale>  0 0.97495474E+02</rscale>
<asrwt>0</asrwt>
<pdfrwt beam="1">  1        1 0.12918039E-01 0.97935475E+02</pdfrwt>
<pdfrwt beam="2">  1       -1 0.20462018E-01 0.97935475E+02</pdfrwt>
<totfact> 0.81083058E+03</totfact>
</mgrwt>
</event>
<event>
 8    1  0.3466492E-004  0.9005211E+02  0.7546771E-02  0.1303511E+00
          1   -1    0    0  501    0  0.00000000000E+00  0.00000000000E+00  0.24367176193E+03  0.24367176193E+03  0.00000000000E+00 0. -1.
         -1   -1    0    0    0  501 -0.00000000000E+00 -0.00000000000E+00 -0.33313784649E+02  0.33313784649E+02  0.00000000000E+00 0.  1.
         23    2    1    2    0    0 -0.44035380573E+01 -0.73629654203E+01  0.12303041382E+03  0.15246594849E+03  0.89642502841E+02 0.  0.
         23    2    1    2    0    0  0.44035380573E+01  0.73629654203E+01  0.87327563462E+02  0.12451959809E+03  0.88348302543E+02 0.  0.
          5    1    3    3  502    0  0.28993167054E+02 -0.35511213276E+02  0.65232148712E+02  0.79868474568E+02  0.47000000000E+01 0. -1.
         -5    1    4    4    0  503 -0.17482975925E+02 -0.13640316786E+02 -0.82591714923E+01  0.24125020268E+02  0.47000000000E+01 0.  1.
          5    1    4    4  503    0  0.21886513982E+02  0.21003282206E+02  0.95586734954E+02  0.10039457783E+03  0.47000000000E+01 0. -1.
         -5    1    3    3    0  502 -0.33396705112E+02  0.28148247856E+02  0.57798265109E+02  0.72597473918E+02  0.47000000000E+01 0.  1.
<mgrwt>
<rscale>  0 0.89728312E+02</rscale>
<asrwt>0</asrwt>
<pdfrwt beam="1">  1        1 0.37487962E-01 0.90052111E+02</pdfrwt>
<pdfrwt beam="2">  1       -1 0.51251978E-02 0.90052111E+02</pdfrwt>
<totfact> 0.17347930E+04</totfact>
</mgrwt>
</event>
<event>
 8    1  0.3466492E-004  0.9182103E+02  0.7546771E-02  0.1299181E+00
         -2   -1    0    0    0  501 -0.00000000000E+00  0.00000000000E+00  0.28213668208E+03  0.28213668208E+03  0.00000000000E+00 0.  1.
          2   -1    0    0  501    0  0.00000000000E+00 -0.00000000000E+00 -0.33400143669E+02  0.33400143669E+02  0.00000000000E+00 0. -1.
         23    2    1    2    0    0  0.82180926659E+01 -0.31414787460E+01  0.17889227897E+03  0.20108095287E+03  0.91398556877E+02 0.  0.
         23    2    1    2    0    0 -0.82180926659E+01  0.31414787460E+01  0.69844259440E+02  0.11445587287E+03  0.90246996194E+02 0.  0.
          5    1    4    4  502    0 -0.46779394689E+02  0.54907195025E+01  0.55584270644E+02  0.73007951013E+02  0.47000000000E+01 0. -1.
         -5    1    3    3    0  503  0.35458007378E+02 -0.68279202657E+01  0.16672469614E+03  0.17065492986E+03  0.47000000000E+01 0.  1.
          5    1    3    3  503    0 -0.27239914712E+02  0.36864415196E+01  0.12167582824E+02  0.30426023013E+02  0.47000000000E+01 0. -1.
         -5    1    4    4    0  502  0.38561302023E+02 -0.23492407565E+01  0.14259988796E+02  0.41447921857E+02  0.47000000000E+01 0.  1.
<mgrwt>
<rscale>  0 0.91533133E+02</rscale>
<asrwt>0</asrwt>
<pdfrwt beam="1">  1        2 0.51384838E-02 0.91821033E+02</pdfrwt>
<pdfrwt beam="2">  1       -2 0.43405642E-01 0.91821033E+02</pdfrwt>
<totfact> 0.70104943E+03</totfact>
</mgrwt>
</event>
<event>
 8    1  0.3466492E-004  0.9813098E+02  0.7546771E-02  0.1285722E+00
         -1   -1    0    0    0  501 -0.00000000000E+00  0.00000000000E+00  0.49179545102E+02  0.49179545102E+02  0.00000000000E+00 0.  1.
          1   -1    0    0  501    0  0.00000000000E+00 -0.00000000000E+00 -0.28236045043E+03  0.28236045043E+03  0.00000000000E+00 0. -1.
         23    2    1    2    0    0 -0.41906641212E+01 -0.32036292820E+02 -0.23155094625E+02  0.10082582604E+03  0.92659608606E+02 0.  0.
         23    2    1    2    0    0  0.41906641212E+01  0.32036292820E+02 -0.21002581071E+03  0.23071416949E+03  0.89857115005E+02 0.  0.
          5    1    4    4  502    0  0.99151022747E+01  0.56649833468E+02 -0.18866876225E+03  0.19729547571E+03  0.47000000000E+01 0. -1.
         -5    1    4    4    0  502 -0.57244381536E+01 -0.24613540648E+02 -0.21357048455E+02  0.33418693783E+02  0.47000000000E+01 0.  1.
          5    1    3    3  503    0  0.34484840972E+02 -0.13948549508E+02 -0.39872997288E+02  0.54733099701E+02  0.47000000000E+01 0. -1.
         -5    1    3    3    0  503 -0.38675505093E+02 -0.18087743313E+02  0.16717902663E+02  0.46092726343E+02  0.47000000000E+01 0.  1.
<mgrwt>
<rscale>  0 0.97463759E+02</rscale>
<asrwt>0</asrwt>
<pdfrwt beam="1">  1        1 0.43440069E-01 0.98130978E+02</pdfrwt>
<pdfrwt beam="2">  1       -1 0.75660839E-02 0.98130978E+02</pdfrwt>
<totfact> 0.82147663E+03</totfact>
</mgrwt>
</event>
<event>
 8    1  0.3466492E-004  0.1375535E+03  0.7546771E-02  0.1217551E+00
          1   -1    0    0  501    0  0.00000000000E+00  0.00000000000E+00  0.34917861138E+03  0.34917861138E+03  0.00000000000E+00 0. -1.
         -1   -1    0    0    0  501 -0.00000000000E+00 -0.00000000000E+00 -0.54728139718E+02  0.54728139718E+02  0.00000000000E+00 0.  1.
         23    2    1    2    0    0  0.84281811202E+02  0.60318211593E+02  0.17982585961E+03  0.22485436490E+03  0.86489509673E+02 0.  0.
         23    2    1    2    0    0 -0.84281811202E+02 -0.60318211593E+02  0.11462461206E+03  0.17905238619E+03  0.90439178256E+02 0.  0.
          5    1    4    4  502    0 -0.54081547311E+02  0.14209654156E+02  0.57188617727E+02  0.80120883847E+02  0.47000000000E+01 0. -1.
         -5    1    4    4    0  502 -0.30200263891E+02 -0.74527865750E+02  0.57435994328E+02  0.98931502348E+02  0.47000000000E+01 0.  1.
          5    1    3    3  503    0  0.45811234863E+02  0.48063170172E+02  0.17066518618E+03  0.18318688092E+03  0.47000000000E+01 0. -1.
         -5    1    3    3    0  503  0.38470576339E+02  0.12255041422E+02  0.91606734281E+01  0.41667483987E+02  0.47000000000E+01 0.  1.
<mgrwt>
<rscale>  0 0.13690792E+03</rscale>
<asrwt>0</asrwt>
<pdfrwt beam="1">  1        1 0.53719785E-01 0.13755346E+03</pdfrwt>
<pdfrwt beam="2">  1       -1 0.84197140E-02 0.13755346E+03</pdfrwt>
<totfact> 0.55096307E+03</totfact>
</mgrwt>
</event>
<event>
 8    1  0.3466492E-004  0.9997338E+02  0.7546771E-02  0.1280873E+00
         -1   -1    0    0    0  501 -0.00000000000E+00  0.00000000000E+00  0.48960310182E+02  0.48960310182E+02  0.00000000000E+00 0.  1.
          1   -1    0    0  501    0  0.00000000000E+00 -0.00000000000E+00 -0.39507247661E+03  0.39507247661E+03  0.00000000000E+00 0. -1.
         23    2    1    2    0    0 -0.43104749872E+02 -0.10379009936E+02 -0.32864591525E+03  0.34351537619E+03  0.89604312171E+02 0.  0.
         23    2    1    2    0    0  0.43104749872E+02  0.10379009936E+02 -0.17466251176E+02  0.10051741060E+03  0.88503878982E+02 0.  0.
          5    1    3    3  502    0 -0.59401890237E+02 -0.35674889842E+02 -0.22259060984E+03  0.23317365185E+03  0.47000000000E+01 0. -1.
         -5    1    4    4    0  503 -0.13555843613E+02 -0.26879739633E+02 -0.57653794789E+00  0.30474640191E+02  0.47000000000E+01 0.  1.
          5    1    4    4  503    0  0.56660593485E+02  0.37258749569E+02 -0.16889713228E+02  0.70042770409E+02  0.47000000000E+01 0. -1.
         -5    1    3    3    0  502  0.16297140365E+02  0.25295879905E+02 -0.10605530541E+03  0.11034172434E+03  0.47000000000E+01 0.  1.
<mgrwt>
<rscale>  0 0.99726188E+02</rscale>
<asrwt>0</asrwt>
<pdfrwt beam="1">  1        1 0.60780380E-01 0.99973377E+02</pdfrwt>
<pdfrwt beam="2">  1       -1 0.75323555E-02 0.99973377E+02</pdfrwt>
<totfact> 0.54754386E+03</totfact>
</mgrwt>
</event>
<event>
 8    1  0.3466492E-004  0.9997380E+02  0.7546771E-02  0.1283300E+00
         -1   -1    0    0    0  501 -0.00000000000E+00  0.00000000000E+00  0.26120601211E+03  0.26120601211E+03  0.00000000000E+00 0.  1.
          1   -1    0    0  501    0  0.00000000000E+00 -0.00000000000E+00 -0.53998893902E+02  0.53998893902E+02  0.00000000000E+00 0. -1.
         23    2    1    2    0    0  0.26895976709E+02  0.31769556442E+02  0.19598172026E+03  0.22000816914E+03  0.90895882920E+02 0.  0.
         23    2    1    2    0    0 -0.26895976709E+02 -0.31769556442E+02  0.11225397948E+02  0.95196736874E+02  0.84874677453E+02 0.  0.
          5    1    3    3  502    0  0.27764988835E+02 -0.16086849223E+02  0.21236832443E+02  0.38765633945E+02  0.47000000000E+01 0. -1.
         -5    1    4    4    0  503 -0.46163643441E+02 -0.20375362291E+02  0.35475656182E+02  0.61861535268E+02  0.47000000000E+01 0.  1.
          5    1    4    4  503    0  0.19267666732E+02 -0.11394194150E+02 -0.24250258234E+02  0.33335201605E+02  0.47000000000E+01 0. -1.
         -5    1    3    3    0  502 -0.86901212632E+00  0.47856405664E+02  0.17474488782E+03  0.18124253519E+03  0.47000000000E+01 0.  1.
<mgrwt>
<rscale>  0 0.98584813E+02</rscale>
<asrwt>0</asrwt>
<pdfrwt beam="1">  1        1 0.83075223E-02 0.99973796E+02</pdfrwt>
<pdfrwt beam="2">  1       -1 0.40185539E-01 0.99973796E+02</pdfrwt>
<totfact> 0.47245968E+03</totfact>
</mgrwt>
</event>
<event>
 8    1  0.3466492E-004  0.1163844E+03  0.7546771E-02  0.1249755E+00
         -2   -1    0    0    0  501 -0.00000000000E+00  0.00000000000E+00  0.54997232420E+02  0.54997232420E+02  0.00000000000E+00 0.  1.
          2   -1    0    0  501    0  0.00000000000E+00 -0.00000000000E+00 -0.35570182755E+03  0.35570182755E+03  0.00000000000E+00 0. -1.
         23    2    1    2    0    0  0.70952144091E+02 -0.13001820675E+02 -0.26627190928E+03  0.29059605740E+03  0.91335014170E+02 0.  0.
         23    2    1    2    0    0 -0.70952144091E+02  0.13001820675E+02 -0.34432685851E+02  0.12010300257E+03  0.89642999055E+02 0.  0.
          5    1    3    3  502    0  0.19299503108E+02  0.38183490848E+02 -0.86498024277E+02  0.96614947070E+02  0.47000000000E+01 0. -1.
         -5    1    4    4    0  503 -0.82804110496E+02 -0.60749650673E+01 -0.45318693842E+02  0.94706387995E+02  0.47000000000E+01 0.  1.
          5    1    4    4  503    0  0.11851966405E+02  0.19076785742E+02  0.10886007991E+02  0.25396614575E+02  0.47000000000E+01 0. -1.
         -5    1    3    3    0  502  0.51652640983E+02 -0.51185311522E+02 -0.17977388500E+03  0.19398111033E+03  0.47000000000E+01 0.  1.
<mgrwt>
<rscale>  0 0.11605226E+03</rscale>
<asrwt>0</asrwt>
<pdfrwt beam="1">  1        2 0.54723357E-01 0.11638444E+03</pdfrwt>
<pdfrwt beam="2">  1       -2 0.84611128E-02 0.11638444E+03</pdfrwt>
<totfact> 0.74126234E+03</totfact>
</mgrwt>
</event>
<event>
 8    1  0.3466492E-004  0.1312540E+03  0.7546771E-02  0.1228082E+00
         -3   -1    0    0    0  501 -0.00000000000E+00  0.00000000000E+00  0.39489492022E+03  0.39489492022E+03  0.00000000000E+00 0.  1.
          3   -1    0    0  501    0  0.00000000000E+00 -0.00000000000E+00 -0.42326067555E+02  0.42326067555E+02  0.00000000000E+00 0. -1.
         23    2    1    2    0    0  0.79154740545E+02  0.31127725672E+02  0.14961314736E+03  0.19902687112E+03  0.99965960758E+02 0.  0.
         23    2    1    2    0    0 -0.79154740545E+02 -0.31127725672E+02  0.20295570531E+03  0.23819411665E+03  0.91164744476E+02 0.  0.
          5    1    4    4  502    0 -0.61607839948E+02 -0.59753167624E+02  0.11238862829E+03  0.14148943689E+03  0.47000000000E+01 0. -1.
         -5    1    4    4    0  502 -0.17546900597E+02  0.28625441952E+02  0.90567077020E+02  0.96704679759E+02  0.47000000000E+01 0.  1.
          5    1    3    3  503    0  0.58614071865E+02  0.27501613023E+01  0.16262572943E+02  0.61071548912E+02  0.47000000000E+01 0. -1.
         -5    1    3    3    0  503  0.20540668680E+02  0.28377564370E+02  0.13335057442E+03  0.13795532221E+03  0.47000000000E+01 0.  1.
<mgrwt>
<rscale>  0 0.12957900E+03</rscale>
<asrwt>0</asrwt>
<pdfrwt beam="1">  1        3 0.65117030E-02 0.13125396E+03</pdfrwt>
<pdfrwt beam="2">  1       -3 0.60753062E-01 0.13125396E+03</pdfrwt>
<totfact> 0.91857216E+02</totfact>
</mgrwt>
</event>
<event>
 8    1  0.3466492E-004  0.1039973E+03  0.7546771E-02  0.1275392E+00
         -1   -1    0    0    0  501 -0.00000000000E+00  0.00000000000E+00  0.30006421603E+02  0.30006421603E+02  0.00000000000E+00 0.  1.
          1   -1    0    0  501    0  0.00000000000E+00 -0.00000000000E+00 -0.36897373870E+03  0.36897373870E+03  0.00000000000E+00 0. -1.
         23    2    1    2    0    0 -0.20802596018E+01 -0.30585463464E+02 -0.22166643102E+03  0.24221620558E+03  0.92697818458E+02 0.  0.
         23    2    1    2    0    0  0.20802596018E+01  0.30585463464E+02 -0.11730088608E+03  0.15676395473E+03  0.99376262618E+02 0.  0.
          5    1    3    3  502    0  0.10530360644E+02 -0.59948762467E+02 -0.17595371509E+03  0.18624323470E+03  0.47000000000E+01 0. -1.
         -5    1    3    3    0  502 -0.12610620246E+02  0.29363299002E+02 -0.45712715934E+02  0.55972970882E+02  0.47000000000E+01 0.  1.
          5    1    4    4  503    0 -0.31171173475E+01 -0.29938291179E+02 -0.77902319551E+01  0.31445117478E+02  0.47000000000E+01 0. -1.
         -5    1    4    4    0  503  0.51973769493E+01  0.60523754644E+02 -0.10951065412E+03  0.12531883725E+03  0.47000000000E+01 0.  1.
<mgrwt>
<rscale>  0 0.10236900E+03</rscale>
<asrwt>0</asrwt>
<pdfrwt beam="1">  1        1 0.56765190E-01 0.10399731E+03</pdfrwt>
<pdfrwt beam="2">  1       -1 0.46163726E-02 0.10399731E+03</pdfrwt>
<totfact> 0.12324832E+04</totfact>
</mgrwt>
</event>
<event>
 8    1  0.3466492E-004  0.9849099E+02  0.7546771E-02  0.1291200E+00
          2   -1    0    0  501    0  0.00000000000E+00  0.00000000000E+00  0.29183277641E+03  0.29183277641E+03  0.00000000000E+00 0. -1.
         -2   -1    0    0    0  501 -0.00000000000E+00 -0.00000000000E+00 -0.34306959532E+02  0.34306959532E+02  0.00000000000E+00 0.  1.
         23    2    1    2    0    0  0.25743450102E+02  0.21056847204E+02  0.56384786917E+02  0.10217949606E+03  0.78455651054E+02 0.  0.
         23    2    1    2    0    0 -0.25743450102E+02 -0.21056847204E+02  0.20114102996E+03  0.22396023988E+03  0.92705766145E+02 0.  0.
          5    1    4    4  502    0  0.14146250745E+02 -0.25068548030E+02  0.13701807478E+02  0.32223873737E+02  0.47000000000E+01 0. -1.
         -5    1    4    4    0  502 -0.39889700847E+02  0.40117008258E+01  0.18743922248E+03  0.19173636614E+03  0.47000000000E+01 0.  1.
          5    1    3    3  503    0  0.21040692471E+02 -0.10606193566E+02  0.64494806733E+02  0.68824938628E+02  0.47000000000E+01 0. -1.
         -5    1    3    3    0  503  0.47027576312E+01  0.31663040770E+02 -0.81100198161E+01  0.33354557433E+02  0.47000000000E+01 0.  1.
<mgrwt>
<rscale>  0 0.94989360E+02</rscale>
<asrwt>0</asrwt>
<pdfrwt beam="1">  1        2 0.44897349E-01 0.98490990E+02</pdfrwt>
<pdfrwt beam="2">  1       -2 0.52779940E-02 0.98490990E+02</pdfrwt>
<totfact> 0.18417413E+04</totfact>
</mgrwt>
</event>
<event>
 8    1  0.3466492E-004  0.3158427E+03  0.7546771E-02  0.1077731E+00
         -1   -1    0    0    0  501 -0.00000000000E+00  0.00000000000E+00  0.89059350710E+02  0.89059350710E+02  0.00000000000E+00 0.  1.
          1   -1    0    0  501    0  0.00000000000E+00 -0.00000000000E+00 -0.16459971816E+04  0.16459971816E+04  0.00000000000E+00 0. -1.
         23    2    1    2    0    0 -0.23030888717E+03 -0.19651316483E+03 -0.28705410796E+03  0.42679815777E+03  0.89983326855E+02 0.  0.
         23    2    1    2    0    0  0.23030888717E+03  0.19651316483E+03 -0.12698837230E+04  0.13082583746E+04  0.85297698361E+02 0.  0.
          5    1    3    3  502    0 -0.11424910481E+03 -0.11959593572E+03 -0.21079392667E+03  0.26797801274E+03  0.47000000000E+01 0. -1.
         -5    1    4    4    0  503  0.27505207244E+02 -0.34289099428E+01 -0.15737919178E+03  0.15987055344E+03  0.47000000000E+01 0.  1.
          5    1    4    4  503    0  0.20280367993E+03  0.19994207478E+03 -0.11125045312E+04  0.11483878212E+04  0.47000000000E+01 0. -1.
         -5    1    3    3    0  502 -0.11605978236E+03 -0.76917229109E+02 -0.76260181294E+02  0.15882014503E+03  0.47000000000E+01 0.  1.
<mgrwt>
<rscale>  0 0.31551647E+03</rscale>
<asrwt>0</asrwt>
<pdfrwt beam="1">  1        1 0.25323032E+00 0.31584269E+03</pdfrwt>
<pdfrwt beam="2">  1       -1 0.13701439E-01 0.31584269E+03</pdfrwt>
<totfact> 0.21214871E+02</totfact>
</mgrwt>
</event>
<event>
 8    1  0.3466492E-004  0.1332381E+03  0.7546771E-02  0.1223112E+00
          2   -1    0    0  501    0  0.00000000000E+00  0.00000000000E+00  0.40370094114E+03  0.40370094114E+03  0.00000000000E+00 0. -1.
         -2   -1    0    0    0  501 -0.00000000000E+00 -0.00000000000E+00 -0.44114372533E+02  0.44114372533E+02  0.00000000000E+00 0.  1.
         23    2    1    2    0    0 -0.95499675405E+02 -0.18099866135E+02  0.20268618696E+03  0.24197530070E+03  0.89568759126E+02 0.  0.
         23    2    1    2    0    0  0.95499675405E+02  0.18099866135E+02  0.15690038166E+03  0.20584001297E+03  0.91129512348E+02 0.  0.
          5    1    4    4  502    0  0.71679215735E+01 -0.30651429693E+02  0.44735748092E+02  0.54902335099E+02  0.47000000000E+01 0. -1.
         -5    1    3    3    0  503 -0.31615181722E+02  0.29975311960E+02  0.11576769166E+03  0.12378322776E+03  0.47000000000E+01 0.  1.
          5    1    3    3  503    0 -0.63884493683E+02 -0.48075178096E+02  0.86918495293E+02  0.11819207294E+03  0.47000000000E+01 0. -1.
         -5    1    4    4    0  502  0.88331753831E+02  0.48751295829E+02  0.11216463356E+03  0.15093767788E+03  0.47000000000E+01 0.  1.
<mgrwt>
<rscale>  0 0.13297162E+03</rscale>
<asrwt>0</asrwt>
<pdfrwt beam="1">  1        2 0.62107835E-01 0.13323806E+03</pdfrwt>
<pdfrwt beam="2">  1       -2 0.67868268E-02 0.13323806E+03</pdfrwt>
<totfact> 0.91772575E+03</totfact>
</mgrwt>
</event>
<event>
 8    1  0.3466492E-004  0.9344218E+02  0.7546771E-02  0.1294811E+00
          1   -1    0    0  501    0  0.00000000000E+00  0.00000000000E+00  0.29446920930E+03  0.29446920930E+03  0.00000000000E+00 0. -1.
         -1   -1    0    0    0  501 -0.00000000000E+00 -0.00000000000E+00 -0.29606375040E+02  0.29606375040E+02  0.00000000000E+00 0.  1.
         23    2    1    2    0    0  0.17592145194E+02 -0.18940069761E+02  0.13064875649E+03  0.16053702504E+03  0.89637207799E+02 0.  0.
         23    2    1    2    0    0 -0.17592145194E+02  0.18940069761E+02  0.13421407777E+03  0.16353855930E+03  0.89795500388E+02 0.  0.
          5    1    3    3  502    0  0.46730940726E+02 -0.35976323296E+02  0.85375578354E+02  0.10387086232E+03  0.47000000000E+01 0. -1.
         -5    1    4    4    0  503 -0.15706058747E+02  0.39127638719E+02  0.13617794544E+03  0.14263300887E+03  0.47000000000E+01 0.  1.
          5    1    4    4  503    0 -0.18860864468E+01 -0.20187568958E+02 -0.19638676736E+01  0.20905550430E+02  0.47000000000E+01 0. -1.
         -5    1    3    3    0  502 -0.29138795532E+02  0.17036253535E+02  0.45273178135E+02  0.56666162725E+02  0.47000000000E+01 0.  1.
<mgrwt>
<rscale>  0 0.93404134E+02</rscale>
<asrwt>0</asrwt>
<pdfrwt beam="1">  1        1 0.45302953E-01 0.93442184E+02</pdfrwt>
<pdfrwt beam="2">  1       -1 0.45548271E-02 0.93442184E+02</pdfrwt>
<totfact> 0.16423172E+04</totfact>
</mgrwt>
</event>
<event>
 8    1  0.3466492E-004  0.1067615E+03  0.7546771E-02  0.1269156E+00
          3   -1    0    0  501    0  0.00000000000E+00  0.00000000000E+00  0.31072597806E+03  0.31072597806E+03  0.00000000000E+00 0. -1.
         -3   -1    0    0    0  501 -0.00000000000E+00 -0.00000000000E+00 -0.38129799995E+02  0.38129799995E+02  0.00000000000E+00 0.  1.
         23    2    1    2    0    0 -0.48072188950E+02  0.25576699553E+02  0.18936000811E+03  0.21738269484E+03  0.91830933971E+02 0.  0.
         23    2    1    2    0    0  0.48072188950E+02 -0.25576699553E+02  0.83236169952E+02  0.13147308321E+03  0.85975628585E+02 0.  0.
          5    1    4    4  502    0 -0.13487963237E+02  0.18563920130E+02  0.83906651547E+01  0.24880465120E+02  0.47000000000E+01 0. -1.
         -5    1    4    4    0  502  0.61560152187E+02 -0.44140619683E+02  0.74845504797E+02  0.10659261809E+03  0.47000000000E+01 0.  1.
          5    1    3    3  503    0 -0.23300735192E+02  0.31894309939E+02  0.18711137823E+03  0.19129278379E+03  0.47000000000E+01 0. -1.
         -5    1    3    3    0  503 -0.24771453758E+02 -0.63176103864E+01  0.22486298798E+01  0.26089911050E+02  0.47000000000E+01 0.  1.
<mgrwt>
<rscale>  0 0.10549087E+03</rscale>
<asrwt>0</asrwt>
<pdfrwt beam="1">  1        3 0.47803995E-01 0.10676153E+03</pdfrwt>
<pdfrwt beam="2">  1       -3 0.58661233E-02 0.10676153E+03</pdfrwt>
<totfact> 0.16981448E+03</totfact>
</mgrwt>
</event>
<event>
 8    1  0.3466492E-004  0.1028779E+03  0.7546771E-02  0.1274860E+00
          1   -1    0    0  501    0  0.00000000000E+00  0.00000000000E+00  0.76388110848E+03  0.76388110848E+03  0.00000000000E+00 0. -1.
         -1   -1    0    0    0  501 -0.00000000000E+00 -0.00000000000E+00 -0.13788668294E+02  0.13788668294E+02  0.00000000000E+00 0.  1.
         23    2    1    2    0    0  0.40537867121E+02 -0.24077985500E+02  0.34994958207E+03  0.36475822668E+03  0.91437333082E+02 0.  0.
         23    2    1    2    0    0 -0.40537867121E+02  0.24077985500E+02  0.40014285811E+03  0.41291155009E+03  0.90324820763E+02 0.  0.
          5    1    3    3  502    0 -0.87311249511E+01 -0.29642173020E+02  0.26057960275E+03  0.26244753826E+03  0.47000000000E+01 0. -1.
         -5    1    3    3    0  502  0.49268992072E+02  0.55641875200E+01  0.89369979314E+02  0.10231068842E+03  0.47000000000E+01 0.  1.
          5    1    4    4  503    0 -0.66694505560E+02  0.28013060155E+02  0.32834619876E+03  0.33625318563E+03  0.47000000000E+01 0. -1.
         -5    1    4    4    0  503  0.26156638439E+02 -0.39350746551E+01  0.71796659354E+02  0.76658364458E+02  0.47000000000E+01 0.  1.
<mgrwt>
<rscale>  0 0.10263009E+03</rscale>
<asrwt>0</asrwt>
<pdfrwt beam="1">  1        1 0.11752014E+00 0.10287786E+03</pdfrwt>
<pdfrwt beam="2">  1       -1 0.21213342E-02 0.10287786E+03</pdfrwt>
<totfact> 0.14512585E+04</totfact>
</mgrwt>
</event>
<event>
 8    1  0.3466492E-004  0.9801265E+02  0.7546771E-02  0.1286150E+00
          2   -1    0    0  501    0  0.00000000000E+00  0.00000000000E+00  0.49091457086E+03  0.49091457086E+03  0.00000000000E+00 0. -1.
         -2   -1    0    0    0  501 -0.00000000000E+00 -0.00000000000E+00 -0.18985331405E+02  0.18985331405E+02  0.00000000000E+00 0.  1.
         23    2    1    2    0    0 -0.17816269765E+02  0.17111887593E+02  0.23762289792E+03  0.25704303270E+03  0.94848525968E+02 0.  0.
         23    2    1    2    0    0  0.17816269765E+02 -0.17111887593E+02  0.23430634153E+03  0.25285686956E+03  0.91798140708E+02 0.  0.
          5    1    3    3  502    0 -0.35656432381E+02 -0.27572386908E+02  0.15316031201E+03  0.15972410233E+03  0.47000000000E+01 0. -1.
         -5    1    3    3    0  502  0.17840162616E+02  0.44684274501E+02  0.84462585912E+02  0.97318930372E+02  0.47000000000E+01 0.  1.
          5    1    4    4  503    0  0.33328069350E+02 -0.48901569788E+02  0.14854911753E+03  0.15997204147E+03  0.47000000000E+01 0. -1.
         -5    1    4    4    0  503 -0.15511799585E+02  0.31789682195E+02  0.85757224002E+02  0.92884828088E+02  0.47000000000E+01 0.  1.
<mgrwt>
<rscale>  0 0.97266981E+02</rscale>
<asrwt>0</asrwt>
<pdfrwt beam="1">  1        2 0.75525309E-01 0.98012647E+02</pdfrwt>
<pdfrwt beam="2">  1       -2 0.29208206E-02 0.98012647E+02</pdfrwt>
<totfact> 0.25398635E+04</totfact>
</mgrwt>
</event>
<event>
 8    1  0.3466492E-004  0.1029480E+03  0.7546771E-02  0.1280952E+00
         -4   -1    0    0    0  501 -0.00000000000E+00  0.00000000000E+00  0.14289294591E+03  0.14289294591E+03  0.00000000000E+00 0.  1.
          4   -1    0    0  501    0  0.00000000000E+00 -0.00000000000E+00 -0.10797257736E+03  0.10797257736E+03  0.00000000000E+00 0. -1.
         23    2    1    2    0    0  0.33846485816E+02  0.33175261110E+02  0.96727451516E+02  0.14126034912E+03  0.91389845203E+02 0.  0.
         23    2    1    2    0    0 -0.33846485816E+02 -0.33175261110E+02 -0.61807082962E+02  0.10960517415E+03  0.77116769537E+02 0.  0.
          5    1    4    4  502    0 -0.35845420737E+01 -0.44631555264E+02 -0.66849952374E+01  0.45514874804E+02  0.47000000000E+01 0. -1.
         -5    1    3    3    0  503 -0.25040648005E+02  0.55222774502E+01  0.18636916902E+01  0.26136046898E+02  0.47000000000E+01 0.  1.
          5    1    3    3  503    0  0.58887133820E+02  0.27652983660E+02  0.94863759826E+02  0.11512430223E+03  0.47000000000E+01 0. -1.
         -5    1    4    4    0  502 -0.30261943742E+02  0.11456294153E+02 -0.55122087724E+02  0.64090299343E+02  0.47000000000E+01 0.  1.
<mgrwt>
<rscale>  0 0.99688468E+02</rscale>
<asrwt>0</asrwt>
<pdfrwt beam="1">  1        4 0.16611166E-01 0.10294798E+03</pdfrwt>
<pdfrwt beam="2">  1       -4 0.21983530E-01 0.10294798E+03</pdfrwt>
<totfact> 0.92844741E+02</totfact>
</mgrwt>
</event>
<event>
 8    1  0.3466492E-004  0.1746867E+03  0.7546771E-02  0.1178778E+00
         -1   -1    0    0    0  501 -0.00000000000E+00  0.00000000000E+00  0.31573676452E+02  0.31573676452E+02  0.00000000000E+00 0.  1.
          1   -1    0    0  501    0  0.00000000000E+00 -0.00000000000E+00 -0.87405690239E+03  0.87405690239E+03  0.00000000000E+00 0. -1.
         23    2    1    2    0    0 -0.35148368789E+02 -0.11638361532E+03 -0.32359162808E+03  0.35812357364E+03  0.93597000426E+02 0.  0.
         23    2    1    2    0    0  0.35148368789E+02  0.11638361532E+03 -0.51889159786E+03  0.54750700521E+03  0.12543873673E+03 0.  0.
          5    1    3    3  502    0  0.23771624457E+02 -0.77776684549E+02 -0.19695002999E+03  0.21313307370E+03  0.47000000000E+01 0. -1.
         -5    1    4    4    0  503  0.46260544565E+02  0.60516949481E+01 -0.64418473098E+02  0.79677416320E+02  0.47000000000E+01 0.  1.
          5    1    4    4  503    0 -0.11112175776E+02  0.11033192038E+03 -0.45447312477E+03  0.46782958889E+03  0.47000000000E+01 0.  1.
         -5    1    3    3    0  502 -0.58919993246E+02 -0.38606930775E+02 -0.12664159808E+03  0.14499049994E+03  0.47000000000E+01 0.  1.
<mgrwt>
<rscale>  0 0.16911137E+03</rscale>
<asrwt>0</asrwt>
<pdfrwt beam="1">  1        1 0.13447027E+00 0.17468666E+03</pdfrwt>
<pdfrwt beam="2">  1       -1 0.48574893E-02 0.17468666E+03</pdfrwt>
<totfact> 0.36335317E+03</totfact>
</mgrwt>
</event>
<event>
 8    1  0.3466492E-004  0.1541240E+03  0.7546771E-02  0.1195967E+00
          1   -1    0    0  501    0  0.00000000000E+00  0.00000000000E+00  0.11370830094E+03  0.11370830094E+03  0.00000000000E+00 0. -1.
         -1   -1    0    0    0  501 -0.00000000000E+00 -0.00000000000E+00 -0.39532109728E+03  0.39532109728E+03  0.00000000000E+00 0.  1.
         23    2    1    2    0    0  0.90893495012E+02  0.80869035433E+02 -0.31620049231E+03  0.35107206708E+03  0.92018566729E+02 0.  0.
         23    2    1    2    0    0 -0.90893495012E+02 -0.80869035433E+02  0.34587695965E+02  0.15795733115E+03  0.94619138782E+02 0.  0.
          5    1    4    4  502    0 -0.78816194083E+02 -0.12473798228E+02  0.37477857144E+02  0.88285150892E+02  0.47000000000E+01 0. -1.
         -5    1    4    4    0  502 -0.12077300929E+02 -0.68395237204E+02 -0.28901611789E+01  0.69672180256E+02  0.47000000000E+01 0.  1.
          5    1    3    3  503    0  0.31971413250E+02  0.49908530513E+02 -0.53346945222E+02  0.79881282211E+02  0.47000000000E+01 0. -1.
         -5    1    3    3    0  503  0.58922081762E+02  0.30960504920E+02 -0.26285354708E+03  0.27119078487E+03  0.47000000000E+01 0.  1.
<mgrwt>
<rscale>  0 0.15372680E+03</rscale>
<asrwt>0</asrwt>
<pdfrwt beam="1">  1        1 0.17493585E-01 0.15412401E+03</pdfrwt>
<pdfrwt beam="2">  1       -1 0.60818631E-01 0.15412401E+03</pdfrwt>
<totfact> 0.85551794E+02</totfact>
</mgrwt>
</event>
<event>
 8    1  0.3466492E-004  0.1609218E+03  0.7546771E-02  0.1188964E+00
         -1   -1    0    0    0  501 -0.00000000000E+00  0.00000000000E+00  0.23831598098E+03  0.23831598098E+03  0.00000000000E+00 0.  1.
          1   -1    0    0  501    0  0.00000000000E+00 -0.00000000000E+00 -0.11006987460E+03  0.11006987460E+03  0.00000000000E+00 0. -1.
         23    2    1    2    0    0 -0.10008655194E+02 -0.13153216471E+03  0.28091475854E+02  0.15884227417E+03  0.83909793926E+02 0.  0.
         23    2    1    2    0    0  0.10008655194E+02  0.13153216471E+03  0.10015463053E+03  0.18954358140E+03  0.92167975476E+02 0.  0.
          5    1    4    4  502    0  0.47520966732E+01  0.10894231207E+03  0.26692185402E+02  0.11236357302E+03  0.47000000000E+01 0. -1.
         -5    1    4    4    0  502  0.52565585212E+01  0.22589852645E+02  0.73462445125E+02  0.77180008381E+02  0.47000000000E+01 0.  1.
          5    1    3    3  503    0 -0.22270026779E+02  0.11807510142E+01  0.68645947000E+01  0.23802540329E+02  0.47000000000E+01 0. -1.
         -5    1    3    3    0  503  0.12261371585E+02 -0.13271291572E+03  0.21226881154E+02  0.13503973384E+03  0.47000000000E+01 0.  1.
<mgrwt>
<rscale>  0 0.15976352E+03</rscale>
<asrwt>0</asrwt>
<pdfrwt beam="1">  1        1 0.16933827E-01 0.16092178E+03</pdfrwt>
<pdfrwt beam="2">  1       -1 0.36663997E-01 0.16092178E+03</pdfrwt>
<totfact> 0.22390587E+03</totfact>
</mgrwt>
</event>
<event>
 8    1  0.3466492E-004  0.3772839E+03  0.7546771E-02  0.1051963E+00
         -1   -1    0    0    0  501 -0.00000000000E+00  0.00000000000E+00  0.79251469626E+03  0.79251469626E+03  0.00000000000E+00 0.  1.
          1   -1    0    0  501    0  0.00000000000E+00 -0.00000000000E+00 -0.31896505610E+03  0.31896505610E+03  0.00000000000E+00 0. -1.
         23    2    1    2    0    0 -0.35492827924E+03 -0.89854390751E+02  0.60429190101E+03  0.71239863839E+03  0.91078117080E+02 0.  0.
         23    2    1    2    0    0  0.35492827924E+03  0.89854390751E+02 -0.13074226085E+03  0.39908111396E+03  0.90134908910E+02 0.  0.
          5    1    4    4  502    0  0.34123301947E+03  0.75238787399E+02 -0.10258178840E+03  0.36420593353E+03  0.47000000000E+01 0. -1.
         -5    1    3    3    0  503 -0.23051288461E+03 -0.14248576192E+02  0.35047909971E+03  0.41975814611E+03  0.47000000000E+01 0.  1.
          5    1    3    3  503    0 -0.12441539464E+03 -0.75605814559E+02  0.25381280131E+03  0.29264049229E+03  0.47000000000E+01 0. -1.
         -5    1    4    4    0  502  0.13695259778E+02  0.14615603353E+02 -0.28160472454E+02  0.34875180438E+02  0.47000000000E+01 0.  1.
<mgrwt>
<rscale>  0 0.37722721E+03</rscale>
<asrwt>0</asrwt>
<pdfrwt beam="1">  1        1 0.49071547E-01 0.37728387E+03</pdfrwt>
<pdfrwt beam="2">  1       -1 0.12192534E+00 0.37728387E+03</pdfrwt>
<totfact> 0.51180342E+01</totfact>
</mgrwt>
</event>
<event>
 8    1  0.3466492E-004  0.9646147E+02  0.7546771E-02  0.1293596E+00
         -1   -1    0    0    0  501 -0.00000000000E+00  0.00000000000E+00  0.70350074228E+02  0.70350074228E+02  0.00000000000E+00 0.  1.
          1   -1    0    0  501    0  0.00000000000E+00 -0.00000000000E+00 -0.15564676216E+03  0.15564676216E+03  0.00000000000E+00 0. -1.
         23    2    1    2    0    0 -0.13681045089E+02 -0.90362505059E+01 -0.95482457048E+02  0.12899907675E+03  0.85176507204E+02 0.  0.
         23    2    1    2    0    0  0.13681045089E+02  0.90362505059E+01  0.10185769120E+02  0.96997759639E+02  0.95057828002E+02 0.  0.
          5    1    4    4  502    0  0.17980715238E+02 -0.29926300323E+02 -0.25731545022E+02  0.43624442469E+02  0.47000000000E+01 0. -1.
         -5    1    3    3    0  503 -0.35102451332E+02 -0.29130177719E+02 -0.86541079198E+02  0.97939765837E+02  0.47000000000E+01 0.  1.
          5    1    3    3  503    0  0.21421406244E+02  0.20093927213E+02 -0.89413778504E+01  0.31059310909E+02  0.47000000000E+01 0. -1.
         -5    1    4    4    0  502 -0.42996701497E+01  0.38962550829E+02  0.35917314143E+02  0.53373317170E+02  0.47000000000E+01 0.  1.
<mgrwt>
<rscale>  0 0.93933502E+02</rscale>
<asrwt>0</asrwt>
<pdfrwt beam="1">  1        1 0.23945656E-01 0.96461471E+02</pdfrwt>
<pdfrwt beam="2">  1       -1 0.10823088E-01 0.96461471E+02</pdfrwt>
<totfact> 0.99565468E+03</totfact>
</mgrwt>
</event>
<event>
 8    1  0.3466492E-004  0.9981185E+02  0.7546771E-02  0.1284264E+00
         -1   -1    0    0    0  501 -0.00000000000E+00  0.00000000000E+00  0.17239855108E+03  0.17239855108E+03  0.00000000000E+00 0.  1.
          1   -1    0    0  501    0  0.00000000000E+00 -0.00000000000E+00 -0.14784725928E+03  0.14784725928E+03  0.00000000000E+00 0. -1.
         23    2    1    2    0    0  0.29531869998E+02  0.65442261407E+01  0.13962518974E+03  0.16791588136E+03  0.88235998098E+02 0.  0.
         23    2    1    2    0    0 -0.29531869998E+02 -0.65442261407E+01 -0.11507389794E+03  0.15232992900E+03  0.95118068943E+02 0.  0.
          5    1    3    3  502    0 -0.28892431037E+02  0.10726505507E+01  0.22880336732E+02  0.37168843934E+02  0.47000000000E+01 0. -1.
         -5    1    4    4    0  503 -0.48772719356E+01  0.40015884745E+02 -0.24397697727E+02  0.47353948809E+02  0.47000000000E+01 0.  1.
          5    1    4    4  503    0 -0.24654598062E+02 -0.46560110885E+02 -0.90676200212E+02  0.10497598019E+03  0.47000000000E+01 0. -1.
         -5    1    3    3    0  502  0.58424301035E+02  0.54715755900E+01  0.11674485301E+03  0.13074703742E+03  0.47000000000E+01 0.  1.
<mgrwt>
<rscale>  0 0.98136353E+02</rscale>
<asrwt>0</asrwt>
<pdfrwt beam="1">  1        1 0.22745732E-01 0.99811849E+02</pdfrwt>
<pdfrwt beam="2">  1       -1 0.26522854E-01 0.99811849E+02</pdfrwt>
<totfact> 0.25998224E+03</totfact>
</mgrwt>
</event>
<event>
 8    1  0.3466492E-004  0.3211044E+03  0.7546771E-02  0.1075298E+00
          2   -1    0    0  501    0  0.00000000000E+00  0.00000000000E+00  0.13144417278E+04  0.13144417278E+04  0.00000000000E+00 0. -1.
         -2   -1    0    0    0  501 -0.00000000000E+00 -0.00000000000E+00 -0.93123310507E+02  0.93123310507E+02  0.00000000000E+00 0.  1.
         23    2    1    2    0    0 -0.11650272173E+03 -0.28506367539E+03  0.89430903280E+03  0.95020874667E+03  0.90960611856E+02 0.  0.
         23    2    1    2    0    0  0.11650272173E+03  0.28506367539E+03  0.32700938447E+03  0.45735629161E+03  0.86054963509E+02 0.  0.
          5    1    4    4  502    0  0.72059398683E+01  0.86732331784E+02  0.13358419992E+03  0.15950313920E+03  0.47000000000E+01 0. -1.
         -5    1    4    4    0  502  0.10929678186E+03  0.19833134361E+03  0.19342518455E+03  0.29785315241E+03  0.47000000000E+01 0.  1.
          5    1    3    3  503    0 -0.50083703543E+02 -0.22395688556E+03  0.67709429174E+03  0.71494323820E+03  0.47000000000E+01 0. -1.
         -5    1    3    3    0  503 -0.66419018188E+02 -0.61106789830E+02  0.21721474106E+03  0.23526550847E+03  0.47000000000E+01 0.  1.
<mgrwt>
<rscale>  0 0.32076507E+03</rscale>
<asrwt>0</asrwt>
<pdfrwt beam="1">  1        2 0.20222179E+00 0.32110437E+03</pdfrwt>
<pdfrwt beam="2">  1       -2 0.14326664E-01 0.32110437E+03</pdfrwt>
<totfact> 0.63579965E+02</totfact>
</mgrwt>
</event>
<event>
 8    1  0.3466492E-004  0.1860512E+03  0.7546771E-02  0.1162396E+00
         -2   -1    0    0    0  501 -0.00000000000E+00  0.00000000000E+00  0.11669507242E+03  0.11669507242E+03  0.00000000000E+00 0.  1.
          2   -1    0    0  501    0  0.00000000000E+00 -0.00000000000E+00 -0.51201766388E+03  0.51201766388E+03  0.00000000000E+00 0. -1.
         23    2    1    2    0    0 -0.37456013228E+02  0.15661542433E+03  0.77013168814E+01  0.18481713600E+03  0.90369903257E+02 0.  0.
         23    2    1    2    0    0  0.37456013228E+02 -0.15661542433E+03 -0.40302390834E+03  0.44389560029E+03  0.93186314449E+02 0.  0.
          5    1    4    4  502    0  0.63875862505E+02 -0.68421845454E+02 -0.19445298620E+03  0.21586043776E+03  0.47000000000E+01 0. -1.
         -5    1    4    4    0  502 -0.26419849278E+02 -0.88193578874E+02 -0.20857092214E+03  0.22803516253E+03  0.47000000000E+01 0.  1.
          5    1    3    3  503    0  0.26904185525E+02  0.62985990842E+02 -0.11148393352E+02  0.69551757098E+02  0.47000000000E+01 0. -1.
         -5    1    3    3    0  503 -0.64360198753E+02  0.93629433486E+02  0.18849710233E+02  0.11526537891E+03  0.47000000000E+01 0.  1.
<mgrwt>
<rscale>  0 0.18570154E+03</rscale>
<asrwt>0</asrwt>
<pdfrwt beam="1">  1        2 0.78771947E-01 0.18605116E+03</pdfrwt>
<pdfrwt beam="2">  1       -2 0.17953088E-01 0.18605116E+03</pdfrwt>
<totfact> 0.15232236E+03</totfact>
</mgrwt>
</event>
<event>
 8    1  0.3466492E-004  0.2125157E+03  0.7546771E-02  0.1139736E+00
         -2   -1    0    0    0  501 -0.00000000000E+00  0.00000000000E+00  0.24026247226E+02  0.24026247226E+02  0.00000000000E+00 0.  1.
          2   -1    0    0  501    0  0.00000000000E+00 -0.00000000000E+00 -0.20075838388E+04  0.20075838388E+04  0.00000000000E+00 0. -1.
         23    2    1    2    0    0  0.16872900541E+03 -0.88825154316E+02 -0.12530504957E+04  0.12708186871E+04  0.92115174515E+02 0.  0.
         23    2    1    2    0    0 -0.16872900541E+03  0.88825154316E+02 -0.73050709592E+03  0.76079139898E+03  0.93827236296E+02 0.  0.
          5    1    3    3  502    0  0.13491941553E+03 -0.10455909122E+03 -0.11026121164E+04  0.11157559865E+04  0.47000000000E+01 0. -1.
         -5    1    4    4    0  503 -0.26585732649E+02  0.54689978634E+02 -0.29940746948E+03  0.30555640678E+03  0.47000000000E+01 0.  1.
          5    1    4    4  503    0 -0.14214327276E+03  0.34135175682E+02 -0.43109962644E+03  0.45523499220E+03  0.47000000000E+01 0. -1.
         -5    1    3    3    0  502  0.33809589882E+02  0.15733936907E+02 -0.15043837929E+03  0.15506270055E+03  0.47000000000E+01 0.  1.
<mgrwt>
<rscale>  0 0.21232790E+03</rscale>
<asrwt>0</asrwt>
<pdfrwt beam="1">  1        2 0.30885902E+00 0.21251573E+03</pdfrwt>
<pdfrwt beam="2">  1       -2 0.36963461E-02 0.21251573E+03</pdfrwt>
<totfact> 0.22853365E+03</totfact>
</mgrwt>
</event>
<event>
 8    1  0.3466492E-004  0.1309494E+03  0.7546771E-02  0.1227743E+00
          3   -1    0    0  501    0  0.00000000000E+00  0.00000000000E+00  0.73286586342E+02  0.73286586342E+02  0.00000000000E+00 0. -1.
         -3   -1    0    0    0  501 -0.00000000000E+00 -0.00000000000E+00 -0.24461258229E+03  0.24461258229E+03  0.00000000000E+00 0.  1.
         23    2    1    2    0    0  0.83201136239E+02  0.46776972443E+02 -0.40424706136E+02  0.13274273993E+03  0.82921432187E+02 0.  0.
         23    2    1    2    0    0 -0.83201136239E+02 -0.46776972443E+02 -0.13090128981E+03  0.18515642870E+03  0.89650661974E+02 0.  0.
          5    1    3    3  502    0  0.24087969841E+02 -0.16378965454E+02  0.11583729787E+02  0.31698163924E+02  0.47000000000E+01 0. -1.
         -5    1    4    4    0  503 -0.74745885406E+02 -0.11705023695E+02 -0.12786855036E+03  0.14864861633E+03  0.47000000000E+01 0.  1.
          5    1    4    4  503    0 -0.84552508327E+01 -0.35071948748E+02 -0.30327394504E+01  0.36507812373E+02  0.47000000000E+01 0. -1.
         -5    1    3    3    0  502  0.59113166398E+02  0.63155937897E+02 -0.52008435923E+02  0.10104457601E+03  0.47000000000E+01 0.  1.
<mgrwt>
<rscale>  0 0.12980662E+03</rscale>
<asrwt>0</asrwt>
<pdfrwt beam="1">  1        3 0.11274859E-01 0.13094944E+03</pdfrwt>
<pdfrwt beam="2">  1       -3 0.37632706E-01 0.13094944E+03</pdfrwt>
<totfact> 0.96730591E+02</totfact>
</mgrwt>
</event>
<event>
 8    1  0.3466492E-004  0.9414222E+02  0.7546771E-02  0.1296074E+00
         -1   -1    0    0    0  501 -0.00000000000E+00  0.00000000000E+00  0.66345567736E+02  0.66345567736E+02  0.00000000000E+00 0.  1.
          1   -1    0    0  501    0  0.00000000000E+00 -0.00000000000E+00 -0.12950085611E+03  0.12950085611E+03  0.00000000000E+00 0. -1.
         23    2    1    2    0    0 -0.70282719049E+01 -0.15456100528E+01 -0.45533184541E+02  0.10006909665E+03  0.88818735032E+02 0.  0.
         23    2    1    2    0    0  0.70282719049E+01  0.15456100528E+01 -0.17622103837E+02  0.95777327205E+02  0.93866779781E+02 0.  0.
          5    1    3    3  502    0  0.56600716188E+01 -0.29494055132E+02 -0.58885377446E+02  0.66268494594E+02  0.47000000000E+01 0. -1.
         -5    1    4    4    0  503  0.22013992841E+02  0.34694500342E+02  0.17578959707E+02  0.44938113659E+02  0.47000000000E+01 0.  1.
          5    1    4    4  503    0 -0.14985720936E+02 -0.33148890289E+02 -0.35201063544E+02  0.50839213547E+02  0.47000000000E+01 0. -1.
         -5    1    3    3    0  502 -0.12688343524E+02  0.27948445079E+02  0.13352192905E+02  0.33800602052E+02  0.47000000000E+01 0.  1.
<mgrwt>
<rscale>  0 0.92858075E+02</rscale>
<asrwt>0</asrwt>
<pdfrwt beam="1">  1        1 0.19923209E-01 0.94142221E+02</pdfrwt>
<pdfrwt beam="2">  1       -1 0.10207010E-01 0.94142221E+02</pdfrwt>
<totfact> 0.13664936E+04</totfact>
</mgrwt>
</event>
<event>
 8    1  0.3466492E-004  0.9861112E+02  0.7546771E-02  0.1284071E+00
         -1   -1    0    0    0  501 -0.00000000000E+00  0.00000000000E+00  0.13488130945E+03  0.13488130945E+03  0.00000000000E+00 0.  1.
          1   -1    0    0  501    0  0.00000000000E+00 -0.00000000000E+00 -0.11796596953E+03  0.11796596953E+03  0.00000000000E+00 0. -1.
         23    2    1    2    0    0  0.75511348021E+01  0.36334728373E+02  0.88204358155E+02  0.13116623181E+03  0.89706964315E+02 0.  0.
         23    2    1    2    0    0 -0.75511348021E+01 -0.36334728373E+02 -0.71289018233E+02  0.12168104717E+03  0.91361485309E+02 0.  0.
          5    1    4    4  502    0 -0.39654693472E+02 -0.40349322798E+02 -0.68358399974E+02  0.88856757828E+02  0.47000000000E+01 0. -1.
         -5    1    3    3    0  503  0.23788417312E+02  0.49525837667E+02  0.93977230145E+02  0.10896103515E+03  0.47000000000E+01 0.  1.
          5    1    3    3  503    0 -0.16237282510E+02 -0.13191109295E+02 -0.57728719899E+01  0.22205196661E+02  0.47000000000E+01 0. -1.
         -5    1    4    4    0  502  0.32103558669E+02  0.40145944259E+01 -0.29306182587E+01  0.32824289345E+02  0.47000000000E+01 0.  1.
<mgrwt>
<rscale>  0 0.98226150E+02</rscale>
<asrwt>0</asrwt>
<pdfrwt beam="1">  1        1 0.18148611E-01 0.98611121E+02</pdfrwt>
<pdfrwt beam="2">  1       -1 0.20750971E-01 0.98611121E+02</pdfrwt>
<totfact> 0.51338012E+03</totfact>
</mgrwt>
</event>
<event>
 8    1  0.3466492E-004  0.9138545E+02  0.7546771E-02  0.1302261E+00
          1   -1    0    0  501    0  0.00000000000E+00  0.00000000000E+00  0.52211509952E+02  0.52211509952E+02  0.00000000000E+00 0. -1.
         -1   -1    0    0    0  501 -0.00000000000E+00 -0.00000000000E+00 -0.27519519632E+03  0.27519519632E+03  0.00000000000E+00 0.  1.
         23    2    1    2    0    0  0.58999959659E+01  0.17556064291E+02 -0.22246103663E+03  0.24049992186E+03  0.89488961624E+02 0.  0.
         23    2    1    2    0    0 -0.58999959659E+01 -0.17556064291E+02 -0.52264973989E+00  0.86906784410E+02  0.84908719622E+02 0.  0.
          5    1    3    3  502    0 -0.31215048659E+02  0.28371246277E+02 -0.16967625058E+03  0.17490405052E+03  0.47000000000E+01 0. -1.
         -5    1    3    3    0  502  0.37115044625E+02 -0.10815181987E+02 -0.52784786054E+02  0.65595871347E+02  0.47000000000E+01 0.  1.
          5    1    4    4  503    0  0.24584660795E+02 -0.17298906507E+02  0.30554759117E+02  0.43120076733E+02  0.47000000000E+01 0. -1.
         -5    1    4    4    0  503 -0.30484656761E+02 -0.25715778368E+00 -0.31077408857E+02  0.43786707677E+02  0.47000000000E+01 0.  1.
<mgrwt>
<rscale>  0 0.90244186E+02</rscale>
<asrwt>0</asrwt>
<pdfrwt beam="1">  1        1 0.80325400E-02 0.91385445E+02</pdfrwt>
<pdfrwt beam="2">  1       -1 0.42337723E-01 0.91385445E+02</pdfrwt>
<totfact> 0.44804910E+03</totfact>
</mgrwt>
</event>
<event>
 8    1  0.3466492E-004  0.9910022E+02  0.7546771E-02  0.1282233E+00
          2   -1    0    0  501    0  0.00000000000E+00  0.00000000000E+00  0.17470942175E+02  0.17470942175E+02  0.00000000000E+00 0. -1.
         -2   -1    0    0    0  501 -0.00000000000E+00 -0.00000000000E+00 -0.61656705340E+03  0.61656705340E+03  0.00000000000E+00 0.  1.
         23    2    1    2    0    0  0.34258171817E+02  0.18716206477E+02 -0.39414044938E+03  0.40640810342E+03  0.91087507208E+02 0.  0.
         23    2    1    2    0    0 -0.34258171817E+02 -0.18716206477E+02 -0.20495566185E+03  0.22762989216E+03  0.91019919566E+02 0.  0.
          5    1    3    3  502    0  0.58121347297E+02 -0.12198769262E+02 -0.24959378708E+03  0.25660485095E+03  0.47000000000E+01 0. -1.
         -5    1    4    4    0  503 -0.29335412442E+01 -0.51102463941E+02 -0.13316393179E+03  0.14274028939E+03  0.47000000000E+01 0. -1.
          5    1    4    4  503    0 -0.31324630573E+02  0.32386257464E+02 -0.71791730057E+02  0.84889602765E+02  0.47000000000E+01 0.  1.
         -5    1    3    3    0  502 -0.23863175479E+02  0.30914975739E+02 -0.14454666230E+03  0.14980325247E+03  0.47000000000E+01 0.  1.
<mgrwt>
<rscale>  0 0.99084682E+02</rscale>
<asrwt>0</asrwt>
<pdfrwt beam="1">  1        2 0.26878376E-02 0.99100215E+02</pdfrwt>
<pdfrwt beam="2">  1       -2 0.94856459E-01 0.99100215E+02</pdfrwt>
<totfact> 0.32696349E+03</totfact>
</mgrwt>
</event>
<event>
 8    1  0.3466492E-004  0.9609786E+02  0.7546771E-02  0.1293048E+00
          1   -1    0    0  501    0  0.00000000000E+00  0.00000000000E+00  0.23775116063E+03  0.23775116063E+03  0.00000000000E+00 0. -1.
         -1   -1    0    0    0  501 -0.00000000000E+00 -0.00000000000E+00 -0.68270531885E+02  0.68270531885E+02  0.00000000000E+00 0.  1.
         23    2    1    2    0    0 -0.24704733969E+02  0.81175379939E+01 -0.22405476591E+02  0.91417228560E+02  0.84728306915E+02 0.  0.
         23    2    1    2    0    0  0.24704733969E+02 -0.81175379939E+01  0.19188610534E+03  0.21460446396E+03  0.92512594956E+02 0.  0.
          5    1    4    4  502    0  0.33658122757E+02  0.22966977914E+02  0.17091457928E+03  0.17576755876E+03  0.47000000000E+01 0. -1.
         -5    1    3    3    0  503  0.15219226309E+01  0.40835049388E+02 -0.26647514378E+02  0.49010177816E+02  0.47000000000E+01 0.  1.
          5    1    3    3  503    0 -0.26226656600E+02 -0.32717511394E+02  0.42420377871E+01  0.42407050744E+02  0.47000000000E+01 0. -1.
         -5    1    4    4    0  502 -0.89533887879E+01 -0.31084515908E+02  0.20971526053E+02  0.38836905193E+02  0.47000000000E+01 0.  1.
<mgrwt>
<rscale>  0 0.94173623E+02</rscale>
<asrwt>0</asrwt>
<pdfrwt beam="1">  1        1 0.36577101E-01 0.96097859E+02</pdfrwt>
<pdfrwt beam="2">  1       -1 0.10503159E-01 0.96097859E+02</pdfrwt>
<totfact> 0.61807469E+03</totfact>
</mgrwt>
</event>
<event>
 8    1  0.3466492E-004  0.9491743E+02  0.7546771E-02  0.1291679E+00
         -1   -1    0    0    0  501 -0.00000000000E+00  0.00000000000E+00  0.29946038297E+02  0.29946038297E+02  0.00000000000E+00 0.  1.
          1   -1    0    0  501    0  0.00000000000E+00 -0.00000000000E+00 -0.38068971772E+03  0.38068971772E+03  0.00000000000E+00 0. -1.
         23    2    1    2    0    0  0.86009133636E+00 -0.26796655295E+02 -0.27084152110E+03  0.28699206988E+03  0.91052282394E+02 0.  0.
         23    2    1    2    0    0 -0.86009133636E+00  0.26796655295E+02 -0.79902158318E+02  0.12364368613E+03  0.90468810785E+02 0.  0.
          5    1    4    4  502    0  0.28078785468E+02  0.26631610315E+02 -0.85342389432E+02  0.93824699815E+02  0.47000000000E+01 0. -1.
         -5    1    3    3    0  503  0.76555907253E+01 -0.50724544553E+02 -0.24666790750E+03  0.25198955153E+03  0.47000000000E+01 0.  1.
          5    1    3    3  503    0 -0.67954993890E+01  0.23927889258E+02 -0.24173613599E+02  0.35002518348E+02  0.47000000000E+01 0. -1.
         -5    1    4    4    0  502 -0.28938876804E+02  0.16504497978E+00  0.54402311141E+01  0.29818986319E+02  0.47000000000E+01 0.  1.
<mgrwt>
<rscale>  0 0.94777228E+02</rscale>
<asrwt>0</asrwt>
<pdfrwt beam="1">  1        1 0.58567647E-01 0.94917431E+02</pdfrwt>
<pdfrwt beam="2">  1       -1 0.46070829E-02 0.94917431E+02</pdfrwt>
<totfact> 0.11797052E+04</totfact>
</mgrwt>
</event>
<event>
 8    1  0.3466492E-004  0.9404595E+02  0.7546771E-02  0.1294689E+00
         -2   -1    0    0    0  501 -0.00000000000E+00  0.00000000000E+00  0.12182639259E+02  0.12182639259E+02  0.00000000000E+00 0.  1.
          2   -1    0    0  501    0  0.00000000000E+00 -0.00000000000E+00 -0.72798933318E+03  0.72798933318E+03  0.00000000000E+00 0. -1.
         23    2    1    2    0    0 -0.96883610017E+01  0.11243086883E+02 -0.42341992128E+03  0.43373848177E+03  0.92867483464E+02 0.  0.
         23    2    1    2    0    0  0.96883610017E+01 -0.11243086883E+02 -0.29238677264E+03  0.30643349067E+03  0.90505182450E+02 0.  0.
          5    1    4    4  502    0  0.33716340581E+02  0.36745219200E+00 -0.26745127229E+03  0.26960934645E+03  0.47000000000E+01 0. -1.
         -5    1    3    3    0  503 -0.34388768147E+02 -0.29902293304E+02 -0.20264806573E+03  0.20776203470E+03  0.47000000000E+01 0.  1.
          5    1    3    3  503    0  0.24700407145E+02  0.41145380186E+02 -0.22077185555E+03  0.22597644706E+03  0.47000000000E+01 0. -1.
         -5    1    4    4    0  502 -0.24027979579E+02 -0.11610539075E+02 -0.24935500353E+02  0.36824144228E+02  0.47000000000E+01 0.  1.
<mgrwt>
<rscale>  0 0.93457465E+02</rscale>
<asrwt>0</asrwt>
<pdfrwt beam="1">  1        2 0.11199836E+00 0.94045951E+02</pdfrwt>
<pdfrwt beam="2">  1       -2 0.18742522E-02 0.94045951E+02</pdfrwt>
<totfact> 0.30828762E+04</totfact>
</mgrwt>
</event>
<event>
 8    1  0.3466492E-004  0.1054237E+03  0.7546771E-02  0.1275486E+00
          2   -1    0    0  501    0  0.00000000000E+00  0.00000000000E+00  0.25666209222E+03  0.25666209222E+03  0.00000000000E+00 0. -1.
         -2   -1    0    0    0  501 -0.00000000000E+00 -0.00000000000E+00 -0.48416533293E+02  0.48416533293E+02  0.00000000000E+00 0.  1.
         23    2    1    2    0    0  0.17832152093E+02 -0.14322820586E+02  0.40361071261E+02  0.11288563388E+03  0.10291268836E+03 0.  0.
         23    2    1    2    0    0 -0.17832152093E+02  0.14322820586E+02  0.16788448767E+03  0.19219299163E+03  0.90718333293E+02 0.  0.
          5    1    3    3  502    0 -0.11210677376E+02 -0.33761211733E+02  0.61912214882E+02  0.71559143766E+02  0.47000000000E+01 0. -1.
         -5    1    4    4    0  503 -0.48659212946E+01 -0.28755666140E+02  0.15750940977E+02  0.33477569608E+02  0.47000000000E+01 0.  1.
          5    1    4    4  503    0 -0.12966230798E+02  0.43078486726E+02  0.15213354669E+03  0.15871542203E+03  0.47000000000E+01 0. -1.
         -5    1    3    3    0  502  0.29042829469E+02  0.19438391147E+02 -0.21551143621E+02  0.41326490116E+02  0.47000000000E+01 0.  1.
<mgrwt>
<rscale>  0 0.10232291E+03</rscale>
<asrwt>0</asrwt>
<pdfrwt beam="1">  1        2 0.39486475E-01 0.10542367E+03</pdfrwt>
<pdfrwt beam="2">  1       -2 0.74486976E-02 0.10542367E+03</pdfrwt>
<totfact> 0.12613364E+04</totfact>
</mgrwt>
</event>
<event>
 8    1  0.3466492E-004  0.2864691E+03  0.7546771E-02  0.1092245E+00
          2   -1    0    0  501    0  0.00000000000E+00  0.00000000000E+00  0.30886800301E+03  0.30886800301E+03  0.00000000000E+00 0. -1.
         -2   -1    0    0    0  501 -0.00000000000E+00 -0.00000000000E+00 -0.63439296791E+03  0.63439296791E+03  0.00000000000E+00 0.  1.
         23    2    1    2    0    0  0.44890592923E+02  0.26777727771E+03 -0.52247309485E+03  0.59585457132E+03  0.91349326929E+02 0.  0.
         23    2    1    2    0    0 -0.44890592923E+02 -0.26777727771E+03  0.19694812996E+03  0.34740639960E+03  0.90458856929E+02 0.  0.
          5    1    3    3  502    0 -0.24955673214E+02  0.37720453488E+02 -0.96947278665E+02  0.10708166546E+03  0.47000000000E+01 0. -1.
         -5    1    3    3    0  502  0.69846266137E+02  0.23005682422E+03 -0.42552581619E+03  0.48877290586E+03  0.47000000000E+01 0.  1.
          5    1    4    4  503    0 -0.31860099376E+02 -0.24232051276E+03  0.20305828052E+03  0.31778774697E+03  0.47000000000E+01 0. -1.
         -5    1    4    4    0  503 -0.13030493547E+02 -0.25456764945E+02 -0.61101505584E+01  0.29618652626E+02  0.47000000000E+01 0.  1.
<mgrwt>
<rscale>  0 0.28639838E+03</rscale>
<asrwt>0</asrwt>
<pdfrwt beam="1">  1        2 0.47518155E-01 0.28646908E+03</pdfrwt>
<pdfrwt beam="2">  1       -2 0.97598917E-01 0.28646908E+03</pdfrwt>
<totfact> 0.96837282E+01</totfact>
</mgrwt>
</event>
<event>
 8    1  0.3466492E-004  0.1127772E+03  0.7546771E-02  0.1256610E+00
         -2   -1    0    0    0  501 -0.00000000000E+00  0.00000000000E+00  0.58360333611E+02  0.58360333611E+02  0.00000000000E+00 0.  1.
          2   -1    0    0  501    0  0.00000000000E+00 -0.00000000000E+00 -0.27663179519E+03  0.27663179519E+03  0.00000000000E+00 0. -1.
         23    2    1    2    0    0  0.56339994950E+02 -0.24628095593E+02 -0.28068792315E+02  0.11386830522E+03  0.91637305225E+02 0.  0.
         23    2    1    2    0    0 -0.56339994950E+02  0.24628095593E+02 -0.19020266927E+03  0.22112382358E+03  0.94540741667E+02 0.  0.
          5    1    4    4  502    0 -0.28193037523E+01  0.23321338233E+02 -0.15508584527E+03  0.15692527742E+03  0.47000000000E+01 0. -1.
         -5    1    3    3    0  503  0.46266784674E+02 -0.58387790596E+02 -0.21929549182E+02  0.77799386772E+02  0.47000000000E+01 0.  1.
          5    1    3    3  503    0  0.10073210276E+02  0.33759695003E+02 -0.61392431326E+01  0.36068918451E+02  0.47000000000E+01 0. -1.
         -5    1    4    4    0  502 -0.53520691197E+02  0.13067573601E+01 -0.35116823992E+02  0.64198546154E+02  0.47000000000E+01 0.  1.
<mgrwt>
<rscale>  0 0.11216658E+03</rscale>
<asrwt>0</asrwt>
<pdfrwt beam="1">  1        2 0.42558737E-01 0.11277717E+03</pdfrwt>
<pdfrwt beam="2">  1       -2 0.89785130E-02 0.11277717E+03</pdfrwt>
<totfact> 0.87942022E+03</totfact>
</mgrwt>
</event>
<event>
 8    1  0.3466492E-004  0.1245804E+03  0.7546771E-02  0.1235777E+00
         -3   -1    0    0    0  501 -0.00000000000E+00  0.00000000000E+00  0.20890472718E+03  0.20890472718E+03  0.00000000000E+00 0.  1.
          3   -1    0    0  501    0  0.00000000000E+00 -0.00000000000E+00 -0.37652518351E+03  0.37652518351E+03  0.00000000000E+00 0. -1.
         23    2    1    2    0    0  0.26906582125E+02  0.79505225252E+02  0.17848288428E+03  0.21758781873E+03  0.91887288978E+02 0.  0.
         23    2    1    2    0    0 -0.26906582125E+02 -0.79505225252E+02 -0.34610334060E+03  0.36784209196E+03  0.92061051675E+02 0.  0.
          5    1    3    3  502    0  0.32746609859E+02  0.19052332516E+02  0.11546076127E+02  0.39884003127E+02  0.47000000000E+01 0. -1.
         -5    1    4    4    0  503 -0.31511236596E+02 -0.18540563346E+02 -0.25728979412E+03  0.25991698421E+03  0.47000000000E+01 0.  1.
          5    1    4    4  503    0  0.46046544713E+01 -0.60964661906E+02 -0.88813546481E+02  0.10792510775E+03  0.47000000000E+01 0. -1.
         -5    1    3    3    0  502 -0.58400277342E+01  0.60452892736E+02  0.16693680815E+03  0.17770381560E+03  0.47000000000E+01 0.  1.
<mgrwt>
<rscale>  0 0.12454832E+03</rscale>
<asrwt>0</asrwt>
<pdfrwt beam="1">  1        3 0.57926951E-01 0.12458042E+03</pdfrwt>
<pdfrwt beam="2">  1       -3 0.32139189E-01 0.12458042E+03</pdfrwt>
<totfact> 0.65387345E+01</totfact>
</mgrwt>
</event>
<event>
 8    1  0.3466492E-004  0.9914791E+02  0.7546771E-02  0.1282601E+00
         -2   -1    0    0    0  501 -0.00000000000E+00  0.00000000000E+00  0.52566126451E+02  0.52566126451E+02  0.00000000000E+00 0.  1.
          2   -1    0    0  501    0  0.00000000000E+00 -0.00000000000E+00 -0.20726966615E+03  0.20726966615E+03  0.00000000000E+00 0. -1.
         23    2    1    2    0    0  0.29280345418E+02 -0.17116070231E+02 -0.35324520726E+02  0.10525269272E+03  0.93166566277E+02 0.  0.
         23    2    1    2    0    0 -0.29280345418E+02  0.17116070231E+02 -0.11937901898E+03  0.15458309989E+03  0.92164451449E+02 0.  0.
          5    1    4    4  502    0  0.30299320779E+02 -0.10384118388E+02 -0.37157581640E+02  0.49281382162E+02  0.47000000000E+01 0. -1.
         -5    1    4    4    0  502 -0.59579666198E+02  0.27500188619E+02 -0.82221437335E+02  0.10530171772E+03  0.47000000000E+01 0.  1.
          5    1    3    3  503    0  0.58532332905E+02 -0.29327583938E+02 -0.15075735803E+02  0.67346187605E+02  0.47000000000E+01 0. -1.
         -5    1    3    3    0  503 -0.29251987487E+02  0.12211513707E+02 -0.20248784922E+02  0.37906505112E+02  0.47000000000E+01 0.  1.
<mgrwt>
<rscale>  0 0.98911800E+02</rscale>
<asrwt>0</asrwt>
<pdfrwt beam="1">  1        2 0.31887641E-01 0.99147907E+02</pdfrwt>
<pdfrwt beam="2">  1       -2 0.80870965E-02 0.99147907E+02</pdfrwt>
<totfact> 0.13873803E+04</totfact>
</mgrwt>
</event>
<event>
 8    1  0.3466492E-004  0.9904864E+02  0.7546771E-02  0.1282488E+00
         -1   -1    0    0    0  501 -0.00000000000E+00  0.00000000000E+00  0.38739859705E+02  0.38739859705E+02  0.00000000000E+00 0.  1.
          1   -1    0    0  501    0  0.00000000000E+00 -0.00000000000E+00 -0.26531508783E+03  0.26531508783E+03  0.00000000000E+00 0. -1.
         23    2    1    2    0    0 -0.10566142384E+02  0.38048219255E+02 -0.14666295282E+03  0.17678906498E+03  0.90471218709E+02 0.  0.
         23    2    1    2    0    0  0.10566142384E+02 -0.38048219255E+02 -0.79912275305E+02  0.12726588255E+03  0.90836791905E+02 0.  0.
          5    1    4    4  502    0  0.48202599923E+02 -0.33803102006E+02 -0.60105259200E+02  0.84266675075E+02  0.47000000000E+01 0. -1.
         -5    1    3    3    0  503 -0.41521437360E+02  0.24235799567E+02 -0.13008321227E+03  0.13876287636E+03  0.47000000000E+01 0.  1.
          5    1    3    3  503    0  0.30955294976E+02  0.13812419689E+02 -0.16579740553E+02  0.38026188627E+02  0.47000000000E+01 0. -1.
         -5    1    4    4    0  502 -0.37636457539E+02 -0.42451172488E+01 -0.19807016105E+02  0.42999207476E+02  0.47000000000E+01 0.  1.
<mgrwt>
<rscale>  0 0.98964744E+02</rscale>
<asrwt>0</asrwt>
<pdfrwt beam="1">  1        1 0.40817706E-01 0.99048640E+02</pdfrwt>
<pdfrwt beam="2">  1       -1 0.59599784E-02 0.99048640E+02</pdfrwt>
<totfact> 0.12640762E+04</totfact>
</mgrwt>
</event>
<event>
 8    1  0.3466492E-004  0.1015932E+03  0.7546771E-02  0.1277477E+00
         -2   -1    0    0    0  501 -0.00000000000E+00  0.00000000000E+00  0.38026867224E+02  0.38026867224E+02  0.00000000000E+00 0.  1.
          2   -1    0    0  501    0  0.00000000000E+00 -0.00000000000E+00 -0.36014301029E+03  0.36014301029E+03  0.00000000000E+00 0. -1.
         23    2    1    2    0    0  0.30034486229E+01 -0.42239864523E+02 -0.60259278727E+02  0.11729589584E+03  0.91290304251E+02 0.  0.
         23    2    1    2    0    0 -0.30034486229E+01  0.42239864523E+02 -0.26185686434E+03  0.28087398167E+03  0.92346896645E+02 0.  0.
          5    1    3    3  502    0 -0.33288893952E+02  0.11573121669E+02 -0.21552785447E+02  0.41577640220E+02  0.47000000000E+01 0. -1.
         -5    1    3    3    0  502  0.36292342575E+02 -0.53812986193E+02 -0.38706493280E+02  0.75718255623E+02  0.47000000000E+01 0.  1.
          5    1    4    4  503    0 -0.22259501094E+02  0.65873024336E+02 -0.19914265063E+03  0.21098489525E+03  0.47000000000E+01 0. -1.
         -5    1    4    4    0  503  0.19256052471E+02 -0.23633159813E+02 -0.62714213708E+02  0.69889086419E+02  0.47000000000E+01 0.  1.
<mgrwt>
<rscale>  0 0.10135247E+03</rscale>
<asrwt>0</asrwt>
<pdfrwt beam="1">  1        2 0.55406618E-01 0.10159319E+03</pdfrwt>
<pdfrwt beam="2">  1       -2 0.58502871E-02 0.10159319E+03</pdfrwt>
<totfact> 0.12696526E+04</totfact>
</mgrwt>
</event>
<event>
 8    1  0.3466492E-004  0.9755786E+02  0.7546771E-02  0.1286100E+00
         -1   -1    0    0    0  501 -0.00000000000E+00  0.00000000000E+00  0.27785538168E+02  0.27785538168E+02  0.00000000000E+00 0.  1.
          1   -1    0    0  501    0  0.00000000000E+00 -0.00000000000E+00 -0.49384548025E+03  0.49384548025E+03  0.00000000000E+00 0. -1.
         23    2    1    2    0    0  0.39077724805E+02 -0.89818551891E+01 -0.87771648839E+02  0.13123032266E+03  0.88937016741E+02 0.  0.
         23    2    1    2    0    0 -0.39077724805E+02  0.89818551891E+01 -0.37828829324E+03  0.39040069576E+03  0.87766326940E+02 0.  0.
          5    1    3    3  502    0  0.10316175088E+02  0.39442769467E+02 -0.36715338966E+02  0.55065975403E+02  0.47000000000E+01 0. -1.
         -5    1    4    4    0  503 -0.10288402035E+00 -0.34708551634E+02 -0.99291695742E+02  0.10528829462E+03  0.47000000000E+01 0.  1.
          5    1    4    4  503    0 -0.38974840785E+02  0.43690406823E+02 -0.27899659750E+03  0.28511240113E+03  0.47000000000E+01 0. -1.
         -5    1    3    3    0  502  0.28761549717E+02 -0.48424624656E+02 -0.51056309873E+02  0.76164347256E+02  0.47000000000E+01 0.  1.
<mgrwt>
<rscale>  0 0.97290247E+02</rscale>
<asrwt>0</asrwt>
<pdfrwt beam="1">  1        1 0.75976226E-01 0.97557856E+02</pdfrwt>
<pdfrwt beam="2">  1       -1 0.42746983E-02 0.97557856E+02</pdfrwt>
<totfact> 0.95045690E+03</totfact>
</mgrwt>
</event>
<event>
 8    1  0.3466492E-004  0.1169846E+03  0.7546771E-02  0.1249509E+00
         -1   -1    0    0    0  501 -0.00000000000E+00  0.00000000000E+00  0.39968149991E+02  0.39968149991E+02  0.00000000000E+00 0.  1.
          1   -1    0    0  501    0  0.00000000000E+00 -0.00000000000E+00 -0.34797202933E+03  0.34797202933E+03  0.00000000000E+00 0. -1.
         23    2    1    2    0    0  0.69723735707E+02  0.42410252745E+01 -0.19180052563E+03  0.22305045893E+03  0.89914848504E+02 0.  0.
         23    2    1    2    0    0 -0.69723735707E+02 -0.42410252745E+01 -0.11620335371E+03  0.16488972039E+03  0.93840369034E+02 0.  0.
          5    1    4    4  502    0 -0.91008772229E+02 -0.10041394382E+02 -0.77299101154E+02  0.11991941987E+03  0.47000000000E+01 0. -1.
         -5    1    4    4    0  502  0.21285036522E+02  0.58003691078E+01 -0.38904252556E+02  0.44970300515E+02  0.47000000000E+01 0.  1.
          5    1    3    3  503    0  0.12607973155E+02  0.42347908177E+02 -0.86673446674E+02  0.97399603041E+02  0.47000000000E+01 0. -1.
         -5    1    3    3    0  503  0.57115762552E+02 -0.38106882903E+02 -0.10512707896E+03  0.12565085589E+03  0.47000000000E+01 0.  1.
<mgrwt>
<rscale>  0 0.11619548E+03</rscale>
<asrwt>0</asrwt>
<pdfrwt beam="1">  1        1 0.53534158E-01 0.11698462E+03</pdfrwt>
<pdfrwt beam="2">  1       -1 0.61489462E-02 0.11698462E+03</pdfrwt>
<totfact> 0.87675688E+03</totfact>
</mgrwt>
</event>
<event>
 8    1  0.3466492E-004  0.9668201E+02  0.7546771E-02  0.1288160E+00
          1   -1    0    0  501    0  0.00000000000E+00  0.00000000000E+00  0.61768247368E+03  0.61768247368E+03  0.00000000000E+00 0. -1.
         -1   -1    0    0    0  501 -0.00000000000E+00 -0.00000000000E+00 -0.21844539326E+02  0.21844539326E+02  0.00000000000E+00 0.  1.
         23    2    1    2    0    0  0.18842324948E+02  0.17850412640E+02  0.11660343204E+03  0.15063733247E+03  0.91769140407E+02 0.  0.
         23    2    1    2    0    0 -0.18842324948E+02 -0.17850412640E+02  0.47923450232E+03  0.48888968053E+03  0.93132921567E+02 0.  0.
          5    1    3    3  502    0  0.11095293930E+02 -0.31307468687E+02  0.85297656333E+02  0.91657205494E+02  0.47000000000E+01 0. -1.
         -5    1    3    3    0  502  0.77470310176E+01  0.49157881327E+02  0.31305775703E+02  0.58980126979E+02  0.47000000000E+01 0.  1.
          5    1    4    4  503    0 -0.54964595780E+02 -0.23226653241E+02  0.29916658861E+03  0.30509559478E+03  0.47000000000E+01 0. -1.
         -5    1    4    4    0  503  0.36122270832E+02  0.53762406010E+01  0.18006791370E+03  0.18379408576E+03  0.47000000000E+01 0.  1.
<mgrwt>
<rscale>  0 0.96352073E+02</rscale>
<asrwt>0</asrwt>
<pdfrwt beam="1">  1        1 0.95028060E-01 0.96682012E+02</pdfrwt>
<pdfrwt beam="2">  1       -1 0.33606988E-02 0.96682012E+02</pdfrwt>
<totfact> 0.10032906E+04</totfact>
</mgrwt>
</event>
<event>
 8    1  0.3466492E-004  0.1214274E+03  0.7546771E-02  0.1243759E+00
          1   -1    0    0  501    0  0.00000000000E+00  0.00000000000E+00  0.10998098222E+04  0.10998098222E+04  0.00000000000E+00 0. -1.
         -1   -1    0    0    0  501 -0.00000000000E+00 -0.00000000000E+00 -0.12629422377E+02  0.12629422377E+02  0.00000000000E+00 0.  1.
         23    2    1    2    0    0  0.13924461221E+02  0.77523282906E+02  0.55696141303E+03  0.57004440092E+03  0.92416737691E+02 0.  0.
         23    2    1    2    0    0 -0.13924461221E+02 -0.77523282906E+02  0.53021898679E+03  0.54239484365E+03  0.82802430248E+02 0.  0.
          5    1    3    3  502    0 -0.20350514726E+02 -0.10259056254E+02  0.63177990727E+02  0.67327113388E+02  0.47000000000E+01 0. -1.
         -5    1    3    3    0  502  0.34274975947E+02  0.87782339160E+02  0.49378342230E+03  0.50271728754E+03  0.47000000000E+01 0.  1.
          5    1    4    4  503    0  0.85986257817E+01 -0.72319122162E+02  0.49270412515E+03  0.49807974937E+03  0.47000000000E+01 0. -1.
         -5    1    4    4    0  503 -0.22523087002E+02 -0.52041607440E+01  0.37514861645E+02  0.44315094284E+02  0.47000000000E+01 0.  1.
<mgrwt>
<rscale>  0 0.11959975E+03</rscale>
<asrwt>0</asrwt>
<pdfrwt beam="1">  1        1 0.16920144E+00 0.12142736E+03</pdfrwt>
<pdfrwt beam="2">  1       -1 0.19429889E-02 0.12142736E+03</pdfrwt>
<totfact> 0.92839791E+03</totfact>
</mgrwt>
</event>
<event>
 8    1  0.3466492E-004  0.1489002E+03  0.7546771E-02  0.1202042E+00
         -2   -1    0    0    0  501 -0.00000000000E+00  0.00000000000E+00  0.62754787158E+02  0.62754787158E+02  0.00000000000E+00 0.  1.
          2   -1    0    0  501    0  0.00000000000E+00 -0.00000000000E+00 -0.35651635824E+03  0.35651635824E+03  0.00000000000E+00 0. -1.
         23    2    1    2    0    0  0.11407226952E+03 -0.21432819777E+02 -0.12282488156E+03  0.19302127650E+03  0.93270644992E+02 0.  0.
         23    2    1    2    0    0 -0.11407226952E+03  0.21432819777E+02 -0.17093668952E+03  0.22624986889E+03  0.92183528418E+02 0.  0.
          5    1    4    4  502    0 -0.28874064681E+02  0.30556764873E+02 -0.11816286717E+03  0.12550689491E+03  0.47000000000E+01 0. -1.
         -5    1    4    4    0  502 -0.85198204837E+02 -0.91239450963E+01 -0.52773822348E+02  0.10074297398E+03  0.47000000000E+01 0.  1.
          5    1    3    3  503    0  0.65786225020E+02  0.27522154186E+02 -0.94561036077E+02  0.11852921968E+03  0.47000000000E+01 0. -1.
         -5    1    3    3    0  503  0.48286044499E+02 -0.48954973962E+02 -0.28263845479E+02  0.74492056827E+02  0.47000000000E+01 0.  1.
<mgrwt>
<rscale>  0 0.14873025E+03</rscale>
<asrwt>0</asrwt>
<pdfrwt beam="1">  1        2 0.54848672E-01 0.14890017E+03</pdfrwt>
<pdfrwt beam="2">  1       -2 0.96545824E-02 0.14890017E+03</pdfrwt>
<totfact> 0.61165443E+03</totfact>
</mgrwt>
</event>
<event>
 8    1  0.3466492E-004  0.1003035E+03  0.7546771E-02  0.1280060E+00
          1   -1    0    0  501    0  0.00000000000E+00  0.00000000000E+00  0.43432778275E+03  0.43432778275E+03  0.00000000000E+00 0. -1.
         -1   -1    0    0    0  501 -0.00000000000E+00 -0.00000000000E+00 -0.24986500035E+02  0.24986500035E+02  0.00000000000E+00 0.  1.
         23    2    1    2    0    0 -0.25939645945E+02 -0.31342378752E+02  0.13900965725E+03  0.17097425592E+03  0.90847682628E+02 0.  0.
         23    2    1    2    0    0  0.25939645945E+02  0.31342378752E+02  0.27033162547E+03  0.28834002687E+03  0.91681914422E+02 0.  0.
          5    1    3    3  502    0 -0.69539919720E+01 -0.23529356438E+02  0.14650433766E+03  0.14861897446E+03  0.47000000000E+01 0. -1.
         -5    1    4    4    0  503 -0.18449502151E+02 -0.15290451455E+02  0.26186985468E+02  0.35805449910E+02  0.47000000000E+01 0.  1.
          5    1    4    4  503    0  0.44389148096E+02  0.46632830207E+02  0.24414464000E+03  0.25253457697E+03  0.47000000000E+01 0. -1.
         -5    1    3    3    0  502 -0.18985653973E+02 -0.78130223142E+01 -0.74946804033E+01  0.22355281452E+02  0.47000000000E+01 0.  1.
<mgrwt>
<rscale>  0 0.10011242E+03</rscale>
<asrwt>0</asrwt>
<pdfrwt beam="1">  1        1 0.66819653E-01 0.10030346E+03</pdfrwt>
<pdfrwt beam="2">  1       -1 0.38440772E-02 0.10030346E+03</pdfrwt>
<totfact> 0.13092287E+04</totfact>
</mgrwt>
</event>
<event>
 8    1  0.3466492E-004  0.9723898E+02  0.7546771E-02  0.1286318E+00
         -2   -1    0    0    0  501 -0.00000000000E+00  0.00000000000E+00  0.16027663727E+03  0.16027663727E+03  0.00000000000E+00 0.  1.
          2   -1    0    0  501    0  0.00000000000E+00 -0.00000000000E+00 -0.63175335091E+02  0.63175335091E+02  0.00000000000E+00 0. -1.
         23    2    1    2    0    0  0.22081482258E+02 -0.22320548290E+02  0.19358202738E+02  0.98955350294E+02  0.91823867288E+02 0.  0.
         23    2    1    2    0    0 -0.22081482258E+02  0.22320548290E+02  0.77743099440E+02  0.12449662207E+03  0.92030542000E+02 0.  0.
          5    1    3    3  502    0  0.24609549026E+02 -0.56798171888E+02  0.14275508315E+02  0.63698841204E+02  0.47000000000E+01 0. -1.
         -5    1    4    4    0  503  0.28012369110E+02  0.33425818072E+02  0.23820641120E+02  0.49914838278E+02  0.47000000000E+01 0.  1.
          5    1    4    4  503    0 -0.50093851368E+02 -0.11105269782E+02  0.53922458320E+02  0.74581783789E+02  0.47000000000E+01 0. -1.
         -5    1    3    3    0  502 -0.25280667677E+01  0.34477623598E+02  0.50826944237E+01  0.35256509090E+02  0.47000000000E+01 0.  1.
<mgrwt>
<rscale>  0 0.97190049E+02</rscale>
<asrwt>0</asrwt>
<pdfrwt beam="1">  1        2 0.97192824E-02 0.97238981E+02</pdfrwt>
<pdfrwt beam="2">  1       -2 0.24657944E-01 0.97238981E+02</pdfrwt>
<totfact> 0.88299077E+03</totfact>
</mgrwt>
</event>
<event>
 8    1  0.3466492E-004  0.9877997E+02  0.7546771E-02  0.1284373E+00
         -1   -1    0    0    0  501 -0.00000000000E+00  0.00000000000E+00  0.64847686217E+02  0.64847686217E+02  0.00000000000E+00 0.  1.
          1   -1    0    0  501    0  0.00000000000E+00 -0.00000000000E+00 -0.81719811447E+03  0.81719811447E+03  0.00000000000E+00 0. -1.
         23    2    1    2    0    0 -0.96058905276E+01 -0.32518759751E+02  0.22464531821E+02  0.10130220730E+03  0.92777902252E+02 0.  0.
         23    2    1    2    0    0  0.96058905276E+01  0.32518759751E+02 -0.77481496008E+03  0.78074359338E+03  0.89847612008E+02 0.  0.
          5    1    3    3  502    0  0.32316541176E+02 -0.44111307368E+02  0.97516232361E+01  0.55743613330E+02  0.47000000000E+01 0. -1.
         -5    1    4    4    0  503  0.21705033429E+02 -0.25702505649E+02 -0.20258785569E+03  0.20541581376E+03  0.47000000000E+01 0.  1.
          5    1    4    4  503    0 -0.12099142901E+02  0.58221265400E+02 -0.57222710439E+03  0.57532777962E+03  0.47000000000E+01 0. -1.
         -5    1    3    3    0  502 -0.41922431704E+02  0.11592547617E+02  0.12712908585E+02  0.45558593974E+02  0.47000000000E+01 0.  1.
<mgrwt>
<rscale>  0 0.98085945E+02</rscale>
<asrwt>0</asrwt>
<pdfrwt beam="1">  1        1 0.12572280E+00 0.98779968E+02</pdfrwt>
<pdfrwt beam="2">  1       -1 0.99765661E-02 0.98779968E+02</pdfrwt>
<totfact> 0.13533922E+03</totfact>
</mgrwt>
</event>
<event>
 8    1  0.3466492E-004  0.1008810E+03  0.7546771E-02  0.1278969E+00
         -1   -1    0    0    0  501 -0.00000000000E+00  0.00000000000E+00  0.27551328917E+02  0.27551328917E+02  0.00000000000E+00 0.  1.
          1   -1    0    0  501    0  0.00000000000E+00 -0.00000000000E+00 -0.57635702593E+03  0.57635702593E+03  0.00000000000E+00 0. -1.
         23    2    1    2    0    0 -0.23096071099E+02 -0.37456364007E+02 -0.45606184605E+03  0.46687404826E+03  0.89680331277E+02 0.  0.
         23    2    1    2    0    0  0.23096071099E+02  0.37456364007E+02 -0.92743850964E+02  0.13703430658E+03  0.90777594061E+02 0.  0.
          5    1    4    4  502    0 -0.22770924562E+02  0.26231526343E+02 -0.25829574336E+01  0.35147825663E+02  0.47000000000E+01 0. -1.
         -5    1    3    3    0  503 -0.22862483012E+02 -0.65920480978E+02 -0.35244430158E+03  0.35931501312E+03  0.47000000000E+01 0.  1.
          5    1    3    3  503    0 -0.23358808683E+00  0.28464116972E+02 -0.10361754447E+03  0.10755903514E+03  0.47000000000E+01 0. -1.
         -5    1    4    4    0  502  0.45866995662E+02  0.11224837663E+02 -0.90160893530E+02  0.10188648092E+03  0.47000000000E+01 0.  1.
<mgrwt>
<rscale>  0 0.10063355E+03</rscale>
<asrwt>0</asrwt>
<pdfrwt beam="1">  1        1 0.88670309E-01 0.10088102E+03</pdfrwt>
<pdfrwt beam="2">  1       -1 0.42386661E-02 0.10088102E+03</pdfrwt>
<totfact> 0.78826467E+03</totfact>
</mgrwt>
</event>
<event>
 8    1  0.3466492E-004  0.9490843E+02  0.7546771E-02  0.1291534E+00
         -1   -1    0    0    0  501 -0.00000000000E+00  0.00000000000E+00  0.65439213349E+02  0.65439213349E+02  0.00000000000E+00 0.  1.
          1   -1    0    0  501    0  0.00000000000E+00 -0.00000000000E+00 -0.40047532843E+03  0.40047532843E+03  0.00000000000E+00 0. -1.
         23    2    1    2    0    0  0.19018408249E+02 -0.18813102397E+02  0.21424606424E+02  0.97035353129E+02  0.90781128668E+02 0.  0.
         23    2    1    2    0    0 -0.19018408249E+02  0.18813102397E+02 -0.35646072151E+03  0.36887918866E+03  0.91060294146E+02 0.  0.
          5    1    3    3  502    0 -0.28468019813E+02  0.44546641509E+01 -0.14832318581E+02  0.32746906102E+02  0.47000000000E+01 0. -1.
         -5    1    4    4    0  503  0.95102496770E+01  0.43605975570E+02 -0.10003654984E+03  0.10964181346E+03  0.47000000000E+01 0.  1.
          5    1    4    4  503    0 -0.28528657926E+02 -0.24792873173E+02 -0.25642417167E+03  0.25923737520E+03  0.47000000000E+01 0. -1.
         -5    1    3    3    0  502  0.47486428062E+02 -0.23267766548E+02  0.36256925006E+02  0.64288447027E+02  0.47000000000E+01 0.  1.
<mgrwt>
<rscale>  0 0.94841404E+02</rscale>
<asrwt>0</asrwt>
<pdfrwt beam="1">  1        1 0.61611589E-01 0.94908429E+02</pdfrwt>
<pdfrwt beam="2">  1       -1 0.10067571E-01 0.94908429E+02</pdfrwt>
<totfact> 0.34717171E+03</totfact>
</mgrwt>
</event>
<event>
 8    1  0.3466492E-004  0.1131721E+03  0.7546771E-02  0.1255889E+00
         -2   -1    0    0    0  501 -0.00000000000E+00  0.00000000000E+00  0.13302789987E+03  0.13302789987E+03  0.00000000000E+00 0.  1.
          2   -1    0    0  501    0  0.00000000000E+00 -0.00000000000E+00 -0.95994228741E+02  0.95994228741E+02  0.00000000000E+00 0. -1.
         23    2    1    2    0    0  0.31551330484E+02  0.61524128211E+02  0.32651367463E+01  0.11321919394E+03  0.89594754038E+02 0.  0.
         23    2    1    2    0    0 -0.31551330484E+02 -0.61524128211E+02  0.33768534386E+02  0.11580293468E+03  0.86540747381E+02 0.  0.
          5    1    3    3  502    0  0.44085773550E+02  0.30568879257E+02 -0.33425851201E+02  0.63382878895E+02  0.47000000000E+01 0. -1.
         -5    1    4    4    0  503 -0.15316820093E+02  0.21065584671E+02  0.84114096852E+01  0.27770589627E+02  0.47000000000E+01 0.  1.
          5    1    4    4  503    0 -0.16234510391E+02 -0.82589712882E+02  0.25357124701E+02  0.88032345048E+02  0.47000000000E+01 0. -1.
         -5    1    3    3    0  502 -0.12534443066E+02  0.30955248954E+02  0.36690987947E+02  0.49836315045E+02  0.47000000000E+01 0.  1.
<mgrwt>
<rscale>  0 0.11256675E+03</rscale>
<asrwt>0</asrwt>
<pdfrwt beam="1">  1        2 0.14768343E-01 0.11317210E+03</pdfrwt>
<pdfrwt beam="2">  1       -2 0.20465831E-01 0.11317210E+03</pdfrwt>
<totfact> 0.74696176E+03</totfact>
</mgrwt>
</event>
<event>
 8    1  0.3466492E-004  0.9968046E+02  0.7546771E-02  0.1281539E+00
          1   -1    0    0  501    0  0.00000000000E+00  0.00000000000E+00  0.51462215201E+03  0.51462215201E+03  0.00000000000E+00 0. -1.
         -1   -1    0    0    0  501 -0.00000000000E+00 -0.00000000000E+00 -0.19476516823E+02  0.19476516823E+02  0.00000000000E+00 0.  1.
         23    2    1    2    0    0 -0.31948003854E+02 -0.12508751028E+02  0.21178816927E+03  0.23407354235E+03  0.93589800640E+02 0.  0.
         23    2    1    2    0    0  0.31948003854E+02  0.12508751028E+02  0.28335746592E+03  0.30002512648E+03  0.92447169924E+02 0.  0.
          5    1    4    4  502    0  0.33864777638E+02 -0.36108667709E+02  0.14279393543E+03  0.15120468592E+03  0.47000000000E+01 0. -1.
         -5    1    3    3    0  503 -0.20303140638E+02 -0.48986252269E+02  0.16531164716E+03  0.17367182016E+03  0.47000000000E+01 0.  1.
          5    1    3    3  503    0 -0.11644863216E+02  0.36477501241E+02  0.46476522104E+02  0.60401722186E+02  0.47000000000E+01 0. -1.
         -5    1    4    4    0  502 -0.19167737841E+01  0.48617418737E+02  0.14056353049E+03  0.14882044057E+03  0.47000000000E+01 0.  1.
<mgrwt>
<rscale>  0 0.99411367E+02</rscale>
<asrwt>0</asrwt>
<pdfrwt beam="1">  1        1 0.79172629E-01 0.99680462E+02</pdfrwt>
<pdfrwt beam="2">  1       -1 0.29963876E-02 0.99680462E+02</pdfrwt>
<totfact> 0.15118097E+04</totfact>
</mgrwt>
</event>
<event>
 8    1  0.3466492E-004  0.1002917E+03  0.7546771E-02  0.1279693E+00
          2   -1    0    0  501    0  0.00000000000E+00  0.00000000000E+00  0.72547981402E+03  0.72547981402E+03  0.00000000000E+00 0. -1.
         -2   -1    0    0    0  501 -0.00000000000E+00 -0.00000000000E+00 -0.13333253898E+03  0.13333253898E+03  0.00000000000E+00 0.  1.
         23    2    1    2    0    0  0.35040666240E+02  0.21932439719E+02 -0.11039555261E+03  0.14914958284E+03  0.91375816396E+02 0.  0.
         23    2    1    2    0    0 -0.35040666240E+02 -0.21932439719E+02  0.70254282765E+03  0.70966277017E+03  0.91356129976E+02 0.  0.
          5    1    4    4  502    0 -0.29198222823E+02 -0.55755644450E+02  0.37276590083E+03  0.37807107126E+03  0.47000000000E+01 0. -1.
         -5    1    4    4    0  502 -0.58424434178E+01  0.33823204730E+02  0.32977692682E+03  0.33159169891E+03  0.47000000000E+01 0.  1.
          5    1    3    3  503    0 -0.10522903411E+02  0.30131731551E+02 -0.33583367819E+01  0.32434875804E+02  0.47000000000E+01 0. -1.
         -5    1    3    3    0  503  0.45563569651E+02 -0.81992918322E+01 -0.10703721583E+03  0.11671470703E+03  0.47000000000E+01 0.  1.
<mgrwt>
<rscale>  0 0.10028719E+03</rscale>
<asrwt>0</asrwt>
<pdfrwt beam="1">  1        2 0.11161228E+00 0.10029167E+03</pdfrwt>
<pdfrwt beam="2">  1       -2 0.20512699E-01 0.10029167E+03</pdfrwt>
<totfact> 0.81071454E+02</totfact>
</mgrwt>
</event>
<event>
 8    1  0.3466492E-004  0.9789728E+02  0.7546771E-02  0.1286562E+00
          3   -1    0    0  501    0  0.00000000000E+00  0.00000000000E+00  0.44306588462E+02  0.44306588462E+02  0.00000000000E+00 0. -1.
         -3   -1    0    0    0  501 -0.00000000000E+00 -0.00000000000E+00 -0.27127764620E+03  0.27127764620E+03  0.00000000000E+00 0.  1.
         23    2    1    2    0    0 -0.89335697740E+01  0.23550287115E+02 -0.36555692062E+02  0.10147704256E+03  0.91251558080E+02 0.  0.
         23    2    1    2    0    0  0.89335697740E+01 -0.23550287115E+02 -0.19041536567E+03  0.21410719210E+03  0.94601551431E+02 0.  0.
          5    1    3    3  502    0 -0.20540673258E+02 -0.31658464382E+02 -0.15788329239E+02  0.41176922725E+02  0.47000000000E+01 0. -1.
         -5    1    3    3    0  502  0.11607103484E+02  0.55208751497E+02 -0.20767362823E+02  0.60300119833E+02  0.47000000000E+01 0.  1.
          5    1    4    4  503    0 -0.31890042313E+02  0.19325073978E+02 -0.88519809961E+02  0.96167978239E+02  0.47000000000E+01 0. -1.
         -5    1    4    4    0  503  0.40823612087E+02 -0.42875361093E+02 -0.10189555571E+03  0.11793921386E+03  0.47000000000E+01 0.  1.
<mgrwt>
<rscale>  0 0.97078753E+02</rscale>
<asrwt>0</asrwt>
<pdfrwt beam="1">  1        3 0.68163982E-02 0.97897284E+02</pdfrwt>
<pdfrwt beam="2">  1       -3 0.41735022E-01 0.97897284E+02</pdfrwt>
<totfact> 0.17123402E+03</totfact>
</mgrwt>
</event>
<event>
 8    1  0.3466492E-004  0.1079972E+03  0.7546771E-02  0.1266588E+00
         -1   -1    0    0    0  501 -0.00000000000E+00  0.00000000000E+00  0.17450178274E+03  0.17450178274E+03  0.00000000000E+00 0.  1.
          1   -1    0    0  501    0  0.00000000000E+00 -0.00000000000E+00 -0.64181896105E+02  0.64181896105E+02  0.00000000000E+00 0. -1.
         23    2    1    2    0    0  0.26296579299E+02  0.50967949960E+02  0.49772242714E+02  0.11891458432E+03  0.91510437733E+02 0.  0.
         23    2    1    2    0    0 -0.26296579299E+02 -0.50967949960E+02  0.60547643925E+02  0.11976909452E+03  0.85961484472E+02 0.  0.
          5    1    4    4  502    0 -0.26483367984E+02 -0.71952438418E+02  0.30121243169E+02  0.82510008267E+02  0.47000000000E+01 0. -1.
         -5    1    4    4    0  502  0.18678868480E+00  0.20984488458E+02  0.30426400755E+02  0.37259086258E+02  0.47000000000E+01 0.  1.
          5    1    3    3  503    0  0.32141281680E+02 -0.18994124555E+02  0.17913758136E+02  0.41675310271E+02  0.47000000000E+01 0. -1.
         -5    1    3    3    0  503 -0.58447023817E+01  0.69962074515E+02  0.31858484578E+02  0.77239274052E+02  0.47000000000E+01 0.  1.
<mgrwt>
<rscale>  0 0.10681294E+03</rscale>
<asrwt>0</asrwt>
<pdfrwt beam="1">  1        1 0.98741379E-02 0.10799723E+03</pdfrwt>
<pdfrwt beam="2">  1       -1 0.26846428E-01 0.10799723E+03</pdfrwt>
<totfact> 0.74800234E+03</totfact>
</mgrwt>
</event>
<event>
 8    1  0.3466492E-004  0.1182550E+03  0.7546771E-02  0.1246058E+00
          1   -1    0    0  501    0  0.00000000000E+00  0.00000000000E+00  0.69238648876E+03  0.69238648876E+03  0.00000000000E+00 0. -1.
         -1   -1    0    0    0  501 -0.00000000000E+00 -0.00000000000E+00 -0.20693203430E+02  0.20693203430E+02  0.00000000000E+00 0.  1.
         23    2    1    2    0    0 -0.35341994289E+02 -0.65541494407E+02  0.27961220245E+03  0.30359057968E+03  0.91866818073E+02 0.  0.
         23    2    1    2    0    0  0.35341994289E+02  0.65541494407E+02  0.39208108288E+03  0.40948911251E+03  0.91700674272E+02 0.  0.
          5    1    4    4  502    0  0.24980547502E+02  0.88075789452E+02  0.32934036091E+03  0.34186040391E+03  0.47000000000E+01 0. -1.
         -5    1    3    3    0  503 -0.58279413433E+02 -0.68934408320E+02  0.18277154904E+03  0.20390186811E+03  0.47000000000E+01 0.  1.
          5    1    3    3  503    0  0.22937419144E+02  0.33929139132E+01  0.96840653405E+02  0.99688711567E+02  0.47000000000E+01 0. -1.
         -5    1    4    4    0  502  0.10361446787E+02 -0.22534295046E+02  0.62740721975E+02  0.67628708599E+02  0.47000000000E+01 0.  1.
<mgrwt>
<rscale>  0 0.11822278E+03</rscale>
<asrwt>0</asrwt>
<pdfrwt beam="1">  1        1 0.10652098E+00 0.11825505E+03</pdfrwt>
<pdfrwt beam="2">  1       -1 0.31835703E-02 0.11825505E+03</pdfrwt>
<totfact> 0.94005527E+03</totfact>
</mgrwt>
</event>
<event>
 8    1  0.3466492E-004  0.1081120E+03  0.7546771E-02  0.1265131E+00
          1   -1    0    0  501    0  0.00000000000E+00  0.00000000000E+00  0.53508022440E+03  0.53508022440E+03  0.00000000000E+00 0. -1.
         -1   -1    0    0    0  501 -0.00000000000E+00 -0.00000000000E+00 -0.24433229913E+02  0.24433229913E+02  0.00000000000E+00 0.  1.
         23    2    1    2    0    0  0.37144915250E+02 -0.37862853582E+02  0.15474391606E+03  0.18755216680E+03  0.91743094033E+02 0.  0.
         23    2    1    2    0    0 -0.37144915250E+02  0.37862853582E+02  0.35590307844E+03  0.37196128752E+03  0.94206463498E+02 0.  0.
          5    1    3    3  502    0 -0.16049281750E+02 -0.21308563202E+02  0.11700279911E+03  0.12009737428E+03  0.47000000000E+01 0. -1.
         -5    1    3    3    0  502  0.53194197000E+02 -0.16554290381E+02  0.37741116949E+02  0.67454792513E+02  0.47000000000E+01 0.  1.
          5    1    4    4  503    0 -0.52707820559E+02  0.11622777657E+02  0.96010941823E+02  0.11024243402E+03  0.47000000000E+01 0. -1.
         -5    1    4    4    0  503  0.15562905309E+02  0.26240075926E+02  0.25989213661E+03  0.26171885350E+03  0.47000000000E+01 0.  1.
<mgrwt>
<rscale>  0 0.10757305E+03</rscale>
<asrwt>0</asrwt>
<pdfrwt beam="1">  1        1 0.82320025E-01 0.10811197E+03</pdfrwt>
<pdfrwt beam="2">  1       -1 0.37589589E-02 0.10811197E+03</pdfrwt>
<totfact> 0.10412773E+04</totfact>
</mgrwt>
</event>
<event>
 8    1  0.3466492E-004  0.1058123E+03  0.7546771E-02  0.1274333E+00
          3   -1    0    0  501    0  0.00000000000E+00  0.00000000000E+00  0.21322866980E+02  0.21322866980E+02  0.00000000000E+00 0. -1.
         -3   -1    0    0    0  501 -0.00000000000E+00 -0.00000000000E+00 -0.47097120110E+03  0.47097120110E+03  0.00000000000E+00 0.  1.
         23    2    1    2    0    0 -0.24989058625E+02  0.11320883995E+02 -0.23463022856E+03  0.25738605734E+03  0.10219404529E+03 0.  0.
         23    2    1    2    0    0  0.24989058625E+02 -0.11320883995E+02 -0.21501810556E+03  0.23490801075E+03  0.90533818691E+02 0.  0.
          5    1    4    4  502    0 -0.88757508701E+01  0.30212641556E+02 -0.36373800818E+02  0.48339694344E+02  0.47000000000E+01 0. -1.
         -5    1    4    4    0  502  0.33864809495E+02 -0.41533525551E+02 -0.17864430475E+03  0.18656831640E+03  0.47000000000E+01 0.  1.
          5    1    3    3  503    0  0.78579877214E+01  0.51047342312E+02 -0.91382134062E+02  0.10507313431E+03  0.47000000000E+01 0. -1.
         -5    1    3    3    0  503 -0.32847046347E+02 -0.39726458316E+02 -0.14324809450E+03  0.15231292303E+03  0.47000000000E+01 0.  1.
<mgrwt>
<rscale>  0 0.10289015E+03</rscale>
<asrwt>0</asrwt>
<pdfrwt beam="1">  1        3 0.32804411E-02 0.10581228E+03</pdfrwt>
<pdfrwt beam="2">  1       -3 0.72457108E-01 0.10581228E+03</pdfrwt>
<totfact> 0.17981709E+03</totfact>
</mgrwt>
</event>
<event>
 8    1  0.3466492E-004  0.1097681E+03  0.7546771E-02  0.1261188E+00
          2   -1    0    0  501    0  0.00000000000E+00  0.00000000000E+00  0.13119701813E+04  0.13119701813E+04  0.00000000000E+00 0. -1.
         -2   -1    0    0    0  501 -0.00000000000E+00 -0.00000000000E+00 -0.10592364435E+02  0.10592364435E+02  0.00000000000E+00 0.  1.
         23    2    1    2    0    0 -0.61183442183E+02 -0.11999524199E+01  0.89573756897E+03  0.90243826298E+03  0.91127232653E+02 0.  0.
         23    2    1    2    0    0  0.61183442183E+02  0.11999524199E+01  0.40564024787E+03  0.42012428273E+03  0.90639664435E+02 0.  0.
          5    1    3    3  502    0 -0.36431058614E+02  0.44413140855E+02  0.47981263741E+03  0.48326184013E+03  0.47000000000E+01 0. -1.
         -5    1    3    3    0  502 -0.24752383569E+02 -0.45613093274E+02  0.41592493157E+03  0.41917642285E+03  0.47000000000E+01 0.  1.
          5    1    4    4  503    0  0.41554813384E+02  0.42197482507E+02  0.28484399300E+03  0.29097357336E+03  0.47000000000E+01 0. -1.
         -5    1    4    4    0  503  0.19628628799E+02 -0.40997530087E+02  0.12079625487E+03  0.12915070938E+03  0.47000000000E+01 0.  1.
<mgrwt>
<rscale>  0 0.10966681E+03</rscale>
<asrwt>0</asrwt>
<pdfrwt beam="1">  1        2 0.20184144E+00 0.10976806E+03</pdfrwt>
<pdfrwt beam="2">  1       -2 0.16295956E-02 0.10976806E+03</pdfrwt>
<totfact> 0.17149962E+04</totfact>
</mgrwt>
</event>
<event>
 8    1  0.3466492E-004  0.1005111E+03  0.7546771E-02  0.1282373E+00
          2   -1    0    0  501    0  0.00000000000E+00  0.00000000000E+00  0.73143955967E+02  0.73143955967E+02  0.00000000000E+00 0. -1.
         -2   -1    0    0    0  501 -0.00000000000E+00 -0.00000000000E+00 -0.13078575757E+03  0.13078575757E+03  0.00000000000E+00 0.  1.
         23    2    1    2    0    0  0.42183164089E+00 -0.40155278222E+02 -0.34715308631E+02  0.10083703233E+03  0.85734066304E+02 0.  0.
         23    2    1    2    0    0 -0.42183164089E+00  0.40155278222E+02 -0.22926492972E+02  0.10309268120E+03  0.92140395739E+02 0.  0.
          5    1    3    3  502    0  0.41987167081E+02 -0.17782650647E+02 -0.84428834936E+01  0.46610268667E+02  0.47000000000E+01 0. -1.
         -5    1    4    4    0  503  0.20947722376E+02 -0.19089302183E+02 -0.27503546267E+02  0.39771140138E+02  0.47000000000E+01 0.  1.
          5    1    4    4  503    0 -0.21369554017E+02  0.59244580405E+02  0.45770532952E+01  0.63321541067E+02  0.47000000000E+01 0. -1.
         -5    1    3    3    0  502 -0.41565335441E+02 -0.22372627575E+02 -0.26272425137E+02  0.54226763664E+02  0.47000000000E+01 0.  1.
<mgrwt>
<rscale>  0 0.99018615E+02</rscale>
<asrwt>0</asrwt>
<pdfrwt beam="1">  1        2 0.11252916E-01 0.10051108E+03</pdfrwt>
<pdfrwt beam="2">  1       -2 0.20120886E-01 0.10051108E+03</pdfrwt>
<totfact> 0.10493506E+04</totfact>
</mgrwt>
</event>
<event>
 8    1  0.3466492E-004  0.1508937E+03  0.7546771E-02  0.1199728E+00
          1   -1    0    0  501    0  0.00000000000E+00  0.00000000000E+00  0.99313582977E+02  0.99313582977E+02  0.00000000000E+00 0. -1.
         -1   -1    0    0    0  501 -0.00000000000E+00 -0.00000000000E+00 -0.38327159223E+03  0.38327159223E+03  0.00000000000E+00 0.  1.
         23    2    1    2    0    0  0.94095163270E+02 -0.70945837639E+02  0.11511644465E+02  0.15133213074E+03  0.94242687818E+02 0.  0.
         23    2    1    2    0    0 -0.94095163270E+02  0.70945837639E+02 -0.29546965371E+03  0.33125304446E+03  0.92406988752E+02 0.  0.
          5    1    3    3  502    0  0.62014705248E+02 -0.88910842226E+02 -0.91612296523E+01  0.10888975921E+03  0.47000000000E+01 0. -1.
         -5    1    4    4    0  503 -0.89687234059E+02  0.35688206493E+02 -0.13022968917E+03  0.16217061996E+03  0.47000000000E+01 0.  1.
          5    1    4    4  503    0 -0.44079292108E+01  0.35257631145E+02 -0.16523996454E+03  0.16908242451E+03  0.47000000000E+01 0. -1.
         -5    1    3    3    0  502  0.32080458022E+02  0.17965004588E+02  0.20672874117E+02  0.42442371529E+02  0.47000000000E+01 0.  1.
<mgrwt>
<rscale>  0 0.15060793E+03</rscale>
<asrwt>0</asrwt>
<pdfrwt beam="1">  1        1 0.15279012E-01 0.15089366E+03</pdfrwt>
<pdfrwt beam="2">  1       -1 0.58964861E-01 0.15089366E+03</pdfrwt>
<totfact> 0.10803806E+03</totfact>
</mgrwt>
</event>
<event>
 8    1  0.3466492E-004  0.1065988E+03  0.7546771E-02  0.1268016E+00
          2   -1    0    0  501    0  0.00000000000E+00  0.00000000000E+00  0.45813368002E+03  0.45813368002E+03  0.00000000000E+00 0. -1.
         -2   -1    0    0    0  501 -0.00000000000E+00 -0.00000000000E+00 -0.38809685537E+02  0.38809685537E+02  0.00000000000E+00 0.  1.
         23    2    1    2    0    0 -0.47602396416E+02 -0.27217586778E+02  0.36017530190E+03  0.37503412177E+03  0.88980667688E+02 0.  0.
         23    2    1    2    0    0  0.47602396416E+02  0.27217586778E+02  0.59148692587E+02  0.12190924379E+03  0.91413952497E+02 0.  0.
          5    1    4    4  502    0  0.15891832114E+02  0.12517878756E+02  0.78831768636E+02  0.81521686457E+02  0.47000000000E+01 0. -1.
         -5    1    3    3    0  503 -0.64070853204E+02 -0.44160399743E+02  0.30544643140E+03  0.31523773186E+03  0.47000000000E+01 0.  1.
          5    1    3    3  503    0  0.16468456789E+02  0.16942812965E+02  0.54728870496E+02  0.59796389907E+02  0.47000000000E+01 0. -1.
         -5    1    4    4    0  502  0.31710564301E+02  0.14699708022E+02 -0.19683076049E+02  0.40387557329E+02  0.47000000000E+01 0.  1.
<mgrwt>
<rscale>  0 0.10607512E+03</rscale>
<asrwt>0</asrwt>
<pdfrwt beam="1">  1        2 0.70482101E-01 0.10659876E+03</pdfrwt>
<pdfrwt beam="2">  1       -2 0.59707212E-02 0.10659876E+03</pdfrwt>
<totfact> 0.95764829E+03</totfact>
</mgrwt>
</event>
<event>
 8    1  0.3466492E-004  0.9901008E+02  0.7546771E-02  0.1282684E+00
         -1   -1    0    0    0  501 -0.00000000000E+00  0.00000000000E+00  0.46881854919E+02  0.46881854919E+02  0.00000000000E+00 0.  1.
          1   -1    0    0  501    0  0.00000000000E+00 -0.00000000000E+00 -0.27137876265E+03  0.27137876265E+03  0.00000000000E+00 0. -1.
         23    2    1    2    0    0 -0.23114499788E+02  0.29855704488E+02 -0.18942302283E+03  0.21373834095E+03  0.91527884394E+02 0.  0.
         23    2    1    2    0    0  0.23114499788E+02 -0.29855704488E+02 -0.35073884893E+02  0.10452227661E+03  0.90934513340E+02 0.  0.
          5    1    3    3  502    0  0.31439647699E+02  0.30377820318E+02 -0.92424753943E+02  0.10235081121E+03  0.47000000000E+01 0. -1.
         -5    1    4    4    0  503  0.97754857868E+01 -0.57139274110E+02 -0.36113188083E+00  0.58160787343E+02  0.47000000000E+01 0.  1.
          5    1    4    4  503    0  0.13339014001E+02  0.27283569622E+02 -0.34712753012E+02  0.46361489272E+02  0.47000000000E+01 0. -1.
         -5    1    3    3    0  502 -0.54554147487E+02 -0.52211582930E+00 -0.96998268891E+02  0.11138752974E+03  0.47000000000E+01 0.  1.
<mgrwt>
<rscale>  0 0.98872731E+02</rscale>
<asrwt>0</asrwt>
<pdfrwt beam="1">  1        1 0.41750580E-01 0.99010084E+02</pdfrwt>
<pdfrwt beam="2">  1       -1 0.72125929E-02 0.99010084E+02</pdfrwt>
<totfact> 0.92669353E+03</totfact>
</mgrwt>
</event>
<event>
 8    1  0.3466492E-004  0.9421155E+02  0.7546771E-02  0.1293064E+00
          1   -1    0    0  501    0  0.00000000000E+00  0.00000000000E+00  0.16322776078E+03  0.16322776078E+03  0.00000000000E+00 0. -1.
         -1   -1    0    0    0  501 -0.00000000000E+00 -0.00000000000E+00 -0.91506732752E+02  0.91506732752E+02  0.00000000000E+00 0.  1.
         23    2    1    2    0    0  0.16839721959E+02  0.16955784282E+02  0.11712608127E+03  0.15031412020E+03  0.91130351484E+02 0.  0.
         23    2    1    2    0    0 -0.16839721959E+02 -0.16955784282E+02 -0.45405053241E+02  0.10442037333E+03  0.90944602099E+02 0.  0.
          5    1    3    3  502    0 -0.16884771871E+02  0.42761053633E+02  0.85387128943E+02  0.97090962597E+02  0.47000000000E+01 0. -1.
         -5    1    3    3    0  502  0.33724493830E+02 -0.25805269351E+02  0.31738952324E+02  0.53223157601E+02  0.47000000000E+01 0.  1.
          5    1    4    4  503    0 -0.45910170831E+02  0.11315935319E+02 -0.42065230720E+02  0.63461545942E+02  0.47000000000E+01 0. -1.
         -5    1    4    4    0  503  0.29070448872E+02 -0.28271719601E+02 -0.33398225208E+01  0.40958827391E+02  0.47000000000E+01 0.  1.
<mgrwt>
<rscale>  0 0.94166600E+02</rscale>
<asrwt>0</asrwt>
<pdfrwt beam="1">  1        1 0.25111963E-01 0.94211548E+02</pdfrwt>
<pdfrwt beam="2">  1       -1 0.14077959E-01 0.94211548E+02</pdfrwt>
<totfact> 0.62622033E+03</totfact>
</mgrwt>
</event>
<event>
 8    1  0.3466492E-004  0.1062411E+03  0.7546771E-02  0.1269766E+00
         -1   -1    0    0    0  501 -0.00000000000E+00  0.00000000000E+00  0.37420838744E+02  0.37420838744E+02  0.00000000000E+00 0.  1.
          1   -1    0    0  501    0  0.00000000000E+00 -0.00000000000E+00 -0.31795990721E+03  0.31795990721E+03  0.00000000000E+00 0. -1.
         23    2    1    2    0    0  0.10645895366E+02 -0.47104219762E+02 -0.19050417431E+03  0.21612038536E+03  0.89911278114E+02 0.  0.
         23    2    1    2    0    0 -0.10645895366E+02  0.47104219762E+02 -0.90034894156E+02  0.13926036059E+03  0.94630984665E+02 0.  0.
          5    1    4    4  502    0  0.41542426895E+02  0.27317538012E+02 -0.47577121885E+02  0.68976036724E+02  0.47000000000E+01 0. -1.
         -5    1    3    3    0  503 -0.29725419066E+02 -0.29024489302E+02 -0.15081948609E+03  0.15650760014E+03  0.47000000000E+01 0.  1.
          5    1    3    3  503    0  0.40371314432E+02 -0.18079730460E+02 -0.39684688215E+02  0.59612785216E+02  0.47000000000E+01 0. -1.
         -5    1    4    4    0  502 -0.52188322261E+02  0.19786681750E+02 -0.42457772272E+02  0.70284323867E+02  0.47000000000E+01 0.  1.
<mgrwt>
<rscale>  0 0.10517994E+03</rscale>
<asrwt>0</asrwt>
<pdfrwt beam="1">  1        1 0.48916907E-01 0.10624107E+03</pdfrwt>
<pdfrwt beam="2">  1       -1 0.57570523E-02 0.10624107E+03</pdfrwt>
<totfact> 0.10723444E+04</totfact>
</mgrwt>
</event>
<event>
 8    1  0.3466492E-004  0.1162624E+03  0.7546771E-02  0.1249574E+00
         -2   -1    0    0    0  501 -0.00000000000E+00  0.00000000000E+00  0.56488532287E+02  0.56488532287E+02  0.00000000000E+00 0. -1.
          2   -1    0    0  501    0  0.00000000000E+00 -0.00000000000E+00 -0.25751286926E+03  0.25751286926E+03  0.00000000000E+00 0.  1.
         23    2    1    2    0    0  0.61943552691E+02 -0.32422561894E+02 -0.57935676570E+02  0.12989795410E+03  0.92890847879E+02 0.  0.
         23    2    1    2    0    0 -0.61943552691E+02  0.32422561894E+02 -0.14308866040E+03  0.18410344744E+03  0.92366056461E+02 0.  0.
          5    1    3    3  502    0 -0.14627674316E+02 -0.31788418728E+02 -0.27899325828E+01  0.35416749497E+02  0.47000000000E+01 0. -1.
         -5    1    3    3    0  502  0.76571227008E+02 -0.63414316539E+00 -0.55145743987E+02  0.94481204601E+02  0.47000000000E+01 0.  1.
          5    1    4    4  503    0 -0.51208129627E+02 -0.12649378907E+02 -0.27899114371E+02  0.59855909560E+02  0.47000000000E+01 0. -1.
         -5    1    4    4    0  503 -0.10735423065E+02  0.45071940801E+02 -0.11518954603E+03  0.12424753788E+03  0.47000000000E+01 0.  1.
<mgrwt>
<rscale>  0 0.11615750E+03</rscale>
<asrwt>0</asrwt>
<pdfrwt beam="1">  1        2 0.39617365E-01 0.11626236E+03</pdfrwt>
<pdfrwt beam="2">  1       -2 0.86905433E-02 0.11626236E+03</pdfrwt>
<totfact> 0.99994216E+03</totfact>
</mgrwt>
</event>
<event>
 8    1  0.3466492E-004  0.1320837E+03  0.7546771E-02  0.1224987E+00
          2   -1    0    0  501    0  0.00000000000E+00  0.00000000000E+00  0.19221289566E+03  0.19221289566E+03  0.00000000000E+00 0. -1.
         -2   -1    0    0    0  501 -0.00000000000E+00 -0.00000000000E+00 -0.93478356644E+02  0.93478356644E+02  0.00000000000E+00 0.  1.
         23    2    1    2    0    0  0.47598344609E+02 -0.79704304638E+02  0.20197089890E+02  0.13202199725E+03  0.91670642688E+02 0.  0.
         23    2    1    2    0    0 -0.47598344609E+02  0.79704304638E+02  0.78537449130E+02  0.15366925506E+03  0.93956002717E+02 0.  0.
          5    1    4    4  502    0  0.88975551762E+01  0.64748151424E+02  0.67377848613E+02  0.93985924929E+02  0.47000000000E+01 0. -1.
         -5    1    4    4    0  502 -0.56495899785E+02  0.14956153213E+02  0.11159600517E+02  0.59683330128E+02  0.47000000000E+01 0.  1.
          5    1    3    3  503    0  0.69838188885E+02 -0.38008925700E+02 -0.18346195378E+01  0.79671242543E+02  0.47000000000E+01 0. -1.
         -5    1    3    3    0  503 -0.22239844275E+02 -0.41695378937E+02  0.22031709428E+02  0.52350754708E+02  0.47000000000E+01 0.  1.
<mgrwt>
<rscale>  0 0.13167791E+03</rscale>
<asrwt>0</asrwt>
<pdfrwt beam="1">  1        2 0.29571215E-01 0.13208372E+03</pdfrwt>
<pdfrwt beam="2">  1       -2 0.14381286E-01 0.13208372E+03</pdfrwt>
<totfact> 0.62155436E+03</totfact>
</mgrwt>
</event>
<event>
 8    1  0.3466492E-004  0.1239899E+03  0.7546771E-02  0.1246897E+00
         -1   -1    0    0    0  501 -0.00000000000E+00  0.00000000000E+00  0.17002971066E+02  0.17002971066E+02  0.00000000000E+00 0.  1.
          1   -1    0    0  501    0  0.00000000000E+00 -0.00000000000E+00 -0.11165897537E+04  0.11165897537E+04  0.00000000000E+00 0. -1.
         23    2    1    2    0    0 -0.69481142871E+02  0.45790470195E+02 -0.91437242805E+03  0.92274071263E+03  0.91918927303E+02 0.  0.
         23    2    1    2    0    0  0.69481142871E+02 -0.45790470195E+02 -0.18521435460E+03  0.21085201215E+03  0.56831483371E+02 0.  0.
          5    1    3    3  502    0 -0.53886377996E+02  0.66038832783E+02 -0.83197104758E+03  0.83633891646E+03  0.47000000000E+01 0. -1.
         -5    1    4    4    0  503  0.41274377167E+02 -0.44738648332E+02 -0.73585920865E+02  0.95614322225E+02  0.47000000000E+01 0.  1.
          5    1    4    4  503    0  0.28206765704E+02 -0.10518218631E+01 -0.11162843374E+03  0.11523768993E+03  0.47000000000E+01 0. -1.
         -5    1    3    3    0  502 -0.15594764875E+02 -0.20248362588E+02 -0.82401380464E+02  0.86401796170E+02  0.47000000000E+01 0.  1.
<mgrwt>
<rscale>  0 0.11772547E+03</rscale>
<asrwt>0</asrwt>
<pdfrwt beam="1">  1        1 0.17178301E+00 0.12398986E+03</pdfrwt>
<pdfrwt beam="2">  1       -1 0.26158421E-02 0.12398986E+03</pdfrwt>
<totfact> 0.58907199E+03</totfact>
</mgrwt>
</event>
<event>
 8    1  0.3466492E-004  0.9504539E+02  0.7546771E-02  0.1291873E+00
         -2   -1    0    0    0  501 -0.00000000000E+00  0.00000000000E+00  0.11483732982E+02  0.11483732982E+02  0.00000000000E+00 0.  1.
          2   -1    0    0  501    0  0.00000000000E+00 -0.00000000000E+00 -0.94745574306E+03  0.94745574306E+03  0.00000000000E+00 0. -1.
         23    2    1    2    0    0 -0.14251124962E+02 -0.19347926195E+02 -0.67537926038E+03  0.68203428904E+03  0.91957540513E+02 0.  0.
         23    2    1    2    0    0  0.14251124962E+02  0.19347926195E+02 -0.26059274970E+03  0.27690518701E+03  0.90501185546E+02 0.  0.
          5    1    3    3  502    0  0.14365533150E+01  0.35905526060E+02 -0.21053422912E+03  0.21363057393E+03  0.47000000000E+01 0. -1.
         -5    1    4    4    0  503  0.75834339445E+00 -0.33843009010E+02 -0.14338875244E+03  0.14740538888E+03  0.47000000000E+01 0.  1.
          5    1    4    4  503    0  0.13492781567E+02  0.53190935205E+02 -0.11720399725E+03  0.12949979813E+03  0.47000000000E+01 0. -1.
         -5    1    3    3    0  502 -0.15687678277E+02 -0.55253452255E+02 -0.46484503126E+03  0.46840371510E+03  0.47000000000E+01 0.  1.
<mgrwt>
<rscale>  0 0.94691337E+02</rscale>
<asrwt>0</asrwt>
<pdfrwt beam="1">  1        2 0.14576249E+00 0.95045390E+02</pdfrwt>
<pdfrwt beam="2">  1       -2 0.17667274E-02 0.95045390E+02</pdfrwt>
<totfact> 0.24198179E+04</totfact>
</mgrwt>
</event>
<event>
 8    1  0.3466492E-004  0.1003663E+03  0.7546771E-02  0.1279595E+00
          2   -1    0    0  501    0  0.00000000000E+00  0.00000000000E+00  0.56549463957E+03  0.56549463957E+03  0.00000000000E+00 0. -1.
         -2   -1    0    0    0  501 -0.00000000000E+00 -0.00000000000E+00 -0.21000738946E+02  0.21000738946E+02  0.00000000000E+00 0.  1.
         23    2    1    2    0    0 -0.34069348655E+02 -0.25779683090E+02  0.15774409609E+03  0.18696681411E+03  0.90818925058E+02 0.  0.
         23    2    1    2    0    0  0.34069348655E+02  0.25779683090E+02  0.38674980453E+03  0.39952856441E+03  0.90677174038E+02 0.  0.
          5    1    4    4  502    0 -0.25674502593E+02  0.17770252256E+02  0.21798811560E+03  0.22026318460E+03  0.47000000000E+01 0. -1.
         -5    1    3    3    0  503 -0.25827825662E+02  0.29320091876E+02  0.95542080911E+02  0.10333016786E+03  0.47000000000E+01 0.  1.
          5    1    3    3  503    0 -0.82415229927E+01 -0.55099774966E+02  0.62202015176E+02  0.83636646241E+02  0.47000000000E+01 0. -1.
         -5    1    4    4    0  502  0.59743851248E+02  0.80094308345E+01  0.16876168894E+03  0.17926537981E+03  0.47000000000E+01 0.  1.
<mgrwt>
<rscale>  0 0.10033420E+03</rscale>
<asrwt>0</asrwt>
<pdfrwt beam="1">  1        2 0.86999164E-01 0.10036628E+03</pdfrwt>
<pdfrwt beam="2">  1       -2 0.32308833E-02 0.10036628E+03</pdfrwt>
<totfact> 0.18822716E+04</totfact>
</mgrwt>
</event>
<event>
 8    1  0.3466492E-004  0.9864639E+02  0.7546771E-02  0.1285585E+00
         -2   -1    0    0    0  501 -0.00000000000E+00  0.00000000000E+00  0.19127142870E+02  0.19127142870E+02  0.00000000000E+00 0.  1.
          2   -1    0    0  501    0  0.00000000000E+00 -0.00000000000E+00 -0.55819113215E+03  0.55819113215E+03  0.00000000000E+00 0. -1.
         23    2    1    2    0    0 -0.18539048514E+02  0.29697719572E+02 -0.37846140832E+03  0.39110631169E+03  0.92225043188E+02 0.  0.
         23    2    1    2    0    0  0.18539048514E+02 -0.29697719572E+02 -0.16060258096E+03  0.18621196333E+03  0.87498888037E+02 0.  0.
          5    1    4    4  502    0  0.44812134213E+02  0.19000393320E+00 -0.12402919815E+03  0.13196020410E+03  0.47000000000E+01 0. -1.
         -5    1    4    4    0  502 -0.26273085699E+02 -0.29887723505E+02 -0.36573382813E+02  0.54251759224E+02  0.47000000000E+01 0.  1.
          5    1    3    3  503    0 -0.10766249951E+02  0.55583756608E+02 -0.14023738028E+03  0.15130789459E+03  0.47000000000E+01 0. -1.
         -5    1    3    3    0  503 -0.77727985634E+01 -0.25886037036E+02 -0.23822402804E+03  0.23979841711E+03  0.47000000000E+01 0.  1.
<mgrwt>
<rscale>  0 0.97526567E+02</rscale>
<asrwt>0</asrwt>
<pdfrwt beam="1">  1        2 0.85875555E-01 0.98646386E+02</pdfrwt>
<pdfrwt beam="2">  1       -2 0.29426375E-02 0.98646386E+02</pdfrwt>
<totfact> 0.21849474E+04</totfact>
</mgrwt>
</event>
<event>
 8    1  0.3466492E-004  0.1330586E+03  0.7546771E-02  0.1223303E+00
          2   -1    0    0  501    0  0.00000000000E+00  0.00000000000E+00  0.10130471444E+04  0.10130471444E+04  0.00000000000E+00 0. -1.
         -2   -1    0    0    0  501 -0.00000000000E+00 -0.00000000000E+00 -0.30587382654E+02  0.30587382654E+02  0.00000000000E+00 0.  1.
         23    2    1    2    0    0 -0.94592111348E+02 -0.13410339919E+02  0.83343690880E+03  0.84385367292E+03  0.91347882297E+02 0.  0.
         23    2    1    2    0    0  0.94592111348E+02  0.13410339919E+02  0.14902285297E+03  0.19978085416E+03  0.92612495030E+02 0.  0.
          5    1    4    4  502    0  0.10092306508E+03  0.36450874029E+02  0.13144679883E+03  0.16974829073E+03  0.47000000000E+01 0.  1.
         -5    1    3    3    0  503  0.33215898348E+01  0.24763871698E+02  0.11665129074E+03  0.11938968101E+03  0.47000000000E+01 0.  1.
          5    1    3    3  503    0 -0.97913701182E+02 -0.38174211618E+02  0.71678561806E+03  0.72446399191E+03  0.47000000000E+01 0. -1.
         -5    1    4    4    0  502 -0.63309537290E+01 -0.23040534109E+02  0.17576054131E+02  0.30032563427E+02  0.47000000000E+01 0. -1.
<mgrwt>
<rscale>  0 0.13283874E+03</rscale>
<asrwt>0</asrwt>
<pdfrwt beam="1">  1        2 0.15585338E+00 0.13305855E+03</pdfrwt>
<pdfrwt beam="2">  1       -2 0.47057520E-02 0.13305855E+03</pdfrwt>
<totfact> 0.53944544E+03</totfact>
</mgrwt>
</event>
<event>
 8    1  0.3466492E-004  0.1102134E+03  0.7546771E-02  0.1260627E+00
         -1   -1    0    0    0  501 -0.00000000000E+00  0.00000000000E+00  0.90772977107E+02  0.90772977107E+02  0.00000000000E+00 0.  1.
          1   -1    0    0  501    0  0.00000000000E+00 -0.00000000000E+00 -0.47353079823E+03  0.47353079823E+03  0.00000000000E+00 0. -1.
         23    2    1    2    0    0 -0.60687549161E+02  0.51467547022E+01  0.48255168370E+02  0.11942268357E+03  0.90684885011E+02 0.  0.
         23    2    1    2    0    0  0.60687549161E+02 -0.51467547022E+01 -0.43101298949E+03  0.44488109176E+03  0.91855979627E+02 0.  0.
          5    1    3    3  502    0 -0.33456303538E+02  0.24199510292E+02 -0.17892891200E+02  0.45245840697E+02  0.47000000000E+01 0. -1.
         -5    1    3    3    0  502 -0.27231245623E+02 -0.19052755590E+02  0.66148059571E+02  0.74176842874E+02  0.47000000000E+01 0.  1.
          5    1    4    4  503    0  0.63327037967E+02  0.17882648834E+02 -0.40233604148E+03  0.40770882151E+03  0.47000000000E+01 0. -1.
         -5    1    4    4    0  503 -0.26394888058E+01 -0.23029403537E+02 -0.28676948013E+02  0.37172270253E+02  0.47000000000E+01 0.  1.
<mgrwt>
<rscale>  0 0.10996904E+03</rscale>
<asrwt>0</asrwt>
<pdfrwt beam="1">  1        1 0.72850893E-01 0.11021338E+03</pdfrwt>
<pdfrwt beam="2">  1       -1 0.13965073E-01 0.11021338E+03</pdfrwt>
<totfact> 0.17134653E+03</totfact>
</mgrwt>
</event>
<event>
 8    1  0.3466492E-004  0.2143491E+03  0.7546771E-02  0.1138405E+00
         -2   -1    0    0    0  501 -0.00000000000E+00  0.00000000000E+00  0.16262007467E+04  0.16262007467E+04  0.00000000000E+00 0.  1.
          2   -1    0    0  501    0  0.00000000000E+00 -0.00000000000E+00 -0.28596314494E+02  0.28596314494E+02  0.00000000000E+00 0. -1.
         23    2    1    2    0    0  0.19396866780E+03 -0.77167147610E+01  0.68660868018E+03  0.71892378809E+03  0.87957612602E+02 0.  0.
         23    2    1    2    0    0 -0.19396866780E+03  0.77167147610E+01  0.91099575200E+03  0.93587327307E+03  0.90896266779E+02 0.  0.
          5    1    4    4  502    0 -0.33181112280E+02  0.64060905267E+01  0.53744593205E+02  0.63659999267E+02  0.47000000000E+01 0. -1.
         -5    1    4    4    0  502 -0.16078755552E+03  0.13106242344E+01  0.85725115880E+03  0.87221327381E+03  0.47000000000E+01 0.  1.
          5    1    3    3  503    0  0.10175563259E+03 -0.31227212254E+02  0.47580778840E+03  0.48759049320E+03  0.47000000000E+01 0. -1.
         -5    1    3    3    0  503  0.92213035210E+02  0.23510497493E+02  0.21080089177E+03  0.23133329489E+03  0.47000000000E+01 0.  1.
<mgrwt>
<rscale>  0 0.21404102E+03</rscale>
<asrwt>0</asrwt>
<pdfrwt beam="1">  1        2 0.43994343E-02 0.21434907E+03</pdfrwt>
<pdfrwt beam="2">  1       -2 0.25018466E+00 0.21434907E+03</pdfrwt>
<totfact> 0.13350858E+02</totfact>
</mgrwt>
</event>
<event>
 8    1  0.3466492E-004  0.1095748E+03  0.7546771E-02  0.1262702E+00
         -2   -1    0    0    0  501 -0.00000000000E+00  0.00000000000E+00  0.12500728461E+03  0.12500728461E+03  0.00000000000E+00 0.  1.
          2   -1    0    0  501    0  0.00000000000E+00 -0.00000000000E+00 -0.93603141405E+02  0.93603141405E+02  0.00000000000E+00 0. -1.
         23    2    1    2    0    0  0.18952449815E+02  0.48592793941E+02  0.13474377156E+02  0.10757842309E+03  0.93118759107E+02 0.  0.
         23    2    1    2    0    0 -0.18952449815E+02 -0.48592793941E+02  0.17929766054E+02  0.11103200293E+03  0.96364797446E+02 0.  0.
          5    1    4    4  502    0  0.24632144416E+02 -0.13655912723E+02  0.41374232552E+02  0.50270703298E+02  0.47000000000E+01 0.  1.
         -5    1    4    4    0  502 -0.43584594230E+02 -0.34936881218E+02 -0.23444466499E+02  0.60761299631E+02  0.47000000000E+01 0. -1.
          5    1    3    3  503    0 -0.28370910527E+02  0.11209888421E+02  0.31856816607E+02  0.44356701037E+02  0.47000000000E+01 0. -1.
         -5    1    3    3    0  503  0.47323360342E+02  0.37382905519E+02 -0.18382439451E+02  0.63221722052E+02  0.47000000000E+01 0.  1.
<mgrwt>
<rscale>  0 0.10885686E+03</rscale>
<asrwt>0</asrwt>
<pdfrwt beam="1">  1        2 0.14400483E-01 0.10957477E+03</pdfrwt>
<pdfrwt beam="2">  1       -2 0.19231890E-01 0.10957477E+03</pdfrwt>
<totfact> 0.85191074E+03</totfact>
</mgrwt>
</event>
<event>
 8    1  0.3466492E-004  0.9823357E+02  0.7546771E-02  0.1284455E+00
         -1   -1    0    0    0  501 -0.00000000000E+00  0.00000000000E+00  0.14938534065E+02  0.14938534065E+02  0.00000000000E+00 0.  1.
          1   -1    0    0  501    0  0.00000000000E+00 -0.00000000000E+00 -0.64429328105E+03  0.64429328105E+03  0.00000000000E+00 0. -1.
         23    2    1    2    0    0 -0.13520919199E+02 -0.27738786612E+02 -0.29033790052E+03  0.30626969727E+03  0.92481216711E+02 0.  0.
         23    2    1    2    0    0  0.13520919199E+02  0.27738786612E+02 -0.33901684646E+03  0.35296211785E+03  0.93260811238E+02 0.  0.
          5    1    3    3  502    0 -0.23593770820E+02  0.17655700824E+02 -0.21875506413E+03  0.22078101793E+03  0.47000000000E+01 0. -1.
         -5    1    3    3    0  502  0.10072851622E+02 -0.45394487436E+02 -0.71582836391E+02  0.85488679339E+02  0.47000000000E+01 0.  1.
          5    1    4    4  503    0 -0.20076970489E+02 -0.18472275016E+02 -0.40932084474E+02  0.49414929198E+02  0.47000000000E+01 0. -1.
         -5    1    4    4    0  503  0.33597889688E+02  0.46211061628E+02 -0.29808476199E+03  0.30354718865E+03  0.47000000000E+01 0.  1.
<mgrwt>
<rscale>  0 0.98048091E+02</rscale>
<asrwt>0</asrwt>
<pdfrwt beam="1">  1        1 0.99122043E-01 0.98233571E+02</pdfrwt>
<pdfrwt beam="2">  1       -1 0.22982360E-02 0.98233571E+02</pdfrwt>
<totfact> 0.16396528E+04</totfact>
</mgrwt>
</event>
<event>
 8    1  0.3466492E-004  0.1813047E+03  0.7546771E-02  0.1166757E+00
         -3   -1    0    0    0  501 -0.00000000000E+00  0.00000000000E+00  0.32770931313E+03  0.32770931313E+03  0.00000000000E+00 0.  1.
          3   -1    0    0  501    0  0.00000000000E+00 -0.00000000000E+00 -0.29637820332E+03  0.29637820332E+03  0.00000000000E+00 0. -1.
         23    2    1    2    0    0  0.15056970574E+03 -0.33876444355E+02 -0.23846521160E+03  0.29903142028E+03  0.93462738058E+02 0.  0.
         23    2    1    2    0    0 -0.15056970574E+03  0.33876444355E+02  0.26979632141E+03  0.32505609617E+03  0.95144946497E+02 0.  0.
          5    1    4    4  502    0 -0.98881436041E+02 -0.13061393149E+02  0.99591573171E+02  0.14102733718E+03  0.47000000000E+01 0. -1.
         -5    1    3    3    0  503  0.35968412412E+02 -0.51630731663E+02 -0.10136951952E+03  0.11940405617E+03  0.47000000000E+01 0.  1.
          5    1    3    3  503    0  0.11460129332E+03  0.17754287308E+02 -0.13709569208E+03  0.17962736411E+03  0.47000000000E+01 0. -1.
         -5    1    4    4    0  502 -0.51688269694E+02  0.46937837504E+02  0.17020474824E+03  0.18402875900E+03  0.47000000000E+01 0.  1.
<mgrwt>
<rscale>  0 0.18108507E+03</rscale>
<asrwt>0</asrwt>
<pdfrwt beam="1">  1        3 0.45596647E-01 0.18130475E+03</pdfrwt>
<pdfrwt beam="2">  1       -3 0.50416817E-01 0.18130475E+03</pdfrwt>
<totfact> 0.45775024E+01</totfact>
</mgrwt>
</event>
<event>
 8    1  0.3466492E-004  0.1158109E+03  0.7546771E-02  0.1251624E+00
         -1   -1    0    0    0  501 -0.00000000000E+00  0.00000000000E+00  0.13230607505E+03  0.13230607505E+03  0.00000000000E+00 0.  1.
          1   -1    0    0  501    0  0.00000000000E+00 -0.00000000000E+00 -0.11773964369E+03  0.11773964369E+03  0.00000000000E+00 0. -1.
         23    2    1    2    0    0 -0.10553571163E+02 -0.61137460137E+02  0.57906501774E+02  0.12948101263E+03  0.97790606848E+02 0.  0.
         23    2    1    2    0    0  0.10553571163E+02  0.61137460137E+02 -0.43340070415E+02  0.12056470612E+03  0.93852649196E+02 0.  0.
          5    1    3    3  502    0 -0.32214061384E+02 -0.29015008890E+02 -0.15552118899E+02  0.46298756938E+02  0.47000000000E+01 0. -1.
         -5    1    3    3    0  502  0.21660490221E+02 -0.32122451247E+02  0.73458620673E+02  0.83182255692E+02  0.47000000000E+01 0.  1.
          5    1    4    4  503    0  0.12479505645E+02  0.84848966503E+02 -0.43580141303E+02  0.96314089799E+02  0.47000000000E+01 0. -1.
         -5    1    4    4    0  503 -0.19259344817E+01 -0.23711506366E+02  0.24007088783E+00  0.24250616318E+02  0.47000000000E+01 0.  1.
<mgrwt>
<rscale>  0 0.11497557E+03</rscale>
<asrwt>0</asrwt>
<pdfrwt beam="1">  1        1 0.18113791E-01 0.11581092E+03</pdfrwt>
<pdfrwt beam="2">  1       -1 0.20354781E-01 0.11581092E+03</pdfrwt>
<totfact> 0.53681034E+03</totfact>
</mgrwt>
</event>
<event>
 8    1  0.3466492E-004  0.9531023E+02  0.7546771E-02  0.1296893E+00
         -1   -1    0    0    0  501 -0.00000000000E+00  0.00000000000E+00  0.39758114399E+02  0.39758114399E+02  0.00000000000E+00 0.  1.
          1   -1    0    0  501    0  0.00000000000E+00 -0.00000000000E+00 -0.20669843487E+03  0.20669843487E+03  0.00000000000E+00 0. -1.
         23    2    1    2    0    0 -0.38631397225E+00  0.23813528381E+02 -0.93907245417E+02  0.12638211197E+03  0.81158081008E+02 0.  0.
         23    2    1    2    0    0  0.38631397225E+00 -0.23813528381E+02 -0.73033075056E+02  0.12007443730E+03  0.92286548680E+02 0.  0.
          5    1    3    3  502    0 -0.32583140049E+02 -0.11563546234E+02 -0.27611299594E+02  0.44495510810E+02  0.47000000000E+01 0. -1.
         -5    1    3    3    0  502  0.32196826077E+02  0.35377074615E+02 -0.66295945822E+02  0.81886601164E+02  0.47000000000E+01 0.  1.
          5    1    4    4  503    0 -0.30468814479E+02 -0.42830394633E+02 -0.62984322805E+02  0.82169984054E+02  0.47000000000E+01 0. -1.
         -5    1    4    4    0  503  0.30855128451E+02  0.19016866252E+02 -0.10048752251E+02  0.37904453242E+02  0.47000000000E+01 0.  1.
<mgrwt>
<rscale>  0 0.92506502E+02</rscale>
<asrwt>0</asrwt>
<pdfrwt beam="1">  1        1 0.31799759E-01 0.95310233E+02</pdfrwt>
<pdfrwt beam="2">  1       -1 0.61166329E-02 0.95310233E+02</pdfrwt>
<totfact> 0.16455495E+04</totfact>
</mgrwt>
</event>
<event>
 8    1  0.3466492E-004  0.9957218E+02  0.7546771E-02  0.1296365E+00
          2   -1    0    0  501    0  0.00000000000E+00  0.00000000000E+00  0.28450726793E+02  0.28450726793E+02  0.00000000000E+00 0. -1.
         -2   -1    0    0    0  501 -0.00000000000E+00 -0.00000000000E+00 -0.37243593834E+03  0.37243593834E+03  0.00000000000E+00 0.  1.
         23    2    1    2    0    0 -0.33822662082E+02  0.19313265626E+02 -0.48901055696E+02  0.89455647806E+02  0.63984568270E+02 0.  0.
         23    2    1    2    0    0  0.33822662082E+02 -0.19313265626E+02 -0.29508415585E+03  0.31143101733E+03  0.91638664439E+02 0.  0.
          5    1    4    4  502    0  0.31562057935E+02  0.15635255297E+02 -0.38372219180E+02  0.52298584245E+02  0.47000000000E+01 0. -1.
         -5    1    4    4    0  502  0.22606041471E+01 -0.34948520922E+02 -0.25671193667E+03  0.25913243308E+03  0.47000000000E+01 0.  1.
          5    1    3    3  503    0 -0.26230270923E+02  0.42071305789E+02 -0.38222953769E+02  0.62778229333E+02  0.47000000000E+01 0. -1.
         -5    1    3    3    0  503 -0.75923911595E+01 -0.22758040163E+02 -0.10678101927E+02  0.26677418472E+02  0.47000000000E+01 0.  1.
<mgrwt>
<rscale>  0 0.92732838E+02</rscale>
<asrwt>0</asrwt>
<pdfrwt beam="1">  1        2 0.43770352E-02 0.99572182E+02</pdfrwt>
<pdfrwt beam="2">  1       -2 0.57297832E-01 0.99572182E+02</pdfrwt>
<totfact> 0.50409828E+03</totfact>
</mgrwt>
</event>
<event>
 8    1  0.3466492E-004  0.1102016E+03  0.7546771E-02  0.1260628E+00
         -1   -1    0    0    0  501 -0.00000000000E+00  0.00000000000E+00  0.28798446106E+02  0.28798446106E+02  0.00000000000E+00 0.  1.
          1   -1    0    0  501    0  0.00000000000E+00 -0.00000000000E+00 -0.42207676197E+03  0.42207676197E+03  0.00000000000E+00 0. -1.
         23    2    1    2    0    0  0.37207034827E+02  0.47861991242E+02 -0.21918563286E+03  0.24532983062E+03  0.92028530851E+02 0.  0.
         23    2    1    2    0    0 -0.37207034827E+02 -0.47861991242E+02 -0.17409268300E+03  0.20554537746E+03  0.90914829778E+02 0.  0.
          5    1    3    3  502    0  0.63999497683E+02  0.51520390678E+02 -0.17362722662E+03  0.19214262979E+03  0.47000000000E+01 0. -1.
         -5    1    3    3    0  502 -0.26792462856E+02 -0.36583994351E+01 -0.45558406247E+02  0.53187200830E+02  0.47000000000E+01 0.  1.
          5    1    4    4  503    0 -0.19416005429E+02 -0.73142888910E+02 -0.14049058287E+03  0.15964509808E+03  0.47000000000E+01 0. -1.
         -5    1    4    4    0  503 -0.17791029398E+02  0.25280897668E+02 -0.33602100124E+02  0.45900279374E+02  0.47000000000E+01 0.  1.
<mgrwt>
<rscale>  0 0.10996874E+03</rscale>
<asrwt>0</asrwt>
<pdfrwt beam="1">  1        1 0.64934886E-01 0.11020156E+03</pdfrwt>
<pdfrwt beam="2">  1       -1 0.44305302E-02 0.11020156E+03</pdfrwt>
<totfact> 0.11120681E+04</totfact>
</mgrwt>
</event>
<event>
 8    1  0.3466492E-004  0.1094488E+03  0.7546771E-02  0.1261649E+00
          2   -1    0    0  501    0  0.00000000000E+00  0.00000000000E+00  0.15649284450E+03  0.15649284450E+03  0.00000000000E+00 0. -1.
         -2   -1    0    0    0  501 -0.00000000000E+00 -0.00000000000E+00 -0.98520228308E+02  0.98520228308E+02  0.00000000000E+00 0.  1.
         23    2    1    2    0    0 -0.58934172997E+02 -0.15514995641E+02 -0.31331147289E+02  0.11384497329E+03  0.90912514626E+02 0.  0.
         23    2    1    2    0    0  0.58934172997E+02  0.15514995641E+02  0.89303763480E+02  0.14116809952E+03  0.90770690831E+02 0.  0.
          5    1    4    4  502    0  0.32027210653E+02  0.42162781727E+02  0.88215401401E+02  0.10299266687E+03  0.47000000000E+01 0. -1.
         -5    1    3    3    0  503 -0.78986586598E+02 -0.28868201665E+02 -0.29446505352E+02  0.89226905175E+02  0.47000000000E+01 0.  1.
          5    1    3    3  503    0  0.20052413601E+02  0.13353206024E+02 -0.18846419379E+01  0.24618068112E+02  0.47000000000E+01 0. -1.
         -5    1    4    4    0  502  0.26906962344E+02 -0.26647786086E+02  0.10883620791E+01  0.38175432648E+02  0.47000000000E+01 0.  1.
<mgrwt>
<rscale>  0 0.10941933E+03</rscale>
<asrwt>0</asrwt>
<pdfrwt beam="1">  1        2 0.24075822E-01 0.10944879E+03</pdfrwt>
<pdfrwt beam="2">  1       -2 0.15156958E-01 0.10944879E+03</pdfrwt>
<totfact> 0.70465119E+03</totfact>
</mgrwt>
</event>
<event>
 8    1  0.3466492E-004  0.1477432E+03  0.7546771E-02  0.1203823E+00
         -2   -1    0    0    0  501 -0.00000000000E+00  0.00000000000E+00  0.17199019727E+02  0.17199019727E+02  0.00000000000E+00 0.  1.
          2   -1    0    0  501    0  0.00000000000E+00 -0.00000000000E+00 -0.12606819972E+04  0.12606819972E+04  0.00000000000E+00 0. -1.
         23    2    1    2    0    0  0.27151920199E+02  0.11050364784E+03 -0.66373768181E+03  0.67960628108E+03  0.91480621318E+02 0.  0.
         23    2    1    2    0    0 -0.27151920199E+02 -0.11050364784E+03 -0.57974529567E+03  0.59827473585E+03  0.94232524914E+02 0.  0.
          5    1    3    3  502    0  0.32075407362E+02 -0.18021639697E+01 -0.11761197615E+03  0.12201125557E+03  0.47000000000E+01 0. -1.
         -5    1    4    4    0  503 -0.42391513145E+02 -0.85810576758E+01 -0.20662316552E+03  0.21115372946E+03  0.47000000000E+01 0.  1.
          5    1    4    4  503    0  0.15239592947E+02 -0.10192259016E+03 -0.37312213015E+03  0.38712100639E+03  0.47000000000E+01 0. -1.
         -5    1    3    3    0  502 -0.49234871629E+01  0.11230581181E+03 -0.54612570566E+03  0.55759502551E+03  0.47000000000E+01 0.  1.
<mgrwt>
<rscale>  0 0.14730631E+03</rscale>
<asrwt>0</asrwt>
<pdfrwt beam="1">  1        2 0.19395103E+00 0.14774320E+03</pdfrwt>
<pdfrwt beam="2">  1       -2 0.26460037E-02 0.14774320E+03</pdfrwt>
<totfact> 0.91954728E+03</totfact>
</mgrwt>
</event>
<event>
 8    1  0.3466492E-004  0.1067336E+03  0.7546771E-02  0.1268847E+00
         -2   -1    0    0    0  501 -0.00000000000E+00  0.00000000000E+00  0.24694236183E+03  0.24694236183E+03  0.00000000000E+00 0.  1.
          2   -1    0    0  501    0  0.00000000000E+00 -0.00000000000E+00 -0.63533696093E+02  0.63533696093E+02  0.00000000000E+00 0. -1.
         23    2    1    2    0    0  0.17862934799E+02 -0.50379716697E+02  0.76169462115E+01  0.10700504483E+03  0.92384313900E+02 0.  0.
         23    2    1    2    0    0 -0.17862934799E+02  0.50379716697E+02  0.17579171953E+03  0.20347101310E+03  0.87410092225E+02 0.  0.
          5    1    3    3  502    0  0.45285584759E+02 -0.60512098572E+02  0.13212058870E+02  0.76870974757E+02  0.47000000000E+01 0. -1.
         -5    1    4    4    0  503 -0.34800579011E+02  0.79772513103E+01  0.14194014995E+03  0.14643706158E+03  0.47000000000E+01 0.  1.
          5    1    4    4  503    0  0.16937644213E+02  0.42402465386E+02  0.33851569577E+02  0.57033951513E+02  0.47000000000E+01 0. -1.
         -5    1    3    3    0  502 -0.27422649960E+02  0.10132381876E+02 -0.55951126582E+01  0.30134070070E+02  0.47000000000E+01 0.  1.
<mgrwt>
<rscale>  0 0.10564836E+03</rscale>
<asrwt>0</asrwt>
<pdfrwt beam="1">  1        2 0.97744149E-02 0.10673360E+03</pdfrwt>
<pdfrwt beam="2">  1       -2 0.37991132E-01 0.10673360E+03</pdfrwt>
<totfact> 0.40693061E+03</totfact>
</mgrwt>
</event>
<event>
 8    1  0.3466492E-004  0.9209168E+02  0.7546771E-02  0.1298573E+00
         -3   -1    0    0    0  501 -0.00000000000E+00  0.00000000000E+00  0.83699898963E+02  0.83699898963E+02  0.00000000000E+00 0.  1.
          3   -1    0    0  501    0  0.00000000000E+00 -0.00000000000E+00 -0.10442765623E+03  0.10442765623E+03  0.00000000000E+00 0. -1.
         23    2    1    2    0    0 -0.80966376190E+00  0.71261697548E+01  0.89179566799E+01  0.92522468900E+02  0.91811978789E+02 0.  0.
         23    2    1    2    0    0  0.80966376190E+00 -0.71261697548E+01 -0.29645713944E+02  0.95605086291E+02  0.90609195552E+02 0.  0.
          5    1    3    3  502    0 -0.62582444057E+01 -0.38230931497E+02 -0.13663395763E+02  0.41346682212E+02  0.47000000000E+01 0. -1.
         -5    1    3    3    0  502  0.54485806438E+01  0.45357101252E+02  0.22581352443E+02  0.51175786688E+02  0.47000000000E+01 0.  1.
          5    1    4    4  503    0 -0.41310264053E+02 -0.12108098825E+02 -0.30426940832E+02  0.52924783435E+02  0.47000000000E+01 0. -1.
         -5    1    4    4    0  503  0.42119927815E+02  0.49819290703E+01  0.78122688744E+00  0.42680302856E+02  0.47000000000E+01 0.  1.
<mgrwt>
<rscale>  0 0.91790433E+02</rscale>
<asrwt>0</asrwt>
<pdfrwt beam="1">  1        3 0.16065793E-01 0.92091679E+02</pdfrwt>
<pdfrwt beam="2">  1       -3 0.12876908E-01 0.92091679E+02</pdfrwt>
<totfact> 0.33546779E+03</totfact>
</mgrwt>
</event>
<event>
 7    1  0.1282409E-003  0.3866899E+03  0.7546771E-02  0.1048488E+00
          2   -1    0    0  501    0  0.00000000000E+00  0.00000000000E+00  0.24739211158E+03  0.24739211158E+03  0.00000000000E+00 0. -1.
         -2   -1    0    0    0  501 -0.00000000000E+00 -0.00000000000E+00 -0.15110536739E+03  0.15110536739E+03  0.00000000000E+00 0.  1.
         23    2    1    2    0    0 -0.25381704540E+02  0.73207644422E+02 -0.13588853043E+02  0.12166699884E+03  0.92814931728E+02 0.  0.
          5    1    1    2  502    0  0.50463472164E+02 -0.12351632357E+03  0.15501424937E+03  0.20458336129E+03  0.47000000000E+01 0. -1.
         -5    1    1    2    0  502 -0.25081767625E+02  0.50308679144E+02 -0.45138652136E+02  0.72247118842E+02  0.47000000000E+01 0.  1.
          5    1    3    3  503    0 -0.37649848338E+02  0.91980908916E+00 -0.27526821989E+02  0.46884678280E+02  0.47000000000E+01 0. -1.
         -5    1    3    3    0  503  0.12268143798E+02  0.72287835333E+02  0.13937968946E+02  0.74782320556E+02  0.47000000000E+01 0.  1.
<mgrwt>
<rscale>  0 0.38668993E+03</rscale>
<asrwt>0</asrwt>
<pdfrwt beam="1">  1        2 0.38060325E-01 0.38668993E+03</pdfrwt>
<pdfrwt beam="2">  1       -2 0.23246980E-01 0.38668993E+03</pdfrwt>
<totfact> 0.21948443E+03</totfact>
</mgrwt>
</event>
<event>
 8    1  0.3466492E-004  0.1015134E+03  0.7546771E-02  0.1278791E+00
         -4   -1    0    0    0  501 -0.00000000000E+00  0.00000000000E+00  0.72131259072E+03  0.72131259072E+03  0.00000000000E+00 0.  1.
          4   -1    0    0  501    0  0.00000000000E+00 -0.00000000000E+00 -0.14531760756E+02  0.14531760756E+02  0.00000000000E+00 0. -1.
         23    2    1    2    0    0  0.20965162355E+02 -0.34974529800E+02  0.26829507689E+03  0.28576133993E+03  0.89523959632E+02 0.  0.
         23    2    1    2    0    0 -0.20965162355E+02  0.34974529800E+02  0.43848575308E+03  0.45008301155E+03  0.92963465217E+02 0.  0.
          5    1    4    4  502    0 -0.41818420910E+02  0.56807394413E+02  0.32055266303E+03  0.32825593698E+03  0.47000000000E+01 0. -1.
         -5    1    4    4    0  502  0.20853258555E+02 -0.21832864613E+02  0.11793309005E+03  0.12182707457E+03  0.47000000000E+01 0.  1.
          5    1    3    3  503    0 -0.11040037382E+02 -0.49799510582E+02  0.86609050033E+02  0.10062351230E+03  0.47000000000E+01 0. -1.
         -5    1    3    3    0  503  0.32005199737E+02  0.14824980782E+02  0.18168602685E+03  0.18513782763E+03  0.47000000000E+01 0.  1.
<mgrwt>
<rscale>  0 0.10071905E+03</rscale>
<asrwt>0</asrwt>
<pdfrwt beam="1">  1        4 0.22356561E-02 0.10151336E+03</pdfrwt>
<pdfrwt beam="2">  1       -4 0.11097114E+00 0.10151336E+03</pdfrwt>
<totfact> 0.89007593E+02</totfact>
</mgrwt>
</event>
<event>
 8    1  0.3466492E-004  0.4261962E+03  0.7546771E-02  0.1035105E+00
         -1   -1    0    0    0  501 -0.00000000000E+00  0.00000000000E+00  0.15395017266E+03  0.15395017266E+03  0.00000000000E+00 0.  1.
          1   -1    0    0  501    0  0.00000000000E+00 -0.00000000000E+00 -0.12930974645E+04  0.12930974645E+04  0.00000000000E+00 0. -1.
         23    2    1    2    0    0 -0.62731922560E+02  0.41136787776E+03 -0.35456678546E+03  0.55440132850E+03  0.92110817656E+02 0.  0.
         23    2    1    2    0    0  0.62731922560E+02 -0.41136787776E+03 -0.78458050636E+03  0.89264630864E+03  0.89955746892E+02 0.  0.
          5    1    3    3  502    0 -0.36705897096E+02  0.37222451621E+03 -0.28477506898E+03  0.47012481668E+03  0.47000000000E+01 0. -1.
         -5    1    4    4    0  503  0.64443975367E+02 -0.27868541491E+03 -0.60582395787E+03  0.66997264450E+03  0.47000000000E+01 0.  1.
          5    1    4    4  503    0 -0.17120528066E+01 -0.13268246285E+03 -0.17875654849E+03  0.22267366414E+03  0.47000000000E+01 0. -1.
         -5    1    3    3    0  502 -0.26026025464E+02  0.39143361555E+02 -0.69791716477E+02  0.84276511817E+02  0.47000000000E+01 0.  1.
<mgrwt>
<rscale>  0 0.42608104E+03</rscale>
<asrwt>0</asrwt>
<pdfrwt beam="1">  1        1 0.19893807E+00 0.42619623E+03</pdfrwt>
<pdfrwt beam="2">  1       -1 0.23684643E-01 0.42619623E+03</pdfrwt>
<totfact> 0.14789620E+02</totfact>
</mgrwt>
</event>
<event>
 8    1  0.3466492E-004  0.1443665E+03  0.7546771E-02  0.1208093E+00
         -1   -1    0    0    0  501 -0.00000000000E+00  0.00000000000E+00  0.55651752286E+02  0.55651752286E+02  0.00000000000E+00 0.  1.
          1   -1    0    0  501    0  0.00000000000E+00 -0.00000000000E+00 -0.37404470727E+03  0.37404470727E+03  0.00000000000E+00 0. -1.
         23    2    1    2    0    0  0.10255441177E+03  0.40919090825E+02 -0.13873102993E+03  0.20021982782E+03  0.93004846211E+02 0.  0.
         23    2    1    2    0    0 -0.10255441177E+03 -0.40919090825E+02 -0.17966192505E+03  0.22947663173E+03  0.90494960261E+02 0.  0.
          5    1    3    3  502    0  0.54141801972E+02  0.65803603157E+02 -0.10760190679E+03  0.13733793815E+03  0.47000000000E+01 0. -1.
         -5    1    4    4    0  503 -0.58060162663E+02 -0.76212242930E+01 -0.22836463510E+02  0.63029037862E+02  0.47000000000E+01 0.  1.
          5    1    4    4  503    0 -0.44494249106E+02 -0.33297866532E+02 -0.15682546154E+03  0.16644759387E+03  0.47000000000E+01 0. -1.
         -5    1    3    3    0  502  0.48412609797E+02 -0.24884512333E+02 -0.31129123144E+02  0.62881889675E+02  0.47000000000E+01 0.  1.
<mgrwt>
<rscale>  0 0.14396379E+03</rscale>
<asrwt>0</asrwt>
<pdfrwt beam="1">  1        1 0.57545339E-01 0.14436648E+03</pdfrwt>
<pdfrwt beam="2">  1       -1 0.85618081E-02 0.14436648E+03</pdfrwt>
<totfact> 0.49417347E+03</totfact>
</mgrwt>
</event>
<event>
 8    1  0.3466492E-004  0.1005639E+03  0.7546771E-02  0.1284066E+00
         -1   -1    0    0    0  501 -0.00000000000E+00  0.00000000000E+00  0.94894085405E+02  0.94894085405E+02  0.00000000000E+00 0.  1.
          1   -1    0    0  501    0  0.00000000000E+00 -0.00000000000E+00 -0.10650019058E+03  0.10650019058E+03  0.00000000000E+00 0. -1.
         23    2    1    2    0    0  0.53813005457E+01  0.46676717007E+01  0.24129728578E+02  0.94669604545E+02  0.91265243487E+02 0.  0.
         23    2    1    2    0    0 -0.53813005457E+01 -0.46676717007E+01 -0.35735833752E+02  0.10672467144E+03  0.10031131604E+03 0.  0.
          5    1    3    3  502    0 -0.19087001136E+01  0.46457029668E+02  0.24458723460E+01  0.46797126335E+02  0.47000000000E+01 0. -1.
         -5    1    3    3    0  502  0.72900006593E+01 -0.41789357967E+02  0.21683856232E+02  0.47872478210E+02  0.47000000000E+01 0.  1.
          5    1    4    4  503    0 -0.31358837851E+02  0.28409906732E+02 -0.46510256854E+02  0.63053893650E+02  0.47000000000E+01 0. -1.
         -5    1    4    4    0  503  0.25977537305E+02 -0.33077578433E+02  0.10774423102E+02  0.43670777788E+02  0.47000000000E+01 0.  1.
<mgrwt>
<rscale>  0 0.98228563E+02</rscale>
<asrwt>0</asrwt>
<pdfrwt beam="1">  1        1 0.16384645E-01 0.10056394E+03</pdfrwt>
<pdfrwt beam="2">  1       -1 0.14599090E-01 0.10056394E+03</pdfrwt>
<totfact> 0.10182398E+04</totfact>
</mgrwt>
</event>
<event>
 8    1  0.3466492E-004  0.1048759E+03  0.7546771E-02  0.1272309E+00
          1   -1    0    0  501    0  0.00000000000E+00  0.00000000000E+00  0.46687346709E+03  0.46687346709E+03  0.00000000000E+00 0. -1.
         -1   -1    0    0    0  501 -0.00000000000E+00 -0.00000000000E+00 -0.27129526631E+02  0.27129526631E+02  0.00000000000E+00 0.  1.
         23    2    1    2    0    0  0.71307564848E+01  0.43933879644E+02  0.31622198287E+03  0.33196401759E+03  0.90679286806E+02 0.  0.
         23    2    1    2    0    0 -0.71307564848E+01 -0.43933879644E+02  0.12352195759E+03  0.16203897613E+03  0.94962741695E+02 0.  0.
          5    1    3    3  502    0  0.46666896363E+02  0.38768012474E+02  0.19325490810E+03  0.20260875478E+03  0.47000000000E+01 0. -1.
         -5    1    4    4    0  503 -0.43849366126E+02 -0.29002363426E+01  0.30023239713E+02  0.53429048311E+02  0.47000000000E+01 0.  1.
          5    1    4    4  503    0  0.36718609642E+02 -0.41033643301E+02  0.93498717875E+02  0.10860992782E+03  0.47000000000E+01 0. -1.
         -5    1    3    3    0  502 -0.39536139878E+02  0.51658671701E+01  0.12296707476E+03  0.12935526281E+03  0.47000000000E+01 0.  1.
<mgrwt>
<rscale>  0 0.10389673E+03</rscale>
<asrwt>0</asrwt>
<pdfrwt beam="1">  1        1 0.71826681E-01 0.10487591E+03</pdfrwt>
<pdfrwt beam="2">  1       -1 0.41737737E-02 0.10487591E+03</pdfrwt>
<totfact> 0.10636226E+04</totfact>
</mgrwt>
</event>
<event>
 8    1  0.3466492E-004  0.1149284E+03  0.7546771E-02  0.1252101E+00
         -2   -1    0    0    0  501 -0.00000000000E+00  0.00000000000E+00  0.35159149660E+02  0.35159149660E+02  0.00000000000E+00 0.  1.
          2   -1    0    0  501    0  0.00000000000E+00 -0.00000000000E+00 -0.39050218254E+03  0.39050218254E+03  0.00000000000E+00 0. -1.
         23    2    1    2    0    0 -0.66761530725E+02  0.14588986567E+02 -0.13162077381E+03  0.17414553523E+03  0.91283617527E+02 0.  0.
         23    2    1    2    0    0  0.66761530725E+02 -0.14588986567E+02 -0.22372225907E+03  0.25151579697E+03  0.92404580016E+02 0.  0.
          5    1    3    3  502    0  0.10097929400E+02 -0.20149015813E+02 -0.79094698779E+01  0.24343391920E+02  0.47000000000E+01 0. -1.
         -5    1    4    4    0  503  0.32474451248E+02  0.38907146666E+02 -0.90135534351E+02  0.10351261082E+03  0.47000000000E+01 0.  1.
          5    1    4    4  503    0  0.34287079477E+02 -0.53496133233E+02 -0.13358672472E+03  0.14800318615E+03  0.47000000000E+01 0. -1.
         -5    1    3    3    0  502 -0.76859460125E+02  0.34738002380E+02 -0.12371130393E+03  0.14980214331E+03  0.47000000000E+01 0.  1.
<mgrwt>
<rscale>  0 0.11470295E+03</rscale>
<asrwt>0</asrwt>
<pdfrwt beam="1">  1        2 0.60077260E-01 0.11492844E+03</pdfrwt>
<pdfrwt beam="2">  1       -2 0.54090998E-02 0.11492844E+03</pdfrwt>
<totfact> 0.13252269E+04</totfact>
</mgrwt>
</event>
<event>
 8    1  0.3466492E-004  0.1021916E+03  0.7546771E-02  0.1276629E+00
         -1   -1    0    0    0  501 -0.00000000000E+00  0.00000000000E+00  0.77076720601E+03  0.77076720601E+03  0.00000000000E+00 0.  1.
          1   -1    0    0  501    0  0.00000000000E+00 -0.00000000000E+00 -0.17551289303E+02  0.17551289303E+02  0.00000000000E+00 0. -1.
         23    2    1    2    0    0 -0.43754101848E+02 -0.11247473573E+02  0.18558627196E+03  0.21186172032E+03  0.91663499329E+02 0.  0.
         23    2    1    2    0    0  0.43754101848E+02  0.11247473573E+02  0.56762964475E+03  0.57645677499E+03  0.89766768588E+02 0.  0.
          5    1    3    3  502    0  0.18685188787E+02 -0.30109909631E+02  0.51656422852E+02  0.62818937907E+02  0.47000000000E+01 0. -1.
         -5    1    4    4    0  503 -0.14991774141E+02 -0.20134632058E+02  0.72945982960E+02  0.77287535412E+02  0.47000000000E+01 0.  1.
          5    1    4    4  503    0  0.58745875989E+02  0.31382105631E+02  0.49468366179E+03  0.49916923958E+03  0.47000000000E+01 0. -1.
         -5    1    3    3    0  502 -0.62439290635E+02  0.18862436057E+02  0.13392984910E+03  0.14904278241E+03  0.47000000000E+01 0.  1.
<mgrwt>
<rscale>  0 0.10176448E+03</rscale>
<asrwt>0</asrwt>
<pdfrwt beam="1">  1        1 0.27001990E-02 0.10219161E+03</pdfrwt>
<pdfrwt beam="2">  1       -1 0.11857954E+00 0.10219161E+03</pdfrwt>
<totfact> 0.25544932E+03</totfact>
</mgrwt>
</event>
<event>
 8    1  0.3466492E-004  0.1039763E+03  0.7546771E-02  0.1273259E+00
         -2   -1    0    0    0  501 -0.00000000000E+00  0.00000000000E+00  0.37269977375E+02  0.37269977375E+02  0.00000000000E+00 0.  1.
          2   -1    0    0  501    0  0.00000000000E+00 -0.00000000000E+00 -0.59437316278E+03  0.59437316278E+03  0.00000000000E+00 0. -1.
         23    2    1    2    0    0  0.35558223349E+02  0.31100428662E+02 -0.48908724573E+02  0.11292098839E+03  0.90152439621E+02 0.  0.
         23    2    1    2    0    0 -0.35558223349E+02 -0.31100428662E+02 -0.50819446083E+03  0.51872215176E+03  0.92625249246E+02 0.  0.
          5    1    3    3  502    0  0.73166960397E+01  0.45449084176E+02 -0.62805537932E+02  0.78011402297E+02  0.47000000000E+01 0. -1.
         -5    1    3    3    0  502  0.28241527310E+02 -0.14348655515E+02  0.13896813359E+02  0.34909586096E+02  0.47000000000E+01 0.  1.
          5    1    4    4  503    0 -0.41916094651E+02 -0.57924020959E+02 -0.42381396778E+03  0.42982847798E+03  0.47000000000E+01 0. -1.
         -5    1    4    4    0  503  0.63578713020E+01  0.26823592298E+02 -0.84380493045E+02  0.88893673778E+02  0.47000000000E+01 0.  1.
<mgrwt>
<rscale>  0 0.10342268E+03</rscale>
<asrwt>0</asrwt>
<pdfrwt beam="1">  1        2 0.91442027E-01 0.10397625E+03</pdfrwt>
<pdfrwt beam="2">  1       -2 0.57338426E-02 0.10397625E+03</pdfrwt>
<totfact> 0.76374770E+03</totfact>
</mgrwt>
</event>
<event>
 8    1  0.3466492E-004  0.1011363E+03  0.7546771E-02  0.1278418E+00
         -2   -1    0    0    0  501 -0.00000000000E+00  0.00000000000E+00  0.26257463283E+02  0.26257463283E+02  0.00000000000E+00 0.  1.
          2   -1    0    0  501    0  0.00000000000E+00 -0.00000000000E+00 -0.58793287120E+03  0.58793287120E+03  0.00000000000E+00 0. -1.
         23    2    1    2    0    0 -0.38527101561E+02  0.19575590189E+02 -0.10168941742E+03  0.14341996773E+03  0.91438548990E+02 0.  0.
         23    2    1    2    0    0  0.38527101561E+02 -0.19575590189E+02 -0.45998599050E+03  0.47077036676E+03  0.90388525141E+02 0.  0.
          5    1    4    4  502    0 -0.16582795892E+02 -0.27649002268E+02 -0.29012820085E+03  0.29195191278E+03  0.47000000000E+01 0. -1.
         -5    1    4    4    0  502  0.55109897453E+02  0.80734120799E+01 -0.16985778965E+03  0.17881845398E+03  0.47000000000E+01 0.  1.
          5    1    3    3  503    0  0.28642759371E+02 -0.38588254285E+00 -0.17955876307E+02  0.34132976191E+02  0.47000000000E+01 0. -1.
         -5    1    3    3    0  503 -0.67169860933E+02  0.19961472731E+02 -0.83733541115E+02  0.10928699154E+03  0.47000000000E+01 0.  1.
<mgrwt>
<rscale>  0 0.10089837E+03</rscale>
<asrwt>0</asrwt>
<pdfrwt beam="1">  1        2 0.90451203E-01 0.10113629E+03</pdfrwt>
<pdfrwt beam="2">  1       -2 0.40396101E-02 0.10113629E+03</pdfrwt>
<totfact> 0.12992517E+04</totfact>
</mgrwt>
</event>
<event>
 8    1  0.3466492E-004  0.1717983E+03  0.7546771E-02  0.1177077E+00
          2   -1    0    0  501    0  0.00000000000E+00  0.00000000000E+00  0.73076756103E+03  0.73076756103E+03  0.00000000000E+00 0. -1.
         -2   -1    0    0    0  501 -0.00000000000E+00 -0.00000000000E+00 -0.40376733189E+02  0.40376733189E+02  0.00000000000E+00 0.  1.
         23    2    1    2    0    0  0.14475836234E+03 -0.16183252920E+02  0.40070488148E+03  0.43434672760E+03  0.82920423251E+02 0.  0.
         23    2    1    2    0    0 -0.14475836234E+03  0.16183252920E+02  0.28968594636E+03  0.33679756662E+03  0.91092108434E+02 0.  0.
          5    1    3    3  502    0  0.70076081661E+02  0.32319343892E+02  0.21128814846E+03  0.22498881948E+03  0.47000000000E+01 0. -1.
         -5    1    4    4    0  503 -0.12472442794E+02  0.25449162904E+02  0.10837115133E+03  0.11211430847E+03  0.47000000000E+01 0.  1.
          5    1    4    4  503    0 -0.13228591955E+03 -0.92659099839E+01  0.18131479503E+03  0.22468325816E+03  0.47000000000E+01 0. -1.
         -5    1    3    3    0  502  0.74682280679E+02 -0.48502596813E+02  0.18941673302E+03  0.20935790812E+03  0.47000000000E+01 0.  1.
<mgrwt>
<rscale>  0 0.17074118E+03</rscale>
<asrwt>0</asrwt>
<pdfrwt beam="1">  1        2 0.11242577E+00 0.17179829E+03</pdfrwt>
<pdfrwt beam="2">  1       -2 0.62118056E-02 0.17179829E+03</pdfrwt>
<totfact> 0.54619479E+03</totfact>
</mgrwt>
</event>
<event>
 8    1  0.3466492E-004  0.1026659E+03  0.7546771E-02  0.1275205E+00
          1   -1    0    0  501    0  0.00000000000E+00  0.00000000000E+00  0.34436096963E+03  0.34436096963E+03  0.00000000000E+00 0. -1.
         -1   -1    0    0    0  501 -0.00000000000E+00 -0.00000000000E+00 -0.39278340629E+02  0.39278340629E+02  0.00000000000E+00 0.  1.
         23    2    1    2    0    0  0.41143141056E+02 -0.15988999628E+02  0.61635349720E+02  0.11974641987E+03  0.92692408385E+02 0.  0.
         23    2    1    2    0    0 -0.41143141056E+02  0.15988999628E+02  0.24344727928E+03  0.26389289039E+03  0.91784931454E+02 0.  0.
          5    1    4    4  502    0  0.55792813667E+01  0.32006803154E+02  0.18189653446E+03  0.18483506993E+03  0.47000000000E+01 0. -1.
         -5    1    3    3    0  503  0.17388529723E+01 -0.47179327040E+02  0.11962373334E+02  0.48929550227E+02  0.47000000000E+01 0.  1.
          5    1    3    3  503    0  0.39404288083E+02  0.31190327412E+02  0.49672976386E+02  0.70816869646E+02  0.47000000000E+01 0. -1.
         -5    1    4    4    0  502 -0.46722422422E+02 -0.16017803526E+02  0.61550744824E+02  0.79057820456E+02  0.47000000000E+01 0.  1.
<mgrwt>
<rscale>  0 0.10246065E+03</rscale>
<asrwt>0</asrwt>
<pdfrwt beam="1">  1        1 0.52978609E-01 0.10266591E+03</pdfrwt>
<pdfrwt beam="2">  1       -1 0.60428219E-02 0.10266591E+03</pdfrwt>
<totfact> 0.90225325E+03</totfact>
</mgrwt>
</event>
<event>
 8    1  0.3466492E-004  0.9522854E+02  0.7546771E-02  0.1291109E+00
         -2   -1    0    0    0  501 -0.00000000000E+00  0.00000000000E+00  0.31907104177E+03  0.31907104177E+03  0.00000000000E+00 0.  1.
          2   -1    0    0  501    0  0.00000000000E+00 -0.00000000000E+00 -0.39278235918E+02  0.39278235918E+02  0.00000000000E+00 0. -1.
         23    2    1    2    0    0  0.27472359280E+02 -0.21137003583E+01  0.44259806322E+02  0.10429363784E+03  0.90327372293E+02 0.  0.
         23    2    1    2    0    0 -0.27472359280E+02  0.21137003583E+01  0.23553299953E+03  0.25405563984E+03  0.91155230327E+02 0.  0.
          5    1    4    4  502    0 -0.54253604166E+01 -0.42351507371E+02  0.81072352927E+02  0.91749120548E+02  0.47000000000E+01 0. -1.
         -5    1    3    3    0  503 -0.17313625746E+02 -0.33139246319E+02  0.75582254510E+01  0.38434204233E+02  0.47000000000E+01 0.  1.
          5    1    3    3  503    0  0.44785985026E+02  0.31025545961E+02  0.36701580871E+02  0.65859433609E+02  0.47000000000E+01 0. -1.
         -5    1    4    4    0  502 -0.22046998863E+02  0.44465207729E+02  0.15446064660E+03  0.16230651930E+03  0.47000000000E+01 0.  1.
<mgrwt>
<rscale>  0 0.95029880E+02</rscale>
<asrwt>0</asrwt>
<pdfrwt beam="1">  1        2 0.60428057E-02 0.95228537E+02</pdfrwt>
<pdfrwt beam="2">  1       -2 0.49087851E-01 0.95228537E+02</pdfrwt>
<totfact> 0.45063213E+03</totfact>
</mgrwt>
</event>
<event>
 8    1  0.3466492E-004  0.1223726E+03  0.7546771E-02  0.1251774E+00
          1   -1    0    0  501    0  0.00000000000E+00  0.00000000000E+00  0.28220554361E+03  0.28220554361E+03  0.00000000000E+00 0. -1.
         -1   -1    0    0    0  501 -0.00000000000E+00 -0.00000000000E+00 -0.80339810075E+02  0.80339810075E+02  0.00000000000E+00 0.  1.
         23    2    1    2    0    0 -0.20437308882E+02  0.15107447061E+02 -0.30565361734E+02  0.99868220615E+02  0.91616055361E+02 0.  0.
         23    2    1    2    0    0  0.20437308882E+02 -0.15107447061E+02  0.23243109527E+03  0.26267713307E+03  0.11970440108E+03 0.  0.
          5    1    4    4  502    0 -0.27795775156E+02  0.37977637346E+02  0.12269780623E+03  0.13149809013E+03  0.47000000000E+01 0. -1.
         -5    1    4    4    0  502  0.48233084039E+02 -0.53085084406E+02  0.10973328904E+03  0.13117904294E+03  0.47000000000E+01 0.  1.
          5    1    3    3  503    0 -0.38266994973E+02  0.40471306724E+02 -0.38064615668E+02  0.67626137980E+02  0.47000000000E+01 0.  1.
         -5    1    3    3    0  503  0.17829686090E+02 -0.25363859663E+02  0.74992539337E+01  0.32242082635E+02  0.47000000000E+01 0. -1.
<mgrwt>
<rscale>  0 0.11488962E+03</rscale>
<asrwt>0</asrwt>
<pdfrwt beam="1">  1        1 0.43416237E-01 0.12237264E+03</pdfrwt>
<pdfrwt beam="2">  1       -1 0.12359971E-01 0.12237264E+03</pdfrwt>
<totfact> 0.39655563E+03</totfact>
</mgrwt>
</event>
<event>
 8    1  0.3466492E-004  0.9733871E+02  0.7546771E-02  0.1286401E+00
         -1   -1    0    0    0  501 -0.00000000000E+00  0.00000000000E+00  0.65730154131E+02  0.65730154131E+02  0.00000000000E+00 0.  1.
          1   -1    0    0  501    0  0.00000000000E+00 -0.00000000000E+00 -0.15359403838E+03  0.15359403838E+03  0.00000000000E+00 0. -1.
         23    2    1    2    0    0  0.37159821989E+01  0.33997583130E+02 -0.15354380837E+02  0.98542280436E+02  0.91132759424E+02 0.  0.
         23    2    1    2    0    0 -0.37159821989E+01 -0.33997583130E+02 -0.72509503414E+02  0.12078191208E+03  0.90338242274E+02 0.  0.
          5    1    4    4  502    0 -0.43667078805E+02 -0.35055160069E+02 -0.38798121509E+02  0.68286618392E+02  0.47000000000E+01 0. -1.
         -5    1    3    3    0  503 -0.32024144056E+02  0.11991600046E+02 -0.37405643174E+02  0.50898098348E+02  0.47000000000E+01 0. -1.
          5    1    3    3  503    0  0.35740126255E+02  0.22005983083E+02  0.22051262336E+02  0.47644182088E+02  0.47000000000E+01 0.  1.
         -5    1    4    4    0  502  0.39951096606E+02  0.10575769389E+01 -0.33711381904E+02  0.52495293684E+02  0.47000000000E+01 0.  1.
<mgrwt>
<rscale>  0 0.97152308E+02</rscale>
<asrwt>0</asrwt>
<pdfrwt beam="1">  1        1 0.23629852E-01 0.97338708E+02</pdfrwt>
<pdfrwt beam="2">  1       -1 0.10112332E-01 0.97338708E+02</pdfrwt>
<totfact> 0.11229968E+04</totfact>
</mgrwt>
</event>
<event>
 7    1  0.3466492E-004  0.2674976E+03  0.7546771E-02  0.1118574E+00
         -1   -1    0    0    0  501 -0.00000000000E+00  0.00000000000E+00  0.97662889030E+02  0.97662889030E+02  0.00000000000E+00 0.  1.
          1   -1    0    0  501    0  0.00000000000E+00 -0.00000000000E+00 -0.53025273372E+03  0.53025273372E+03  0.00000000000E+00 0. -1.
         23    2    1    2    0    0 -0.88127201537E+02  0.12753991660E+03 -0.23561210277E+03  0.29571808423E+03  0.88900440896E+02 0.  0.
          5    1    1    2  502    0  0.10307458566E+03  0.60875258555E+01 -0.12857238946E+02  0.10415770146E+03  0.47000000000E+01 0. -1.
         -5    1    3    3    0  503  0.42225215877E+01  0.59984678934E+02 -0.53677247196E+02  0.80742357297E+02  0.47000000000E+01 0.  1.
          5    1    3    3  503    0 -0.92349723125E+02  0.67555237667E+02 -0.18193485557E+03  0.21497572693E+03  0.47000000000E+01 0. -1.
         -5    1    1    2    0  502 -0.14947384127E+02 -0.13362744246E+03 -0.18412050298E+03  0.22803983706E+03  0.47000000000E+01 0.  1.
<mgrwt>
<rscale>  0 0.24183837E+03</rscale>
<asrwt>0</asrwt>
<pdfrwt beam="1">  1        1 0.81577346E-01 0.26749761E+03</pdfrwt>
<pdfrwt beam="2">  1       -1 0.15025059E-01 0.26749761E+03</pdfrwt>
<totfact> 0.13371667E+03</totfact>
</mgrwt>
</event>
<event>
 8    1  0.3466492E-004  0.1456138E+03  0.7546771E-02  0.1206367E+00
          1   -1    0    0  501    0  0.00000000000E+00  0.00000000000E+00  0.76931260143E+03  0.76931260143E+03  0.00000000000E+00 0. -1.
         -1   -1    0    0    0  501 -0.00000000000E+00 -0.00000000000E+00 -0.15529627450E+03  0.15529627450E+03  0.00000000000E+00 0.  1.
         23    2    1    2    0    0 -0.53988809917E+02  0.98821346574E+02 -0.11288515967E+03  0.18326607246E+03  0.90349011649E+02 0.  0.
         23    2    1    2    0    0  0.53988809917E+02 -0.98821346574E+02  0.72690148660E+03  0.74134280346E+03  0.92319721030E+02 0.  0.
          5    1    4    4  502    0  0.58329082834E+02 -0.66026631203E+02  0.66651322479E+03  0.67232712778E+03  0.47000000000E+01 0. -1.
         -5    1    3    3    0  503  0.13026202302E+02  0.58051104218E+02 -0.75511974594E+02  0.96248433517E+02  0.47000000000E+01 0.  1.
          5    1    3    3  503    0 -0.67015012219E+02  0.40770242356E+02 -0.37373185079E+02  0.87017638945E+02  0.47000000000E+01 0. -1.
         -5    1    4    4    0  502 -0.43402729175E+01 -0.32794715372E+02  0.60388261811E+02  0.69015675682E+02  0.47000000000E+01 0.  1.
<mgrwt>
<rscale>  0 0.14530246E+03</rscale>
<asrwt>0</asrwt>
<pdfrwt beam="1">  1        1 0.11835578E+00 0.14561381E+03</pdfrwt>
<pdfrwt beam="2">  1       -1 0.23891735E-01 0.14561381E+03</pdfrwt>
<totfact> 0.37583855E+02</totfact>
</mgrwt>
</event>
<event>
 8    1  0.3466492E-004  0.9503546E+02  0.7546771E-02  0.1291860E+00
          2   -1    0    0  501    0  0.00000000000E+00  0.00000000000E+00  0.62013817158E+03  0.62013817158E+03  0.00000000000E+00 0. -1.
         -2   -1    0    0    0  501 -0.00000000000E+00 -0.00000000000E+00 -0.14359581960E+02  0.14359581960E+02  0.00000000000E+00 0.  1.
         23    2    1    2    0    0 -0.16359940712E+02  0.17935921138E+02  0.30367226024E+03  0.31779604468E+03  0.90488338746E+02 0.  0.
         23    2    1    2    0    0  0.16359940712E+02 -0.17935921138E+02  0.30210632939E+03  0.31670170886E+03  0.91882496781E+02 0.  0.
          5    1    4    4  502    0 -0.35706795765E+02 -0.12937088311E+02  0.83119219406E+02  0.91505399581E+02  0.47000000000E+01 0. -1.
         -5    1    4    4    0  502  0.52066736477E+02 -0.49988328272E+01  0.21898710998E+03  0.22519630928E+03  0.47000000000E+01 0.  1.
          5    1    3    3  503    0 -0.47591821363E+02  0.19455959213E+01  0.24198193449E+03  0.24667004971E+03  0.47000000000E+01 0. -1.
         -5    1    3    3    0  503  0.31231880651E+02  0.15990325217E+02  0.61690325744E+02  0.71125994967E+02  0.47000000000E+01 0.  1.
<mgrwt>
<rscale>  0 0.94696845E+02</rscale>
<asrwt>0</asrwt>
<pdfrwt beam="1">  1        2 0.95405852E-01 0.95035457E+02</pdfrwt>
<pdfrwt beam="2">  1       -2 0.22091669E-02 0.95035457E+02</pdfrwt>
<totfact> 0.29319617E+04</totfact>
</mgrwt>
</event>
<event>
 8    1  0.3466492E-004  0.1203973E+03  0.7546771E-02  0.1242680E+00
          1   -1    0    0  501    0  0.00000000000E+00  0.00000000000E+00  0.58889882324E+03  0.58889882324E+03  0.00000000000E+00 0. -1.
         -1   -1    0    0    0  501 -0.00000000000E+00 -0.00000000000E+00 -0.77337657164E+02  0.77337657164E+02  0.00000000000E+00 0.  1.
         23    2    1    2    0    0 -0.73505416661E+02 -0.31712933403E+02 -0.19376238188E+02  0.12194649117E+03  0.89926368096E+02 0.  0.
         23    2    1    2    0    0  0.73505416661E+02  0.31712933403E+02  0.53093740426E+03  0.54428998923E+03  0.89153287713E+02 0.  0.
          5    1    4    4  502    0  0.82364835950E+02  0.42571933192E+00  0.30436837941E+03  0.31535115002E+03  0.47000000000E+01 0. -1.
         -5    1    3    3    0  503 -0.50956539185E+02  0.13739480488E+02 -0.40595901088E+02  0.66749227673E+02  0.47000000000E+01 0.  1.
          5    1    3    3  503    0 -0.22548877476E+02 -0.45452413892E+02  0.21219662900E+02  0.55197263497E+02  0.47000000000E+01 0. -1.
         -5    1    4    4    0  502 -0.88594192897E+01  0.31287214072E+02  0.22656902486E+03  0.22893883921E+03  0.47000000000E+01 0.  1.
<mgrwt>
<rscale>  0 0.12025295E+03</rscale>
<asrwt>0</asrwt>
<pdfrwt beam="1">  1        1 0.90599816E-01 0.12039729E+03</pdfrwt>
<pdfrwt beam="2">  1       -1 0.11898101E-01 0.12039729E+03</pdfrwt>
<totfact> 0.16518775E+03</totfact>
</mgrwt>
</event>
<event>
 8    1  0.3466492E-004  0.9685617E+02  0.7546771E-02  0.1287272E+00
          4   -1    0    0  501    0  0.00000000000E+00  0.00000000000E+00  0.82151401699E+01  0.82151401699E+01  0.00000000000E+00 0. -1.
         -4   -1    0    0    0  501 -0.00000000000E+00 -0.00000000000E+00 -0.11690904361E+04  0.11690904361E+04  0.00000000000E+00 0.  1.
         23    2    1    2    0    0 -0.18054440555E+02 -0.30098835342E+02 -0.48196103097E+03  0.49151719957E+03  0.89837739243E+02 0.  0.
         23    2    1    2    0    0  0.18054440555E+02  0.30098835342E+02 -0.67891426494E+03  0.68578837667E+03  0.90273006650E+02 0.  0.
          5    1    4    4  502    0  0.15600287488E+01  0.61009377791E+02 -0.40398916046E+03  0.40859993837E+03  0.47000000000E+01 0. -1.
         -5    1    4    4    0  502  0.16494411806E+02 -0.30910542448E+02 -0.27492510448E+03  0.27718843831E+03  0.47000000000E+01 0.  1.
          5    1    3    3  503    0 -0.16885099397E+02  0.29505280276E+02 -0.23065450505E+03  0.23319360808E+03  0.47000000000E+01 0. -1.
         -5    1    3    3    0  503 -0.11693411582E+01 -0.59604115618E+02 -0.25130652592E+03  0.25832359150E+03  0.47000000000E+01 0.  1.
<mgrwt>
<rscale>  0 0.96754626E+02</rscale>
<asrwt>0</asrwt>
<pdfrwt beam="1">  1        4 0.12638676E-02 0.96856174E+02</pdfrwt>
<pdfrwt beam="2">  1       -4 0.17986009E+00 0.96856174E+02</pdfrwt>
<totfact> 0.62973049E+02</totfact>
</mgrwt>
</event>
<event>
 8    1  0.3466492E-004  0.1015636E+03  0.7546771E-02  0.1280370E+00
         -4   -1    0    0    0  501 -0.00000000000E+00  0.00000000000E+00  0.19316672813E+03  0.19316672813E+03  0.00000000000E+00 0.  1.
          4   -1    0    0  501    0  0.00000000000E+00 -0.00000000000E+00 -0.17725975003E+03  0.17725975003E+03  0.00000000000E+00 0. -1.
         23    2    1    2    0    0 -0.29449847807E+02 -0.50619155289E+01  0.16483193886E+03  0.19360973538E+03  0.97068249396E+02 0.  0.
         23    2    1    2    0    0  0.29449847807E+02  0.50619155289E+01 -0.14892496076E+03  0.17681674278E+03  0.90512982848E+02 0.  0.
          5    1    3    3  502    0  0.30969367739E+02  0.15597751661E+02  0.38811570764E+02  0.52257244667E+02  0.47000000000E+01 0. -1.
         -5    1    4    4    0  503  0.16788140777E+01 -0.40939830187E+02 -0.59888329135E+02  0.72715817255E+02  0.47000000000E+01 0.  1.
          5    1    4    4  503    0  0.27771033729E+02  0.46001745716E+02 -0.89036631627E+02  0.10410092552E+03  0.47000000000E+01 0. -1.
         -5    1    3    3    0  502 -0.60419215546E+02 -0.20659667190E+02  0.12602036810E+03  0.14135249071E+03  0.47000000000E+01 0.  1.
<mgrwt>
<rscale>  0 0.99964826E+02</rscale>
<asrwt>0</asrwt>
<pdfrwt beam="1">  1        4 0.27270731E-01 0.10156358E+03</pdfrwt>
<pdfrwt beam="2">  1       -4 0.29717958E-01 0.10156358E+03</pdfrwt>
<totfact> 0.21760133E+02</totfact>
</mgrwt>
</event>
<event>
 8    1  0.3466492E-004  0.1078814E+03  0.7546771E-02  0.1265212E+00
          2   -1    0    0  501    0  0.00000000000E+00  0.00000000000E+00  0.84013325940E+03  0.84013325940E+03  0.00000000000E+00 0. -1.
         -2   -1    0    0    0  501 -0.00000000000E+00 -0.00000000000E+00 -0.15478264544E+02  0.15478264544E+02  0.00000000000E+00 0.  1.
         23    2    1    2    0    0  0.21499778902E+01 -0.57778491652E+02  0.55599614188E+03  0.56610165321E+03  0.89422566946E+02 0.  0.
         23    2    1    2    0    0 -0.21499778902E+01  0.57778491652E+02  0.26865885298E+03  0.28950987074E+03  0.91079138487E+02 0.  0.
          5    1    3    3  502    0 -0.34664865224E+02 -0.13952457150E+02  0.35709484502E+03  0.35907539916E+03  0.47000000000E+01 0. -1.
         -5    1    4    4    0  503  0.27018787146E+02  0.68610300612E+02  0.15728566203E+03  0.17377645896E+03  0.47000000000E+01 0.  1.
          5    1    4    4  503    0 -0.29168765036E+02 -0.10831808960E+02  0.11137319095E+03  0.11573341177E+03  0.47000000000E+01 0. -1.
         -5    1    3    3    0  502  0.36814843115E+02 -0.43826034502E+02  0.19890129686E+03  0.20702625405E+03  0.47000000000E+01 0.  1.
<mgrwt>
<rscale>  0 0.10753093E+03</rscale>
<asrwt>0</asrwt>
<pdfrwt beam="1">  1        2 0.12925124E+00 0.10788135E+03</pdfrwt>
<pdfrwt beam="2">  1       -2 0.23812721E-02 0.10788135E+03</pdfrwt>
<totfact> 0.18565709E+04</totfact>
</mgrwt>
</event>
<event>
 8    1  0.3466492E-004  0.1021713E+03  0.7546771E-02  0.1275797E+00
         -1   -1    0    0    0  501 -0.00000000000E+00  0.00000000000E+00  0.13283918972E+02  0.13283918972E+02  0.00000000000E+00 0.  1.
          1   -1    0    0  501    0  0.00000000000E+00 -0.00000000000E+00 -0.78827518598E+03  0.78827518598E+03  0.00000000000E+00 0. -1.
         23    2    1    2    0    0 -0.41238921363E+02  0.25664587822E+02 -0.40994634241E+03  0.42248665838E+03  0.89886890897E+02 0.  0.
         23    2    1    2    0    0  0.41238921363E+02 -0.25664587822E+02 -0.36504492460E+03  0.37907244657E+03  0.89882162122E+02 0.  0.
          5    1    3    3  502    0 -0.39566340234E+02 -0.24059980498E+01 -0.37618809772E+03  0.37829995899E+03  0.47000000000E+01 0. -1.
         -5    1    3    3    0  502 -0.16725811291E+01  0.28070585872E+02 -0.33758244687E+02  0.44186699392E+02  0.47000000000E+01 0.  1.
          5    1    4    4  503    0  0.20405778795E+02 -0.30694711313E+02 -0.35113094256E+03  0.35309147530E+03  0.47000000000E+01 0. -1.
         -5    1    4    4    0  503  0.20833142568E+02  0.50301234911E+01 -0.13913982044E+02  0.25980971266E+02  0.47000000000E+01 0.  1.
<mgrwt>
<rscale>  0 0.10217025E+03</rscale>
<asrwt>0</asrwt>
<pdfrwt beam="1">  1        1 0.12127315E+00 0.10217129E+03</pdfrwt>
<pdfrwt beam="2">  1       -1 0.20436792E-02 0.10217129E+03</pdfrwt>
<totfact> 0.14609340E+04</totfact>
</mgrwt>
</event>
<event>
 8    1  0.3466492E-004  0.1081133E+03  0.7546771E-02  0.1264575E+00
         -1   -1    0    0    0  501 -0.00000000000E+00  0.00000000000E+00  0.34494815678E+03  0.34494815678E+03  0.00000000000E+00 0.  1.
          1   -1    0    0  501    0  0.00000000000E+00 -0.00000000000E+00 -0.34896831322E+02  0.34896831322E+02  0.00000000000E+00 0. -1.
         23    2    1    2    0    0 -0.31593186879E+02 -0.46378511520E+02  0.19266829297E+03  0.22092887261E+03  0.92408873206E+02 0.  0.
         23    2    1    2    0    0  0.31593186879E+02  0.46378511520E+02  0.11738303249E+03  0.15891611550E+03  0.91249436495E+02 0.  0.
          5    1    3    3  502    0 -0.20762459421E+02  0.24920617393E+02  0.37817120170E+02  0.50043395872E+02  0.47000000000E+01 0. -1.
         -5    1    3    3    0  502 -0.10830727458E+02 -0.71299128913E+02  0.15485117280E+03  0.17088547674E+03  0.47000000000E+01 0.  1.
          5    1    4    4  503    0  0.57837719206E+02  0.42747219408E+02  0.54003460192E+02  0.90061036208E+02  0.47000000000E+01 0. -1.
         -5    1    4    4    0  503 -0.26244532327E+02  0.36312921112E+01  0.63379572296E+02  0.68855079289E+02  0.47000000000E+01 0.  1.
<mgrwt>
<rscale>  0 0.10786516E+03</rscale>
<asrwt>0</asrwt>
<pdfrwt beam="1">  1        1 0.53687435E-02 0.10811335E+03</pdfrwt>
<pdfrwt beam="2">  1       -1 0.53068945E-01 0.10811335E+03</pdfrwt>
<totfact> 0.51931464E+03</totfact>
</mgrwt>
</event>
<event>
 8    1  0.3466492E-004  0.9271062E+02  0.7546771E-02  0.1298152E+00
          1   -1    0    0  501    0  0.00000000000E+00  0.00000000000E+00  0.62372136613E+03  0.62372136613E+03  0.00000000000E+00 0. -1.
         -1   -1    0    0    0  501 -0.00000000000E+00 -0.00000000000E+00 -0.10162257509E+03  0.10162257509E+03  0.00000000000E+00 0.  1.
         23    2    1    2    0    0 -0.82590368656E+01 -0.17009444756E+02 -0.77510237926E+02  0.11860985854E+03  0.87766329873E+02 0.  0.
         23    2    1    2    0    0  0.82590368656E+01  0.17009444756E+02  0.59960902897E+03  0.60673408267E+03  0.90761922400E+02 0.  0.
          5    1    3    3  502    0  0.16539727005E+02  0.28921813650E+02 -0.47521019858E+02  0.58226894152E+02  0.47000000000E+01 0. -1.
         -5    1    3    3    0  502 -0.24798763871E+02 -0.45931258406E+02 -0.29989218068E+02  0.60382964391E+02  0.47000000000E+01 0.  1.
          5    1    4    4  503    0  0.42321821988E+02 -0.11197965619E+02  0.38876617901E+03  0.39125153417E+03  0.47000000000E+01 0. -1.
         -5    1    4    4    0  503 -0.34062785123E+02  0.28207410375E+02  0.21084284996E+03  0.21548254850E+03  0.47000000000E+01 0.  1.
<mgrwt>
<rscale>  0 0.91969137E+02</rscale>
<asrwt>0</asrwt>
<pdfrwt beam="1">  1        1 0.95957131E-01 0.92710622E+02</pdfrwt>
<pdfrwt beam="2">  1       -1 0.15634243E-01 0.92710622E+02</pdfrwt>
<totfact> 0.99734777E+02</totfact>
</mgrwt>
</event>
<event>
 8    1  0.3466492E-004  0.1019761E+03  0.7546771E-02  0.1277993E+00
         -4   -1    0    0    0  501 -0.00000000000E+00  0.00000000000E+00  0.13694006206E+03  0.13694006206E+03  0.00000000000E+00 0.  1.
          4   -1    0    0  501    0  0.00000000000E+00 -0.00000000000E+00 -0.87325766129E+02  0.87325766129E+02  0.00000000000E+00 0. -1.
         23    2    1    2    0    0 -0.31878098749E+02  0.27256679175E+02  0.69231330617E+02  0.12042004663E+03  0.89156439763E+02 0.  0.
         23    2    1    2    0    0  0.31878098749E+02 -0.27256679175E+02 -0.19617034685E+02  0.10384578156E+03  0.92951484973E+02 0.  0.
          5    1    3    3  502    0 -0.45421819655E+02 -0.17888377299E+02  0.22772407539E+02  0.54072250631E+02  0.47000000000E+01 0. -1.
         -5    1    4    4    0  503  0.34083677096E+01  0.29616571708E+02  0.12227108066E+02  0.32563022923E+02  0.47000000000E+01 0.  1.
          5    1    4    4  503    0  0.28469731040E+02 -0.56873250884E+02 -0.31844142752E+02  0.71282758639E+02  0.47000000000E+01 0. -1.
         -5    1    3    3    0  502  0.13543720905E+02  0.45145056475E+02  0.46458923078E+02  0.66347795997E+02  0.47000000000E+01 0.  1.
<mgrwt>
<rscale>  0 0.10110322E+03</rscale>
<asrwt>0</asrwt>
<pdfrwt beam="1">  1        4 0.13434733E-01 0.10197607E+03</pdfrwt>
<pdfrwt beam="2">  1       -4 0.21067702E-01 0.10197607E+03</pdfrwt>
<totfact> 0.14454113E+03</totfact>
</mgrwt>
</event>
<event>
 8    1  0.3466492E-004  0.9517946E+02  0.7546771E-02  0.1290909E+00
         -2   -1    0    0    0  501 -0.00000000000E+00  0.00000000000E+00  0.13082212478E+03  0.13082212478E+03  0.00000000000E+00 0.  1.
          2   -1    0    0  501    0  0.00000000000E+00 -0.00000000000E+00 -0.63912256302E+03  0.63912256302E+03  0.00000000000E+00 0. -1.
         23    2    1    2    0    0 -0.30028032198E+02  0.11423040242E+02  0.10939002711E+03  0.14500106290E+03  0.89593312495E+02 0.  0.
         23    2    1    2    0    0  0.30028032198E+02 -0.11423040242E+02 -0.61769046535E+03  0.62494362490E+03  0.89335629861E+02 0.  0.
          5    1    3    3  502    0  0.23298565691E+02  0.82774540483E+01  0.23476343155E+01  0.25277278249E+02  0.47000000000E+01 0. -1.
         -5    1    4    4    0  503 -0.16615186650E+02 -0.32613277979E+02 -0.15178998990E+03  0.15621133558E+03  0.47000000000E+01 0.  1.
          5    1    4    4  503    0  0.46643218848E+02  0.21190237736E+02 -0.46590047544E+03  0.46873228933E+03  0.47000000000E+01 0. -1.
         -5    1    3    3    0  502 -0.53326597890E+02  0.31455861941E+01  0.10704239280E+03  0.11972378465E+03  0.47000000000E+01 0.  1.
<mgrwt>
<rscale>  0 0.95118775E+02</rscale>
<asrwt>0</asrwt>
<pdfrwt beam="1">  1        2 0.98326548E-01 0.95179463E+02</pdfrwt>
<pdfrwt beam="2">  1       -2 0.20126481E-01 0.95179463E+02</pdfrwt>
<totfact> 0.96933582E+02</totfact>
</mgrwt>
</event>
<event>
 8    1  0.3466492E-004  0.9141778E+02  0.7546771E-02  0.1302287E+00
          2   -1    0    0  501    0  0.00000000000E+00  0.00000000000E+00  0.86498751274E+03  0.86498751274E+03  0.00000000000E+00 0. -1.
         -2   -1    0    0    0  501 -0.00000000000E+00 -0.00000000000E+00 -0.97155817617E+01  0.97155817617E+01  0.00000000000E+00 0.  1.
         23    2    1    2    0    0 -0.38401305139E+01 -0.28178217562E+01  0.52005686693E+03  0.52724612051E+03  0.86640868123E+02 0.  0.
         23    2    1    2    0    0  0.38401305139E+01  0.28178217562E+01  0.33521506405E+03  0.34745697399E+03  0.91293608152E+02 0.  0.
          5    1    3    3  502    0 -0.35164054707E+02  0.25507547773E+02  0.23306372738E+03  0.23712430655E+03  0.47000000000E+01 0. -1.
         -5    1    3    3    0  502  0.31323924193E+02 -0.28325369530E+02  0.28699313955E+03  0.29012181396E+03  0.47000000000E+01 0.  1.
          5    1    4    4  503    0 -0.33717349960E+02 -0.14768059147E+02  0.24810332150E+03  0.25086311686E+03  0.47000000000E+01 0. -1.
         -5    1    4    4    0  503  0.37557480474E+02  0.17585880903E+02  0.87111742541E+02  0.96593857130E+02  0.47000000000E+01 0.  1.
<mgrwt>
<rscale>  0 0.90233438E+02</rscale>
<asrwt>0</asrwt>
<pdfrwt beam="1">  1        2 0.13307494E+00 0.91417775E+02</pdfrwt>
<pdfrwt beam="2">  1       -2 0.14947056E-02 0.91417775E+02</pdfrwt>
<totfact> 0.34430882E+04</totfact>
</mgrwt>
</event>
<event>
 8    1  0.3466492E-004  0.1849203E+03  0.7546771E-02  0.1166513E+00
         -2   -1    0    0    0  501 -0.00000000000E+00  0.00000000000E+00  0.50537632795E+02  0.50537632795E+02  0.00000000000E+00 0.  1.
          2   -1    0    0  501    0  0.00000000000E+00 -0.00000000000E+00 -0.75244461461E+03  0.75244461461E+03  0.00000000000E+00 0. -1.
         23    2    1    2    0    0 -0.10404939794E+03  0.10380249349E+03 -0.52640863073E+03  0.55794405426E+03  0.11222426789E+03 0.  0.
         23    2    1    2    0    0  0.10404939794E+03 -0.10380249349E+03 -0.17549835108E+03  0.24503819315E+03  0.87423166285E+02 0.  0.
          5    1    3    3  502    0 -0.75360529166E+02  0.12625776284E+03 -0.39532209878E+03  0.42180787548E+03  0.47000000000E+01 0. -1.
         -5    1    3    3    0  502 -0.28688868770E+02 -0.22455269345E+02 -0.13108653195E+03  0.13613617877E+03  0.47000000000E+01 0.  1.
          5    1    4    4  503    0  0.32990566954E+02  0.87275333829E+01 -0.18273802114E+02  0.38994476412E+02  0.47000000000E+01 0. -1.
         -5    1    4    4    0  503  0.71058830982E+02 -0.11253002687E+03 -0.15722454897E+03  0.20604371674E+03  0.47000000000E+01 0.  1.
<mgrwt>
<rscale>  0 0.18133980E+03</rscale>
<asrwt>0</asrwt>
<pdfrwt beam="1">  1        2 0.11576071E+00 0.18492031E+03</pdfrwt>
<pdfrwt beam="2">  1       -2 0.77750204E-02 0.18492031E+03</pdfrwt>
<totfact> 0.37398457E+03</totfact>
</mgrwt>
</event>
<event>
 8    1  0.3466492E-004  0.1092981E+03  0.7546771E-02  0.1267054E+00
          2   -1    0    0  501    0  0.00000000000E+00  0.00000000000E+00  0.53031338630E+03  0.53031338630E+03  0.00000000000E+00 0. -1.
         -2   -1    0    0    0  501 -0.00000000000E+00 -0.00000000000E+00 -0.23787539839E+02  0.23787539839E+02  0.00000000000E+00 0.  1.
         23    2    1    2    0    0  0.36577004734E+02 -0.18184464955E+02  0.34652137138E+03  0.36032916208E+03  0.89952721930E+02 0.  0.
         23    2    1    2    0    0 -0.36577004734E+02  0.18184464955E+02  0.16000447509E+03  0.19377176406E+03  0.10137806695E+03 0.  0.
          5    1    3    3  502    0 -0.29388522373E+02 -0.69007413403E+01  0.84432288726E+02  0.89789792615E+02  0.47000000000E+01 0. -1.
         -5    1    3    3    0  502  0.65965527108E+02 -0.11283723614E+02  0.26208908265E+03  0.27053936947E+03  0.47000000000E+01 0.  1.
          5    1    4    4  503    0 -0.63827749187E+02 -0.73468089009E+01  0.64689457351E+02  0.91294978283E+02  0.47000000000E+01 0. -1.
         -5    1    4    4    0  503  0.27250744453E+02  0.25531273856E+02  0.95315017735E+02  0.10247678578E+03  0.47000000000E+01 0.  1.
<mgrwt>
<rscale>  0 0.10657143E+03</rscale>
<asrwt>0</asrwt>
<pdfrwt beam="1">  1        2 0.81586666E-01 0.10929805E+03</pdfrwt>
<pdfrwt beam="2">  1       -2 0.36596219E-02 0.10929805E+03</pdfrwt>
<totfact> 0.16961088E+04</totfact>
</mgrwt>
</event>
<event>
 8    1  0.3466492E-004  0.1393290E+03  0.7546771E-02  0.1214917E+00
         -1   -1    0    0    0  501 -0.00000000000E+00  0.00000000000E+00  0.72278046266E+02  0.72278046266E+02  0.00000000000E+00 0.  1.
          1   -1    0    0  501    0  0.00000000000E+00 -0.00000000000E+00 -0.37961200206E+03  0.37961200206E+03  0.00000000000E+00 0. -1.
         23    2    1    2    0    0  0.10041142862E+03 -0.15466061849E+02 -0.30154126798E+02  0.14255467171E+03  0.95346258419E+02 0.  0.
         23    2    1    2    0    0 -0.10041142862E+03  0.15466061849E+02 -0.27717982900E+03  0.30933537662E+03  0.92401642622E+02 0.  0.
          5    1    4    4  502    0 -0.79556011895E+02  0.51070488571E+02 -0.21014666727E+03  0.23048007635E+03  0.47000000000E+01 0. -1.
         -5    1    3    3    0  503  0.77147392226E+02  0.17028220815E+02 -0.53971603268E+02  0.95795116737E+02  0.47000000000E+01 0.  1.
          5    1    3    3  503    0  0.23264036399E+02 -0.32494282664E+02  0.23817476470E+02  0.46759554969E+02  0.47000000000E+01 0. -1.
         -5    1    4    4    0  502 -0.20855416730E+02 -0.35604426722E+02 -0.67033161730E+02  0.78855300270E+02  0.47000000000E+01 0.  1.
<mgrwt>
<rscale>  0 0.13882669E+03</rscale>
<asrwt>0</asrwt>
<pdfrwt beam="1">  1        1 0.58401844E-01 0.13932897E+03</pdfrwt>
<pdfrwt beam="2">  1       -1 0.11119700E-01 0.13932897E+03</pdfrwt>
<totfact> 0.32496740E+03</totfact>
</mgrwt>
</event>
<event>
 8    1  0.3466492E-004  0.9984408E+02  0.7546771E-02  0.1281467E+00
          2   -1    0    0  501    0  0.00000000000E+00  0.00000000000E+00  0.89016258309E+03  0.89016258309E+03  0.00000000000E+00 0. -1.
         -2   -1    0    0    0  501 -0.00000000000E+00 -0.00000000000E+00 -0.12181637724E+02  0.12181637724E+02  0.00000000000E+00 0.  1.
         23    2    1    2    0    0  0.21503266766E+02 -0.31378437695E+02  0.29659612326E+03  0.31244833873E+03  0.90596397319E+02 0.  0.
         23    2    1    2    0    0 -0.21503266766E+02  0.31378437695E+02  0.58138482210E+03  0.58989588208E+03  0.92313831541E+02 0.  0.
          5    1    4    4  502    0 -0.46359719535E+02  0.43351419167E+02  0.49538467197E+03  0.49945633679E+03  0.47000000000E+01 0. -1.
         -5    1    4    4    0  502  0.24856452770E+02 -0.11972981471E+02  0.86000150132E+02  0.90439545290E+02  0.47000000000E+01 0.  1.
          5    1    3    3  503    0  0.48675626531E+02 -0.10982836477E+02  0.24771319596E+03  0.25273277739E+03  0.47000000000E+01 0. -1.
         -5    1    3    3    0  503 -0.27172359765E+02 -0.20395601219E+02  0.48882927300E+02  0.59715561336E+02  0.47000000000E+01 0.  1.
<mgrwt>
<rscale>  0 0.99445265E+02</rscale>
<asrwt>0</asrwt>
<pdfrwt beam="1">  1        2 0.13694804E+00 0.99844080E+02</pdfrwt>
<pdfrwt beam="2">  1       -2 0.18740988E-02 0.99844080E+02</pdfrwt>
<totfact> 0.24216730E+04</totfact>
</mgrwt>
</event>
<event>
 8    1  0.3466492E-004  0.9173804E+02  0.7546771E-02  0.1299462E+00
         -2   -1    0    0    0  501 -0.00000000000E+00  0.00000000000E+00  0.15067251061E+02  0.15067251061E+02  0.00000000000E+00 0.  1.
          2   -1    0    0  501    0  0.00000000000E+00 -0.00000000000E+00 -0.56391554656E+03  0.56391554656E+03  0.00000000000E+00 0. -1.
         23    2    1    2    0    0  0.27577173137E+01 -0.10552790172E+02 -0.31677909647E+03  0.32943925144E+03  0.89790077644E+02 0.  0.
         23    2    1    2    0    0 -0.27577173137E+01  0.10552790172E+02 -0.23206919903E+03  0.24954354618E+03  0.91087331270E+02 0.  0.
          5    1    4    4  502    0  0.43867341150E+02  0.75519376119E+01 -0.11590066259E+03  0.12424342627E+03  0.47000000000E+01 0. -1.
         -5    1    4    4    0  502 -0.46625058464E+02  0.30008525604E+01 -0.11616853644E+03  0.12530011991E+03  0.47000000000E+01 0.  1.
          5    1    3    3  503    0 -0.12783172313E+02 -0.47742401359E+02 -0.18574961085E+03  0.19227000367E+03  0.47000000000E+01 0. -1.
         -5    1    3    3    0  503  0.15540889627E+02  0.37189611187E+02 -0.13102948562E+03  0.13716924777E+03  0.47000000000E+01 0.  1.
<mgrwt>
<rscale>  0 0.91414352E+02</rscale>
<asrwt>0</asrwt>
<pdfrwt beam="1">  1        2 0.86756235E-01 0.91738042E+02</pdfrwt>
<pdfrwt beam="2">  1       -2 0.23180387E-02 0.91738042E+02</pdfrwt>
<totfact> 0.30303730E+04</totfact>
</mgrwt>
</event>
<event>
 8    1  0.3466492E-004  0.1584051E+03  0.7546771E-02  0.1193425E+00
         -4   -1    0    0    0  501 -0.00000000000E+00  0.00000000000E+00  0.60038053047E+03  0.60038053047E+03  0.00000000000E+00 0.  1.
          4   -1    0    0  501    0  0.00000000000E+00 -0.00000000000E+00 -0.40950405527E+02  0.40950405527E+02  0.00000000000E+00 0. -1.
         23    2    1    2    0    0  0.10223572084E+03 -0.56990982554E+02  0.33670955485E+03  0.36802410317E+03  0.91478420843E+02 0.  0.
         23    2    1    2    0    0 -0.10223572084E+03  0.56990982554E+02  0.22272057009E+03  0.27330683282E+03  0.10673358336E+03 0.  0.
          5    1    4    4  502    0 -0.77920124592E+02  0.62376867998E+02  0.79029420725E+02  0.12739764055E+03  0.47000000000E+01 0. -1.
         -5    1    4    4    0  502 -0.24315596251E+02 -0.53858854441E+01  0.14369114937E+03  0.14590919227E+03  0.47000000000E+01 0.  1.
          5    1    3    3  503    0  0.44375828894E+01  0.21786844145E+02  0.57985550412E+02  0.62279794286E+02  0.47000000000E+01 0. -1.
         -5    1    3    3    0  503  0.97798137954E+02 -0.78777826699E+02  0.27872400444E+03  0.30574430889E+03  0.47000000000E+01 0.  1.
<mgrwt>
<rscale>  0 0.15588282E+03</rscale>
<asrwt>0</asrwt>
<pdfrwt beam="1">  1        4 0.63000628E-02 0.15840509E+03</pdfrwt>
<pdfrwt beam="2">  1       -4 0.92366229E-01 0.15840509E+03</pdfrwt>
<totfact> 0.28861261E+02</totfact>
</mgrwt>
</event>
<event>
 8    1  0.3466492E-004  0.1390924E+03  0.7546771E-02  0.1216811E+00
          2   -1    0    0  501    0  0.00000000000E+00  0.00000000000E+00  0.93423908101E+03  0.93423908101E+03  0.00000000000E+00 0. -1.
         -2   -1    0    0    0  501 -0.00000000000E+00 -0.00000000000E+00 -0.19769877230E+02  0.19769877230E+02  0.00000000000E+00 0.  1.
         23    2    1    2    0    0 -0.61522016077E+02 -0.74271985239E+02  0.45506658742E+03  0.47584902903E+03  0.10022680878E+03 0.  0.
         23    2    1    2    0    0  0.61522016077E+02  0.74271985239E+02  0.45940261637E+03  0.47815992921E+03  0.91021248740E+02 0.  0.
          5    1    3    3  502    0 -0.32067463951E+02  0.19515352627E+02  0.17354404548E+03  0.17761981014E+03  0.47000000000E+01 0. -1.
         -5    1    3    3    0  502 -0.29454552126E+02 -0.93787337866E+02  0.28152254194E+03  0.29822921890E+03  0.47000000000E+01 0.  1.
          5    1    4    4  503    0 -0.11118704371E+02  0.40703842561E+02  0.25662511985E+03  0.26011338013E+03  0.47000000000E+01 0. -1.
         -5    1    4    4    0  503  0.72640720448E+02  0.33568142678E+02  0.20277749652E+03  0.21804654907E+03  0.47000000000E+01 0.  1.
<mgrwt>
<rscale>  0 0.13744342E+03</rscale>
<asrwt>0</asrwt>
<pdfrwt beam="1">  1        2 0.14372906E+00 0.13909241E+03</pdfrwt>
<pdfrwt beam="2">  1       -2 0.30415203E-02 0.13909241E+03</pdfrwt>
<totfact> 0.11526718E+04</totfact>
</mgrwt>
</event>
<event>
 8    1  0.3466492E-004  0.8787277E+02  0.7546771E-02  0.1308374E+00
         -1   -1    0    0    0  501 -0.00000000000E+00  0.00000000000E+00  0.20116795256E+02  0.20116795256E+02  0.00000000000E+00 0.  1.
          1   -1    0    0  501    0  0.00000000000E+00 -0.00000000000E+00 -0.38291348625E+03  0.38291348625E+03  0.00000000000E+00 0. -1.
         23    2    1    2    0    0 -0.37690716663E+01 -0.42765192410E+01 -0.19161582371E+03  0.21061273251E+03  0.87227316137E+02 0.  0.
         23    2    1    2    0    0  0.37690716663E+01  0.42765192410E+01 -0.17118086729E+03  0.19241754900E+03  0.87687680549E+02 0.  0.
          5    1    4    4  502    0  0.27455559826E+02 -0.28238685354E+02 -0.45450155737E+02  0.60324437605E+02  0.47000000000E+01 0. -1.
         -5    1    4    4    0  502 -0.23686488159E+02  0.32515204595E+02 -0.12573071155E+03  0.13209311140E+03  0.47000000000E+01 0.  1.
          5    1    3    3  503    0 -0.72027471715E+01 -0.38276268410E+02 -0.43690638232E+02  0.58718942083E+02  0.47000000000E+01 0. -1.
         -5    1    3    3    0  503  0.34336755052E+01  0.33999749169E+02 -0.14792518548E+03  0.15189379042E+03  0.47000000000E+01 0.  1.
<mgrwt>
<rscale>  0 0.87757697E+02</rscale>
<asrwt>0</asrwt>
<pdfrwt beam="1">  1        1 0.58909765E-01 0.87872771E+02</pdfrwt>
<pdfrwt beam="2">  1       -1 0.30948917E-02 0.87872771E+02</pdfrwt>
<totfact> 0.20698657E+04</totfact>
</mgrwt>
</event>
<event>
 8    1  0.3466492E-004  0.1289291E+03  0.7546771E-02  0.1235299E+00
          1   -1    0    0  501    0  0.00000000000E+00  0.00000000000E+00  0.20124327840E+03  0.20124327840E+03  0.00000000000E+00 0. -1.
         -1   -1    0    0    0  501 -0.00000000000E+00 -0.00000000000E+00 -0.74961574944E+02  0.74961574944E+02  0.00000000000E+00 0.  1.
         23    2    1    2    0    0  0.23047907404E+02 -0.63996020619E+02  0.81833738443E+02  0.13982909817E+03  0.90712288339E+02 0.  0.
         23    2    1    2    0    0 -0.23047907404E+02  0.63996020619E+02  0.44447965015E+02  0.13637575518E+03  0.10952638183E+03 0.  0.
          5    1    3    3  502    0  0.45998558294E+02 -0.53738007536E+02  0.21155651749E+02  0.73981703279E+02  0.47000000000E+01 0. -1.
         -5    1    4    4    0  503 -0.42308013661E+01 -0.23018694777E+02 -0.15934649107E+02  0.28701272299E+02  0.47000000000E+01 0.  1.
          5    1    4    4  503    0 -0.18817106038E+02  0.87014715397E+02  0.60382614121E+02  0.10767448288E+03  0.47000000000E+01 0. -1.
         -5    1    3    3    0  502 -0.22950650890E+02 -0.10258013083E+02  0.60678086693E+02  0.65847394887E+02  0.47000000000E+01 0.  1.
<mgrwt>
<rscale>  0 0.12485303E+03</rscale>
<asrwt>0</asrwt>
<pdfrwt beam="1">  1        1 0.30960504E-01 0.12892915E+03</pdfrwt>
<pdfrwt beam="2">  1       -1 0.11532550E-01 0.12892915E+03</pdfrwt>
<totfact> 0.67198733E+03</totfact>
</mgrwt>
</event>
<event>
 8    1  0.3466492E-004  0.1230823E+03  0.7546771E-02  0.1238331E+00
         -1   -1    0    0    0  501 -0.00000000000E+00  0.00000000000E+00  0.28582672697E+03  0.28582672697E+03  0.00000000000E+00 0.  1.
          1   -1    0    0  501    0  0.00000000000E+00 -0.00000000000E+00 -0.11207397706E+03  0.11207397706E+03  0.00000000000E+00 0. -1.
         23    2    1    2    0    0 -0.34280853664E+02  0.75167807582E+02 -0.57968072255E+02  0.13551970010E+03  0.90442885240E+02 0.  0.
         23    2    1    2    0    0  0.34280853664E+02 -0.75167807582E+02  0.23172082216E+03  0.26238100393E+03  0.91235275937E+02 0.  0.
          5    1    3    3  502    0  0.36053703114E+01  0.82444981434E+02 -0.31297172808E+02  0.88384255863E+02  0.47000000000E+01 0. -1.
         -5    1    3    3    0  502 -0.37886223975E+02 -0.72771738523E+01 -0.26670899448E+02  0.47135444240E+02  0.47000000000E+01 0.  1.
          5    1    4    4  503    0  0.21182468281E+02  0.13679235608E+02  0.97502218074E+02  0.10081959620E+03  0.47000000000E+01 0. -1.
         -5    1    4    4    0  503  0.13098385382E+02 -0.88847043190E+02  0.13421860408E+03  0.16156140772E+03  0.47000000000E+01 0.  1.
<mgrwt>
<rscale>  0 0.12293548E+03</rscale>
<asrwt>0</asrwt>
<pdfrwt beam="1">  1        1 0.17242150E-01 0.12308230E+03</pdfrwt>
<pdfrwt beam="2">  1       -1 0.43973343E-01 0.12308230E+03</pdfrwt>
<totfact> 0.15738649E+03</totfact>
</mgrwt>
</event>
<event>
 8    1  0.3466492E-004  0.1181958E+03  0.7546771E-02  0.1249349E+00
          2   -1    0    0  501    0  0.00000000000E+00  0.00000000000E+00  0.10202537818E+03  0.10202537818E+03  0.00000000000E+00 0. -1.
         -2   -1    0    0    0  501 -0.00000000000E+00 -0.00000000000E+00 -0.25856115261E+03  0.25856115261E+03  0.00000000000E+00 0.  1.
         23    2    1    2    0    0 -0.63865416797E+02  0.94954299240E+01 -0.20740095480E+03  0.23871617989E+03  0.99001534517E+02 0.  0.
         23    2    1    2    0    0  0.63865416797E+02 -0.94954299240E+01  0.50865180380E+02  0.12187035089E+03  0.89978670803E+02 0.  0.
          5    1    3    3  502    0  0.26254959276E+02 -0.11074523469E+01 -0.37312915637E+02  0.45879113011E+02  0.47000000000E+01 0. -1.
         -5    1    3    3    0  502 -0.90120376073E+02  0.10602882271E+02 -0.17008803917E+03  0.19283706688E+03  0.47000000000E+01 0.  1.
          5    1    4    4  503    0  0.67028209062E+02 -0.31272574310E+02  0.62125785921E+02  0.96708107159E+02  0.47000000000E+01 0. -1.
         -5    1    4    4    0  503 -0.31627922650E+01  0.21777144386E+02 -0.11260605541E+02  0.25162243733E+02  0.47000000000E+01 0.  1.
<mgrwt>
<rscale>  0 0.11628819E+03</rscale>
<asrwt>0</asrwt>
<pdfrwt beam="1">  1        2 0.15696212E-01 0.11819585E+03</pdfrwt>
<pdfrwt beam="2">  1       -2 0.39778639E-01 0.11819585E+03</pdfrwt>
<totfact> 0.21373873E+03</totfact>
</mgrwt>
</event>
<event>
 8    1  0.3466492E-004  0.9624151E+02  0.7546771E-02  0.1288831E+00
          1   -1    0    0  501    0  0.00000000000E+00  0.00000000000E+00  0.42947869881E+02  0.42947869881E+02  0.00000000000E+00 0. -1.
         -1   -1    0    0    0  501 -0.00000000000E+00 -0.00000000000E+00 -0.23695698418E+03  0.23695698418E+03  0.00000000000E+00 0.  1.
         23    2    1    2    0    0 -0.20381139336E+02 -0.13323328079E+02 -0.53042078312E+02  0.10921761700E+03  0.92315350179E+02 0.  0.
         23    2    1    2    0    0  0.20381139336E+02  0.13323328079E+02 -0.14096703599E+03  0.17068723707E+03  0.93110288103E+02 0.  0.
          5    1    4    4  502    0 -0.26544864723E+02  0.85511997722E+01 -0.78031139228E+01  0.29338225025E+02  0.47000000000E+01 0. -1.
         -5    1    3    3    0  503 -0.26292647944E+02 -0.46665384838E+02 -0.52320634392E+02  0.75023331445E+02  0.47000000000E+01 0.  1.
          5    1    3    3  503    0  0.59115086081E+01  0.33342056759E+02 -0.72144391979E+00  0.34194285550E+02  0.47000000000E+01 0. -1.
         -5    1    4    4    0  502  0.46926004059E+02  0.47721283069E+01 -0.13316392207E+03  0.14134901204E+03  0.47000000000E+01 0.  1.
<mgrwt>
<rscale>  0 0.96048713E+02</rscale>
<asrwt>0</asrwt>
<pdfrwt beam="1">  1        1 0.66073645E-02 0.96241507E+02</pdfrwt>
<pdfrwt beam="2">  1       -1 0.36454921E-01 0.96241507E+02</pdfrwt>
<totfact> 0.75606887E+03</totfact>
</mgrwt>
</event>
<event>
 7    1  0.3466492E-004  0.1665723E+03  0.7546771E-02  0.1207343E+00
         -1   -1    0    0    0  501 -0.00000000000E+00  0.00000000000E+00  0.51102996425E+02  0.51102996425E+02  0.00000000000E+00 0.  1.
          1   -1    0    0  501    0  0.00000000000E+00 -0.00000000000E+00 -0.60651488634E+03  0.60651488634E+03  0.00000000000E+00 0. -1.
         23    2    1    2    0    0  0.15231535646E+02  0.30164807121E+02 -0.19531171780E+02  0.96445463899E+02  0.88194929382E+02 0.  0.
          5    1    3    3  502    0  0.21246865705E+02 -0.22746140696E+02 -0.28230857125E+02  0.42283418888E+02  0.47000000000E+01 0. -1.
         -5    1    1    2    0  503 -0.36824089703E+02  0.36371049574E+02 -0.56797590233E+02  0.76986512363E+02  0.47000000000E+01 0.  1.
          5    1    1    2  503    0  0.21592554058E+02 -0.66535856694E+02 -0.47908312790E+03  0.48418590650E+03  0.47000000000E+01 0. -1.
         -5    1    3    3    0  502 -0.60153300598E+01  0.52910947817E+02  0.86996853446E+01  0.54162045010E+02  0.47000000000E+01 0.  1.
<mgrwt>
<rscale>  0 0.14454375E+03</rscale>
<asrwt>0</asrwt>
<pdfrwt beam="1">  1        1 0.93309982E-01 0.16657233E+03</pdfrwt>
<pdfrwt beam="2">  1       -1 0.78619995E-02 0.16657233E+03</pdfrwt>
<totfact> 0.30127080E+03</totfact>
</mgrwt>
</event>
<event>
 8    1  0.3466492E-004  0.9582435E+02  0.7546771E-02  0.1289745E+00
          1   -1    0    0  501    0  0.00000000000E+00  0.00000000000E+00  0.23858912815E+02  0.23858912815E+02  0.00000000000E+00 0. -1.
         -1   -1    0    0    0  501 -0.00000000000E+00 -0.00000000000E+00 -0.38468034419E+03  0.38468034419E+03  0.00000000000E+00 0.  1.
         23    2    1    2    0    0 -0.25654588339E+02 -0.10891619208E+02 -0.16230559155E+03  0.18810594486E+03  0.90906304363E+02 0.  0.
         23    2    1    2    0    0  0.25654588339E+02  0.10891619208E+02 -0.19851583982E+03  0.22043331214E+03  0.91681629391E+02 0.  0.
          5    1    3    3  502    0  0.30375357799E+02 -0.45177413012E+01 -0.25965107866E+02  0.40488877169E+02  0.47000000000E+01 0. -1.
         -5    1    3    3    0  502 -0.56029946138E+02 -0.63738779064E+01 -0.13634048368E+03  0.14761706769E+03  0.47000000000E+01 0.  1.
          5    1    4    4  503    0  0.48428695065E+02  0.16611723967E+02 -0.56413634756E+02  0.76327426690E+02  0.47000000000E+01 0. -1.
         -5    1    4    4    0  503 -0.22774106726E+02 -0.57201047597E+01 -0.14210220507E+03  0.14410588545E+03  0.47000000000E+01 0.  1.
<mgrwt>
<rscale>  0 0.95638427E+02</rscale>
<asrwt>0</asrwt>
<pdfrwt beam="1">  1        1 0.36706020E-02 0.95824352E+02</pdfrwt>
<pdfrwt beam="2">  1       -1 0.59181591E-01 0.95824352E+02</pdfrwt>
<totfact> 0.70437096E+03</totfact>
</mgrwt>
</event>
<event>
 8    1  0.3466492E-004  0.1162054E+03  0.7546771E-02  0.1250567E+00
          2   -1    0    0  501    0  0.00000000000E+00  0.00000000000E+00  0.18889076015E+03  0.18889076015E+03  0.00000000000E+00 0. -1.
         -2   -1    0    0    0  501 -0.00000000000E+00 -0.00000000000E+00 -0.14068813113E+03  0.14068813113E+03  0.00000000000E+00 0.  1.
         23    2    1    2    0    0  0.41097982660E+02 -0.57025405034E+02 -0.92593194474E+02  0.14858393469E+03  0.92535101383E+02 0.  0.
         23    2    1    2    0    0 -0.41097982660E+02  0.57025405034E+02  0.14079582349E+03  0.18099495658E+03  0.89413474361E+02 0.  0.
          5    1    3    3  502    0 -0.26108512394E+02 -0.25450295780E+02 -0.11475173020E+02  0.38511577098E+02  0.47000000000E+01 0. -1.
         -5    1    4    4    0  503 -0.22609110023E+02 -0.16605877932E+02  0.10885028579E+02  0.30454899196E+02  0.47000000000E+01 0.  1.
          5    1    4    4  503    0 -0.18488872638E+02  0.73631282966E+02  0.12991079492E+03  0.15054005739E+03  0.47000000000E+01 0. -1.
         -5    1    3    3    0  502  0.67206495054E+02 -0.31575109254E+02 -0.81118021455E+02  0.11007235760E+03  0.47000000000E+01 0.  1.
<mgrwt>
<rscale>  0 0.11558285E+03</rscale>
<asrwt>0</asrwt>
<pdfrwt beam="1">  1        2 0.29060117E-01 0.11620536E+03</pdfrwt>
<pdfrwt beam="2">  1       -2 0.21644328E-01 0.11620536E+03</pdfrwt>
<totfact> 0.31847449E+03</totfact>
</mgrwt>
</event>
<event>
 8    1  0.3466492E-004  0.1017209E+03  0.7546771E-02  0.1278695E+00
          2   -1    0    0  501    0  0.00000000000E+00  0.00000000000E+00  0.54352139587E+03  0.54352139587E+03  0.00000000000E+00 0. -1.
         -2   -1    0    0    0  501 -0.00000000000E+00 -0.00000000000E+00 -0.24801038343E+02  0.24801038343E+02  0.00000000000E+00 0.  1.
         23    2    1    2    0    0 -0.88425141849E+01  0.46301582613E+02  0.40077628031E+03  0.41257282641E+03  0.85864332661E+02 0.  0.
         23    2    1    2    0    0  0.88425141849E+01 -0.46301582613E+02  0.11794407721E+03  0.15574960780E+03  0.90139383014E+02 0.  0.
          5    1    4    4  502    0 -0.29995822206E+02 -0.11227569440E+02  0.91236486106E+02  0.96809059815E+02  0.47000000000E+01 0. -1.
         -5    1    4    4    0  502  0.38838336391E+02 -0.35074013172E+02  0.26707591104E+02  0.58940547980E+02  0.47000000000E+01 0.  1.
          5    1    3    3  503    0 -0.31708597762E+01 -0.24754615476E+02  0.13473117371E+03  0.13710369983E+03  0.47000000000E+01 0. -1.
         -5    1    3    3    0  503 -0.56716544087E+01  0.71056198088E+02  0.26604510661E+03  0.27546912658E+03  0.47000000000E+01 0.  1.
<mgrwt>
<rscale>  0 0.10076542E+03</rscale>
<asrwt>0</asrwt>
<pdfrwt beam="1">  1        2 0.83618667E-01 0.10172087E+03</pdfrwt>
<pdfrwt beam="2">  1       -2 0.38155448E-02 0.10172087E+03</pdfrwt>
<totfact> 0.15426421E+04</totfact>
</mgrwt>
</event>
<event>
 8    1  0.3466492E-004  0.9006962E+02  0.7546771E-02  0.1303227E+00
          1   -1    0    0  501    0  0.00000000000E+00  0.00000000000E+00  0.48448554059E+03  0.48448554059E+03  0.00000000000E+00 0. -1.
         -1   -1    0    0    0  501 -0.00000000000E+00 -0.00000000000E+00 -0.57115024401E+02  0.57115024401E+02  0.00000000000E+00 0.  1.
         23    2    1    2    0    0 -0.46708333466E+00  0.82676434667E+00 -0.14141295006E+02  0.91172978001E+02  0.90064610069E+02 0.  0.
         23    2    1    2    0    0  0.46708333466E+00 -0.82676434667E+00  0.44151181120E+03  0.45042758699E+03  0.89170791133E+02 0.  0.
          5    1    3    3  502    0 -0.37383311164E+02 -0.21397907241E+02 -0.19466150035E+02  0.47501614552E+02  0.47000000000E+01 0.  1.
         -5    1    3    3    0  502  0.36916227829E+02  0.22224671588E+02  0.53248550296E+01  0.43671363448E+02  0.47000000000E+01 0.  1.
          5    1    4    4  503    0 -0.29817652862E+02 -0.32837438388E+02  0.23851481239E+03  0.24264953227E+03  0.47000000000E+01 0. -1.
         -5    1    4    4    0  503  0.30284736196E+02  0.32010674041E+02  0.20299699881E+03  0.20777805473E+03  0.47000000000E+01 0.  1.
<mgrwt>
<rscale>  0 0.89845337E+02</rscale>
<asrwt>0</asrwt>
<pdfrwt beam="1">  1        1 0.74536234E-01 0.90069616E+02</pdfrwt>
<pdfrwt beam="2">  1       -1 0.87869271E-02 0.90069616E+02</pdfrwt>
<totfact> 0.33433778E+03</totfact>
</mgrwt>
</event>
<event>
 8    1  0.3466492E-004  0.1015629E+03  0.7546771E-02  0.1277288E+00
         -2   -1    0    0    0  501 -0.00000000000E+00  0.00000000000E+00  0.11328710542E+03  0.11328710542E+03  0.00000000000E+00 0.  1.
          2   -1    0    0  501    0  0.00000000000E+00 -0.00000000000E+00 -0.68091089031E+03  0.68091089031E+03  0.00000000000E+00 0. -1.
         23    2    1    2    0    0 -0.10330233584E+01  0.39828004218E+02  0.86005811097E+02  0.13272489156E+03  0.92906190530E+02 0.  0.
         23    2    1    2    0    0  0.10330233584E+01 -0.39828004218E+02 -0.65362959598E+03  0.66147310418E+03  0.93422062436E+02 0.  0.
          5    1    3    3  502    0 -0.22573438600E+02 -0.23676158748E+02  0.36509764871E+02  0.49246051154E+02  0.47000000000E+01 0. -1.
         -5    1    4    4    0  503 -0.32240320648E+02  0.16017746152E+02 -0.24664535808E+03  0.24930308689E+03  0.47000000000E+01 0.  1.
          5    1    4    4  503    0  0.33273344006E+02 -0.55845750370E+02 -0.40698423790E+03  0.41217001729E+03  0.47000000000E+01 0. -1.
         -5    1    3    3    0  502  0.21540415242E+02  0.63504162967E+02  0.49496046226E+02  0.83478840402E+02  0.47000000000E+01 0.  1.
<mgrwt>
<rscale>  0 0.10144409E+03</rscale>
<asrwt>0</asrwt>
<pdfrwt beam="1">  1        2 0.10475552E+00 0.10156288E+03</pdfrwt>
<pdfrwt beam="2">  1       -2 0.17428785E-01 0.10156288E+03</pdfrwt>
<totfact> 0.11462013E+03</totfact>
</mgrwt>
</event>
<event>
 8    1  0.3466492E-004  0.1075292E+03  0.7546771E-02  0.1266201E+00
          1   -1    0    0  501    0  0.00000000000E+00  0.00000000000E+00  0.60774323206E+03  0.60774323206E+03  0.00000000000E+00 0. -1.
         -1   -1    0    0    0  501 -0.00000000000E+00 -0.00000000000E+00 -0.31814698964E+02  0.31814698964E+02  0.00000000000E+00 0.  1.
         23    2    1    2    0    0 -0.50371623411E+02 -0.22924105362E+02  0.80765085979E+02  0.13285352130E+03  0.89801135609E+02 0.  0.
         23    2    1    2    0    0  0.50371623411E+02  0.22924105362E+02  0.49516344711E+03  0.50670440972E+03  0.92193841565E+02 0.  0.
          5    1    3    3  502    0 -0.35694503761E+01  0.25372217320E+02 -0.19757083396E+01  0.26124391115E+02  0.47000000000E+01 0. -1.
         -5    1    3    3    0  502 -0.46802173035E+02 -0.48296322681E+02  0.82740794318E+02  0.10672913018E+03  0.47000000000E+01 0.  1.
          5    1    4    4  503    0 -0.31858027272E+01  0.44060543668E+02  0.29658767674E+03  0.29989635016E+03  0.47000000000E+01 0. -1.
         -5    1    4    4    0  503  0.53557426138E+02 -0.21136438307E+02  0.19857577038E+03  0.20680805956E+03  0.47000000000E+01 0.  1.
<mgrwt>
<rscale>  0 0.10701440E+03</rscale>
<asrwt>0</asrwt>
<pdfrwt beam="1">  1        1 0.93498950E-01 0.10752916E+03</pdfrwt>
<pdfrwt beam="2">  1       -1 0.48945695E-02 0.10752916E+03</pdfrwt>
<totfact> 0.59713130E+03</totfact>
</mgrwt>
</event>
<event>
 8    1  0.3466492E-004  0.9498639E+02  0.7546771E-02  0.1291272E+00
          1   -1    0    0  501    0  0.00000000000E+00  0.00000000000E+00  0.19287249588E+03  0.19287249588E+03  0.00000000000E+00 0. -1.
         -1   -1    0    0    0  501 -0.00000000000E+00 -0.00000000000E+00 -0.48321571286E+02  0.48321571286E+02  0.00000000000E+00 0.  1.
         23    2    1    2    0    0 -0.20507002916E+02 -0.17789828184E+02  0.94172021180E+02  0.13367454374E+03  0.90903789336E+02 0.  0.
         23    2    1    2    0    0  0.20507002916E+02  0.17789828184E+02  0.50378903410E+02  0.10751952342E+03  0.91024166310E+02 0.  0.
          5    1    3    3  502    0  0.17744746717E+02 -0.31427125031E+02  0.84001761061E+02  0.91547398025E+02  0.47000000000E+01 0. -1.
         -5    1    4    4    0  503 -0.89723201706E+01 -0.33820363169E+02  0.20596157713E+02  0.40873111047E+02  0.47000000000E+01 0.  1.
          5    1    4    4  503    0  0.29479323086E+02  0.51610191353E+02  0.29782745696E+02  0.66646412374E+02  0.47000000000E+01 0. -1.
         -5    1    3    3    0  502 -0.38251749632E+02  0.13637296847E+02  0.10170260119E+02  0.42127145715E+02  0.47000000000E+01 0.  1.
<mgrwt>
<rscale>  0 0.94957538E+02</rscale>
<asrwt>0</asrwt>
<pdfrwt beam="1">  1        1 0.29672691E-01 0.94986389E+02</pdfrwt>
<pdfrwt beam="2">  1       -1 0.74340880E-02 0.94986389E+02</pdfrwt>
<totfact> 0.13412310E+04</totfact>
</mgrwt>
</event>
<event>
 8    1  0.3466492E-004  0.1110178E+03  0.7546771E-02  0.1259376E+00
          4   -1    0    0  501    0  0.00000000000E+00  0.00000000000E+00  0.42875381329E+03  0.42875381329E+03  0.00000000000E+00 0. -1.
         -4   -1    0    0    0  501 -0.00000000000E+00 -0.00000000000E+00 -0.36630638088E+02  0.36630638088E+02  0.00000000000E+00 0.  1.
         23    2    1    2    0    0  0.23495796877E+02  0.57043882111E+02  0.84518416179E+02  0.13835899440E+03  0.90519565300E+02 0.  0.
         23    2    1    2    0    0 -0.23495796877E+02 -0.57043882111E+02  0.30760475902E+03  0.32702545698E+03  0.92297913184E+02 0.  0.
          5    1    4    4  502    0 -0.55265572112E+02 -0.55986566856E+02  0.21294023931E+03  0.22705597250E+03  0.47000000000E+01 0. -1.
         -5    1    4    4    0  502  0.31769775235E+02 -0.10573152546E+01  0.94664519712E+02  0.99969484476E+02  0.47000000000E+01 0.  1.
          5    1    3    3  503    0 -0.66752738196E+01  0.29179951084E+02  0.91544423406E+02  0.96428731624E+02  0.47000000000E+01 0. -1.
         -5    1    3    3    0  503  0.30171070697E+02  0.27863931026E+02 -0.70260072277E+01  0.41930262780E+02  0.47000000000E+01 0.  1.
<mgrwt>
<rscale>  0 0.11064749E+03</rscale>
<asrwt>0</asrwt>
<pdfrwt beam="1">  1        4 0.65962121E-01 0.11101784E+03</pdfrwt>
<pdfrwt beam="2">  1       -4 0.56354831E-02 0.11101784E+03</pdfrwt>
<totfact> 0.67721224E+02</totfact>
</mgrwt>
</event>
<event>
 8    1  0.3466492E-004  0.1070906E+03  0.7546771E-02  0.1266486E+00
         -2   -1    0    0    0  501 -0.00000000000E+00  0.00000000000E+00  0.46828313889E+02  0.46828313889E+02  0.00000000000E+00 0.  1.
          2   -1    0    0  501    0  0.00000000000E+00 -0.00000000000E+00 -0.24392647247E+03  0.24392647247E+03  0.00000000000E+00 0. -1.
         23    2    1    2    0    0  0.50065986051E+02 -0.23081765245E+02 -0.88520753074E+02  0.13825085894E+03  0.90763458659E+02 0.  0.
         23    2    1    2    0    0 -0.50065986051E+02  0.23081765245E+02 -0.10857740550E+03  0.15250392741E+03  0.91809716501E+02 0.  0.
          5    1    4    4  502    0 -0.68582177348E+02 -0.77299810208E+01 -0.57989968763E+02  0.90267348103E+02  0.47000000000E+01 0. -1.
         -5    1    3    3    0  503  0.53250102002E+02 -0.45471377206E+02 -0.91112468853E+02  0.11500778882E+03  0.47000000000E+01 0.  1.
          5    1    3    3  503    0 -0.31841159513E+01  0.22389611961E+02  0.25917157794E+01  0.23243070126E+02  0.47000000000E+01 0. -1.
         -5    1    4    4    0  502  0.18516191297E+02  0.30811746265E+02 -0.50587436740E+02  0.62236579309E+02  0.47000000000E+01 0.  1.
<mgrwt>
<rscale>  0 0.10686599E+03</rscale>
<asrwt>0</asrwt>
<pdfrwt beam="1">  1        2 0.37527149E-01 0.10709059E+03</pdfrwt>
<pdfrwt beam="2">  1       -2 0.72043560E-02 0.10709059E+03</pdfrwt>
<totfact> 0.14025599E+04</totfact>
</mgrwt>
</event>
<event>
 8    1  0.3466492E-004  0.1008356E+03  0.7546771E-02  0.1279144E+00
         -1   -1    0    0    0  501 -0.00000000000E+00  0.00000000000E+00  0.35200111556E+02  0.35200111556E+02  0.00000000000E+00 0.  1.
          1   -1    0    0  501    0  0.00000000000E+00 -0.00000000000E+00 -0.33275051384E+03  0.33275051384E+03  0.00000000000E+00 0. -1.
         23    2    1    2    0    0  0.30291343685E+02 -0.26564889334E+02 -0.21874929034E+03  0.24087147431E+03  0.92436769025E+02 0.  0.
         23    2    1    2    0    0 -0.30291343685E+02  0.26564889334E+02 -0.78801111945E+02  0.12707915108E+03  0.91193401887E+02 0.  0.
          5    1    3    3  502    0  0.27999776521E+02  0.94924522712E+01 -0.19521514647E+03  0.19749718364E+03  0.47000000000E+01 0. -1.
         -5    1    4    4    0  503 -0.35533467679E+02 -0.26263987075E+02 -0.23462833177E+02  0.50249565998E+02  0.47000000000E+01 0.  1.
          5    1    4    4  503    0  0.52421239937E+01  0.52828876409E+02 -0.55338278768E+02  0.76829585081E+02  0.47000000000E+01 0. -1.
         -5    1    3    3    0  502  0.22915671643E+01 -0.36057341605E+02 -0.23534143866E+02  0.43374290671E+02  0.47000000000E+01 0.  1.
<mgrwt>
<rscale>  0 0.10054973E+03</rscale>
<asrwt>0</asrwt>
<pdfrwt beam="1">  1        1 0.51192385E-01 0.10083558E+03</pdfrwt>
<pdfrwt beam="2">  1       -1 0.54154019E-02 0.10083558E+03</pdfrwt>
<totfact> 0.11047854E+04</totfact>
</mgrwt>
</event>
<event>
 8    1  0.3466492E-004  0.1017757E+03  0.7546771E-02  0.1281605E+00
          2   -1    0    0  501    0  0.00000000000E+00  0.00000000000E+00  0.67313982046E+03  0.67313982046E+03  0.00000000000E+00 0. -1.
         -2   -1    0    0    0  501 -0.00000000000E+00 -0.00000000000E+00 -0.14801212870E+02  0.14801212870E+02  0.00000000000E+00 0.  1.
         23    2    1    2    0    0 -0.99310546662E+01 -0.49961899881E-01  0.42288830280E+03  0.43496298828E+03  0.10128996095E+03 0.  0.
         23    2    1    2    0    0  0.99310546662E+01  0.49961899881E-01  0.23545030479E+03  0.25297804505E+03  0.91991395828E+02 0.  0.
          5    1    4    4  502    0  0.45432204449E+02 -0.95010440724E+01  0.18234512767E+03  0.18821846515E+03  0.47000000000E+01 0. -1.
         -5    1    3    3    0  503  0.36113726677E+02  0.28133958062E+02  0.15684856752E+03  0.16346034377E+03  0.47000000000E+01 0.  1.
          5    1    3    3  503    0 -0.46044781343E+02 -0.28183919962E+02  0.26603973528E+03  0.27150264452E+03  0.47000000000E+01 0. -1.
         -5    1    4    4    0  502 -0.35501149783E+02  0.95510059723E+01  0.53105177123E+02  0.64759579895E+02  0.47000000000E+01 0.  1.
<mgrwt>
<rscale>  0 0.99379953E+02</rscale>
<asrwt>0</asrwt>
<pdfrwt beam="1">  1        2 0.10355995E+00 0.10177566E+03</pdfrwt>
<pdfrwt beam="2">  1       -2 0.22771102E-02 0.10177566E+03</pdfrwt>
<totfact> 0.25728090E+04</totfact>
</mgrwt>
</event>
<event>
 8    1  0.3466492E-004  0.9794670E+02  0.7546771E-02  0.1286845E+00
          2   -1    0    0  501    0  0.00000000000E+00  0.00000000000E+00  0.33405350425E+03  0.33405350425E+03  0.00000000000E+00 0. -1.
         -2   -1    0    0    0  501 -0.00000000000E+00 -0.00000000000E+00 -0.12371547034E+03  0.12371547034E+03  0.00000000000E+00 0.  1.
         23    2    1    2    0    0 -0.35652072030E+01 -0.26840228491E+02 -0.97068671431E+02  0.13513537593E+03  0.90034072922E+02 0.  0.
         23    2    1    2    0    0  0.35652072030E+01  0.26840228491E+02  0.30740670534E+03  0.32263359866E+03  0.94129952349E+02 0.  0.
          5    1    4    4  502    0  0.14734066033E+01 -0.33814104383E+02  0.15055563869E+03  0.15438476260E+03  0.47000000000E+01 0. -1.
         -5    1    4    4    0  502  0.20918005997E+01  0.60654332874E+02  0.15685106665E+03  0.16824883606E+03  0.47000000000E+01 0.  1.
          5    1    3    3  503    0 -0.25868347922E+02  0.10857857110E+02  0.10125891866E+00  0.28445821110E+02  0.47000000000E+01 0. -1.
         -5    1    3    3    0  503  0.22303140719E+02 -0.37698085601E+02 -0.97169930349E+02  0.10668955482E+03  0.47000000000E+01 0.  1.
<mgrwt>
<rscale>  0 0.96949204E+02</rscale>
<asrwt>0</asrwt>
<pdfrwt beam="1">  1        2 0.51392847E-01 0.97946702E+02</pdfrwt>
<pdfrwt beam="2">  1       -2 0.19033149E-01 0.97946702E+02</pdfrwt>
<totfact> 0.21445596E+03</totfact>
</mgrwt>
</event>
<event>
 8    1  0.3466492E-004  0.1339945E+03  0.7546771E-02  0.1222145E+00
          1   -1    0    0  501    0  0.00000000000E+00  0.00000000000E+00  0.18452167619E+03  0.18452167619E+03  0.00000000000E+00 0. -1.
         -1   -1    0    0    0  501 -0.00000000000E+00 -0.00000000000E+00 -0.96717377743E+02  0.96717377743E+02  0.00000000000E+00 0.  1.
         23    2    1    2    0    0  0.81052735181E+02 -0.54257958935E+02  0.34836804763E+02  0.13844899098E+03  0.91875177001E+02 0.  0.
         23    2    1    2    0    0 -0.81052735181E+02  0.54257958935E+02  0.52967493682E+02  0.14279006295E+03  0.89833037923E+02 0.  0.
          5    1    3    3  502    0 -0.16347478505E+02 -0.22211494709E+02  0.20773600902E+02  0.34845703395E+02  0.47000000000E+01 0. -1.
         -5    1    4    4    0  503 -0.46169788373E+01  0.27464606001E+02 -0.19243915885E+02  0.34176591038E+02  0.47000000000E+01 0.  1.
          5    1    4    4  503    0 -0.76435756343E+02  0.26793352934E+02  0.72211409567E+02  0.10861347191E+03  0.47000000000E+01 0. -1.
         -5    1    3    3    0  502  0.97400213686E+02 -0.32046464226E+02  0.14063203861E+02  0.10360328758E+03  0.47000000000E+01 0.  1.
<mgrwt>
<rscale>  0 0.13364514E+03</rscale>
<asrwt>0</asrwt>
<pdfrwt beam="1">  1        1 0.28387950E-01 0.13399448E+03</pdfrwt>
<pdfrwt beam="2">  1       -1 0.14879597E-01 0.13399448E+03</pdfrwt>
<totfact> 0.50544775E+03</totfact>
</mgrwt>
</event>
<event>
 8    1  0.3466492E-004  0.1181410E+03  0.7546771E-02  0.1247900E+00
         -1   -1    0    0    0  501 -0.00000000000E+00  0.00000000000E+00  0.24024014033E+02  0.24024014033E+02  0.00000000000E+00 0.  1.
          1   -1    0    0  501    0  0.00000000000E+00 -0.00000000000E+00 -0.75516645639E+03  0.75516645639E+03  0.00000000000E+00 0. -1.
         23    2    1    2    0    0 -0.65843544274E+02  0.26813312164E+02 -0.16369111252E+03  0.19957135570E+03  0.89328716900E+02 0.  0.
         23    2    1    2    0    0  0.65843544274E+02 -0.26813312164E+02 -0.56745132983E+03  0.57961911472E+03  0.94355606067E+02 0.  0.
          5    1    4    4  502    0  0.56703559205E+02 -0.58936168095E+02 -0.45110588212E+03  0.45848377552E+03  0.47000000000E+01 0. -1.
         -5    1    3    3    0  503 -0.61569455608E+02  0.52068247494E+02 -0.87633207369E+02  0.11917872837E+03  0.47000000000E+01 0.  1.
          5    1    3    3  503    0 -0.42740886660E+01 -0.25254935330E+02 -0.76057905156E+02  0.80392627331E+02  0.47000000000E+01 0. -1.
         -5    1    4    4    0  502  0.91399850694E+01  0.32122855930E+02 -0.11634544771E+03  0.12113533920E+03  0.47000000000E+01 0.  1.
<mgrwt>
<rscale>  0 0.11713457E+03</rscale>
<asrwt>0</asrwt>
<pdfrwt beam="1">  1        1 0.11617946E+00 0.11814104E+03</pdfrwt>
<pdfrwt beam="2">  1       -1 0.36960021E-02 0.11814104E+03</pdfrwt>
<totfact> 0.66759900E+03</totfact>
</mgrwt>
</event>
<event>
 8    1  0.3466492E-004  0.1006477E+03  0.7546771E-02  0.1280002E+00
         -2   -1    0    0    0  501 -0.00000000000E+00  0.00000000000E+00  0.82405541997E+02  0.82405541997E+02  0.00000000000E+00 0.  1.
          2   -1    0    0  501    0  0.00000000000E+00 -0.00000000000E+00 -0.32132318978E+03  0.32132318978E+03  0.00000000000E+00 0. -1.
         23    2    1    2    0    0  0.15359267203E+02  0.36740887218E+02  0.39679801539E+02  0.10818704662E+03  0.92434574284E+02 0.  0.
         23    2    1    2    0    0 -0.15359267203E+02 -0.36740887218E+02 -0.27859744932E+03  0.29554168516E+03  0.90236073806E+02 0.  0.
          5    1    4    4  502    0  0.95003184628E+01 -0.32237386504E+02 -0.26362542558E+03  0.26580060225E+03  0.47000000000E+01 0. -1.
         -5    1    3    3    0  503  0.14922958169E+02  0.58713890092E+02  0.54205743244E+02  0.81427072714E+02  0.47000000000E+01 0.  1.
          5    1    3    3  503    0  0.43630903457E+00 -0.21973002874E+02 -0.14525941705E+02  0.26759973903E+02  0.47000000000E+01 0. -1.
         -5    1    4    4    0  502 -0.24859585666E+02 -0.45035007141E+01 -0.14972023739E+02  0.29741082916E+02  0.47000000000E+01 0.  1.
<mgrwt>
<rscale>  0 0.10014001E+03</rscale>
<asrwt>0</asrwt>
<pdfrwt beam="1">  1        2 0.49434337E-01 0.10064765E+03</pdfrwt>
<pdfrwt beam="2">  1       -2 0.12677776E-01 0.10064765E+03</pdfrwt>
<totfact> 0.43356906E+03</totfact>
</mgrwt>
</event>
<event>
 8    1  0.3466492E-004  0.1251030E+03  0.7546771E-02  0.1235222E+00
         -2   -1    0    0    0  501 -0.00000000000E+00  0.00000000000E+00  0.78432189523E+03  0.78432189523E+03  0.00000000000E+00 0.  1.
          2   -1    0    0  501    0  0.00000000000E+00 -0.00000000000E+00 -0.19987211630E+02  0.19987211630E+02  0.00000000000E+00 0. -1.
         23    2    1    2    0    0 -0.15846821004E+02 -0.83929639086E+02  0.41694303398E+03  0.43507786483E+03  0.90310291930E+02 0.  0.
         23    2    1    2    0    0  0.15846821004E+02  0.83929639086E+02  0.34739164962E+03  0.36923124203E+03  0.91408127707E+02 0.  0.
          5    1    3    3  502    0  0.51775214748E+01 -0.29477584360E+02  0.26446345123E+02  0.40214846496E+02  0.47000000000E+01 0. -1.
         -5    1    3    3    0  502 -0.21024342479E+02 -0.54452054727E+02  0.39049668886E+03  0.39486301834E+03  0.47000000000E+01 0.  1.
          5    1    4    4  503    0  0.79287531214E+01  0.10257772914E+03  0.30673857092E+03  0.32356714378E+03  0.47000000000E+01 0. -1.
         -5    1    4    4    0  503  0.79180678829E+01 -0.18648090049E+02  0.40653078696E+02  0.45664098249E+02  0.47000000000E+01 0.  1.
<mgrwt>
<rscale>  0 0.12490251E+03</rscale>
<asrwt>0</asrwt>
<pdfrwt beam="1">  1        2 0.30749562E-02 0.12510297E+03</pdfrwt>
<pdfrwt beam="2">  1       -2 0.12066488E+00 0.12510297E+03</pdfrwt>
<totfact> 0.15873910E+03</totfact>
</mgrwt>
</event>
<event>
 8    1  0.3466492E-004  0.1966267E+03  0.7546771E-02  0.1152697E+00
          1   -1    0    0  501    0  0.00000000000E+00  0.00000000000E+00  0.54361236809E+03  0.54361236809E+03  0.00000000000E+00 0. -1.
         -1   -1    0    0    0  501 -0.00000000000E+00 -0.00000000000E+00 -0.11279261563E+03  0.11279261563E+03  0.00000000000E+00 0.  1.
         23    2    1    2    0    0  0.17386461378E+03  0.89347928360E+01  0.41509404150E+03  0.45915046716E+03  0.90594446628E+02 0.  0.
         23    2    1    2    0    0 -0.17386461378E+03 -0.89347928360E+01  0.15725710954E+02  0.19725451655E+03  0.91396454351E+02 0.  0.
          5    1    3    3  502    0  0.11652748362E+02  0.30075026328E+02  0.67247632376E+02  0.74730367410E+02  0.47000000000E+01 0. -1.
         -5    1    3    3    0  502  0.16221186542E+03 -0.21140233492E+02  0.34784640913E+03  0.38442009975E+03  0.47000000000E+01 0.  1.
          5    1    4    4  503    0 -0.15022692548E+02 -0.27139542557E+02  0.20070924323E+02  0.37244705191E+02  0.47000000000E+01 0. -1.
         -5    1    4    4    0  503 -0.15884192123E+03  0.18204749721E+02 -0.43452133690E+01  0.16000981136E+03  0.47000000000E+01 0.  1.
<mgrwt>
<rscale>  0 0.19653372E+03</rscale>
<asrwt>0</asrwt>
<pdfrwt beam="1">  1        1 0.83632670E-01 0.19662667E+03</pdfrwt>
<pdfrwt beam="2">  1       -1 0.17352710E-01 0.19662667E+03</pdfrwt>
<totfact> 0.10253549E+03</totfact>
</mgrwt>
</event>
<event>
 8    1  0.7036739E-004  0.1234745E+03  0.7546771E-02  0.1238404E+00
          1   -1    0    0  501    0  0.00000000000E+00  0.00000000000E+00  0.27917944496E+03  0.27917944496E+03  0.00000000000E+00 0. -1.
         -1   -1    0    0    0  501 -0.00000000000E+00 -0.00000000000E+00 -0.21975569418E+03  0.21975569418E+03  0.00000000000E+00 0.  1.
         23    2    1    2    0    0 -0.58647270369E+02  0.53392702904E+02  0.24656973457E+03  0.27472638326E+03  0.91584215951E+02 0.  0.
         23    2    1    2    0    0  0.58647270369E+02 -0.53392702904E+02 -0.18714598378E+03  0.22420875588E+03  0.94634369677E+02 0.  0.
          5    1    3    3  502    0 -0.78573514526E+02  0.37587492063E+02  0.13909409052E+03  0.16418243743E+03  0.47000000000E+01 0. -1.
         -5    1    4    4    0  503  0.22011920317E+02 -0.57161280986E+02 -0.17448187810E+03  0.18498095162E+03  0.47000000000E+01 0.  1.
          5    1    4    4  503    0  0.36635350052E+02  0.37685780814E+01 -0.12664105685E+02  0.39227804259E+02  0.47000000000E+01 0. -1.
         -5    1    3    3    0  502  0.19926244157E+02  0.15805210841E+02  0.10747564405E+03  0.11054394583E+03  0.47000000000E+01 0.  1.
<mgrwt>
<rscale>  0 0.12288987E+03</rscale>
<asrwt>0</asrwt>
<pdfrwt beam="1">  1        1 0.42950684E-01 0.12347448E+03</pdfrwt>
<pdfrwt beam="2">  1       -1 0.33808568E-01 0.12347448E+03</pdfrwt>
<totfact> 0.79500292E+02</totfact>
</mgrwt>
</event>
<event>
 8    1  0.3466492E-004  0.2034848E+03  0.7546771E-02  0.1147621E+00
         -1   -1    0    0    0  501 -0.00000000000E+00  0.00000000000E+00  0.92895852084E+02  0.92895852084E+02  0.00000000000E+00 0.  1.
          1   -1    0    0  501    0  0.00000000000E+00 -0.00000000000E+00 -0.71576305852E+03  0.71576305852E+03  0.00000000000E+00 0. -1.
         23    2    1    2    0    0 -0.39322912953E+02 -0.17299686209E+03 -0.56533684273E+03  0.60084259909E+03  0.99658804723E+02 0.  0.
         23    2    1    2    0    0  0.39322912953E+02  0.17299686209E+03 -0.57530363705E+02  0.20781631151E+03  0.91671537605E+02 0.  0.
          5    1    3    3  502    0 -0.31480020391E+02 -0.83526267518E+01 -0.15807956495E+03  0.16146825358E+03  0.47000000000E+01 0. -1.
         -5    1    4    4    0  503  0.63781389517E+02  0.15016037559E+03 -0.34208725947E+02  0.16675890074E+03  0.47000000000E+01 0.  1.
          5    1    4    4  503    0 -0.24458476564E+02  0.22836486500E+02 -0.23321637758E+02  0.41057410771E+02  0.47000000000E+01 0. -1.
         -5    1    3    3    0  502 -0.78428925623E+01 -0.16464423534E+03 -0.40725727777E+03  0.43937434551E+03  0.47000000000E+01 0.  1.
<mgrwt>
<rscale>  0 0.20253056E+03</rscale>
<asrwt>0</asrwt>
<pdfrwt beam="1">  1        1 0.11011740E+00 0.20348485E+03</pdfrwt>
<pdfrwt beam="2">  1       -1 0.14291669E-01 0.20348485E+03</pdfrwt>
<totfact> 0.94980894E+02</totfact>
</mgrwt>
</event>
<event>
 8    1  0.3466492E-004  0.9317160E+02  0.7546771E-02  0.1296706E+00
          1   -1    0    0  501    0  0.00000000000E+00  0.00000000000E+00  0.42979867677E+03  0.42979867677E+03  0.00000000000E+00 0. -1.
         -1   -1    0    0    0  501 -0.00000000000E+00 -0.00000000000E+00 -0.19908607735E+02  0.19908607735E+02  0.00000000000E+00 0.  1.
         23    2    1    2    0    0 -0.37762019607E+01 -0.83775645445E+01  0.22550006521E+03  0.24311439908E+03  0.90387434627E+02 0.  0.
         23    2    1    2    0    0  0.37762019607E+01  0.83775645445E+01  0.18439000383E+03  0.20659288543E+03  0.92717331234E+02 0.  0.
          5    1    3    3  502    0 -0.43602760131E+02 -0.35136554689E+01  0.16188326025E+03  0.16775525749E+03  0.47000000000E+01 0. -1.
         -5    1    3    3    0  502  0.39826558171E+02 -0.48639090756E+01  0.63616804963E+02  0.75359141588E+02  0.47000000000E+01 0.  1.
          5    1    4    4  503    0 -0.34267063297E+02 -0.14725590370E+02  0.37750748465E+02  0.53275544563E+02  0.47000000000E+01 0. -1.
         -5    1    4    4    0  503  0.38043265258E+02  0.23103154915E+02  0.14663925536E+03  0.15331734087E+03  0.47000000000E+01 0.  1.
<mgrwt>
<rscale>  0 0.92586550E+02</rscale>
<asrwt>0</asrwt>
<pdfrwt beam="1">  1        1 0.66122866E-01 0.93171599E+02</pdfrwt>
<pdfrwt beam="2">  1       -1 0.30628631E-02 0.93171599E+02</pdfrwt>
<totfact> 0.18308334E+04</totfact>
</mgrwt>
</event>
<event>
 8    1  0.3466492E-004  0.9564839E+02  0.7546771E-02  0.1291459E+00
         -3   -1    0    0    0  501 -0.00000000000E+00  0.00000000000E+00  0.32106798634E+02  0.32106798634E+02  0.00000000000E+00 0.  1.
          3   -1    0    0  501    0  0.00000000000E+00 -0.00000000000E+00 -0.29398116205E+03  0.29398116205E+03  0.00000000000E+00 0. -1.
         23    2    1    2    0    0 -0.95938473861E+01  0.21404379398E+02 -0.92507550037E+02  0.13306487954E+03  0.92727698067E+02 0.  0.
         23    2    1    2    0    0  0.95938473861E+01 -0.21404379398E+02 -0.16936681338E+03  0.19302308114E+03  0.89568984667E+02 0.  0.
          5    1    4    4  502    0 -0.14677582479E+02 -0.20900628552E+02 -0.16605686037E+03  0.16807509803E+03  0.47000000000E+01 0. -1.
         -5    1    4    4    0  502  0.24271429865E+02 -0.50375084548E+00 -0.33099530111E+01  0.24947983115E+02  0.47000000000E+01 0.  1.
          5    1    3    3  503    0  0.40675456531E+02  0.10873585875E+02 -0.54338657140E+02  0.68902157394E+02  0.47000000000E+01 0. -1.
         -5    1    3    3    0  503 -0.50269303917E+02  0.10530793523E+02 -0.38168892897E+02  0.64162722149E+02  0.47000000000E+01 0.  1.
<mgrwt>
<rscale>  0 0.94874293E+02</rscale>
<asrwt>0</asrwt>
<pdfrwt beam="1">  1        3 0.45227873E-01 0.95648394E+02</pdfrwt>
<pdfrwt beam="2">  1       -3 0.49395073E-02 0.95648394E+02</pdfrwt>
<totfact> 0.24296050E+03</totfact>
</mgrwt>
</event>
<event>
 8    1  0.3466492E-004  0.9779564E+02  0.7546771E-02  0.1285527E+00
         -1   -1    0    0    0  501 -0.00000000000E+00  0.00000000000E+00  0.85798707989E+02  0.85798707989E+02  0.00000000000E+00 0.  1.
          1   -1    0    0  501    0  0.00000000000E+00 -0.00000000000E+00 -0.11647007393E+03  0.11647007393E+03  0.00000000000E+00 0. -1.
         23    2    1    2    0    0  0.22565684938E+02  0.22663737654E+02  0.77334718029E+01  0.98100938099E+02  0.92418246729E+02 0.  0.
         23    2    1    2    0    0 -0.22565684938E+02 -0.22663737654E+02 -0.38404837739E+02  0.10416784382E+03  0.91395585136E+02 0.  0.
          5    1    3    3  502    0  0.42383729558E+02 -0.10483977154E+02 -0.22017664169E+02  0.49123943691E+02  0.47000000000E+01 0. -1.
         -5    1    3    3    0  502 -0.19818044621E+02  0.33147714808E+02  0.29751135972E+02  0.48976994408E+02  0.47000000000E+01 0.  1.
          5    1    4    4  503    0  0.81667694982E+01 -0.35594797015E+02 -0.55345426290E+02  0.66474746407E+02  0.47000000000E+01 0. -1.
         -5    1    4    4    0  503 -0.30732454436E+02  0.12931059361E+02  0.16940588551E+02  0.37693097409E+02  0.47000000000E+01 0.  1.
<mgrwt>
<rscale>  0 0.97553279E+02</rscale>
<asrwt>0</asrwt>
<pdfrwt beam="1">  1        1 0.17918473E-01 0.97795641E+02</pdfrwt>
<pdfrwt beam="2">  1       -1 0.13199801E-01 0.97795641E+02</pdfrwt>
<totfact> 0.10591239E+04</totfact>
</mgrwt>
</event>
<event>
 8    1  0.3466492E-004  0.1078155E+03  0.7546771E-02  0.1268786E+00
          1   -1    0    0  501    0  0.00000000000E+00  0.00000000000E+00  0.53002405257E+03  0.53002405257E+03  0.00000000000E+00 0. -1.
         -1   -1    0    0    0  501 -0.00000000000E+00 -0.00000000000E+00 -0.29210903081E+02  0.29210903081E+02  0.00000000000E+00 0.  1.
         23    2    1    2    0    0  0.14330588310E+02 -0.43988334780E+02  0.88903716120E+02  0.13344913225E+03  0.88116177852E+02 0.  0.
         23    2    1    2    0    0 -0.14330588310E+02  0.43988334780E+02  0.41190943336E+03  0.42578582340E+03  0.97385043804E+02 0.  0.
          5    1    4    4  502    0 -0.34349382300E+02  0.14377524921E+02  0.36347439584E+03  0.36540706030E+03  0.47000000000E+01 0. -1.
         -5    1    4    4    0  502  0.20018793991E+02  0.29610809859E+02  0.48435037523E+02  0.60378763098E+02  0.47000000000E+01 0.  1.
          5    1    3    3  503    0 -0.32579090037E+02 -0.22113105885E+01  0.14709460532E+02  0.36121257333E+02  0.47000000000E+01 0. -1.
         -5    1    3    3    0  503  0.46909678347E+02 -0.41777024191E+02  0.74194255587E+02  0.97327874913E+02  0.47000000000E+01 0.  1.
<mgrwt>
<rscale>  0 0.10567972E+03</rscale>
<asrwt>0</asrwt>
<pdfrwt beam="1">  1        1 0.81542155E-01 0.10781552E+03</pdfrwt>
<pdfrwt beam="2">  1       -1 0.44939855E-02 0.10781552E+03</pdfrwt>
<totfact> 0.81206542E+03</totfact>
</mgrwt>
</event>
<event>
 8    1  0.3466492E-004  0.1089522E+03  0.7546771E-02  0.1263427E+00
          2   -1    0    0  501    0  0.00000000000E+00  0.00000000000E+00  0.91179776065E+02  0.91179776065E+02  0.00000000000E+00 0. -1.
         -2   -1    0    0    0  501 -0.00000000000E+00 -0.00000000000E+00 -0.23402675100E+03  0.23402675100E+03  0.00000000000E+00 0.  1.
         23    2    1    2    0    0 -0.38563717839E+02  0.41196266548E+02 -0.18056632885E+03  0.20990985926E+03  0.90959645927E+02 0.  0.
         23    2    1    2    0    0  0.38563717839E+02 -0.41196266548E+02  0.37719353912E+02  0.11529666781E+03  0.93200210505E+02 0.  0.
          5    1    4    4  502    0  0.46831946545E+02 -0.66290733834E+02  0.22120265644E+02  0.84256090353E+02  0.47000000000E+01 0. -1.
         -5    1    4    4    0  502 -0.82682287052E+01  0.25094467286E+02  0.15599088268E+02  0.31040577460E+02  0.47000000000E+01 0.  1.
          5    1    3    3  503    0 -0.30846756437E+01 -0.21105089924E+02 -0.84851805397E+01  0.23431353638E+02  0.47000000000E+01 0. -1.
         -5    1    3    3    0  503 -0.35479042196E+02  0.62301356472E+02 -0.17208114831E+03  0.18647850562E+03  0.47000000000E+01 0.  1.
<mgrwt>
<rscale>  0 0.10847140E+03</rscale>
<asrwt>0</asrwt>
<pdfrwt beam="1">  1        2 0.14027658E-01 0.10895215E+03</pdfrwt>
<pdfrwt beam="2">  1       -2 0.36004115E-01 0.10895215E+03</pdfrwt>
<totfact> 0.29216186E+03</totfact>
</mgrwt>
</event>
<event>
 8    1  0.3466492E-004  0.1159033E+03  0.7546771E-02  0.1250076E+00
         -2   -1    0    0    0  501 -0.00000000000E+00  0.00000000000E+00  0.91701911409E+02  0.91701911409E+02  0.00000000000E+00 0.  1.
          2   -1    0    0  501    0  0.00000000000E+00 -0.00000000000E+00 -0.23208777639E+03  0.23208777639E+03  0.00000000000E+00 0. -1.
         23    2    1    2    0    0  0.66921101453E+02  0.21176326098E+02 -0.16864515811E+03  0.20463325522E+03  0.92231823042E+02 0.  0.
         23    2    1    2    0    0 -0.66921101453E+02 -0.21176326098E+02  0.28259293129E+02  0.11915643258E+03  0.92047798289E+02 0.  0.
          5    1    3    3  502    0  0.69330838661E+02 -0.12435372758E+02 -0.15012639451E+03  0.16589583483E+03  0.47000000000E+01 0. -1.
         -5    1    3    3    0  502 -0.24097372078E+01  0.33611698856E+02 -0.18518763602E+02  0.38737420393E+02  0.47000000000E+01 0.  1.
          5    1    4    4  503    0 -0.24842805454E+02 -0.54664192571E+02  0.51904186463E+01  0.60451380282E+02  0.47000000000E+01 0. -1.
         -5    1    4    4    0  503 -0.42078296000E+02  0.33487866474E+02  0.23068874482E+02  0.58705052296E+02  0.47000000000E+01 0.  1.
<mgrwt>
<rscale>  0 0.11586671E+03</rscale>
<asrwt>0</asrwt>
<pdfrwt beam="1">  1        2 0.35705811E-01 0.11590332E+03</pdfrwt>
<pdfrwt beam="2">  1       -2 0.14107987E-01 0.11590332E+03</pdfrwt>
<totfact> 0.51920112E+03</totfact>
</mgrwt>
</event>
<event>
 8    1  0.3906838E-004  0.1467566E+03  0.7546771E-02  0.1205409E+00
          1   -1    0    0  501    0  0.00000000000E+00  0.00000000000E+00  0.68473942118E+03  0.68473942118E+03  0.00000000000E+00 0. -1.
         -1   -1    0    0    0  501 -0.00000000000E+00 -0.00000000000E+00 -0.17637183217E+03  0.17637183217E+03  0.00000000000E+00 0.  1.
         23    2    1    2    0    0 -0.11355558701E+03  0.18719467362E+02  0.64569057849E+03  0.66215846742E+03  0.91061644091E+02 0.  0.
         23    2    1    2    0    0  0.11355558701E+03 -0.18719467362E+02 -0.13732298948E+03  0.19895278593E+03  0.86483049153E+02 0.  0.
          5    1    3    3  502    0 -0.94300316009E+02 -0.15958212177E+02  0.55298229752E+03  0.56121183657E+03  0.47000000000E+01 0. -1.
         -5    1    4    4    0  503  0.65207153154E+02  0.82426476308E+01 -0.19549167806E+02  0.68732627073E+02  0.47000000000E+01 0.  1.
          5    1    4    4  503    0  0.48348433851E+02 -0.26962114993E+02 -0.11777382168E+03  0.13022015886E+03  0.47000000000E+01 0. -1.
         -5    1    3    3    0  502 -0.19255270997E+02  0.34677679539E+02  0.92708280976E+02  0.10094663085E+03  0.47000000000E+01 0.  1.
<mgrwt>
<rscale>  0 0.14605254E+03</rscale>
<asrwt>0</asrwt>
<pdfrwt beam="1">  1        1 0.10534453E+00 0.14675664E+03</pdfrwt>
<pdfrwt beam="2">  1       -1 0.27134128E-01 0.14675664E+03</pdfrwt>
<totfact> 0.36078602E+02</totfact>
</mgrwt>
</event>
<event>
 8    1  0.3466492E-004  0.9884363E+02  0.7546771E-02  0.1286369E+00
          1   -1    0    0  501    0  0.00000000000E+00  0.00000000000E+00  0.10433625489E+03  0.10433625489E+03  0.00000000000E+00 0. -1.
         -1   -1    0    0    0  501 -0.00000000000E+00 -0.00000000000E+00 -0.92081635020E+02  0.92081635020E+02  0.00000000000E+00 0.  1.
         23    2    1    2    0    0  0.11988237150E+01  0.16317498569E+02 -0.15453463044E+02  0.10004435358E+03  0.97480076042E+02 0.  0.
         23    2    1    2    0    0 -0.11988237150E+01 -0.16317498569E+02  0.27708082918E+02  0.96373536335E+02  0.90842846217E+02 0.  0.
          5    1    3    3  502    0 -0.15583853625E+02 -0.36404214702E+02 -0.19459876256E+02  0.44372290066E+02  0.47000000000E+01 0. -1.
         -5    1    3    3    0  502  0.16782677340E+02  0.52721713271E+02  0.40064132120E+01  0.55672063512E+02  0.47000000000E+01 0.  1.
          5    1    4    4  503    0  0.14991990033E+02 -0.36332576996E+02  0.48747695875E+02  0.62795252763E+02  0.47000000000E+01 0. -1.
         -5    1    4    4    0  503 -0.16190813748E+02  0.20015078427E+02 -0.21039612957E+02  0.33578283572E+02  0.47000000000E+01 0.  1.
<mgrwt>
<rscale>  0 0.97166651E+02</rscale>
<asrwt>0</asrwt>
<pdfrwt beam="1">  1        1 0.16051731E-01 0.98843630E+02</pdfrwt>
<pdfrwt beam="2">  1       -1 0.14166405E-01 0.98843630E+02</pdfrwt>
<totfact> 0.10934097E+04</totfact>
</mgrwt>
</event>
<event>
 8    1  0.3466492E-004  0.1000830E+03  0.7546771E-02  0.1280515E+00
          2   -1    0    0  501    0  0.00000000000E+00  0.00000000000E+00  0.28260651568E+03  0.28260651568E+03  0.00000000000E+00 0. -1.
         -2   -1    0    0    0  501 -0.00000000000E+00 -0.00000000000E+00 -0.35523862895E+02  0.35523862895E+02  0.00000000000E+00 0.  1.
         23    2    1    2    0    0 -0.47763844949E+01 -0.41475348519E+02  0.13965348587E+03  0.17181300543E+03  0.90959300434E+02 0.  0.
         23    2    1    2    0    0  0.47763844949E+01  0.41475348519E+02  0.10742916692E+03  0.14631737315E+03  0.90137280839E+02 0.  0.
          5    1    4    4  502    0 -0.34231282306E+01  0.67309034242E+02  0.55026443037E+02  0.87133365198E+02  0.47000000000E+01 0. -1.
         -5    1    3    3    0  503 -0.30542990276E+02 -0.36953102028E+02  0.25300086100E+02  0.54411307291E+02  0.47000000000E+01 0.  1.
          5    1    3    3  503    0  0.25766605781E+02 -0.45222464914E+01  0.11435339977E+03  0.11740169813E+03  0.47000000000E+01 0. -1.
         -5    1    4    4    0  502  0.81995127255E+01 -0.25833685723E+02  0.52402723885E+02  0.59184007955E+02  0.47000000000E+01 0.  1.
<mgrwt>
<rscale>  0 0.99895882E+02</rscale>
<asrwt>0</asrwt>
<pdfrwt beam="1">  1        2 0.43477924E-01 0.10008303E+03</pdfrwt>
<pdfrwt beam="2">  1       -2 0.54652099E-02 0.10008303E+03</pdfrwt>
<totfact> 0.18110228E+04</totfact>
</mgrwt>
</event>
<event>
 8    1  0.3466492E-004  0.9312225E+02  0.7546771E-02  0.1296056E+00
         -2   -1    0    0    0  501 -0.00000000000E+00  0.00000000000E+00  0.24464330920E+03  0.24464330920E+03  0.00000000000E+00 0.  1.
          2   -1    0    0  501    0  0.00000000000E+00 -0.00000000000E+00 -0.26254739809E+03  0.26254739809E+03  0.00000000000E+00 0. -1.
         23    2    1    2    0    0 -0.54612018965E+01  0.21317556536E+02  0.22711104363E+03  0.24507590742E+03  0.89434396717E+02 0.  0.
         23    2    1    2    0    0  0.54612018965E+01 -0.21317556536E+02 -0.24501513252E+03  0.26211479988E+03  0.90484751253E+02 0.  0.
          5    1    3    3  502    0  0.12253043049E+02 -0.23977303958E+02  0.24666488267E+02  0.36818117993E+02  0.47000000000E+01 0. -1.
         -5    1    4    4    0  503  0.45764136931E+02 -0.14227952715E+02 -0.94455718144E+02  0.10602246723E+03  0.47000000000E+01 0.  1.
          5    1    4    4  503    0 -0.40302935034E+02 -0.70896038207E+01 -0.15055941437E+03  0.15609233265E+03  0.47000000000E+01 0. -1.
         -5    1    3    3    0  502 -0.17714244945E+02  0.45294860494E+02  0.20244455536E+03  0.20825778942E+03  0.47000000000E+01 0.  1.
<mgrwt>
<rscale>  0 0.92866126E+02</rscale>
<asrwt>0</asrwt>
<pdfrwt beam="1">  1        2 0.40391907E-01 0.93122248E+02</pdfrwt>
<pdfrwt beam="2">  1       -2 0.37637432E-01 0.93122248E+02</pdfrwt>
<totfact> 0.83286017E+02</totfact>
</mgrwt>
</event>
<event>
 8    1  0.3466492E-004  0.1098561E+03  0.7546771E-02  0.1262133E+00
         -1   -1    0    0    0  501 -0.00000000000E+00  0.00000000000E+00  0.18263719228E+02  0.18263719228E+02  0.00000000000E+00 0.  1.
          1   -1    0    0  501    0  0.00000000000E+00 -0.00000000000E+00 -0.64694983241E+03  0.64694983241E+03  0.00000000000E+00 0. -1.
         23    2    1    2    0    0 -0.29548941516E+02 -0.58013430096E+02 -0.33959082967E+03  0.35691777218E+03  0.88485402697E+02 0.  0.
         23    2    1    2    0    0  0.29548941516E+02  0.58013430096E+02 -0.28909528352E+03  0.30829577946E+03  0.85038265871E+02 0.  0.
          5    1    4    4  502    0  0.32827175490E+02  0.16834221054E+02 -0.24455371383E+03  0.24736536418E+03  0.47000000000E+01 0. -1.
         -5    1    3    3    0  503  0.30494607060E+02 -0.13756195487E+02 -0.13298847186E+03  0.13721216281E+03  0.47000000000E+01 0.  1.
          5    1    3    3  503    0 -0.60043548576E+02 -0.44257234609E+02 -0.20660235780E+03  0.21970560937E+03  0.47000000000E+01 0. -1.
         -5    1    4    4    0  502 -0.32782339743E+01  0.41179209042E+02 -0.44541569689E+02  0.60930415276E+02  0.47000000000E+01 0.  1.
<mgrwt>
<rscale>  0 0.10916026E+03</rscale>
<asrwt>0</asrwt>
<pdfrwt beam="1">  1        1 0.99530758E-01 0.10985611E+03</pdfrwt>
<pdfrwt beam="2">  1       -1 0.28098025E-02 0.10985611E+03</pdfrwt>
<totfact> 0.12322338E+04</totfact>
</mgrwt>
</event>
<event>
 8    1  0.3466492E-004  0.1467716E+03  0.7546771E-02  0.1204667E+00
          2   -1    0    0  501    0  0.00000000000E+00  0.00000000000E+00  0.21202811382E+03  0.21202811382E+03  0.00000000000E+00 0. -1.
         -2   -1    0    0    0  501 -0.00000000000E+00 -0.00000000000E+00 -0.10931826778E+03  0.10931826778E+03  0.00000000000E+00 0.  1.
         23    2    1    2    0    0  0.13005240214E+02  0.11435945393E+03  0.77304200698E+01  0.14697500497E+03  0.91075088336E+02 0.  0.
         23    2    1    2    0    0 -0.13005240214E+02 -0.11435945393E+03  0.94979425976E+02  0.17437137663E+03  0.90205679712E+02 0.  0.
          5    1    4    4  502    0 -0.10086567778E+02 -0.43153087173E+02  0.92766993334E+02  0.10291614467E+03  0.47000000000E+01 0. -1.
         -5    1    3    3    0  503 -0.18130225779E+02  0.11289718400E+03 -0.32165055461E+00  0.11444069512E+03  0.47000000000E+01 0.  1.
          5    1    3    3  503    0  0.31135465993E+02  0.14622699353E+01  0.80520706245E+01  0.32534309848E+02  0.47000000000E+01 0. -1.
         -5    1    4    4    0  502 -0.29186724357E+01 -0.71206366760E+02  0.22124326422E+01  0.71455231957E+02  0.47000000000E+01 0.  1.
<mgrwt>
<rscale>  0 0.14663691E+03</rscale>
<asrwt>0</asrwt>
<pdfrwt beam="1">  1        2 0.32619710E-01 0.14677157E+03</pdfrwt>
<pdfrwt beam="2">  1       -2 0.16818195E-01 0.14677157E+03</pdfrwt>
<totfact> 0.43510852E+03</totfact>
</mgrwt>
</event>
<event>
 8    1  0.3466492E-004  0.1026680E+03  0.7546771E-02  0.1279197E+00
          1   -1    0    0  501    0  0.00000000000E+00  0.00000000000E+00  0.24032248242E+03  0.24032248242E+03  0.00000000000E+00 0. -1.
         -1   -1    0    0    0  501 -0.00000000000E+00 -0.00000000000E+00 -0.41586530589E+02  0.41586530589E+02  0.00000000000E+00 0.  1.
         23    2    1    2    0    0 -0.17852978650E+02 -0.23013301135E+02  0.79472750834E+02  0.12983313980E+03  0.98449912085E+02 0.  0.
         23    2    1    2    0    0  0.17852978650E+02  0.23013301135E+02  0.11926320100E+03  0.15207587321E+03  0.89749758912E+02 0.  0.
          5    1    4    4  502    0  0.42653742227E+02  0.47312114431E+01  0.11205779437E+03  0.12008649119E+03  0.47000000000E+01 0. -1.
         -5    1    3    3    0  503  0.19473358003E+02 -0.48127546806E+02  0.21718276543E+02  0.56473409402E+02  0.47000000000E+01 0.  1.
          5    1    3    3  503    0 -0.37326336653E+02  0.25114245671E+02  0.57754474291E+02  0.73359730399E+02  0.47000000000E+01 0. -1.
         -5    1    4    4    0  502 -0.24800763577E+02  0.18282089692E+02  0.72054066327E+01  0.31989382023E+02  0.47000000000E+01 0.  1.
<mgrwt>
<rscale>  0 0.10052421E+03</rscale>
<asrwt>0</asrwt>
<pdfrwt beam="1">  1        1 0.36972689E-01 0.10266804E+03</pdfrwt>
<pdfrwt beam="2">  1       -1 0.63979279E-02 0.10266804E+03</pdfrwt>
<totfact> 0.12890197E+04</totfact>
</mgrwt>
</event>
<event>
 8    1  0.3466492E-004  0.1000523E+03  0.7546771E-02  0.1281038E+00
          1   -1    0    0  501    0  0.00000000000E+00  0.00000000000E+00  0.10907103799E+03  0.10907103799E+03  0.00000000000E+00 0. -1.
         -1   -1    0    0    0  501 -0.00000000000E+00 -0.00000000000E+00 -0.12478338073E+03  0.12478338073E+03  0.00000000000E+00 0.  1.
         23    2    1    2    0    0 -0.30629564775E+02 -0.21608344501E+02  0.53645754167E+02  0.11211285708E+03  0.91029308419E+02 0.  0.
         23    2    1    2    0    0  0.30629564775E+02  0.21608344501E+02 -0.69358096906E+02  0.12174156165E+03  0.92765141278E+02 0.  0.
          5    1    4    4  502    0 -0.14383443368E+02 -0.28652809973E+02 -0.23443079481E+02  0.39994186303E+02  0.47000000000E+01 0. -1.
         -5    1    3    3    0  503 -0.22777372876E+01  0.23728077941E+02 -0.12177912107E+02  0.27177220483E+02  0.47000000000E+01 0.  1.
          5    1    3    3  503    0 -0.28351827487E+02 -0.45336422442E+02  0.65823666274E+02  0.84935636593E+02  0.47000000000E+01 0. -1.
         -5    1    4    4    0  502  0.45013008143E+02  0.50261154474E+02 -0.45915017425E+02  0.81747375348E+02  0.47000000000E+01 0.  1.
<mgrwt>
<rscale>  0 0.99648039E+02</rscale>
<asrwt>0</asrwt>
<pdfrwt beam="1">  1        1 0.16780160E-01 0.10005230E+03</pdfrwt>
<pdfrwt beam="2">  1       -1 0.19197443E-01 0.10005230E+03</pdfrwt>
<totfact> 0.64263401E+03</totfact>
</mgrwt>
</event>
<event>
 8    1  0.3466492E-004  0.1044715E+03  0.7546771E-02  0.1271734E+00
          2   -1    0    0  501    0  0.00000000000E+00  0.00000000000E+00  0.12395568783E+03  0.12395568783E+03  0.00000000000E+00 0. -1.
         -2   -1    0    0    0  501 -0.00000000000E+00 -0.00000000000E+00 -0.15212450690E+03  0.15212450690E+03  0.00000000000E+00 0.  1.
         23    2    1    2    0    0 -0.42291527117E+02 -0.20401662893E+02  0.76215109822E+02  0.12839706488E+03  0.92044892248E+02 0.  0.
         23    2    1    2    0    0  0.42291527117E+02  0.20401662893E+02 -0.10438392889E+03  0.14768312985E+03  0.93324707973E+02 0.  0.
          5    1    4    4  502    0 -0.18929804337E+02 -0.21896029552E+02 -0.36770503502E+02  0.47031197414E+02  0.47000000000E+01 0. -1.
         -5    1    3    3    0  503  0.64299052122E+01  0.28491356750E+02  0.67225201313E+01  0.30337820743E+02  0.47000000000E+01 0.  1.
          5    1    3    3  503    0 -0.48721432329E+02 -0.48893019644E+02  0.69492589691E+02  0.98059244133E+02  0.47000000000E+01 0. -1.
         -5    1    4    4    0  502  0.61221331454E+02  0.42297692445E+02 -0.67613425384E+02  0.10065193244E+03  0.47000000000E+01 0.  1.
<mgrwt>
<rscale>  0 0.10418495E+03</rscale>
<asrwt>0</asrwt>
<pdfrwt beam="1">  1        2 0.19070106E-01 0.10447154E+03</pdfrwt>
<pdfrwt beam="2">  1       -2 0.23403770E-01 0.10447154E+03</pdfrwt>
<totfact> 0.44057274E+03</totfact>
</mgrwt>
</event>
<event>
 8    1  0.3466492E-004  0.9441420E+02  0.7546771E-02  0.1293769E+00
         -1   -1    0    0    0  501 -0.00000000000E+00  0.00000000000E+00  0.15481958365E+02  0.15481958365E+02  0.00000000000E+00 0.  1.
          1   -1    0    0  501    0  0.00000000000E+00 -0.00000000000E+00 -0.60074811420E+03  0.60074811420E+03  0.00000000000E+00 0. -1.
         23    2    1    2    0    0 -0.10777734286E+02 -0.15802832934E+02 -0.36723559493E+03  0.37863511084E+03  0.90203524807E+02 0.  0.
         23    2    1    2    0    0  0.10777734286E+02  0.15802832934E+02 -0.21803056090E+03  0.23759496172E+03  0.92456212696E+02 0.  0.
          5    1    3    3  502    0 -0.47214710250E+02 -0.36840741335E+01 -0.26670621702E+03  0.27091898690E+03  0.47000000000E+01 0. -1.
         -5    1    4    4    0  503  0.43596933653E+02  0.26966858285E+02 -0.17344521793E+03  0.18092329228E+03  0.47000000000E+01 0.  1.
          5    1    4    4  503    0 -0.32819199367E+02 -0.11164025351E+02 -0.44585342972E+02  0.56671669439E+02  0.47000000000E+01 0. -1.
         -5    1    3    3    0  502  0.36436975964E+02 -0.12118758801E+02 -0.10052937791E+03  0.10771612393E+03  0.47000000000E+01 0.  1.
<mgrwt>
<rscale>  0 0.93858091E+02</rscale>
<asrwt>0</asrwt>
<pdfrwt beam="1">  1        1 0.92422777E-01 0.94414196E+02</pdfrwt>
<pdfrwt beam="2">  1       -1 0.23818400E-02 0.94414196E+02</pdfrwt>
<totfact> 0.17068307E+04</totfact>
</mgrwt>
</event>
<event>
 8    1  0.3466492E-004  0.1028962E+03  0.7546771E-02  0.1275265E+00
         -2   -1    0    0    0  501 -0.00000000000E+00  0.00000000000E+00  0.72515515533E+02  0.72515515533E+02  0.00000000000E+00 0.  1.
          2   -1    0    0  501    0  0.00000000000E+00 -0.00000000000E+00 -0.29658565998E+03  0.29658565998E+03  0.00000000000E+00 0. -1.
         23    2    1    2    0    0 -0.30826919128E+02  0.33923886137E+02 -0.24417634235E+03  0.26425900215E+03  0.90053345638E+02 0.  0.
         23    2    1    2    0    0  0.30826919128E+02 -0.33923886137E+02  0.20106197895E+02  0.10484217337E+03  0.92122164161E+02 0.  0.
          5    1    4    4  502    0 -0.11997560797E+01  0.30442740410E+02  0.50385846673E+01  0.31235831889E+02  0.47000000000E+01 0. -1.
         -5    1    4    4    0  502  0.32026675207E+02 -0.64366626548E+02  0.15067613228E+02  0.73606341482E+02  0.47000000000E+01 0.  1.
          5    1    3    3  503    0 -0.63041319391E+01  0.36704995068E+02 -0.23426129411E+03  0.23724974744E+03  0.47000000000E+01 0. -1.
         -5    1    3    3    0  503 -0.24522787188E+02 -0.27811089303E+01 -0.99150482387E+01  0.27009254709E+02  0.47000000000E+01 0.  1.
<mgrwt>
<rscale>  0 0.10243103E+03</rscale>
<asrwt>0</asrwt>
<pdfrwt beam="1">  1        2 0.45628563E-01 0.10289617E+03</pdfrwt>
<pdfrwt beam="2">  1       -2 0.11156233E-01 0.10289617E+03</pdfrwt>
<totfact> 0.57826134E+03</totfact>
</mgrwt>
</event>
<event>
 8    1  0.3466492E-004  0.1220667E+03  0.7546771E-02  0.1244837E+00
         -1   -1    0    0    0  501 -0.00000000000E+00  0.00000000000E+00  0.65686524438E+02  0.65686524438E+02  0.00000000000E+00 0.  1.
          1   -1    0    0  501    0  0.00000000000E+00 -0.00000000000E+00 -0.28964033352E+03  0.28964033352E+03  0.00000000000E+00 0. -1.
         23    2    1    2    0    0 -0.62129890171E+02 -0.20227352952E+02 -0.11987373390E+02  0.11072502471E+03  0.88583660553E+02 0.  0.
         23    2    1    2    0    0  0.62129890171E+02  0.20227352952E+02 -0.21196643569E+03  0.24460183324E+03  0.10310682764E+03 0.  0.
          5    1    4    4  502    0  0.65114102109E+02 -0.24372197188E+02 -0.84991199296E+02  0.10990652504E+03  0.47000000000E+01 0. -1.
         -5    1    3    3    0  503 -0.58482237079E+02 -0.50188950673E+02  0.17569961683E+01  0.77228750210E+02  0.47000000000E+01 0.  1.
          5    1    3    3  503    0 -0.36476530917E+01  0.29961597721E+02 -0.13744369559E+02  0.33496274504E+02  0.47000000000E+01 0. -1.
         -5    1    4    4    0  502 -0.29842119377E+01  0.44599550140E+02 -0.12697523640E+03  0.13469530820E+03  0.47000000000E+01 0.  1.
<mgrwt>
<rscale>  0 0.11895135E+03</rscale>
<asrwt>0</asrwt>
<pdfrwt beam="1">  1        1 0.44560051E-01 0.12206673E+03</pdfrwt>
<pdfrwt beam="2">  1       -1 0.10105619E-01 0.12206673E+03</pdfrwt>
<totfact> 0.52276458E+03</totfact>
</mgrwt>
</event>
<event>
 8    1  0.3466492E-004  0.1134649E+03  0.7546771E-02  0.1254847E+00
         -2   -1    0    0    0  501 -0.00000000000E+00  0.00000000000E+00  0.79540756099E+02  0.79540756099E+02  0.00000000000E+00 0.  1.
          2   -1    0    0  501    0  0.00000000000E+00 -0.00000000000E+00 -0.21514115692E+03  0.21514115692E+03  0.00000000000E+00 0. -1.
         23    2    1    2    0    0 -0.33367766187E+02  0.58013799332E+02 -0.14262699022E+03  0.18225460487E+03  0.91625727410E+02 0.  0.
         23    2    1    2    0    0  0.33367766187E+02 -0.58013799332E+02  0.70265893965E+01  0.11242730815E+03  0.90063965750E+02 0.  0.
          5    1    3    3  502    0  0.28517379934E+02  0.66673845309E+00 -0.33953982174E+02  0.44594264249E+02  0.47000000000E+01 0. -1.
         -5    1    4    4    0  503 -0.23139172968E+02 -0.39690672175E+01  0.22185793634E+02  0.32641603198E+02  0.47000000000E+01 0.  1.
          5    1    4    4  503    0  0.56506939154E+02 -0.54044732115E+02 -0.15159204237E+02  0.79785704954E+02  0.47000000000E+01 0. -1.
         -5    1    3    3    0  502 -0.61885146120E+02  0.57347060879E+02 -0.10867300804E+03  0.13766034062E+03  0.47000000000E+01 0.  1.
<mgrwt>
<rscale>  0 0.11314924E+03</rscale>
<asrwt>0</asrwt>
<pdfrwt beam="1">  1        2 0.33098639E-01 0.11346490E+03</pdfrwt>
<pdfrwt beam="2">  1       -2 0.12237040E-01 0.11346490E+03</pdfrwt>
<totfact> 0.70628209E+03</totfact>
</mgrwt>
</event>
<event>
 8    1  0.3466492E-004  0.1311786E+03  0.7546771E-02  0.1226082E+00
          1   -1    0    0  501    0  0.00000000000E+00  0.00000000000E+00  0.25200417129E+03  0.25200417129E+03  0.00000000000E+00 0. -1.
         -1   -1    0    0    0  501 -0.00000000000E+00 -0.00000000000E+00 -0.12634659583E+03  0.12634659583E+03  0.00000000000E+00 0.  1.
         23    2    1    2    0    0  0.93185053211E+02 -0.65909467602E+01 -0.65853092081E+02  0.14678027898E+03  0.92091942312E+02 0.  0.
         23    2    1    2    0    0 -0.93185053211E+02  0.65909467602E+01  0.19151066754E+03  0.23157048815E+03  0.90673372475E+02 0.  0.
          5    1    3    3  502    0  0.47979560460E+02  0.10102753382E+02  0.15905188232E+02  0.51760688370E+02  0.47000000000E+01 0. -1.
         -5    1    4    4    0  503 -0.96379900755E+01 -0.27874731892E+02  0.93564483684E+02  0.98215549369E+02  0.47000000000E+01 0.  1.
          5    1    4    4  503    0 -0.83547063136E+02  0.34465678652E+02  0.97946183859E+02  0.13335493878E+03  0.47000000000E+01 0. -1.
         -5    1    3    3    0  502  0.45205492752E+02 -0.16693700142E+02 -0.81758280313E+02  0.95019590607E+02  0.47000000000E+01 0.  1.
<mgrwt>
<rscale>  0 0.13092988E+03</rscale>
<asrwt>0</asrwt>
<pdfrwt beam="1">  1        1 0.38769873E-01 0.13117858E+03</pdfrwt>
<pdfrwt beam="2">  1       -1 0.19437938E-01 0.13117858E+03</pdfrwt>
<totfact> 0.22481533E+03</totfact>
</mgrwt>
</event>
<event>
 8    1  0.3466492E-004  0.9436255E+02  0.7546771E-02  0.1295399E+00
          2   -1    0    0  501    0  0.00000000000E+00  0.00000000000E+00  0.31468200058E+03  0.31468200058E+03  0.00000000000E+00 0. -1.
         -2   -1    0    0    0  501 -0.00000000000E+00 -0.00000000000E+00 -0.30172519061E+02  0.30172519061E+02  0.00000000000E+00 0.  1.
         23    2    1    2    0    0 -0.28169295179E+02 -0.54577923221E+00  0.20241604975E+03  0.22333057945E+03  0.90058222579E+02 0.  0.
         23    2    1    2    0    0  0.28169295179E+02  0.54577923221E+00  0.82093431765E+02  0.12152394019E+03  0.85058388383E+02 0.  0.
          5    1    4    4  502    0  0.36300669341E+02 -0.29051044771E+02  0.76980744912E+02  0.90054577252E+02  0.47000000000E+01 0. -1.
         -5    1    4    4    0  502 -0.81313741618E+01  0.29596824003E+02  0.51126868529E+01  0.31469362937E+02  0.47000000000E+01 0.  1.
          5    1    3    3  503    0 -0.18841788223E+02 -0.42007433669E+02  0.14173315478E+03  0.14909733274E+03  0.47000000000E+01 0. -1.
         -5    1    3    3    0  503 -0.93275069567E+01  0.41461654437E+02  0.60682894977E+02  0.74233246712E+02  0.47000000000E+01 0.  1.
<mgrwt>
<rscale>  0 0.93149525E+02</rscale>
<asrwt>0</asrwt>
<pdfrwt beam="1">  1        2 0.48412613E-01 0.94362548E+02</pdfrwt>
<pdfrwt beam="2">  1       -2 0.46419262E-02 0.94362548E+02</pdfrwt>
<totfact> 0.20512533E+04</totfact>
</mgrwt>
</event>
<event>
 8    1  0.3466492E-004  0.1249841E+03  0.7546771E-02  0.1235241E+00
          2   -1    0    0  501    0  0.00000000000E+00  0.00000000000E+00  0.11190960701E+03  0.11190960701E+03  0.00000000000E+00 0. -1.
         -2   -1    0    0    0  501 -0.00000000000E+00 -0.00000000000E+00 -0.14548071689E+03  0.14548071689E+03  0.00000000000E+00 0.  1.
         23    2    1    2    0    0  0.58355728759E+02  0.61734412562E+02  0.10046278397E+02  0.12501400148E+03  0.91164927917E+02 0.  0.
         23    2    1    2    0    0 -0.58355728759E+02 -0.61734412562E+02 -0.43617388280E+02  0.13237632243E+03  0.91675980526E+02 0.  0.
          5    1    3    3  502    0 -0.90282860510E+01  0.34625479213E+02 -0.25325405440E+02  0.44089680431E+02  0.47000000000E+01 0. -1.
         -5    1    3    3    0  502  0.67384014810E+02  0.27108933348E+02  0.35371683837E+02  0.80924321045E+02  0.47000000000E+01 0.  1.
          5    1    4    4  503    0  0.54466217021E+01 -0.46789696443E+02  0.90219422436E+01  0.48191563817E+02  0.47000000000E+01 0. -1.
         -5    1    4    4    0  503 -0.63802350461E+02 -0.14944716118E+02 -0.52639330524E+02  0.84184758609E+02  0.47000000000E+01 0.  1.
<mgrwt>
<rscale>  0 0.12489036E+03</rscale>
<asrwt>0</asrwt>
<pdfrwt beam="1">  1        2 0.17216863E-01 0.12498406E+03</pdfrwt>
<pdfrwt beam="2">  1       -2 0.22381649E-01 0.12498406E+03</pdfrwt>
<totfact> 0.54103797E+03</totfact>
</mgrwt>
</event>
<event>
 8    1  0.3466492E-004  0.9960476E+02  0.7546771E-02  0.1284145E+00
         -4   -1    0    0    0  501 -0.00000000000E+00  0.00000000000E+00  0.29163550460E+03  0.29163550460E+03  0.00000000000E+00 0.  1.
          4   -1    0    0  501    0  0.00000000000E+00 -0.00000000000E+00 -0.35252574275E+02  0.35252574275E+02  0.00000000000E+00 0. -1.
         23    2    1    2    0    0 -0.18601917373E+02 -0.30869953865E+02  0.83103478648E+02  0.12972006789E+03  0.92855384704E+02 0.  0.
         23    2    1    2    0    0  0.18601917373E+02  0.30869953865E+02  0.17327945167E+03  0.19716801098E+03  0.86893445094E+02 0.  0.
          5    1    3    3  502    0  0.23369916414E+02 -0.32085521488E+02  0.41684799340E+01  0.40188305604E+02  0.47000000000E+01 0. -1.
         -5    1    4    4    0  503 -0.18935815136E+02 -0.12424025501E+02  0.10679851176E+03  0.10927457901E+03  0.47000000000E+01 0.  1.
          5    1    4    4  503    0  0.37537732509E+02  0.43293979366E+02  0.66480939917E+02  0.87893431970E+02  0.47000000000E+01 0. -1.
         -5    1    3    3    0  502 -0.41971833787E+02  0.12155676236E+01  0.78934998714E+02  0.89531762286E+02  0.47000000000E+01 0.  1.
<mgrwt>
<rscale>  0 0.98191668E+02</rscale>
<asrwt>0</asrwt>
<pdfrwt beam="1">  1        4 0.54234732E-02 0.99604758E+02</pdfrwt>
<pdfrwt beam="2">  1       -4 0.44866999E-01 0.99604758E+02</pdfrwt>
<totfact> 0.15501516E+03</totfact>
</mgrwt>
</event>
<event>
 8    1  0.3466492E-004  0.3187308E+03  0.7546771E-02  0.1076658E+00
         -1   -1    0    0    0  501 -0.00000000000E+00  0.00000000000E+00  0.81816259824E+03  0.81816259824E+03  0.00000000000E+00 0.  1.
          1   -1    0    0  501    0  0.00000000000E+00 -0.00000000000E+00 -0.21787741991E+03  0.21787741991E+03  0.00000000000E+00 0. -1.
         23    2    1    2    0    0  0.18448195743E+03  0.24292706246E+03  0.64339317150E+03  0.71801400707E+03  0.92423973775E+02 0.  0.
         23    2    1    2    0    0 -0.18448195743E+03 -0.24292706246E+03 -0.43107993169E+02  0.31802601108E+03  0.78962613682E+02 0.  0.
          5    1    3    3  502    0  0.72837943647E+02  0.12994645106E+03  0.40462420341E+03  0.43120097653E+03  0.47000000000E+01 0. -1.
         -5    1    4    4    0  503 -0.68724624338E+02 -0.44922847947E+02  0.91380480549E+01  0.82744970725E+02  0.47000000000E+01 0.  1.
          5    1    4    4  503    0 -0.11575733309E+03 -0.19800421451E+03 -0.52246041224E+02  0.23528104036E+03  0.47000000000E+01 0. -1.
         -5    1    3    3    0  502  0.11164401378E+03  0.11298061139E+03  0.23876896809E+03  0.28681303054E+03  0.47000000000E+01 0.  1.
<mgrwt>
<rscale>  0 0.31781691E+03</rscale>
<asrwt>0</asrwt>
<pdfrwt beam="1">  1        1 0.33519603E-01 0.31873083E+03</pdfrwt>
<pdfrwt beam="2">  1       -1 0.12587117E+00 0.31873083E+03</pdfrwt>
<totfact> 0.77579880E+01</totfact>
</mgrwt>
</event>
<event>
 8    1  0.3466492E-004  0.1322371E+03  0.7546771E-02  0.1225493E+00
          2   -1    0    0  501    0  0.00000000000E+00  0.00000000000E+00  0.66496389065E+03  0.66496389065E+03  0.00000000000E+00 0. -1.
         -2   -1    0    0    0  501 -0.00000000000E+00 -0.00000000000E+00 -0.44851062923E+02  0.44851062923E+02  0.00000000000E+00 0.  1.
         23    2    1    2    0    0 -0.20479463801E+02 -0.91999082730E+02  0.79915956150E+02  0.15450958969E+03  0.92754588018E+02 0.  0.
         23    2    1    2    0    0  0.20479463801E+02  0.91999082730E+02  0.54019687158E+03  0.55530536389E+03  0.87567958938E+02 0.  0.
          5    1    3    3  502    0  0.26292549555E+02 -0.79083812071E+02  0.51579789387E+02  0.98122944141E+02  0.47000000000E+01 0. -1.
         -5    1    3    3    0  502 -0.46772013356E+02 -0.12915270659E+02  0.28336166763E+02  0.56386645550E+02  0.47000000000E+01 0.  1.
          5    1    4    4  503    0 -0.27588809513E+02  0.68943338961E+02  0.34278431540E+03  0.35076702137E+03  0.47000000000E+01 0. -1.
         -5    1    4    4    0  503  0.48068273315E+02  0.23055743769E+02  0.19741255618E+03  0.20453834251E+03  0.47000000000E+01 0.  1.
<mgrwt>
<rscale>  0 0.13133162E+03</rscale>
<asrwt>0</asrwt>
<pdfrwt beam="1">  1        2 0.10230213E+00 0.13223711E+03</pdfrwt>
<pdfrwt beam="2">  1       -2 0.69001640E-02 0.13223711E+03</pdfrwt>
<totfact> 0.51440637E+03</totfact>
</mgrwt>
</event>
<event>
 8    1  0.4480680E-004  0.1035704E+03  0.7546771E-02  0.1273104E+00
         -1   -1    0    0    0  501 -0.00000000000E+00  0.00000000000E+00  0.53999056264E+02  0.53999056264E+02  0.00000000000E+00 0.  1.
          1   -1    0    0  501    0  0.00000000000E+00 -0.00000000000E+00 -0.59038068821E+03  0.59038068821E+03  0.00000000000E+00 0. -1.
         23    2    1    2    0    0  0.30540840596E+02 -0.36758009358E+02 -0.53069525750E+03  0.54065335805E+03  0.91568024147E+02 0.  0.
         23    2    1    2    0    0 -0.30540840596E+02  0.36758009358E+02 -0.56863744550E+01  0.10372638643E+03  0.91885440582E+02 0.  0.
          5    1    4    4  502    0 -0.43637984404E+02 -0.17719373293E+02 -0.33774871763E+01  0.47452579407E+02  0.47000000000E+01 0. -1.
         -5    1    4    4    0  502  0.13097143808E+02  0.54477382650E+02 -0.23088872787E+01  0.56273807023E+02  0.47000000000E+01 0.  1.
          5    1    3    3  503    0  0.10619122615E+02 -0.55423194938E+02 -0.47586942142E+03  0.47922676526E+03  0.47000000000E+01 0. -1.
         -5    1    3    3    0  503  0.19921717981E+02  0.18665185580E+02 -0.54825836080E+02  0.61426592791E+02  0.47000000000E+01 0.  1.
<mgrwt>
<rscale>  0 0.10349996E+03</rscale>
<asrwt>0</asrwt>
<pdfrwt beam="1">  1        1 0.90827798E-01 0.10357040E+03</pdfrwt>
<pdfrwt beam="2">  1       -1 0.83075471E-02 0.10357040E+03</pdfrwt>
<totfact> 0.28267837E+03</totfact>
</mgrwt>
</event>
<event>
 8    1  0.3466492E-004  0.1489602E+03  0.7546771E-02  0.1202084E+00
         -2   -1    0    0    0  501 -0.00000000000E+00  0.00000000000E+00  0.24656735591E+02  0.24656735591E+02  0.00000000000E+00 0.  1.
          2   -1    0    0  501    0  0.00000000000E+00 -0.00000000000E+00 -0.91706600968E+03  0.91706600968E+03  0.00000000000E+00 0. -1.
         23    2    1    2    0    0  0.95848898379E+02  0.67788641736E+02 -0.52309785342E+03  0.54389382962E+03  0.91688725462E+02 0.  0.
         23    2    1    2    0    0 -0.95848898379E+02 -0.67788641736E+02 -0.36931142067E+03  0.39782891565E+03  0.89970047363E+02 0.  0.
          5    1    3    3  502    0  0.85109388023E+02  0.33675308298E+02 -0.47506415810E+03  0.48382401617E+03  0.47000000000E+01 0. -1.
         -5    1    3    3    0  502  0.10739510357E+02  0.34113333438E+02 -0.48033695322E+02  0.60069813444E+02  0.47000000000E+01 0.  1.
          5    1    4    4  503    0 -0.41900898549E+02 -0.21560390078E+02 -0.27817392289E+03  0.28217611007E+03  0.47000000000E+01 0. -1.
         -5    1    4    4    0  503 -0.53947999830E+02 -0.46228251659E+02 -0.91137497785E+02  0.11565280558E+03  0.47000000000E+01 0.  1.
<mgrwt>
<rscale>  0 0.14869655E+03</rscale>
<asrwt>0</asrwt>
<pdfrwt beam="1">  1        2 0.14108705E+00 0.14896017E+03</pdfrwt>
<pdfrwt beam="2">  1       -2 0.37933447E-02 0.14896017E+03</pdfrwt>
<totfact> 0.85546258E+03</totfact>
</mgrwt>
</event>
<event>
 8    1  0.3466492E-004  0.1018997E+03  0.7546771E-02  0.1279541E+00
          1   -1    0    0  501    0  0.00000000000E+00  0.00000000000E+00  0.16330736504E+03  0.16330736504E+03  0.00000000000E+00 0. -1.
         -1   -1    0    0    0  501 -0.00000000000E+00 -0.00000000000E+00 -0.63978979184E+02  0.63978979184E+02  0.00000000000E+00 0.  1.
         23    2    1    2    0    0 -0.26090085617E+02  0.17126558689E+02  0.19501065104E+02  0.97841564020E+02  0.90656872490E+02 0.  0.
         23    2    1    2    0    0  0.26090085617E+02 -0.17126558689E+02  0.79827320753E+02  0.12944478020E+03  0.97002775236E+02 0.  0.
          5    1    3    3  502    0 -0.58943340317E+02  0.20892809336E+01  0.84545082013E+01  0.59768312437E+02  0.47000000000E+01 0. -1.
         -5    1    4    4    0  503  0.42580414780E+02  0.92363913303E+01  0.86797153750E+02  0.97232908764E+02  0.47000000000E+01 0.  1.
          5    1    4    4  503    0 -0.16490329163E+02 -0.26362950019E+02 -0.69698329970E+01  0.32211871440E+02  0.47000000000E+01 0. -1.
         -5    1    3    3    0  502  0.32853254701E+02  0.15037277756E+02  0.11046556902E+02  0.38073251583E+02  0.47000000000E+01 0.  1.
<mgrwt>
<rscale>  0 0.10035984E+03</rscale>
<asrwt>0</asrwt>
<pdfrwt beam="1">  1        1 0.25124210E-01 0.10189971E+03</pdfrwt>
<pdfrwt beam="2">  1       -1 0.98429199E-02 0.10189971E+03</pdfrwt>
<totfact> 0.10883958E+04</totfact>
</mgrwt>
</event>
<event>
 8    1  0.3466492E-004  0.1150640E+03  0.7546771E-02  0.1251736E+00
          1   -1    0    0  501    0  0.00000000000E+00  0.00000000000E+00  0.22635540758E+03  0.22635540758E+03  0.00000000000E+00 0. -1.
         -1   -1    0    0    0  501 -0.00000000000E+00 -0.00000000000E+00 -0.10771186777E+03  0.10771186777E+03  0.00000000000E+00 0.  1.
         23    2    1    2    0    0  0.67115345925E+02  0.14666401731E+02 -0.53861559530E+02  0.12704639518E+03  0.92304636582E+02 0.  0.
         23    2    1    2    0    0 -0.67115345925E+02 -0.14666401731E+02  0.17250509934E+03  0.20702088017E+03  0.91542681463E+02 0.  0.
          5    1    4    4  502    0 -0.28090976439E+02 -0.50743674884E+02  0.66632531184E+02  0.88464725795E+02  0.47000000000E+01 0. -1.
         -5    1    4    4    0  502 -0.39024369486E+02  0.36077273153E+02  0.10587256816E+03  0.11855615438E+03  0.47000000000E+01 0.  1.
          5    1    3    3  503    0 -0.97080202004E+01 -0.21965544616E+02  0.28924081312E+01  0.24641161322E+02  0.47000000000E+01 0. -1.
         -5    1    3    3    0  503  0.76823366125E+02  0.36631946347E+02 -0.56753967661E+02  0.10240523386E+03  0.47000000000E+01 0.  1.
<mgrwt>
<rscale>  0 0.11491109E+03</rscale>
<asrwt>0</asrwt>
<pdfrwt beam="1">  1        1 0.34823909E-01 0.11506398E+03</pdfrwt>
<pdfrwt beam="2">  1       -1 0.16571057E-01 0.11506398E+03</pdfrwt>
<totfact> 0.32856264E+03</totfact>
</mgrwt>
</event>
<event>
 8    1  0.3466492E-004  0.2141582E+03  0.7546771E-02  0.1138452E+00
          2   -1    0    0  501    0  0.00000000000E+00  0.00000000000E+00  0.75748137067E+03  0.75748137067E+03  0.00000000000E+00 0. -1.
         -2   -1    0    0    0  501 -0.00000000000E+00 -0.00000000000E+00 -0.89348905207E+02  0.89348905207E+02  0.00000000000E+00 0.  1.
         23    2    1    2    0    0 -0.13345637609E+03 -0.13951345550E+03  0.57492413786E+03  0.61326758092E+03  0.91020618168E+02 0.  0.
         23    2    1    2    0    0  0.13345637609E+03  0.13951345550E+03  0.93208327602E+02  0.23356269495E+03  0.92677567698E+02 0.  0.
          5    1    4    4  502    0  0.28117662051E+02  0.71239839575E+02 -0.68139815426E+00  0.76735076499E+02  0.47000000000E+01 0. -1.
         -5    1    3    3    0  503 -0.19037692825E+02  0.84836334504E+01  0.28026620501E+02  0.35241839358E+02  0.47000000000E+01 0.  1.
          5    1    3    3  503    0 -0.11441868327E+03 -0.14799708895E+03  0.54689751735E+03  0.57802574156E+03  0.47000000000E+01 0. -1.
         -5    1    4    4    0  502  0.10533871404E+03  0.68273615922E+02  0.93889725757E+02  0.15682761845E+03  0.47000000000E+01 0.  1.
<mgrwt>
<rscale>  0 0.21398003E+03</rscale>
<asrwt>0</asrwt>
<pdfrwt beam="1">  1        2 0.11653559E+00 0.21415821E+03</pdfrwt>
<pdfrwt beam="2">  1       -2 0.13745986E-01 0.21415821E+03</pdfrwt>
<totfact> 0.15022152E+03</totfact>
</mgrwt>
</event>
<event>
 8    1  0.3466492E-004  0.9896086E+02  0.7546771E-02  0.1288829E+00
         -1   -1    0    0    0  501 -0.00000000000E+00  0.00000000000E+00  0.32386716756E+02  0.32386716756E+02  0.00000000000E+00 0.  1.
          1   -1    0    0  501    0  0.00000000000E+00 -0.00000000000E+00 -0.34096228916E+03  0.34096228916E+03  0.00000000000E+00 0. -1.
         23    2    1    2    0    0  0.13326710106E+01 -0.15489133637E+01 -0.24701519039E+03  0.26610102785E+03  0.98939767520E+02 0.  0.
         23    2    1    2    0    0 -0.13326710106E+01  0.15489133637E+01 -0.61560382016E+02  0.10724797806E+03  0.87796771126E+02 0.  0.
          5    1    3    3  502    0  0.28528559925E+01 -0.29154022686E+02 -0.23275838335E+03  0.23464153692E+03  0.47000000000E+01 0.  1.
         -5    1    3    3    0  502 -0.15201849819E+01  0.27605109323E+02 -0.14256807037E+02  0.31459490936E+02  0.47000000000E+01 0. -1.
          5    1    4    4  503    0 -0.29813264618E+01  0.34729064063E+02 -0.64604429546E+02  0.73558266124E+02  0.47000000000E+01 0. -1.
         -5    1    4    4    0  503  0.16486554511E+01 -0.33180150699E+02  0.30440475302E+01  0.33689711940E+02  0.47000000000E+01 0.  1.
<mgrwt>
<rscale>  0 0.96049839E+02</rscale>
<asrwt>0</asrwt>
<pdfrwt beam="1">  1        1 0.52455740E-01 0.98960865E+02</pdfrwt>
<pdfrwt beam="2">  1       -1 0.49825715E-02 0.98960865E+02</pdfrwt>
<totfact> 0.12097154E+04</totfact>
</mgrwt>
</event>
<event>
 8    1  0.3466492E-004  0.9268321E+02  0.7546771E-02  0.1298360E+00
          1   -1    0    0  501    0  0.00000000000E+00  0.00000000000E+00  0.16004671527E+03  0.16004671527E+03  0.00000000000E+00 0. -1.
         -1   -1    0    0    0  501 -0.00000000000E+00 -0.00000000000E+00 -0.59032632206E+02  0.59032632206E+02  0.00000000000E+00 0.  1.
         23    2    1    2    0    0 -0.11246802719E+02 -0.65408371955E+01  0.89471555230E+02  0.12882289030E+03  0.91765487773E+02 0.  0.
         23    2    1    2    0    0  0.11246802719E+02  0.65408371955E+01  0.11542527829E+02  0.90256457175E+02  0.88564806727E+02 0.  0.
          5    1    3    3  502    0  0.38769805496E+02  0.47550319056E+01  0.51683093548E+02  0.64953370238E+02  0.47000000000E+01 0. -1.
         -5    1    4    4    0  503 -0.38252419573E+02 -0.27050573364E+01  0.87006368818E+01  0.39602474929E+02  0.47000000000E+01 0.  1.
          5    1    4    4  503    0  0.49499222292E+02  0.92458945319E+01  0.28418909469E+01  0.50653982246E+02  0.47000000000E+01 0. -1.
         -5    1    3    3    0  502 -0.50016608215E+02 -0.11295869101E+02  0.37788461682E+02  0.63869520058E+02  0.47000000000E+01 0.  1.
<mgrwt>
<rscale>  0 0.91880889E+02</rscale>
<asrwt>0</asrwt>
<pdfrwt beam="1">  1        1 0.24622571E-01 0.92683212E+02</pdfrwt>
<pdfrwt beam="2">  1       -1 0.90819435E-02 0.92683212E+02</pdfrwt>
<totfact> 0.12489689E+04</totfact>
</mgrwt>
</event>
<event>
 8    1  0.3466492E-004  0.1341585E+03  0.7546771E-02  0.1221836E+00
         -2   -1    0    0    0  501 -0.00000000000E+00  0.00000000000E+00  0.20724722588E+02  0.20724722588E+02  0.00000000000E+00 0.  1.
          2   -1    0    0  501    0  0.00000000000E+00 -0.00000000000E+00 -0.90400716526E+03  0.90400716526E+03  0.00000000000E+00 0. -1.
         23    2    1    2    0    0  0.81146785730E+02 -0.56278931568E+02 -0.34242468948E+03  0.36776782007E+03  0.90809594959E+02 0.  0.
         23    2    1    2    0    0 -0.81146785730E+02  0.56278931568E+02 -0.54085775319E+03  0.55696406778E+03  0.89049113653E+02 0.  0.
          5    1    4    4  502    0 -0.31270028945E+02 -0.23045626121E+02 -0.15427710827E+03  0.15916165282E+03  0.47000000000E+01 0. -1.
         -5    1    3    3    0  503  0.51071590754E+02 -0.73489191560E+01 -0.58894674736E+02  0.78440975945E+02  0.47000000000E+01 0.  1.
          5    1    3    3  503    0  0.30075194977E+02 -0.48930012412E+02 -0.28353001475E+03  0.28932684412E+03  0.47000000000E+01 0. -1.
         -5    1    4    4    0  502 -0.49876756786E+02  0.79324557690E+02 -0.38658064492E+03  0.39780241496E+03  0.47000000000E+01 0.  1.
<mgrwt>
<rscale>  0 0.13386118E+03</rscale>
<asrwt>0</asrwt>
<pdfrwt beam="1">  1        2 0.13907800E+00 0.13415849E+03</pdfrwt>
<pdfrwt beam="2">  1       -2 0.31884193E-02 0.13415849E+03</pdfrwt>
<totfact> 0.11206479E+04</totfact>
</mgrwt>
</event>
<event>
 8    1  0.3466492E-004  0.9771717E+02  0.7546771E-02  0.1286438E+00
         -1   -1    0    0    0  501 -0.00000000000E+00  0.00000000000E+00  0.18615537562E+02  0.18615537562E+02  0.00000000000E+00 0.  1.
          1   -1    0    0  501    0  0.00000000000E+00 -0.00000000000E+00 -0.50175279927E+03  0.50175279927E+03  0.00000000000E+00 0. -1.
         23    2    1    2    0    0  0.19546546886E+02  0.20827964860E+02 -0.22798762408E+03  0.24714684668E+03  0.91034803633E+02 0.  0.
         23    2    1    2    0    0 -0.19546546886E+02 -0.20827964860E+02 -0.25514963762E+03  0.27322149015E+03  0.93449309717E+02 0.  0.
          5    1    4    4  502    0  0.36863458490E+02 -0.16496479588E+01 -0.11480336635E+03  0.12067948805E+03  0.47000000000E+01 0. -1.
         -5    1    4    4    0  502 -0.56410005376E+02 -0.19178316901E+02 -0.14034627127E+03  0.15254200210E+03  0.47000000000E+01 0.  1.
          5    1    3    3  503    0 -0.39324012444E+01 -0.32327656976E+02 -0.11997188227E+03  0.12440210497E+03  0.47000000000E+01 0. -1.
         -5    1    3    3    0  503  0.23478948130E+02  0.53155621836E+02 -0.10801574181E+03  0.12274474171E+03  0.47000000000E+01 0.  1.
<mgrwt>
<rscale>  0 0.97135384E+02</rscale>
<asrwt>0</asrwt>
<pdfrwt beam="1">  1        1 0.77192728E-01 0.97717169E+02</pdfrwt>
<pdfrwt beam="2">  1       -1 0.28639292E-02 0.97717169E+02</pdfrwt>
<totfact> 0.16643973E+04</totfact>
</mgrwt>
</event>
<event>
 8    1  0.3466492E-004  0.1497410E+03  0.7546771E-02  0.1202879E+00
          1   -1    0    0  501    0  0.00000000000E+00  0.00000000000E+00  0.48135945475E+03  0.48135945475E+03  0.00000000000E+00 0. -1.
         -1   -1    0    0    0  501 -0.00000000000E+00 -0.00000000000E+00 -0.85415024203E+02  0.85415024203E+02  0.00000000000E+00 0.  1.
         23    2    1    2    0    0  0.58710985593E+02 -0.10203739118E+03 -0.35812419269E+00  0.14312595771E+03  0.81402103717E+02 0.  0.
         23    2    1    2    0    0 -0.58710985593E+02  0.10203739118E+03  0.39630255474E+03  0.42364852124E+03  0.92540508034E+02 0.  0.
          5    1    3    3  502    0  0.31822638481E+02 -0.60029233438E+02 -0.40229042720E+02  0.79099020634E+02  0.47000000000E+01 0. -1.
         -5    1    4    4    0  503  0.59671608294E+01  0.29693342785E+02  0.24142425593E+02  0.39016000918E+02  0.47000000000E+01 0.  1.
          5    1    4    4  503    0 -0.64678146423E+02  0.72344048398E+02  0.37216012915E+03  0.38463252033E+03  0.47000000000E+01 0. -1.
         -5    1    3    3    0  502  0.26888347113E+02 -0.42008157745E+02  0.39870918527E+02  0.64026937079E+02  0.47000000000E+01 0.  1.
<mgrwt>
<rscale>  0 0.14805897E+03</rscale>
<asrwt>0</asrwt>
<pdfrwt beam="1">  1        1 0.74055299E-01 0.14974096E+03</pdfrwt>
<pdfrwt beam="2">  1       -1 0.13140773E-01 0.14974096E+03</pdfrwt>
<totfact> 0.18591082E+03</totfact>
</mgrwt>
</event>
<event>
 8    1  0.3466492E-004  0.9409262E+02  0.7546771E-02  0.1295823E+00
          2   -1    0    0  501    0  0.00000000000E+00  0.00000000000E+00  0.54844978770E+03  0.54844978770E+03  0.00000000000E+00 0. -1.
         -2   -1    0    0    0  501 -0.00000000000E+00 -0.00000000000E+00 -0.17071806905E+03  0.17071806905E+03  0.00000000000E+00 0.  1.
         23    2    1    2    0    0 -0.50489901757E+01 -0.16490903388E+02 -0.15452586906E+03  0.17865739359E+03  0.87993055862E+02 0.  0.
         23    2    1    2    0    0  0.50489901757E+01  0.16490903388E+02  0.53225758770E+03  0.54051046316E+03  0.92498534734E+02 0.  0.
          5    1    3    3  502    0  0.25875576070E+02 -0.15633543217E+01 -0.72027505168E+01  0.27312252355E+02  0.47000000000E+01 0. -1.
         -5    1    3    3    0  502 -0.30924566246E+02 -0.14927549066E+02 -0.14732311854E+03  0.15134514123E+03  0.47000000000E+01 0.  1.
          5    1    4    4  503    0  0.86052178604E+01  0.52564016354E+02  0.38926070034E+03  0.39291603228E+03  0.47000000000E+01 0. -1.
         -5    1    4    4    0  503 -0.35562276846E+01 -0.36073112966E+02  0.14299688735E+03  0.14759443088E+03  0.47000000000E+01 0.  1.
<mgrwt>
<rscale>  0 0.92966218E+02</rscale>
<asrwt>0</asrwt>
<pdfrwt beam="1">  1        2 0.84376890E-01 0.94092620E+02</pdfrwt>
<pdfrwt beam="2">  1       -2 0.26264319E-01 0.94092620E+02</pdfrwt>
<totfact> 0.72930726E+02</totfact>
</mgrwt>
</event>
<event>
 8    1  0.3466492E-004  0.9811856E+02  0.7546771E-02  0.1284707E+00
         -1   -1    0    0    0  501 -0.00000000000E+00  0.00000000000E+00  0.20116467819E+02  0.20116467819E+02  0.00000000000E+00 0.  1.
          1   -1    0    0  501    0  0.00000000000E+00 -0.00000000000E+00 -0.48289395593E+03  0.48289395593E+03  0.00000000000E+00 0. -1.
         23    2    1    2    0    0  0.47851745303E+01  0.37208654198E+02 -0.26452231446E+03  0.28213349037E+03  0.90663497076E+02 0.  0.
         23    2    1    2    0    0 -0.47851745303E+01 -0.37208654198E+02 -0.19825517365E+03  0.22087693338E+03  0.89856129308E+02 0.  0.
          5    1    4    4  502    0 -0.27304203003E+02 -0.50082891314E+02 -0.17981872941E+03  0.18870792498E+03  0.47000000000E+01 0. -1.
         -5    1    4    4    0  502  0.22519028473E+02  0.12874237116E+02 -0.18436444242E+02  0.32169008393E+02  0.47000000000E+01 0.  1.
          5    1    3    3  503    0  0.28288535613E+02 -0.20752032864E+02 -0.95473031076E+02  0.10182375842E+03  0.47000000000E+01 0. -1.
         -5    1    3    3    0  503 -0.23503361082E+02  0.57960687062E+02 -0.16904928338E+03  0.18030973196E+03  0.47000000000E+01 0.  1.
<mgrwt>
<rscale>  0 0.97931642E+02</rscale>
<asrwt>0</asrwt>
<pdfrwt beam="1">  1        1 0.74291379E-01 0.98118559E+02</pdfrwt>
<pdfrwt beam="2">  1       -1 0.30948412E-02 0.98118559E+02</pdfrwt>
<totfact> 0.15638458E+04</totfact>
</mgrwt>
</event>
<event>
 8    1  0.3466492E-004  0.8937319E+02  0.7546771E-02  0.1308106E+00
         -2   -1    0    0    0  501 -0.00000000000E+00  0.00000000000E+00  0.12190171904E+03  0.12190171904E+03  0.00000000000E+00 0.  1.
          2   -1    0    0  501    0  0.00000000000E+00 -0.00000000000E+00 -0.80071329976E+02  0.80071329976E+02  0.00000000000E+00 0. -1.
         23    2    1    2    0    0  0.11953787151E+00  0.11695982693E+02 -0.27436440032E+02  0.93489702632E+02  0.88604491738E+02 0.  0.
         23    2    1    2    0    0 -0.11953787151E+00 -0.11695982693E+02  0.69266829094E+02  0.10848334638E+03  0.82667602656E+02 0.  0.
          5    1    4    4  502    0  0.29165802423E+02  0.21922049987E+02  0.20003304592E+02  0.41874126871E+02  0.47000000000E+01 0. -1.
         -5    1    4    4    0  502 -0.29285340294E+02 -0.33618032680E+02  0.49263524502E+02  0.66609219511E+02  0.47000000000E+01 0.  1.
          5    1    3    3  503    0  0.42319077275E+02 -0.51184305964E+01 -0.19605095032E+02  0.47154558469E+02  0.47000000000E+01 0. -1.
         -5    1    3    3    0  503 -0.42199539403E+02  0.16814413290E+02 -0.78313450003E+01  0.46335144163E+02  0.47000000000E+01 0.  1.
<mgrwt>
<rscale>  0 0.87864878E+02</rscale>
<asrwt>0</asrwt>
<pdfrwt beam="1">  1        2 0.12318666E-01 0.89373185E+02</pdfrwt>
<pdfrwt beam="2">  1       -2 0.18754111E-01 0.89373185E+02</pdfrwt>
<totfact> 0.10477846E+04</totfact>
</mgrwt>
</event>
<event>
 8    1  0.3466492E-004  0.1026922E+03  0.7546771E-02  0.1275531E+00
          2   -1    0    0  501    0  0.00000000000E+00  0.00000000000E+00  0.38023368556E+03  0.38023368556E+03  0.00000000000E+00 0. -1.
         -2   -1    0    0    0  501 -0.00000000000E+00 -0.00000000000E+00 -0.42850013612E+02  0.42850013612E+02  0.00000000000E+00 0.  1.
         23    2    1    2    0    0  0.19802825906E+02  0.41515305053E+02  0.40502332919E+02  0.10894325574E+03  0.90069537203E+02 0.  0.
         23    2    1    2    0    0 -0.19802825906E+02 -0.41515305053E+02  0.29688133903E+03  0.31414044343E+03  0.91815120040E+02 0.  0.
          5    1    3    3  502    0  0.25753417798E+02 -0.16058482735E+02  0.40555898396E+02  0.50872234969E+02  0.47000000000E+01 0. -1.
         -5    1    4    4    0  503 -0.56681065221E+01  0.19679402335E+02  0.16343263214E+02  0.26619514652E+02  0.47000000000E+01 0.  1.
          5    1    4    4  503    0 -0.14134719384E+02 -0.61194707388E+02  0.28053807581E+03  0.28752092878E+03  0.47000000000E+01 0. -1.
         -5    1    3    3    0  502 -0.59505918919E+01  0.57573787788E+02 -0.53565477091E-01  0.58071020771E+02  0.47000000000E+01 0.  1.
<mgrwt>
<rscale>  0 0.10230055E+03</rscale>
<asrwt>0</asrwt>
<pdfrwt beam="1">  1        2 0.58497488E-01 0.10269220E+03</pdfrwt>
<pdfrwt beam="2">  1       -2 0.65923100E-02 0.10269220E+03</pdfrwt>
<totfact> 0.10023634E+04</totfact>
</mgrwt>
</event>
<event>
 8    1  0.3466492E-004  0.1022959E+03  0.7546771E-02  0.1275791E+00
         -1   -1    0    0    0  501 -0.00000000000E+00  0.00000000000E+00  0.24098539630E+02  0.24098539630E+02  0.00000000000E+00 0.  1.
          1   -1    0    0  501    0  0.00000000000E+00 -0.00000000000E+00 -0.45989918387E+03  0.45989918387E+03  0.00000000000E+00 0. -1.
         23    2    1    2    0    0 -0.18048742675E+02  0.42526489081E+02 -0.15896015142E+03  0.18903114713E+03  0.91269849674E+02 0.  0.
         23    2    1    2    0    0  0.18048742675E+02 -0.42526489081E+02 -0.27684049282E+03  0.29496657637E+03  0.90721349888E+02 0.  0.
          5    1    4    4  502    0  0.18964465131E+02  0.25318530624E+02 -0.11621087775E+03  0.12053106255E+03  0.47000000000E+01 0. -1.
         -5    1    3    3    0  503 -0.17990483404E+02 -0.16979429583E+02 -0.75629064476E+01  0.26291559026E+02  0.47000000000E+01 0.  1.
          5    1    3    3  503    0 -0.58259270869E-01  0.59505918665E+02 -0.15139724497E+03  0.16273958810E+03  0.47000000000E+01 0. -1.
         -5    1    4    4    0  502 -0.91572245616E+00 -0.67845019705E+02 -0.16062961507E+03  0.17443551383E+03  0.47000000000E+01 0.  1.
<mgrwt>
<rscale>  0 0.10217338E+03</rscale>
<asrwt>0</asrwt>
<pdfrwt beam="1">  1        1 0.70753718E-01 0.10229587E+03</pdfrwt>
<pdfrwt beam="2">  1       -1 0.37074677E-02 0.10229587E+03</pdfrwt>
<totfact> 0.12857801E+04</totfact>
</mgrwt>
</event>
<event>
 8    1  0.3466492E-004  0.9475044E+02  0.7546771E-02  0.1292398E+00
         -3   -1    0    0    0  501 -0.00000000000E+00  0.00000000000E+00  0.96469453596E+03  0.96469453596E+03  0.00000000000E+00 0.  1.
          3   -1    0    0  501    0  0.00000000000E+00 -0.00000000000E+00 -0.14426128469E+02  0.14426128469E+02  0.00000000000E+00 0. -1.
         23    2    1    2    0    0 -0.14850188619E+01  0.23095342410E+02  0.76813259415E+03  0.77381333249E+03  0.90685121218E+02 0.  0.
         23    2    1    2    0    0  0.14850188619E+01 -0.23095342410E+02  0.18213581334E+03  0.20530733194E+03  0.91880606917E+02 0.  0.
          5    1    3    3  502    0  0.42820035325E+02 -0.63780190664E+00  0.34409604531E+03  0.34678255523E+03  0.47000000000E+01 0.  1.
         -5    1    3    3    0  502 -0.44305054187E+02  0.23733144316E+02  0.42403654885E+03  0.42703077726E+03  0.47000000000E+01 0. -1.
          5    1    4    4  503    0 -0.30401715410E+02 -0.42444117996E+02  0.72947568117E+02  0.89828754564E+02  0.47000000000E+01 0. -1.
         -5    1    4    4    0  503  0.31886734272E+02  0.19348775586E+02  0.10918824522E+03  0.11547857738E+03  0.47000000000E+01 0.  1.
<mgrwt>
<rscale>  0 0.94459397E+02</rscale>
<asrwt>0</asrwt>
<pdfrwt beam="1">  1        3 0.22194051E-02 0.94750441E+02</pdfrwt>
<pdfrwt beam="2">  1       -3 0.14841449E+00 0.94750441E+02</pdfrwt>
<totfact> 0.62684629E+02</totfact>
</mgrwt>
</event>
<event>
 8    1  0.3466492E-004  0.1680715E+03  0.7546771E-02  0.1180288E+00
          2   -1    0    0  501    0  0.00000000000E+00  0.00000000000E+00  0.42374878747E+02  0.42374878747E+02  0.00000000000E+00 0. -1.
         -2   -1    0    0    0  501 -0.00000000000E+00 -0.00000000000E+00 -0.78917133930E+03  0.78917133930E+03  0.00000000000E+00 0.  1.
         23    2    1    2    0    0  0.82481539380E+02 -0.11292344148E+03 -0.53985197946E+03  0.56494905118E+03  0.90401121294E+02 0.  0.
         23    2    1    2    0    0 -0.82481539380E+02  0.11292344148E+03 -0.20694448109E+03  0.26659716686E+03  0.93236919464E+02 0.  0.
          5    1    3    3  502    0  0.26071863517E+02 -0.56174124737E+02 -0.98994832366E+02  0.11686462764E+03  0.47000000000E+01 0. -1.
         -5    1    3    3    0  502  0.56409675863E+02 -0.56749316741E+02 -0.44085714709E+03  0.44808442354E+03  0.47000000000E+01 0.  1.
          5    1    4    4  503    0 -0.69471280842E+02  0.41996048482E+02 -0.16263635361E+03  0.18183124172E+03  0.47000000000E+01 0. -1.
         -5    1    4    4    0  503 -0.13010258538E+02  0.70927392996E+02 -0.44308127482E+02  0.84765925143E+02  0.47000000000E+01 0.  1.
<mgrwt>
<rscale>  0 0.16768104E+03</rscale>
<asrwt>0</asrwt>
<pdfrwt beam="1">  1        2 0.65192120E-02 0.16807151E+03</pdfrwt>
<pdfrwt beam="2">  1       -2 0.12141098E+00 0.16807151E+03</pdfrwt>
<totfact> 0.59007556E+02</totfact>
</mgrwt>
</event>
<event>
 8    1  0.3466492E-004  0.1325457E+03  0.7546771E-02  0.1224138E+00
          2   -1    0    0  501    0  0.00000000000E+00  0.00000000000E+00  0.33418859961E+03  0.33418859961E+03  0.00000000000E+00 0. -1.
         -2   -1    0    0    0  501 -0.00000000000E+00 -0.00000000000E+00 -0.66828842692E+02  0.66828842692E+02  0.00000000000E+00 0.  1.
         23    2    1    2    0    0  0.56337343384E+02  0.78278618991E+02  0.22818964952E+03  0.26389181817E+03  0.90922698465E+02 0.  0.
         23    2    1    2    0    0 -0.56337343384E+02 -0.78278618991E+02  0.39170107402E+02  0.13712562414E+03  0.89261979763E+02 0.  0.
          5    1    3    3  502    0  0.16665498662E+02  0.66559245289E+02  0.20501589790E+03  0.21624402968E+03  0.47000000000E+01 0. -1.
         -5    1    3    3    0  502  0.39671844722E+02  0.11719373701E+02  0.23173751616E+02  0.47647788486E+02  0.47000000000E+01 0.  1.
          5    1    4    4  503    0  0.16787896800E+02 -0.17236888789E+02 -0.13696673583E+02  0.28082604603E+02  0.47000000000E+01 0. -1.
         -5    1    4    4    0  503 -0.73125240184E+02 -0.61041730202E+02  0.52866780984E+02  0.10904301954E+03  0.47000000000E+01 0.  1.
<mgrwt>
<rscale>  0 0.13226142E+03</rscale>
<asrwt>0</asrwt>
<pdfrwt beam="1">  1        2 0.51413630E-01 0.13254575E+03</pdfrwt>
<pdfrwt beam="2">  1       -2 0.10281361E-01 0.13254575E+03</pdfrwt>
<totfact> 0.58943532E+03</totfact>
</mgrwt>
</event>
<event>
 8    1  0.3466492E-004  0.1036935E+03  0.7546771E-02  0.1273652E+00
         -1   -1    0    0    0  501 -0.00000000000E+00  0.00000000000E+00  0.29775420046E+03  0.29775420046E+03  0.00000000000E+00 0.  1.
          1   -1    0    0  501    0  0.00000000000E+00 -0.00000000000E+00 -0.69193043514E+02  0.69193043514E+02  0.00000000000E+00 0. -1.
         23    2    1    2    0    0  0.94869093258E+01 -0.47305221456E+02  0.24183840987E+03  0.26240712160E+03  0.89687767013E+02 0.  0.
         23    2    1    2    0    0 -0.94869093258E+01  0.47305221456E+02 -0.13277252924E+02  0.10454012238E+03  0.91785436294E+02 0.  0.
          5    1    3    3  502    0  0.19650034737E+02 -0.10633110224E+02  0.61846976705E+01  0.23654331178E+02  0.47000000000E+01 0. -1.
         -5    1    4    4    0  503 -0.19789366942E+02 -0.93664283754E+01  0.26265071664E+02  0.34515112834E+02  0.47000000000E+01 0.  1.
          5    1    4    4  503    0  0.10302457616E+02  0.56671649831E+02 -0.39542324587E+02  0.70025009542E+02  0.47000000000E+01 0. -1.
         -5    1    3    3    0  502 -0.10163125412E+02 -0.36672111232E+02  0.23565371220E+03  0.23875279042E+03  0.47000000000E+01 0.  1.
<mgrwt>
<rscale>  0 0.10322739E+03</rscale>
<asrwt>0</asrwt>
<pdfrwt beam="1">  1        1 0.10645084E-01 0.10369355E+03</pdfrwt>
<pdfrwt beam="2">  1       -1 0.45808338E-01 0.10369355E+03</pdfrwt>
<totfact> 0.27117157E+03</totfact>
</mgrwt>
</event>
<event>
 8    1  0.3466492E-004  0.9622917E+02  0.7546771E-02  0.1293451E+00
          3   -1    0    0  501    0  0.00000000000E+00  0.00000000000E+00  0.35308854737E+03  0.35308854737E+03  0.00000000000E+00 0. -1.
         -3   -1    0    0    0  501 -0.00000000000E+00 -0.00000000000E+00 -0.35654517589E+02  0.35654517589E+02  0.00000000000E+00 0.  1.
         23    2    1    2    0    0 -0.11745994509E+02  0.30004584397E+02  0.42335881890E+02  0.97300028327E+02  0.81466098134E+02 0.  0.
         23    2    1    2    0    0  0.11745994509E+02 -0.30004584397E+02  0.27509814789E+03  0.29144303663E+03  0.90674192339E+02 0.  0.
          5    1    3    3  502    0 -0.31106430295E+02  0.19002719132E+01  0.52630185394E+02  0.61345313217E+02  0.47000000000E+01 0. -1.
         -5    1    3    3    0  502  0.19360435786E+02  0.28104312483E+02 -0.10294303504E+02  0.35954715110E+02  0.47000000000E+01 0.  1.
          5    1    4    4  503    0 -0.39255530135E+02 -0.73199457843E+01  0.11641041696E+03  0.12315865146E+03  0.47000000000E+01 0. -1.
         -5    1    4    4    0  503  0.51001524644E+02 -0.22684638612E+02  0.15868773094E+03  0.16828438518E+03  0.47000000000E+01 0.  1.
<mgrwt>
<rscale>  0 0.93997136E+02</rscale>
<asrwt>0</asrwt>
<pdfrwt beam="1">  1        3 0.54321313E-01 0.96229167E+02</pdfrwt>
<pdfrwt beam="2">  1       -3 0.54853106E-02 0.96229167E+02</pdfrwt>
<totfact> 0.14362087E+03</totfact>
</mgrwt>
</event>
<event>
 8    1  0.3466492E-004  0.1449381E+03  0.7546771E-02  0.1210040E+00
         -2   -1    0    0    0  501 -0.00000000000E+00  0.00000000000E+00  0.25932099309E+02  0.25932099309E+02  0.00000000000E+00 0.  1.
          2   -1    0    0  501    0  0.00000000000E+00 -0.00000000000E+00 -0.81497709401E+03  0.81497709401E+03  0.00000000000E+00 0. -1.
         23    2    1    2    0    0  0.50350795338E+02  0.88168252058E+02 -0.51894064595E+03  0.53880093173E+03  0.10343213598E+03 0.  0.
         23    2    1    2    0    0 -0.50350795338E+02 -0.88168252058E+02 -0.27010434875E+03  0.30210826159E+03  0.89466190501E+02 0.  0.
          5    1    3    3  502    0 -0.60122252748E+00  0.47244649935E+02 -0.40168074564E+03  0.40447735392E+03  0.47000000000E+01 0. -1.
         -5    1    3    3    0  502  0.50952017866E+02  0.40923602123E+02 -0.11725990030E+03  0.13432357781E+03  0.47000000000E+01 0.  1.
          5    1    4    4  503    0 -0.59564510006E+02 -0.15457465953E+02 -0.13081997973E+03  0.14464723020E+03  0.47000000000E+01 0. -1.
         -5    1    4    4    0  503  0.92137146678E+01 -0.72710786105E+02 -0.13928436902E+03  0.15746103139E+03  0.47000000000E+01 0.  1.
<mgrwt>
<rscale>  0 0.14247280E+03</rscale>
<asrwt>0</asrwt>
<pdfrwt beam="1">  1        2 0.12538112E+00 0.14493809E+03</pdfrwt>
<pdfrwt beam="2">  1       -2 0.39895529E-02 0.14493809E+03</pdfrwt>
<totfact> 0.92264168E+03</totfact>
</mgrwt>
</event>
<event>
 8    1  0.3466492E-004  0.1174667E+03  0.7546771E-02  0.1248364E+00
         -1   -1    0    0    0  501 -0.00000000000E+00  0.00000000000E+00  0.24060053186E+02  0.24060053186E+02  0.00000000000E+00 0.  1.
          1   -1    0    0  501    0  0.00000000000E+00 -0.00000000000E+00 -0.73576365434E+03  0.73576365434E+03  0.00000000000E+00 0. -1.
         23    2    1    2    0    0  0.55281615244E+02  0.48871774852E+02 -0.17395659232E+03  0.20990310174E+03  0.91399719618E+02 0.  0.
         23    2    1    2    0    0 -0.55281615244E+02 -0.48871774852E+02 -0.53774700883E+03  0.54992060579E+03  0.88296771180E+02 0.  0.
          5    1    3    3  502    0  0.28690708762E+02 -0.17437258923E+02 -0.10562471815E+03  0.11093189737E+03  0.47000000000E+01 0. -1.
         -5    1    3    3    0  502  0.26590906482E+02  0.66309033775E+02 -0.68331874166E+02  0.98971204372E+02  0.47000000000E+01 0.  1.
          5    1    4    4  503    0 -0.21336512851E+02 -0.69573534509E+02 -0.29409435631E+03  0.30300050148E+03  0.47000000000E+01 0. -1.
         -5    1    4    4    0  503 -0.33945102394E+02  0.20701759657E+02 -0.24365265252E+03  0.24692010431E+03  0.47000000000E+01 0.  1.
<mgrwt>
<rscale>  0 0.11686255E+03</rscale>
<asrwt>0</asrwt>
<pdfrwt beam="1">  1        1 0.11319441E+00 0.11746666E+03</pdfrwt>
<pdfrwt beam="2">  1       -1 0.37015466E-02 0.11746666E+03</pdfrwt>
<totfact> 0.69162033E+03</totfact>
</mgrwt>
</event>
<event>
 8    1  0.3466492E-004  0.1131198E+03  0.7546771E-02  0.1264731E+00
         -1   -1    0    0    0  501 -0.00000000000E+00  0.00000000000E+00  0.23064420358E+02  0.23064420358E+02  0.00000000000E+00 0.  1.
          1   -1    0    0  501    0  0.00000000000E+00 -0.00000000000E+00 -0.46392969876E+03  0.46392969876E+03  0.00000000000E+00 0. -1.
         23    2    1    2    0    0 -0.29312475493E+02 -0.23153752237E+02 -0.18199526958E+03  0.20448790731E+03  0.85426627158E+02 0.  0.
         23    2    1    2    0    0  0.29312475493E+02  0.23153752237E+02 -0.25887000883E+03  0.28250621180E+03  0.10677434512E+03 0.  0.
          5    1    4    4  502    0  0.12285570249E+02 -0.31019400776E+02 -0.19072327580E+03  0.19367652515E+03  0.47000000000E+01 0. -1.
         -5    1    3    3    0  503  0.30548593634E+00  0.30505607363E+02 -0.74793892348E+02  0.80912926871E+02  0.47000000000E+01 0.  1.
          5    1    3    3  503    0 -0.29617961429E+02 -0.53659359601E+02 -0.10720137723E+03  0.12357498044E+03  0.47000000000E+01 0. -1.
         -5    1    4    4    0  502  0.17026905244E+02  0.54173153014E+02 -0.68146733026E+02  0.88829686658E+02  0.47000000000E+01 0.  1.
<mgrwt>
<rscale>  0 0.10778298E+03</rscale>
<asrwt>0</asrwt>
<pdfrwt beam="1">  1        1 0.71373801E-01 0.11311975E+03</pdfrwt>
<pdfrwt beam="2">  1       -1 0.35483723E-02 0.11311975E+03</pdfrwt>
<totfact> 0.13670340E+04</totfact>
</mgrwt>
</event>
<event>
 8    1  0.3466492E-004  0.1002860E+03  0.7546771E-02  0.1279894E+00
          1   -1    0    0  501    0  0.00000000000E+00  0.00000000000E+00  0.39601597303E+03  0.39601597303E+03  0.00000000000E+00 0. -1.
         -1   -1    0    0    0  501 -0.00000000000E+00 -0.00000000000E+00 -0.33245645826E+02  0.33245645826E+02  0.00000000000E+00 0.  1.
         23    2    1    2    0    0  0.37256082829E+02 -0.18199241009E+02  0.76198988253E+02  0.12564934965E+03  0.90896893100E+02 0.  0.
         23    2    1    2    0    0 -0.37256082829E+02  0.18199241009E+02  0.28657133895E+03  0.30361226921E+03  0.91312921451E+02 0.  0.
          5    1    3    3  502    0 -0.32590381530E+01 -0.25087671778E+02  0.80071179498E+02  0.84104080704E+02  0.47000000000E+01 0. -1.
         -5    1    4    4    0  503 -0.27844616974E+02  0.42547235351E+02  0.77157546925E+02  0.92525493665E+02  0.47000000000E+01 0.  1.
          5    1    4    4  503    0 -0.94114658549E+01 -0.24347994342E+02  0.20941379203E+03  0.21108677554E+03  0.47000000000E+01 0. -1.
         -5    1    3    3    0  502  0.40515120982E+02  0.68884307684E+01 -0.38721912448E+01  0.41545268945E+02  0.47000000000E+01 0.  1.
<mgrwt>
<rscale>  0 0.10019118E+03</rscale>
<asrwt>0</asrwt>
<pdfrwt beam="1">  1        1 0.60925531E-01 0.10028598E+03</pdfrwt>
<pdfrwt beam="2">  1       -1 0.51147150E-02 0.10028598E+03</pdfrwt>
<totfact> 0.96825799E+03</totfact>
</mgrwt>
</event>
<event>
 8    1  0.3466492E-004  0.1000629E+03  0.7546771E-02  0.1281121E+00
         -2   -1    0    0    0  501 -0.00000000000E+00  0.00000000000E+00  0.35530537121E+02  0.35530537121E+02  0.00000000000E+00 0.  1.
          2   -1    0    0  501    0  0.00000000000E+00 -0.00000000000E+00 -0.44810311686E+03  0.44810311686E+03  0.00000000000E+00 0. -1.
         23    2    1    2    0    0  0.25773857877E+02 -0.88463704442E+01 -0.55593420250E+02  0.11289559584E+03  0.94404645890E+02 0.  0.
         23    2    1    2    0    0 -0.25773857877E+02  0.88463704442E+01 -0.35697915949E+03  0.37073805814E+03  0.96281033559E+02 0.  0.
          5    1    4    4  502    0 -0.62365177988E+02  0.23556255493E+01 -0.21990330657E+03  0.22863621463E+03  0.47000000000E+01 0. -1.
         -5    1    3    3    0  503  0.28085288386E+02  0.25710562101E+02  0.90408878591E+01  0.39416292071E+02  0.47000000000E+01 0.  1.
          5    1    3    3  503    0 -0.23114305099E+01 -0.34556932546E+02 -0.64634308109E+02  0.73479303772E+02  0.47000000000E+01 0. -1.
         -5    1    4    4    0  502  0.36591320111E+02  0.64907448949E+01 -0.13707585292E+03  0.14210184352E+03  0.47000000000E+01 0.  1.
<mgrwt>
<rscale>  0 0.99608800E+02</rscale>
<asrwt>0</asrwt>
<pdfrwt beam="1">  1        2 0.68938944E-01 0.10006292E+03</pdfrwt>
<pdfrwt beam="2">  1       -2 0.54662362E-02 0.10006292E+03</pdfrwt>
<totfact> 0.11140128E+04</totfact>
</mgrwt>
</event>
<event>
 8    1  0.3466492E-004  0.9706732E+02  0.7546771E-02  0.1287412E+00
          2   -1    0    0  501    0  0.00000000000E+00  0.00000000000E+00  0.45510976527E+03  0.45510976527E+03  0.00000000000E+00 0. -1.
         -2   -1    0    0    0  501 -0.00000000000E+00 -0.00000000000E+00 -0.23850848443E+02  0.23850848443E+02  0.00000000000E+00 0.  1.
         23    2    1    2    0    0  0.29366309595E+02 -0.16214874100E+02  0.12577366343E+03  0.15887441380E+03  0.91086566877E+02 0.  0.
         23    2    1    2    0    0 -0.29366309595E+02  0.16214874100E+02  0.30548525340E+03  0.32008619992E+03  0.89490966319E+02 0.  0.
          5    1    4    4  502    0 -0.39310439023E+02 -0.28868387661E+02  0.16636743858E+03  0.17343272195E+03  0.47000000000E+01 0. -1.
         -5    1    3    3    0  503  0.97221464416E+01 -0.28433340089E+02 -0.49409415960E+00  0.30418893621E+02  0.47000000000E+01 0.  1.
          5    1    3    3  503    0  0.19644163153E+02  0.12218465990E+02  0.12626775759E+03  0.12845552017E+03  0.47000000000E+01 0. -1.
         -5    1    4    4    0  502  0.99441294283E+01  0.45083261760E+02  0.13911781482E+03  0.14665347797E+03  0.47000000000E+01 0.  1.
<mgrwt>
<rscale>  0 0.96691217E+02</rscale>
<asrwt>0</asrwt>
<pdfrwt beam="1">  1        2 0.70016881E-01 0.97067322E+02</pdfrwt>
<pdfrwt beam="2">  1       -2 0.36693616E-02 0.97067322E+02</pdfrwt>
<totfact> 0.19720810E+04</totfact>
</mgrwt>
</event>
<event>
 8    1  0.3466492E-004  0.9717976E+02  0.7546771E-02  0.1291658E+00
          2   -1    0    0  501    0  0.00000000000E+00  0.00000000000E+00  0.39832546781E+02  0.39832546781E+02  0.00000000000E+00 0. -1.
         -2   -1    0    0    0  501 -0.00000000000E+00 -0.00000000000E+00 -0.26297598668E+03  0.26297598668E+03  0.00000000000E+00 0.  1.
         23    2    1    2    0    0 -0.12948511590E+02  0.23299770184E+02 -0.18064246446E+03  0.20512339071E+03  0.93452459615E+02 0.  0.
         23    2    1    2    0    0  0.12948511590E+02 -0.23299770184E+02 -0.42500975436E+02  0.97685142746E+02  0.83818321131E+02 0.  0.
          5    1    4    4  502    0  0.28764917555E+02  0.63549712000E+01  0.13072226163E+02  0.32569606042E+02  0.47000000000E+01 0. -1.
         -5    1    3    3    0  503 -0.42127732458E+02  0.43317930370E+02 -0.12654352125E+03  0.14030873709E+03  0.47000000000E+01 0.  1.
          5    1    3    3  503    0  0.29179220868E+02 -0.20018160185E+02 -0.54098943211E+02  0.64814653623E+02  0.47000000000E+01 0. -1.
         -5    1    4    4    0  502 -0.15816405965E+02 -0.29654741384E+02 -0.55573201600E+02  0.65115536704E+02  0.47000000000E+01 0.  1.
<mgrwt>
<rscale>  0 0.94786568E+02</rscale>
<asrwt>0</asrwt>
<pdfrwt beam="1">  1        2 0.61280843E-02 0.97179758E+02</pdfrwt>
<pdfrwt beam="2">  1       -2 0.40457843E-01 0.97179758E+02</pdfrwt>
<totfact> 0.64268151E+03</totfact>
</mgrwt>
</event>
<event>
 8    1  0.3466492E-004  0.9340376E+02  0.7546771E-02  0.1294920E+00
         -1   -1    0    0    0  501 -0.00000000000E+00  0.00000000000E+00  0.20422548531E+02  0.20422548531E+02  0.00000000000E+00 0.  1.
          1   -1    0    0  501    0  0.00000000000E+00 -0.00000000000E+00 -0.55002693592E+03  0.55002693592E+03  0.00000000000E+00 0. -1.
         23    2    1    2    0    0  0.10900581752E+02  0.17800052743E+02 -0.39985757772E+03  0.41057923222E+03  0.90849099642E+02 0.  0.
         23    2    1    2    0    0 -0.10900581752E+02 -0.17800052743E+02 -0.12974680967E+03  0.15987025223E+03  0.91041739716E+02 0.  0.
          5    1    4    4  502    0  0.33686105764E+02 -0.60783761989E+01 -0.18136876734E+02  0.39022258730E+02  0.47000000000E+01 0. -1.
         -5    1    4    4    0  502 -0.44586687516E+02 -0.11721676544E+02 -0.11160993293E+03  0.12084799350E+03  0.47000000000E+01 0.  1.
          5    1    3    3  503    0  0.47470544723E+02 -0.62405493349E+01 -0.23989074810E+03  0.24466723953E+03  0.47000000000E+01 0. -1.
         -5    1    3    3    0  503 -0.36569962971E+02  0.24040602078E+02 -0.15996682962E+03  0.16591199269E+03  0.47000000000E+01 0.  1.
<mgrwt>
<rscale>  0 0.93356788E+02</rscale>
<asrwt>0</asrwt>
<pdfrwt beam="1">  1        1 0.84619537E-01 0.93403763E+02</pdfrwt>
<pdfrwt beam="2">  1       -1 0.31419302E-02 0.93403763E+02</pdfrwt>
<totfact> 0.12870694E+04</totfact>
</mgrwt>
</event>
<event>
 8    1  0.3466492E-004  0.9640029E+02  0.7546771E-02  0.1289321E+00
         -2   -1    0    0    0  501 -0.00000000000E+00  0.00000000000E+00  0.67422678970E+02  0.67422678970E+02  0.00000000000E+00 0.  1.
          2   -1    0    0  501    0  0.00000000000E+00 -0.00000000000E+00 -0.17816476201E+03  0.17816476201E+03  0.00000000000E+00 0. -1.
         23    2    1    2    0    0 -0.11451591917E+02  0.30894623528E+02 -0.11657813157E+03  0.15127285614E+03  0.90594699212E+02 0.  0.
         23    2    1    2    0    0  0.11451591917E+02 -0.30894623528E+02  0.58360485264E+01  0.94314584839E+02  0.88179162678E+02 0.  0.
          5    1    4    4  502    0  0.24082744452E+02  0.25947188282E+02  0.26594081282E+01  0.35810579605E+02  0.47000000000E+01 0. -1.
         -5    1    3    3    0  503  0.22004015745E+02 -0.21177744679E+02 -0.21190529764E+02  0.37467347521E+02  0.47000000000E+01 0.  1.
          5    1    3    3  503    0 -0.33455607662E+02  0.52072368207E+02 -0.95387601804E+02  0.11380550862E+03  0.47000000000E+01 0. -1.
         -5    1    4    4    0  502 -0.12631152535E+02 -0.56841811810E+02  0.31766403982E+01  0.58504005234E+02  0.47000000000E+01 0.  1.
<mgrwt>
<rscale>  0 0.95828616E+02</rscale>
<asrwt>0</asrwt>
<pdfrwt beam="1">  1        2 0.27409963E-01 0.96400292E+02</pdfrwt>
<pdfrwt beam="2">  1       -2 0.10372720E-01 0.96400292E+02</pdfrwt>
<totfact> 0.11074748E+04</totfact>
</mgrwt>
</event>
<event>
 8    1  0.3466492E-004  0.9513037E+02  0.7546771E-02  0.1293480E+00
         -1   -1    0    0    0  501 -0.00000000000E+00  0.00000000000E+00  0.92931467485E+02  0.92931467485E+02  0.00000000000E+00 0.  1.
          1   -1    0    0  501    0  0.00000000000E+00 -0.00000000000E+00 -0.23930033105E+03  0.23930033105E+03  0.00000000000E+00 0. -1.
         23    2    1    2    0    0 -0.53710717758E+01  0.80339237345E+00  0.57451686670E+02  0.10730380145E+03  0.90464996839E+02 0.  0.
         23    2    1    2    0    0  0.53710717758E+01 -0.80339237345E+00 -0.20382055024E+03  0.22492799709E+03  0.94975224787E+02 0.  0.
          5    1    4    4  502    0 -0.16201052412E+02  0.26745267156E+02 -0.17900139954E+03  0.18177286500E+03  0.47000000000E+01 0. -1.
         -5    1    3    3    0  503  0.22880777481E+02 -0.19882196322E+02 -0.90659702464E+01  0.31986145833E+02  0.47000000000E+01 0.  1.
          5    1    3    3  503    0 -0.28251849257E+02  0.20685588695E+02  0.66517656916E+02  0.75317655617E+02  0.47000000000E+01 0. -1.
         -5    1    4    4    0  502  0.21572124188E+02 -0.27548659530E+02 -0.24819150701E+02  0.43155132087E+02  0.47000000000E+01 0.  1.
<mgrwt>
<rscale>  0 0.93984194E+02</rscale>
<asrwt>0</asrwt>
<pdfrwt beam="1">  1        1 0.36815436E-01 0.95130369E+02</pdfrwt>
<pdfrwt beam="2">  1       -1 0.14297149E-01 0.95130369E+02</pdfrwt>
<totfact> 0.38217579E+03</totfact>
</mgrwt>
</event>
<event>
 8    1  0.3466492E-004  0.9020690E+02  0.7546771E-02  0.1303987E+00
          2   -1    0    0  501    0  0.00000000000E+00  0.00000000000E+00  0.11828540990E+03  0.11828540990E+03  0.00000000000E+00 0. -1.
         -2   -1    0    0    0  501 -0.00000000000E+00 -0.00000000000E+00 -0.66863246037E+02  0.66863246037E+02  0.00000000000E+00 0.  1.
         23    2    1    2    0    0 -0.96515372463E+00  0.18871821173E+02  0.28689207562E+02  0.92121393147E+02  0.85476331745E+02 0.  0.
         23    2    1    2    0    0  0.96515372463E+00 -0.18871821173E+02  0.22732956299E+02  0.93027262788E+02  0.88205482617E+02 0.  0.
          5    1    4    4  502    0 -0.17611377990E+02  0.30763286869E+02  0.16471279147E+01  0.35795858476E+02  0.47000000000E+01 0. -1.
         -5    1    4    4    0  502  0.18576531714E+02 -0.49635108042E+02  0.21085828385E+02  0.57231404312E+02  0.47000000000E+01 0.  1.
          5    1    3    3  503    0  0.54386099222E+01  0.47705543949E+02  0.37318940727E+02  0.60993366347E+02  0.47000000000E+01 0. -1.
         -5    1    3    3    0  503 -0.64037636468E+01 -0.28833722776E+02 -0.86297331646E+01  0.31128026800E+02  0.47000000000E+01 0.  1.
<mgrwt>
<rscale>  0 0.89532693E+02</rscale>
<asrwt>0</asrwt>
<pdfrwt beam="1">  1        2 0.18197755E-01 0.90206897E+02</pdfrwt>
<pdfrwt beam="2">  1       -2 0.10286653E-01 0.90206897E+02</pdfrwt>
<totfact> 0.17520854E+04</totfact>
</mgrwt>
</event>
<event>
 7    1  0.3466492E-004  0.1479195E+03  0.7546771E-02  0.1226271E+00
         -2   -1    0    0    0  501 -0.00000000000E+00  0.00000000000E+00  0.48163737547E+02  0.48163737547E+02  0.00000000000E+00 0.  1.
          2   -1    0    0  501    0  0.00000000000E+00 -0.00000000000E+00 -0.31139894976E+03  0.31139894976E+03  0.00000000000E+00 0. -1.
         23    2    1    2    0    0 -0.10710019882E+01 -0.13258938043E+02 -0.61354958313E+02  0.10929121387E+03  0.89460561339E+02 0.  0.
          5    1    1    2  502    0 -0.36099703205E+02  0.17469924424E+02 -0.20816808508E+03  0.21204817490E+03  0.47000000000E+01 0. -1.
         -5    1    3    3    0  503  0.43460910190E+02 -0.52786676760E+01 -0.22385007290E+02  0.49395279110E+02  0.47000000000E+01 0.  1.
          5    1    3    3  503    0 -0.44531912178E+02 -0.79802703669E+01 -0.38969951024E+02  0.59895934755E+02  0.47000000000E+01 0. -1.
         -5    1    1    2    0  502  0.37170705193E+02 -0.42109863815E+01  0.62878311803E+01  0.38223298547E+02  0.47000000000E+01 0.  1.
<mgrwt>
<rscale>  0 0.13080192E+03</rscale>
<asrwt>0</asrwt>
<pdfrwt beam="1">  1        2 0.47907529E-01 0.14791948E+03</pdfrwt>
<pdfrwt beam="2">  1       -2 0.74098060E-02 0.14791948E+03</pdfrwt>
<totfact> 0.10652985E+04</totfact>
</mgrwt>
</event>
<event>
 8    1  0.3466492E-004  0.1041120E+03  0.7546771E-02  0.1273577E+00
         -1   -1    0    0    0  501 -0.00000000000E+00  0.00000000000E+00  0.23592245683E+02  0.23592245683E+02  0.00000000000E+00 0.  1.
          1   -1    0    0  501    0  0.00000000000E+00 -0.00000000000E+00 -0.88542645438E+03  0.88542645438E+03  0.00000000000E+00 0. -1.
         23    2    1    2    0    0 -0.20754108831E+02  0.48666415494E+02 -0.10676750500E+03  0.14680808204E+03  0.85756397995E+02 0.  0.
         23    2    1    2    0    0  0.20754108831E+02 -0.48666415494E+02 -0.75506670369E+03  0.76221061802E+03  0.89666862154E+02 0.  0.
          5    1    3    3  502    0 -0.45527406901E+02  0.57544875068E+00 -0.40351221190E+02  0.61019562207E+02  0.47000000000E+01 0. -1.
         -5    1    4    4    0  503  0.45717617820E+02  0.34935164347E+01 -0.33769064516E+03  0.34082160592E+03  0.47000000000E+01 0.  1.
          5    1    4    4  503    0 -0.24963508989E+02 -0.52159931929E+02 -0.41737605853E+03  0.42138901210E+03  0.47000000000E+01 0. -1.
         -5    1    3    3    0  502  0.24773298070E+02  0.48090966743E+02 -0.66416283811E+02  0.85788519831E+02  0.47000000000E+01 0.  1.
<mgrwt>
<rscale>  0 0.10326459E+03</rscale>
<asrwt>0</asrwt>
<pdfrwt beam="1">  1        1 0.13621942E+00 0.10411196E+03</pdfrwt>
<pdfrwt beam="2">  1       -1 0.36295771E-02 0.10411196E+03</pdfrwt>
<totfact> 0.53541971E+03</totfact>
</mgrwt>
</event>
<event>
 8    1  0.3466492E-004  0.1000918E+03  0.7546771E-02  0.1280799E+00
          2   -1    0    0  501    0  0.00000000000E+00  0.00000000000E+00  0.86896245317E+03  0.86896245317E+03  0.00000000000E+00 0. -1.
         -2   -1    0    0    0  501 -0.00000000000E+00 -0.00000000000E+00 -0.24554176497E+02  0.24554176497E+02  0.00000000000E+00 0.  1.
         23    2    1    2    0    0 -0.37065936882E+02  0.18439181317E+02  0.75076200483E+03  0.75740475495E+03  0.91128962677E+02 0.  0.
         23    2    1    2    0    0  0.37065936882E+02 -0.18439181317E+02  0.93646271848E+02  0.13611187472E+03  0.89682390271E+02 0.  0.
          5    1    3    3  502    0  0.11661041440E+02  0.43367980014E+02  0.34171019424E+03  0.34468058899E+03  0.47000000000E+01 0. -1.
         -5    1    3    3    0  502 -0.48726978322E+02 -0.24928798697E+02  0.40905181059E+03  0.41272416596E+03  0.47000000000E+01 0.  1.
          5    1    4    4  503    0  0.65016333101E+01  0.30292152872E+02  0.63927679630E+02  0.71194971622E+02  0.47000000000E+01 0. -1.
         -5    1    4    4    0  503  0.30564303572E+02 -0.48731334189E+02  0.29718592217E+02  0.64916903100E+02  0.47000000000E+01 0.  1.
<mgrwt>
<rscale>  0 0.99761393E+02</rscale>
<asrwt>0</asrwt>
<pdfrwt beam="1">  1        2 0.13368651E+00 0.10009183E+03</pdfrwt>
<pdfrwt beam="2">  1       -2 0.37775663E-02 0.10009183E+03</pdfrwt>
<totfact> 0.90219743E+03</totfact>
</mgrwt>
</event>
<event>
 8    1  0.3466492E-004  0.1015118E+03  0.7546771E-02  0.1278281E+00
          1   -1    0    0  501    0  0.00000000000E+00  0.00000000000E+00  0.19664142416E+03  0.19664142416E+03  0.00000000000E+00 0. -1.
         -1   -1    0    0    0  501 -0.00000000000E+00 -0.00000000000E+00 -0.53316999128E+02  0.53316999128E+02  0.00000000000E+00 0.  1.
         23    2    1    2    0    0 -0.29992756946E+02  0.22725678845E+02  0.95296063421E+02  0.13765808271E+03  0.91936859227E+02 0.  0.
         23    2    1    2    0    0  0.29992756946E+02 -0.22725678845E+02  0.48028361611E+02  0.11230034058E+03  0.94279483590E+02 0.  0.
          5    1    4    4  502    0  0.36171109015E+02  0.28014474957E+02  0.68609323551E+01  0.46500777706E+02  0.47000000000E+01 0. -1.
         -5    1    4    4    0  502 -0.61783520694E+01 -0.50740153802E+02  0.41167429256E+02  0.65799562869E+02  0.47000000000E+01 0.  1.
          5    1    3    3  503    0  0.29395319416E+02 -0.99549891802E+01  0.30497385342E+02  0.43764907470E+02  0.47000000000E+01 0. -1.
         -5    1    3    3    0  503 -0.59388076361E+02  0.32680668025E+02  0.64798678078E+02  0.93893175243E+02  0.47000000000E+01 0.  1.
<mgrwt>
<rscale>  0 0.10096439E+03</rscale>
<asrwt>0</asrwt>
<pdfrwt beam="1">  1        1 0.30252526E-01 0.10151179E+03</pdfrwt>
<pdfrwt beam="2">  1       -1 0.82026154E-02 0.10151179E+03</pdfrwt>
<totfact> 0.11376848E+04</totfact>
</mgrwt>
</event>
<event>
 8    1  0.3466492E-004  0.1294886E+03  0.7546771E-02  0.1235424E+00
         -1   -1    0    0    0  501 -0.00000000000E+00  0.00000000000E+00  0.46476825221E+02  0.46476825221E+02  0.00000000000E+00 0.  1.
          1   -1    0    0  501    0  0.00000000000E+00 -0.00000000000E+00 -0.76658867720E+03  0.76658867720E+03  0.00000000000E+00 0. -1.
         23    2    1    2    0    0  0.61582210468E+02 -0.15300838786E+02 -0.36725336100E+02  0.11751937382E+03  0.91845351536E+02 0.  0.
         23    2    1    2    0    0 -0.61582210468E+02  0.15300838786E+02 -0.68338651588E+03  0.69554612860E+03  0.11287516382E+03 0.  0.
          5    1    4    4  502    0 -0.85027463301E+02 -0.67391349132E+01 -0.59986873013E+03  0.60592051364E+03  0.47000000000E+01 0. -1.
         -5    1    3    3    0  503  0.61648020350E+02  0.13141638289E+02  0.86126880008E+01  0.63792236711E+02  0.47000000000E+01 0.  1.
          5    1    3    3  503    0 -0.65809882082E-01 -0.28442477075E+02 -0.45338024100E+02  0.53727137114E+02  0.47000000000E+01 0. -1.
         -5    1    4    4    0  502  0.23445252834E+02  0.22039973699E+02 -0.83517785745E+02  0.89625614960E+02  0.47000000000E+01 0.  1.
<mgrwt>
<rscale>  0 0.12477347E+03</rscale>
<asrwt>0</asrwt>
<pdfrwt beam="1">  1        1 0.11793672E+00 0.12948856E+03</pdfrwt>
<pdfrwt beam="2">  1       -1 0.71502809E-02 0.12948856E+03</pdfrwt>
<totfact> 0.24722221E+03</totfact>
</mgrwt>
</event>
<event>
 8    1  0.3466492E-004  0.1193280E+03  0.7546771E-02  0.1246074E+00
          3   -1    0    0  501    0  0.00000000000E+00  0.00000000000E+00  0.73256167088E+02  0.73256167088E+02  0.00000000000E+00 0. -1.
         -3   -1    0    0    0  501 -0.00000000000E+00 -0.00000000000E+00 -0.18849505832E+03  0.18849505832E+03  0.00000000000E+00 0.  1.
         23    2    1    2    0    0  0.70151686711E+02 -0.22868377884E+02 -0.67061466835E+02  0.13306460999E+03  0.88117695392E+02 0.  0.
         23    2    1    2    0    0 -0.70151686711E+02  0.22868377884E+02 -0.48177424395E+02  0.12868661542E+03  0.93781442254E+02 0.  0.
          5    1    3    3  502    0  0.65674757318E+01  0.29334831685E+02 -0.73489099408E+01  0.31301127213E+02  0.47000000000E+01 0. -1.
         -5    1    3    3    0  502  0.63584210979E+02 -0.52203209569E+02 -0.59712556894E+02  0.10176348277E+03  0.47000000000E+01 0.  1.
          5    1    4    4  503    0 -0.74084655740E+02  0.51084172889E+02 -0.40594156350E+02  0.98833721298E+02  0.47000000000E+01 0. -1.
         -5    1    4    4    0  503  0.39329690296E+01 -0.28215795005E+02 -0.75832680446E+01  0.29852894121E+02  0.47000000000E+01 0.  1.
<mgrwt>
<rscale>  0 0.11821305E+03</rscale>
<asrwt>0</asrwt>
<pdfrwt beam="1">  1        3 0.11270180E-01 0.11932804E+03</pdfrwt>
<pdfrwt beam="2">  1       -3 0.28999240E-01 0.11932804E+03</pdfrwt>
<totfact> 0.15514791E+03</totfact>
</mgrwt>
</event>
<event>
 8    1  0.3466492E-004  0.1058333E+03  0.7546771E-02  0.1269114E+00
         -3   -1    0    0    0  501 -0.00000000000E+00  0.00000000000E+00  0.34052925926E+02  0.34052925926E+02  0.00000000000E+00 0.  1.
          3   -1    0    0  501    0  0.00000000000E+00 -0.00000000000E+00 -0.32874609222E+03  0.32874609222E+03  0.00000000000E+00 0. -1.
         23    2    1    2    0    0 -0.34570030231E+02 -0.36998977900E+02 -0.12698500643E+03  0.16448937224E+03  0.91474315328E+02 0.  0.
         23    2    1    2    0    0  0.34570030231E+02  0.36998977900E+02 -0.16770815986E+03  0.19830964591E+03  0.92933725956E+02 0.  0.
          5    1    3    3  502    0 -0.53540957109E+02  0.90391066420E+01 -0.64014142476E+02  0.84072825419E+02  0.47000000000E+01 0. -1.
         -5    1    4    4    0  503  0.24997547134E+02 -0.27408155935E+01  0.46353271531E-01  0.25582837635E+02  0.47000000000E+01 0.  1.
          5    1    4    4  503    0  0.95724830969E+01  0.39739793493E+02 -0.16775451314E+03  0.17272680827E+03  0.47000000000E+01 0. -1.
         -5    1    3    3    0  502  0.18970926878E+02 -0.46038084542E+02 -0.62970863954E+02  0.80416546817E+02  0.47000000000E+01 0.  1.
<mgrwt>
<rscale>  0 0.10551205E+03</rscale>
<asrwt>0</asrwt>
<pdfrwt beam="1">  1        3 0.50576321E-01 0.10583331E+03</pdfrwt>
<pdfrwt beam="2">  1       -3 0.52389118E-02 0.10583331E+03</pdfrwt>
<totfact> 0.18134033E+03</totfact>
</mgrwt>
</event>
<event>
 8    1  0.3466492E-004  0.9568617E+02  0.7546771E-02  0.1292216E+00
          1   -1    0    0  501    0  0.00000000000E+00  0.00000000000E+00  0.43455109933E+03  0.43455109933E+03  0.00000000000E+00 0. -1.
         -1   -1    0    0    0  501 -0.00000000000E+00 -0.00000000000E+00 -0.22863022250E+02  0.22863022250E+02  0.00000000000E+00 0.  1.
         23    2    1    2    0    0 -0.21767380820E+01 -0.10420356406E+02  0.12184565721E+03  0.15218556650E+03  0.90558050174E+02 0.  0.
         23    2    1    2    0    0  0.21767380820E+01  0.10420356406E+02  0.28984241987E+03  0.30522855508E+03  0.95092168282E+02 0.  0.
          5    1    4    4  502    0  0.35501197058E+02  0.28201196912E+02  0.80990015874E+02  0.92936081105E+02  0.47000000000E+01 0. -1.
         -5    1    4    4    0  502 -0.33324458976E+02 -0.17780840506E+02  0.20885240399E+03  0.21229247398E+03  0.47000000000E+01 0.  1.
          5    1    3    3  503    0 -0.30902665926E+02  0.45035535712E+01  0.11434486353E+03  0.11862585962E+03  0.47000000000E+01 0. -1.
         -5    1    3    3    0  503  0.28725927844E+02 -0.14923909977E+02  0.75007936870E+01  0.33559706874E+02  0.47000000000E+01 0.  1.
<mgrwt>
<rscale>  0 0.94539578E+02</rscale>
<asrwt>0</asrwt>
<pdfrwt beam="1">  1        1 0.66854009E-01 0.95686167E+02</pdfrwt>
<pdfrwt beam="2">  1       -1 0.35173884E-02 0.95686167E+02</pdfrwt>
<totfact> 0.14821350E+04</totfact>
</mgrwt>
</event>
<event>
 8    1  0.3466492E-004  0.1025815E+03  0.7546771E-02  0.1280951E+00
         -1   -1    0    0    0  501 -0.00000000000E+00  0.00000000000E+00  0.34555596601E+02  0.34555596601E+02  0.00000000000E+00 0.  1.
          1   -1    0    0  501    0  0.00000000000E+00 -0.00000000000E+00 -0.27462145450E+03  0.27462145450E+03  0.00000000000E+00 0. -1.
         23    2    1    2    0    0 -0.12059014622E+02  0.11084494899E+02 -0.12681936369E+03  0.15637740238E+03  0.90013638464E+02 0.  0.
         23    2    1    2    0    0  0.12059014622E+02 -0.11084494899E+02 -0.11324649421E+03  0.15279964871E+03  0.10126538567E+03 0.  0.
          5    1    3    3  502    0 -0.10660391681E+02 -0.34405806004E+02 -0.91906644015E+02  0.98824716806E+02  0.47000000000E+01 0. -1.
         -5    1    3    3    0  502 -0.13986229414E+01  0.45490300903E+02 -0.34912719672E+02  0.57552685579E+02  0.47000000000E+01 0.  1.
          5    1    4    4  503    0  0.52105276274E+02 -0.18099371497E+02 -0.38010366741E+02  0.67152252709E+02  0.47000000000E+01 0. -1.
         -5    1    4    4    0  503 -0.40046261651E+02  0.70148765972E+01 -0.75236127468E+02  0.85647396004E+02  0.47000000000E+01 0.  1.
<mgrwt>
<rscale>  0 0.99689008E+02</rscale>
<asrwt>0</asrwt>
<pdfrwt beam="1">  1        1 0.42249454E-01 0.10258150E+03</pdfrwt>
<pdfrwt beam="2">  1       -1 0.53162457E-02 0.10258150E+03</pdfrwt>
<totfact> 0.14389469E+04</totfact>
</mgrwt>
</event>
<event>
 8    1  0.3466492E-004  0.9283300E+02  0.7546771E-02  0.1298188E+00
         -1   -1    0    0    0  501 -0.00000000000E+00  0.00000000000E+00  0.28667229175E+03  0.28667229175E+03  0.00000000000E+00 0.  1.
          1   -1    0    0  501    0  0.00000000000E+00 -0.00000000000E+00 -0.22441787301E+03  0.22441787301E+03  0.00000000000E+00 0. -1.
         23    2    1    2    0    0 -0.11075391174E+02 -0.16998759390E+01  0.26969161913E+03  0.28522190548E+03  0.92154284058E+02 0.  0.
         23    2    1    2    0    0  0.11075391174E+02  0.16998759390E+01 -0.20743720039E+03  0.22586825927E+03  0.88660727358E+02 0.  0.
          5    1    3    3  502    0  0.14330588008E+02 -0.41849260102E+02  0.11389938293E+03  0.12227790379E+03  0.47000000000E+01 0. -1.
         -5    1    4    4    0  503 -0.24738983109E+01  0.36903931196E+02 -0.42183396149E+02  0.56298749731E+02  0.47000000000E+01 0.  1.
          5    1    4    4  503    0  0.13549289485E+02 -0.35204055257E+02 -0.16525380424E+03  0.16956950954E+03  0.47000000000E+01 0. -1.
         -5    1    3    3    0  502 -0.25405979182E+02  0.40149384163E+02  0.15579223621E+03  0.16294400170E+03  0.47000000000E+01 0.  1.
<mgrwt>
<rscale>  0 0.91953835E+02</rscale>
<asrwt>0</asrwt>
<pdfrwt beam="1">  1        1 0.34525826E-01 0.92833000E+02</pdfrwt>
<pdfrwt beam="2">  1       -1 0.44103430E-01 0.92833000E+02</pdfrwt>
<totfact> 0.65337954E+02</totfact>
</mgrwt>
</event>
<event>
 8    1  0.3466492E-004  0.1058349E+03  0.7546771E-02  0.1269215E+00
          1   -1    0    0  501    0  0.00000000000E+00  0.00000000000E+00  0.23857571033E+03  0.23857571033E+03  0.00000000000E+00 0. -1.
         -1   -1    0    0    0  501 -0.00000000000E+00 -0.00000000000E+00 -0.62557201173E+02  0.62557201173E+02  0.00000000000E+00 0.  1.
         23    2    1    2    0    0 -0.51359363517E+02 -0.19751981334E+01  0.16524585223E+03  0.19623253684E+03  0.92516653679E+02 0.  0.
         23    2    1    2    0    0  0.51359363517E+02  0.19751981334E+01  0.10772656928E+02  0.10490037466E+03  0.90809431440E+02 0.  0.
          5    1    4    4  502    0  0.67376870364E+02 -0.21038645589E+02 -0.74477866923E+01  0.71132459503E+02  0.47000000000E+01 0. -1.
         -5    1    4    4    0  502 -0.16017506847E+02  0.23013843722E+02  0.18220443620E+02  0.33767915159E+02  0.47000000000E+01 0.  1.
          5    1    3    3  503    0  0.23041612909E+02 -0.17381545477E+01  0.77937890372E+02  0.81426911168E+02  0.47000000000E+01 0. -1.
         -5    1    3    3    0  503 -0.74400976426E+02 -0.23704358568E+00  0.87307961856E+02  0.11480562567E+03  0.47000000000E+01 0.  1.
<mgrwt>
<rscale>  0 0.10546060E+03</rscale>
<asrwt>0</asrwt>
<pdfrwt beam="1">  1        1 0.36703955E-01 0.10583486E+03</pdfrwt>
<pdfrwt beam="2">  1       -1 0.96241849E-02 0.10583486E+03</pdfrwt>
<totfact> 0.70763368E+03</totfact>
</mgrwt>
</event>
<event>
 8    1  0.3466492E-004  0.9523199E+02  0.7546771E-02  0.1291142E+00
          1   -1    0    0  501    0  0.00000000000E+00  0.00000000000E+00  0.24255058140E+03  0.24255058140E+03  0.00000000000E+00 0. -1.
         -1   -1    0    0    0  501 -0.00000000000E+00 -0.00000000000E+00 -0.11169259015E+03  0.11169259015E+03  0.00000000000E+00 0.  1.
         23    2    1    2    0    0 -0.69703323638E+01  0.20666740431E+02 -0.79264434246E+02  0.12390311763E+03  0.92700767684E+02 0.  0.
         23    2    1    2    0    0  0.69703323638E+01 -0.20666740431E+02  0.21012242550E+03  0.23034005391E+03  0.91811802334E+02 0.  0.
          5    1    4    4  502    0  0.31165585305E+01 -0.57028899492E+02  0.12058060563E+03  0.13350573309E+03  0.47000000000E+01 0. -1.
         -5    1    4    4    0  502  0.38537738333E+01  0.36362159061E+02  0.89541819863E+02  0.96834320820E+02  0.47000000000E+01 0.  1.
          5    1    3    3  503    0  0.33590692601E+02  0.41589609461E+01 -0.11064073049E+01  0.34189848240E+02  0.47000000000E+01 0. -1.
         -5    1    3    3    0  503 -0.40561024964E+02  0.16507779485E+02 -0.78158026941E+02  0.89713269392E+02  0.47000000000E+01 0.  1.
<mgrwt>
<rscale>  0 0.95014970E+02</rscale>
<asrwt>0</asrwt>
<pdfrwt beam="1">  1        1 0.37315474E-01 0.95231991E+02</pdfrwt>
<pdfrwt beam="2">  1       -1 0.17183475E-01 0.95231991E+02</pdfrwt>
<totfact> 0.28231117E+03</totfact>
</mgrwt>
</event>
<event>
 8    1  0.3466492E-004  0.1509146E+03  0.7546771E-02  0.1205128E+00
         -2   -1    0    0    0  501 -0.00000000000E+00  0.00000000000E+00  0.22270124953E+02  0.22270124953E+02  0.00000000000E+00 0.  1.
          2   -1    0    0  501    0  0.00000000000E+00 -0.00000000000E+00 -0.10373705055E+04  0.10373705055E+04  0.00000000000E+00 0. -1.
         23    2    1    2    0    0  0.45059903718E+02 -0.85784932937E+02 -0.66804528212E+03  0.68119318341E+03  0.91379453470E+02 0.  0.
         23    2    1    2    0    0 -0.45059903718E+02  0.85784932937E+02 -0.34705509839E+03  0.37844744701E+03  0.11569692816E+03 0.  0.
          5    1    3    3  502    0  0.53146738341E+02 -0.23848430383E+02 -0.18262245092E+03  0.19174559449E+03  0.47000000000E+01 0. -1.
         -5    1    4    4    0  503 -0.87648137710E+01  0.20885526934E+02  0.35722706503E+00  0.23135358371E+02  0.47000000000E+01 0.  1.
          5    1    4    4  503    0 -0.36295089947E+02  0.64899406002E+02 -0.34741232546E+03  0.35531208864E+03  0.47000000000E+01 0. -1.
         -5    1    3    3    0  502 -0.80868346228E+01 -0.61936502553E+02 -0.48542283121E+03  0.48944758892E+03  0.47000000000E+01 0.  1.
<mgrwt>
<rscale>  0 0.14627384E+03</rscale>
<asrwt>0</asrwt>
<pdfrwt beam="1">  1        2 0.15959547E+00 0.15091464E+03</pdfrwt>
<pdfrwt beam="2">  1       -2 0.34261729E-02 0.15091464E+03</pdfrwt>
<totfact> 0.84142205E+03</totfact>
</mgrwt>
</event>
<event>
 8    1  0.3466492E-004  0.9750192E+02  0.7546771E-02  0.1287407E+00
          1   -1    0    0  501    0  0.00000000000E+00  0.00000000000E+00  0.12710929138E+03  0.12710929138E+03  0.00000000000E+00 0. -1.
         -1   -1    0    0    0  501 -0.00000000000E+00 -0.00000000000E+00 -0.82481367352E+02  0.82481367352E+02  0.00000000000E+00 0.  1.
         23    2    1    2    0    0 -0.10319085348E+02 -0.17998617559E+02 -0.14715847463E+02  0.95449049490E+02  0.91997451734E+02 0.  0.
         23    2    1    2    0    0  0.10319085348E+02  0.17998617559E+02  0.59343771488E+02  0.11414160924E+03  0.95269040032E+02 0.  0.
          5    1    4    4  502    0  0.29232815298E+02 -0.27048039697E+02  0.50139150783E+02  0.64204192876E+02  0.47000000000E+01 0. -1.
         -5    1    3    3    0  503 -0.44706546806E+02 -0.29913289256E+02  0.42113464612E+01  0.54160000373E+02  0.47000000000E+01 0.  1.
          5    1    3    3  503    0  0.34387461458E+02  0.11914671696E+02 -0.18927193924E+02  0.41289049117E+02  0.47000000000E+01 0. -1.
         -5    1    4    4    0  502 -0.18913729950E+02  0.45046657256E+02  0.92046207049E+01  0.49937416362E+02  0.47000000000E+01 0.  1.
<mgrwt>
<rscale>  0 0.96693391E+02</rscale>
<asrwt>0</asrwt>
<pdfrwt beam="1">  1        1 0.19555276E-01 0.97501917E+02</pdfrwt>
<pdfrwt beam="2">  1       -1 0.12689441E-01 0.97501917E+02</pdfrwt>
<totfact> 0.10073426E+04</totfact>
</mgrwt>
</event>
<event>
 8    1  0.3466492E-004  0.1072076E+03  0.7546771E-02  0.1273342E+00
         -2   -1    0    0    0  501 -0.00000000000E+00  0.00000000000E+00  0.82564577710E+02  0.82564577710E+02  0.00000000000E+00 0.  1.
          2   -1    0    0  501    0  0.00000000000E+00 -0.00000000000E+00 -0.60379164108E+03  0.60379164108E+03  0.00000000000E+00 0. -1.
         23    2    1    2    0    0 -0.83499775985E+01  0.17969083021E+02  0.49882192108E+02  0.10527167385E+03  0.90560930619E+02 0.  0.
         23    2    1    2    0    0  0.83499775985E+01 -0.17969083021E+02 -0.57110925548E+03  0.58108454495E+03  0.10536060274E+03 0.  0.
          5    1    3    3  502    0  0.37430840349E+01 -0.34720855356E+02  0.33422432746E+02  0.48566423436E+02  0.47000000000E+01 0. -1.
         -5    1    3    3    0  502 -0.12093061633E+02  0.52689938377E+02  0.16459759362E+02  0.56705250411E+02  0.47000000000E+01 0.  1.
          5    1    4    4  503    0 -0.13697049747E+02 -0.51793746733E+02 -0.45289690618E+03  0.45607882981E+03  0.47000000000E+01 0. -1.
         -5    1    4    4    0  503  0.22047027346E+02  0.33824663711E+02 -0.11821234930E+03  0.12500571514E+03  0.47000000000E+01 0. -1.
<mgrwt>
<rscale>  0 0.10338151E+03</rscale>
<asrwt>0</asrwt>
<pdfrwt beam="1">  1        2 0.92891020E-01 0.10720759E+03</pdfrwt>
<pdfrwt beam="2">  1       -2 0.12702243E-01 0.10720759E+03</pdfrwt>
<totfact> 0.22004857E+03</totfact>
</mgrwt>
</event>
<event>
 8    1  0.3466492E-004  0.1037496E+03  0.7546771E-02  0.1275074E+00
          1   -1    0    0  501    0  0.00000000000E+00  0.00000000000E+00  0.23266798208E+03  0.23266798208E+03  0.00000000000E+00 0. -1.
         -1   -1    0    0    0  501 -0.00000000000E+00 -0.00000000000E+00 -0.44972534716E+02  0.44972534716E+02  0.00000000000E+00 0.  1.
         23    2    1    2    0    0 -0.21604078741E+02 -0.29531257322E+02  0.11488981677E+03  0.15480195847E+03  0.97083185841E+02 0.  0.
         23    2    1    2    0    0  0.21604078741E+02  0.29531257322E+02  0.72805630598E+02  0.12283855832E+03  0.91922903496E+02 0.  0.
          5    1    3    3  502    0  0.35098956683E+02 -0.21460054178E+02  0.72135811308E+02  0.83175332633E+02  0.47000000000E+01 0. -1.
         -5    1    3    3    0  502 -0.56703035424E+02 -0.80712031440E+01  0.42754005462E+02  0.71626625842E+02  0.47000000000E+01 0.  1.
          5    1    4    4  503    0  0.36882768822E+02  0.48740234875E+02  0.20109213266E+02  0.64516816333E+02  0.47000000000E+01 0. -1.
         -5    1    4    4    0  503 -0.15278690080E+02 -0.19208977553E+02  0.52696417332E+02  0.58321741991E+02  0.47000000000E+01 0.  1.
<mgrwt>
<rscale>  0 0.10252508E+03</rscale>
<asrwt>0</asrwt>
<pdfrwt beam="1">  1        1 0.35795074E-01 0.10374958E+03</pdfrwt>
<pdfrwt beam="2">  1       -1 0.69188516E-02 0.10374958E+03</pdfrwt>
<totfact> 0.11951835E+04</totfact>
</mgrwt>
</event>
<event>
 8    1  0.3466492E-004  0.1371979E+03  0.7546771E-02  0.1217236E+00
          2   -1    0    0  501    0  0.00000000000E+00  0.00000000000E+00  0.16806746759E+03  0.16806746759E+03  0.00000000000E+00 0. -1.
         -2   -1    0    0    0  501 -0.00000000000E+00 -0.00000000000E+00 -0.16539292768E+03  0.16539292768E+03  0.00000000000E+00 0.  1.
         23    2    1    2    0    0  0.48534200526E+02 -0.89702902245E+02 -0.93577259929E+02  0.16586662300E+03  0.91393948140E+02 0.  0.
         23    2    1    2    0    0 -0.48534200526E+02  0.89702902245E+02  0.96251799833E+02  0.16759377227E+03  0.91766465778E+02 0.  0.
          5    1    4    4  502    0 -0.69659608009E+02  0.82300478302E+02  0.96416003996E+02  0.14472030108E+03  0.47000000000E+01 0. -1.
         -5    1    3    3    0  503  0.70618676391E+02 -0.48591544372E+02 -0.79216067009E+02  0.11681357332E+03  0.47000000000E+01 0.  1.
          5    1    3    3  503    0 -0.22084475865E+02 -0.41111357872E+02 -0.14361192920E+02  0.49053049675E+02  0.47000000000E+01 0. -1.
         -5    1    4    4    0  502  0.21125407483E+02  0.74024239422E+01 -0.16420416324E+00  0.22873471196E+02  0.47000000000E+01 0.  1.
<mgrwt>
<rscale>  0 0.13713564E+03</rscale>
<asrwt>0</asrwt>
<pdfrwt beam="1">  1        2 0.25856533E-01 0.13719790E+03</pdfrwt>
<pdfrwt beam="2">  1       -2 0.25445066E-01 0.13719790E+03</pdfrwt>
<totfact> 0.27588580E+03</totfact>
</mgrwt>
</event>
<event>
 7    1  0.3466492E-004  0.1466152E+03  0.7546771E-02  0.1222126E+00
          1   -1    0    0  501    0  0.00000000000E+00  0.00000000000E+00  0.56207679157E+03  0.56207679157E+03  0.00000000000E+00 0. -1.
         -1   -1    0    0    0  501 -0.00000000000E+00 -0.00000000000E+00 -0.52504266725E+02  0.52504266725E+02  0.00000000000E+00 0.  1.
         23    2    1    2    0    0  0.26173634459E+02  0.32492622487E+02  0.19597732140E+02  0.10314062701E+03  0.92266397879E+02 0.  0.
          5    1    3    3  502    0  0.19400452320E+02 -0.10536214382E+02  0.46528105654E+02  0.51714059786E+02  0.47000000000E+01 0. -1.
         -5    1    1    2    0  503  0.39588444242E+02 -0.21811420681E+02  0.54894052990E+02  0.71263104362E+02  0.47000000000E+01 0.  1.
          5    1    1    2  503    0 -0.65762078702E+02 -0.10681201806E+02  0.43508073971E+03  0.44017732692E+03  0.47000000000E+01 0. -1.
         -5    1    3    3    0  502  0.67731821394E+01  0.43028836869E+02 -0.26930373515E+02  0.51426567222E+02  0.47000000000E+01 0.  1.
<mgrwt>
<rscale>  0 0.13365816E+03</rscale>
<asrwt>0</asrwt>
<pdfrwt beam="1">  1        1 0.86473349E-01 0.14661520E+03</pdfrwt>
<pdfrwt beam="2">  1       -1 0.80775799E-02 0.14661520E+03</pdfrwt>
<totfact> 0.31924820E+03</totfact>
</mgrwt>
</event>
<event>
 8    1  0.3466492E-004  0.9727072E+02  0.7546771E-02  0.1289951E+00
          1   -1    0    0  501    0  0.00000000000E+00  0.00000000000E+00  0.55402932063E+03  0.55402932063E+03  0.00000000000E+00 0. -1.
         -1   -1    0    0    0  501 -0.00000000000E+00 -0.00000000000E+00 -0.16833545203E+02  0.16833545203E+02  0.00000000000E+00 0.  1.
         23    2    1    2    0    0 -0.13011483899E+02  0.30589833106E+02  0.21118180123E+03  0.23250666012E+03  0.91414206917E+02 0.  0.
         23    2    1    2    0    0  0.13011483899E+02 -0.30589833106E+02  0.32601397419E+03  0.33835620571E+03  0.84230481248E+02 0.  0.
          5    1    4    4  502    0  0.35243270511E+02 -0.12405915151E+02  0.28814753510E+03  0.29059780940E+03  0.47000000000E+01 0. -1.
         -5    1    3    3    0  503 -0.41310918401E+02  0.25940122755E+02  0.55089746955E+02  0.73732300706E+02  0.47000000000E+01 0.  1.
          5    1    3    3  503    0  0.28299434502E+02  0.46497103509E+01  0.15609205428E+03  0.15877435942E+03  0.47000000000E+01 0. -1.
         -5    1    4    4    0  502 -0.22231786612E+02 -0.18183917955E+02  0.37866439099E+02  0.47758396311E+02  0.47000000000E+01 0.  1.
<mgrwt>
<rscale>  0 0.95545908E+02</rscale>
<asrwt>0</asrwt>
<pdfrwt beam="1">  1        1 0.85235266E-01 0.97270724E+02</pdfrwt>
<pdfrwt beam="2">  1       -1 0.25897766E-02 0.97270724E+02</pdfrwt>
<totfact> 0.16901522E+04</totfact>
</mgrwt>
</event>
<event>
 8    1  0.3466492E-004  0.9121867E+02  0.7546771E-02  0.1300368E+00
         -2   -1    0    0    0  501 -0.00000000000E+00  0.00000000000E+00  0.38022411575E+02  0.38022411575E+02  0.00000000000E+00 0.  1.
          2   -1    0    0  501    0  0.00000000000E+00 -0.00000000000E+00 -0.31109825402E+03  0.31109825402E+03  0.00000000000E+00 0. -1.
         23    2    1    2    0    0 -0.69613573055E+01 -0.33930707477E+01 -0.23211715680E+03  0.24912837067E+03  0.90147640938E+02 0.  0.
         23    2    1    2    0    0  0.69613573055E+01  0.33930707477E+01 -0.40958685645E+02  0.99992294926E+02  0.90889337604E+02 0.  0.
          5    1    4    4  502    0 -0.25040086874E+02  0.26643045128E+02 -0.46968521006E+02  0.59707535285E+02  0.47000000000E+01 0. -1.
         -5    1    4    4    0  502  0.32001444179E+02 -0.23249974380E+02  0.60098353610E+01  0.40284759641E+02  0.47000000000E+01 0.  1.
          5    1    3    3  503    0 -0.31881115126E+02 -0.33076600873E+02 -0.16640155924E+03  0.17269057862E+03  0.47000000000E+01 0. -1.
         -5    1    3    3    0  503  0.24919757821E+02  0.29683530125E+02 -0.65715597563E+02  0.76437792051E+02  0.47000000000E+01 0.  1.
<mgrwt>
<rscale>  0 0.91033353E+02</rscale>
<asrwt>0</asrwt>
<pdfrwt beam="1">  1        2 0.47861268E-01 0.91218666E+02</pdfrwt>
<pdfrwt beam="2">  1       -2 0.58496020E-02 0.91218666E+02</pdfrwt>
<totfact> 0.14661004E+04</totfact>
</mgrwt>
</event>
<event>
 8    1  0.3466492E-004  0.9766160E+02  0.7546771E-02  0.1286460E+00
         -1   -1    0    0    0  501 -0.00000000000E+00  0.00000000000E+00  0.19360783021E+02  0.19360783021E+02  0.00000000000E+00 0.  1.
          1   -1    0    0  501    0  0.00000000000E+00 -0.00000000000E+00 -0.59670429886E+03  0.59670429886E+03  0.00000000000E+00 0. -1.
         23    2    1    2    0    0  0.18726208566E+02  0.30383176421E+02 -0.15103437213E+03  0.17871250852E+03  0.88616989554E+02 0.  0.
         23    2    1    2    0    0 -0.18726208566E+02 -0.30383176421E+02 -0.42630914370E+03  0.43735257336E+03  0.90906430610E+02 0.  0.
          5    1    4    4  502    0 -0.26326007078E+02 -0.54213860929E+02 -0.37746938706E+03  0.38227925595E+03  0.47000000000E+01 0. -1.
         -5    1    4    4    0  502  0.75997985111E+01  0.23830684508E+02 -0.48839756644E+02  0.55073317410E+02  0.47000000000E+01 0.  1.
          5    1    3    3  503    0  0.26825606245E+02 -0.24657524308E+02 -0.82533728893E+02  0.90341092866E+02  0.47000000000E+01 0. -1.
         -5    1    3    3    0  503 -0.80993976781E+01  0.55040700729E+02 -0.68500643242E+02  0.88371415650E+02  0.47000000000E+01 0.  1.
<mgrwt>
<rscale>  0 0.97125341E+02</rscale>
<asrwt>0</asrwt>
<pdfrwt beam="1">  1        1 0.91800667E-01 0.97661596E+02</pdfrwt>
<pdfrwt beam="2">  1       -1 0.29785818E-02 0.97661596E+02</pdfrwt>
<totfact> 0.12524476E+04</totfact>
</mgrwt>
</event>
<event>
 8    1  0.3466492E-004  0.9824037E+02  0.7546771E-02  0.1284638E+00
         -3   -1    0    0    0  501 -0.00000000000E+00  0.00000000000E+00  0.69496549848E+02  0.69496549848E+02  0.00000000000E+00 0.  1.
          3   -1    0    0  501    0  0.00000000000E+00 -0.00000000000E+00 -0.25469813164E+03  0.25469813164E+03  0.00000000000E+00 0. -1.
         23    2    1    2    0    0 -0.33077602321E+02 -0.23153775197E+01  0.17723760115E+02  0.98739885358E+02  0.91301393962E+02 0.  0.
         23    2    1    2    0    0  0.33077602321E+02  0.23153775197E+01 -0.20292534190E+03  0.22545479613E+03  0.92475304601E+02 0.  0.
          5    1    3    3  502    0  0.12665504908E+02  0.22626443377E+02 -0.20965182063E+02  0.33674913710E+02  0.47000000000E+01 0. -1.
         -5    1    4    4    0  503  0.55572422418E+02  0.79394759734E+00 -0.65135275443E+02  0.85753242465E+02  0.47000000000E+01 0.  1.
          5    1    4    4  503    0 -0.22494820096E+02  0.15214299224E+01 -0.13779006646E+03  0.13970155366E+03  0.47000000000E+01 0. -1.
         -5    1    3    3    0  502 -0.45743107230E+02 -0.24941820897E+02  0.38688942178E+02  0.65064971648E+02  0.47000000000E+01 0.  1.
<mgrwt>
<rscale>  0 0.97963147E+02</rscale>
<asrwt>0</asrwt>
<pdfrwt beam="1">  1        3 0.39184328E-01 0.98240372E+02</pdfrwt>
<pdfrwt beam="2">  1       -3 0.10691777E-01 0.98240372E+02</pdfrwt>
<totfact> 0.93189390E+02</totfact>
</mgrwt>
</event>
<event>
 8    1  0.3466492E-004  0.1069288E+03  0.7546771E-02  0.1267424E+00
          3   -1    0    0  501    0  0.00000000000E+00  0.00000000000E+00  0.81771836009E+03  0.81771836009E+03  0.00000000000E+00 0. -1.
         -3   -1    0    0    0  501 -0.00000000000E+00 -0.00000000000E+00 -0.17371080430E+02  0.17371080430E+02  0.00000000000E+00 0.  1.
         23    2    1    2    0    0  0.53286831679E+02  0.20843838398E+02  0.58889031798E+03  0.59813414613E+03  0.87742225487E+02 0.  0.
         23    2    1    2    0    0 -0.53286831679E+02 -0.20843838398E+02  0.21145696168E+03  0.23695529438E+03  0.90331682505E+02 0.  0.
          5    1    3    3  502    0  0.57658354321E+02  0.48979499723E+02  0.41505189145E+03  0.42191662662E+03  0.47000000000E+01 0.  1.
         -5    1    4    4    0  503 -0.44055935768E+02  0.21713359528E+02  0.52383037411E+02  0.71961573543E+02  0.47000000000E+01 0.  1.
          5    1    4    4  503    0 -0.92308959113E+01 -0.42557197926E+02  0.15907392427E+03  0.16499372084E+03  0.47000000000E+01 0. -1.
         -5    1    3    3    0  502 -0.43715226415E+01 -0.28135661325E+02  0.17383842652E+03  0.17621751952E+03  0.47000000000E+01 0. -1.
<mgrwt>
<rscale>  0 0.10637998E+03</rscale>
<asrwt>0</asrwt>
<pdfrwt beam="1">  1        3 0.12580279E+00 0.10692878E+03</pdfrwt>
<pdfrwt beam="2">  1       -3 0.26724745E-02 0.10692878E+03</pdfrwt>
<totfact> 0.72026192E+02</totfact>
</mgrwt>
</event>
<event>
 8    1  0.3466492E-004  0.9605863E+02  0.7546771E-02  0.1290543E+00
         -2   -1    0    0    0  501 -0.00000000000E+00  0.00000000000E+00  0.75403465552E+02  0.75403465552E+02  0.00000000000E+00 0.  1.
          2   -1    0    0  501    0  0.00000000000E+00 -0.00000000000E+00 -0.11849330075E+03  0.11849330075E+03  0.00000000000E+00 0. -1.
         23    2    1    2    0    0  0.18792111653E+02 -0.10362139983E+02 -0.21558938432E+02  0.98448196756E+02  0.93630882794E+02 0.  0.
         23    2    1    2    0    0 -0.18792111653E+02  0.10362139983E+02 -0.21530896766E+02  0.95448569546E+02  0.90478353806E+02 0.  0.
          5    1    4    4  502    0  0.25471363938E+02  0.15418485561E+02 -0.37298545567E+02  0.47956142248E+02  0.47000000000E+01 0. -1.
         -5    1    3    3    0  503 -0.29163621792E+02 -0.11232286374E+01 -0.36678464496E+02  0.47108154670E+02  0.47000000000E+01 0.  1.
          5    1    3    3  503    0  0.47955733445E+02 -0.92389113453E+01  0.15119526065E+02  0.51340042087E+02  0.47000000000E+01 0. -1.
         -5    1    4    4    0  502 -0.44263475591E+02 -0.50563455778E+01  0.15767648801E+02  0.47492427298E+02  0.47000000000E+01 0.  1.
<mgrwt>
<rscale>  0 0.95281704E+02</rscale>
<asrwt>0</asrwt>
<pdfrwt beam="1">  1        2 0.18229738E-01 0.96058626E+02</pdfrwt>
<pdfrwt beam="2">  1       -2 0.11600533E-01 0.96058626E+02</pdfrwt>
<totfact> 0.14576624E+04</totfact>
</mgrwt>
</event>
<event>
 8    1  0.3466492E-004  0.9958810E+02  0.7546771E-02  0.1281974E+00
         -1   -1    0    0    0  501 -0.00000000000E+00  0.00000000000E+00  0.15764035554E+03  0.15764035554E+03  0.00000000000E+00 0.  1.
          1   -1    0    0  501    0  0.00000000000E+00 -0.00000000000E+00 -0.64950417669E+02  0.64950417669E+02  0.00000000000E+00 0. -1.
         23    2    1    2    0    0  0.34666978398E+02  0.92448928463E+01  0.22798678995E+02  0.10216442395E+03  0.92900604534E+02 0.  0.
         23    2    1    2    0    0 -0.34666978398E+02 -0.92448928463E+01  0.69891258881E+02  0.12042634926E+03  0.91271299396E+02 0.  0.
          5    1    3    3  502    0  0.85040589433E+01  0.39093714275E+02 -0.18818859009E+02  0.44462084620E+02  0.47000000000E+01 0. -1.
         -5    1    3    3    0  502  0.26162919454E+02 -0.29848821429E+02  0.41617538003E+02  0.57702339333E+02  0.47000000000E+01 0.  1.
          5    1    4    4  503    0 -0.23867374498E+01  0.39073076516E+02  0.23297844969E+02  0.45796085032E+02  0.47000000000E+01 0. -1.
         -5    1    4    4    0  503 -0.32280240948E+02 -0.48317969362E+02  0.46593413912E+02  0.74630264229E+02  0.47000000000E+01 0.  1.
<mgrwt>
<rscale>  0 0.99206377E+02</rscale>
<asrwt>0</asrwt>
<pdfrwt beam="1">  1        1 0.99923720E-02 0.99588100E+02</pdfrwt>
<pdfrwt beam="2">  1       -1 0.24252362E-01 0.99588100E+02</pdfrwt>
<totfact> 0.86338017E+03</totfact>
</mgrwt>
</event>
<event>
 8    1  0.3466492E-004  0.1018985E+03  0.7546771E-02  0.1276757E+00
          1   -1    0    0  501    0  0.00000000000E+00  0.00000000000E+00  0.73809067625E+03  0.73809067625E+03  0.00000000000E+00 0. -1.
         -1   -1    0    0    0  501 -0.00000000000E+00 -0.00000000000E+00 -0.19170089464E+02  0.19170089464E+02  0.00000000000E+00 0.  1.
         23    2    1    2    0    0  0.41510698431E+02  0.19968539971E+02  0.16307791080E+03  0.19229586434E+03  0.90892319692E+02 0.  0.
         23    2    1    2    0    0 -0.41510698431E+02 -0.19968539971E+02  0.55584267598E+03  0.56496490137E+03  0.90013213821E+02 0.  0.
          5    1    3    3  502    0 -0.23307416587E+02 -0.10417387230E+02  0.22010027116E+02  0.34033643917E+02  0.47000000000E+01 0. -1.
         -5    1    3    3    0  502  0.64818115018E+02  0.30385927201E+02  0.14106788368E+03  0.15826222042E+03  0.47000000000E+01 0.  1.
          5    1    4    4  503    0 -0.61875328388E+02  0.11364512415E+02  0.32431468828E+03  0.33039342523E+03  0.47000000000E+01 0. -1.
         -5    1    4    4    0  503  0.20364629957E+02 -0.31333052386E+02  0.23152798771E+03  0.23457147614E+03  0.47000000000E+01 0.  1.
<mgrwt>
<rscale>  0 0.10170204E+03</rscale>
<asrwt>0</asrwt>
<pdfrwt beam="1">  1        1 0.11355239E+00 0.10189845E+03</pdfrwt>
<pdfrwt beam="2">  1       -1 0.29492451E-02 0.10189845E+03</pdfrwt>
<totfact> 0.94881703E+03</totfact>
</mgrwt>
</event>
<event>
 8    1  0.3466492E-004  0.1566709E+03  0.7546771E-02  0.1192570E+00
          2   -1    0    0  501    0  0.00000000000E+00  0.00000000000E+00  0.10818009105E+03  0.10818009105E+03  0.00000000000E+00 0. -1.
         -2   -1    0    0    0  501 -0.00000000000E+00 -0.00000000000E+00 -0.22720995808E+03  0.22720995808E+03  0.00000000000E+00 0.  1.
         23    2    1    2    0    0 -0.11496964411E+03 -0.54381398528E+02 -0.68356563804E+02  0.17093389567E+03  0.91490006565E+02 0.  0.
         23    2    1    2    0    0  0.11496964411E+03  0.54381398528E+02 -0.50673303229E+02  0.16445615346E+03  0.91119082402E+02 0.  0.
          5    1    3    3  502    0 -0.74651594962E+01 -0.20977680802E+02 -0.52411257322E+02  0.57138617346E+02  0.47000000000E+01 0. -1.
         -5    1    4    4    0  503  0.19630331753E+02  0.56585923968E+02 -0.11077972073E+02  0.61091146505E+02  0.47000000000E+01 0.  1.
          5    1    4    4  503    0  0.95339312357E+02 -0.22045254408E+01 -0.39595331156E+02  0.10336500695E+03  0.47000000000E+01 0. -1.
         -5    1    3    3    0  502 -0.10750448461E+03 -0.33403717726E+02 -0.15945306481E+02  0.11379527832E+03  0.47000000000E+01 0.  1.
<mgrwt>
<rscale>  0 0.15661681E+03</rscale>
<asrwt>0</asrwt>
<pdfrwt beam="1">  1        2 0.16643091E-01 0.15667092E+03</pdfrwt>
<pdfrwt beam="2">  1       -2 0.34955378E-01 0.15667092E+03</pdfrwt>
<totfact> 0.25782788E+03</totfact>
</mgrwt>
</event>
<event>
 8    1  0.3466492E-004  0.9402239E+02  0.7546771E-02  0.1296123E+00
          1   -1    0    0  501    0  0.00000000000E+00  0.00000000000E+00  0.60737542677E+02  0.60737542677E+02  0.00000000000E+00 0. -1.
         -1   -1    0    0    0  501 -0.00000000000E+00 -0.00000000000E+00 -0.19976765208E+03  0.19976765208E+03  0.00000000000E+00 0.  1.
         23    2    1    2    0    0  0.12901398039E+01 -0.19842419109E+02  0.38629824022E+01  0.89453605059E+02  0.87130010721E+02 0.  0.
         23    2    1    2    0    0 -0.12901398039E+01  0.19842419109E+02 -0.14289309181E+03  0.17105158970E+03  0.91895726755E+02 0.  0.
          5    1    4    4  502    0  0.36156384804E+02  0.22874228677E+02 -0.31324784215E+02  0.53233885879E+02  0.47000000000E+01 0. -1.
         -5    1    4    4    0  502 -0.37446524608E+02 -0.30318095674E+01 -0.11156830760E+03  0.11781770382E+03  0.47000000000E+01 0.  1.
          5    1    3    3  503    0  0.16243382615E+02 -0.50885868008E+02 -0.40964495234E+01  0.53778154863E+02  0.47000000000E+01 0. -1.
         -5    1    3    3    0  503 -0.14953242811E+02  0.31043448899E+02  0.79594319256E+01  0.35675450196E+02  0.47000000000E+01 0.  1.
<mgrwt>
<rscale>  0 0.92837109E+02</rscale>
<asrwt>0</asrwt>
<pdfrwt beam="1">  1        1 0.93442373E-02 0.94022394E+02</pdfrwt>
<pdfrwt beam="2">  1       -1 0.30733485E-01 0.94022394E+02</pdfrwt>
<totfact> 0.63550051E+03</totfact>
</mgrwt>
</event>
<event>
 8    1  0.3466492E-004  0.9211130E+02  0.7546771E-02  0.1298291E+00
         -1   -1    0    0    0  501 -0.00000000000E+00  0.00000000000E+00  0.14514503101E+03  0.14514503101E+03  0.00000000000E+00 0.  1.
          1   -1    0    0  501    0  0.00000000000E+00 -0.00000000000E+00 -0.67628058463E+02  0.67628058463E+02  0.00000000000E+00 0. -1.
         23    2    1    2    0    0  0.75360887960E+01  0.55673433916E+01  0.79155481629E+02  0.12144991828E+03  0.91633533336E+02 0.  0.
         23    2    1    2    0    0 -0.75360887960E+01 -0.55673433916E+01 -0.16385090792E+01  0.91323171195E+02  0.90826477078E+02 0.  0.
          5    1    4    4  502    0 -0.15032687646E+02 -0.44003437298E+02  0.14160175320E+02  0.48835281887E+02  0.47000000000E+01 0. -1.
         -5    1    3    3    0  503 -0.34240470077E+02 -0.89575134177E+01  0.66047610870E+02  0.75080115473E+02  0.47000000000E+01 0.  1.
          5    1    3    3  503    0  0.41776558873E+02  0.14524856809E+02  0.13107870759E+02  0.46369802808E+02  0.47000000000E+01 0. -1.
         -5    1    4    4    0  502  0.74965988498E+01  0.38436093906E+02 -0.15798684400E+02  0.42487889308E+02  0.47000000000E+01 0.  1.
<mgrwt>
<rscale>  0 0.91909937E+02</rscale>
<asrwt>0</asrwt>
<pdfrwt beam="1">  1        1 0.10404317E-01 0.92111304E+02</pdfrwt>
<pdfrwt beam="2">  1       -1 0.22330005E-01 0.92111304E+02</pdfrwt>
<totfact> 0.92913309E+03</totfact>
</mgrwt>
</event>
<event>
 8    1  0.3466492E-004  0.1514659E+03  0.7546771E-02  0.1200069E+00
         -2   -1    0    0    0  501 -0.00000000000E+00  0.00000000000E+00  0.30063137263E+02  0.30063137263E+02  0.00000000000E+00 0.  1.
          2   -1    0    0  501    0  0.00000000000E+00 -0.00000000000E+00 -0.10178880826E+04  0.10178880826E+04  0.00000000000E+00 0. -1.
         23    2    1    2    0    0 -0.11450827393E+03  0.10551528128E+02 -0.76193409398E+03  0.77597956107E+03  0.91527242286E+02 0.  0.
         23    2    1    2    0    0  0.11450827393E+03 -0.10551528128E+02 -0.22589085131E+03  0.27197165875E+03  0.98582082110E+02 0.  0.
          5    1    4    4  502    0  0.10236117959E+03 -0.44986185093E+02 -0.14556213006E+03  0.18360825593E+03  0.47000000000E+01 0. -1.
         -5    1    4    4    0  502  0.12147094341E+02  0.34434656965E+02 -0.80328721246E+02  0.88363402821E+02  0.47000000000E+01 0.  1.
          5    1    3    3  503    0 -0.40046653931E+02 -0.39019461961E+02 -0.24511975714E+03  0.25145981437E+03  0.47000000000E+01 0. -1.
         -5    1    3    3    0  503 -0.74461619999E+02  0.49570990090E+02 -0.51681433685E+03  0.52451974670E+03  0.47000000000E+01 0.  1.
<mgrwt>
<rscale>  0 0.15032963E+03</rscale>
<asrwt>0</asrwt>
<pdfrwt beam="1">  1        2 0.15659817E+00 0.15146586E+03</pdfrwt>
<pdfrwt beam="2">  1       -2 0.46250978E-02 0.15146586E+03</pdfrwt>
<totfact> 0.55267179E+03</totfact>
</mgrwt>
</event>
<event>
 8    1  0.3466492E-004  0.1647171E+03  0.7546771E-02  0.1190054E+00
          1   -1    0    0  501    0  0.00000000000E+00  0.00000000000E+00  0.56411656712E+03  0.56411656712E+03  0.00000000000E+00 0. -1.
         -1   -1    0    0    0  501 -0.00000000000E+00 -0.00000000000E+00 -0.60530554889E+02  0.60530554889E+02  0.00000000000E+00 0.  1.
         23    2    1    2    0    0 -0.11225217160E+03 -0.40340222531E+01  0.41264190535E+03  0.43649142959E+03  0.87376213488E+02 0.  0.
         23    2    1    2    0    0  0.11225217160E+03  0.40340222531E+01  0.90944106880E+02  0.18815569243E+03  0.12047784299E+03 0.  0.
          5    1    4    4  502    0  0.47430225984E+02  0.37679038547E+02  0.97283232858E+02  0.11469722611E+03  0.47000000000E+01 0. -1.
         -5    1    3    3    0  503 -0.83378875762E+02  0.37367435392E+02  0.25669933205E+03  0.27251605315E+03  0.47000000000E+01 0.  1.
          5    1    3    3  503    0 -0.28873295838E+02 -0.41401457645E+02  0.15594257331E+03  0.16397537644E+03  0.47000000000E+01 0. -1.
         -5    1    4    4    0  502  0.64821945615E+02 -0.33645016293E+02 -0.63391259785E+01  0.73458466312E+02  0.47000000000E+01 0.  1.
<mgrwt>
<rscale>  0 0.15880385E+03</rscale>
<asrwt>0</asrwt>
<pdfrwt beam="1">  1        1 0.86787161E-01 0.16471713E+03</pdfrwt>
<pdfrwt beam="2">  1       -1 0.93123934E-02 0.16471713E+03</pdfrwt>
<totfact> 0.25693347E+03</totfact>
</mgrwt>
</event>
<event>
 8    1  0.3466492E-004  0.1008362E+03  0.7546771E-02  0.1280437E+00
         -1   -1    0    0    0  501 -0.00000000000E+00  0.00000000000E+00  0.97053015171E+01  0.97053015171E+01  0.00000000000E+00 0.  1.
          1   -1    0    0  501    0  0.00000000000E+00 -0.00000000000E+00 -0.12260130260E+04  0.12260130260E+04  0.00000000000E+00 0. -1.
         23    2    1    2    0    0  0.38475385370E+02  0.14328877820E+01 -0.85786745351E+03  0.86336450506E+03  0.89326884832E+02 0.  0.
         23    2    1    2    0    0 -0.38475385370E+02 -0.14328877820E+01 -0.35844027095E+03  0.37235382244E+03  0.93196205921E+02 0.  0.
          5    1    4    4  502    0  0.25457538396E+02 -0.55542393047E+01 -0.19422429636E+03  0.19602067016E+03  0.47000000000E+01 0. -1.
         -5    1    4    4    0  502 -0.63932923767E+02  0.41213515227E+01 -0.16421597459E+03  0.17633315228E+03  0.47000000000E+01 0.  1.
          5    1    3    3  503    0  0.25642521348E+02  0.44398981689E+02 -0.50843152568E+03  0.51103181387E+03  0.47000000000E+01 0. -1.
         -5    1    3    3    0  503  0.12832864022E+02 -0.42966093907E+02 -0.34943592783E+03  0.35233269119E+03  0.47000000000E+01 0.  1.
<mgrwt>
<rscale>  0 0.99932911E+02</rscale>
<asrwt>0</asrwt>
<pdfrwt beam="1">  1        1 0.18861721E+00 0.10083621E+03</pdfrwt>
<pdfrwt beam="2">  1       -1 0.14931247E-02 0.10083621E+03</pdfrwt>
<totfact> 0.10963873E+04</totfact>
</mgrwt>
</event>
<event>
 8    1  0.3466492E-004  0.2604886E+03  0.7546771E-02  0.1106868E+00
          2   -1    0    0  501    0  0.00000000000E+00  0.00000000000E+00  0.22610975368E+04  0.22610975368E+04  0.00000000000E+00 0. -1.
         -2   -1    0    0    0  501 -0.00000000000E+00 -0.00000000000E+00 -0.30730409001E+02  0.30730409001E+02  0.00000000000E+00 0.  1.
         23    2    1    2    0    0 -0.19948641275E+03  0.14032789037E+03  0.12926173528E+04  0.13186030130E+04  0.91474255017E+02 0.  0.
         23    2    1    2    0    0  0.19948641275E+03 -0.14032789037E+03  0.93774977502E+03  0.97322493287E+03  0.91133877994E+02 0.  0.
          5    1    3    3  502    0 -0.14731016374E+03  0.49208678442E+02  0.77161606408E+03  0.78710559566E+03  0.47000000000E+01 0. -1.
         -5    1    4    4    0  503  0.11568638251E+03 -0.70399131283E+02  0.34816708548E+03  0.37360645898E+03  0.47000000000E+01 0.  1.
          5    1    4    4  503    0  0.83800030235E+02 -0.69928759085E+02  0.58958268955E+03  0.59961847389E+03  0.47000000000E+01 0. -1.
         -5    1    3    3    0  502 -0.52176249002E+02  0.91119211926E+02  0.52100128874E+03  0.53149741732E+03  0.47000000000E+01 0.  1.
<mgrwt>
<rscale>  0 0.26045871E+03</rscale>
<asrwt>0</asrwt>
<pdfrwt beam="1">  1        2 0.34786103E+00 0.26048855E+03</pdfrwt>
<pdfrwt beam="2">  1       -2 0.47277570E-02 0.26048855E+03</pdfrwt>
<totfact> 0.11533595E+03</totfact>
</mgrwt>
</event>
<event>
 8    1  0.3466492E-004  0.9867598E+02  0.7546771E-02  0.1284729E+00
          2   -1    0    0  501    0  0.00000000000E+00  0.00000000000E+00  0.82948750732E+03  0.82948750732E+03  0.00000000000E+00 0. -1.
         -2   -1    0    0    0  501 -0.00000000000E+00 -0.00000000000E+00 -0.11620562338E+02  0.11620562338E+02  0.00000000000E+00 0.  1.
         23    2    1    2    0    0  0.23090000429E+02  0.20178566245E+02  0.47480584025E+03  0.48495106527E+03  0.93790335935E+02 0.  0.
         23    2    1    2    0    0 -0.23090000429E+02 -0.20178566245E+02  0.34306110473E+03  0.35615700439E+03  0.90645284155E+02 0.  0.
          5    1    3    3  502    0 -0.12382068855E+02  0.49759870845E+02  0.21955282805E+03  0.22551029839E+03  0.47000000000E+01 0. -1.
         -5    1    3    3    0  502  0.35472069284E+02 -0.29581304600E+02  0.25525301220E+03  0.25944076688E+03  0.47000000000E+01 0.  1.
          5    1    4    4  503    0 -0.45901960238E+02 -0.36213792298E+02  0.29157817420E+03  0.29741948553E+03  0.47000000000E+01 0. -1.
         -5    1    4    4    0  503  0.22811959809E+02  0.16035226053E+02  0.51482930534E+02  0.58737518855E+02  0.47000000000E+01 0.  1.
<mgrwt>
<rscale>  0 0.97921284E+02</rscale>
<asrwt>0</asrwt>
<pdfrwt beam="1">  1        2 0.12761342E+00 0.98675984E+02</pdfrwt>
<pdfrwt beam="2">  1       -2 0.17877795E-02 0.98675984E+02</pdfrwt>
<totfact> 0.28298670E+04</totfact>
</mgrwt>
</event>
<event>
 8    1  0.3466492E-004  0.1017549E+03  0.7546771E-02  0.1278360E+00
         -1   -1    0    0    0  501 -0.00000000000E+00  0.00000000000E+00  0.26388397900E+02  0.26388397900E+02  0.00000000000E+00 0.  1.
          1   -1    0    0  501    0  0.00000000000E+00 -0.00000000000E+00 -0.52524436040E+03  0.52524436040E+03  0.00000000000E+00 0. -1.
         23    2    1    2    0    0 -0.22420728666E+02 -0.41684302739E+02 -0.39157998842E+03  0.40377406261E+03  0.86361658953E+02 0.  0.
         23    2    1    2    0    0  0.22420728666E+02  0.41684302739E+02 -0.10727597408E+03  0.14785869569E+03  0.90076573577E+02 0.  0.
          5    1    3    3  502    0 -0.16924532740E+02  0.22442142269E+02 -0.66479543860E+02  0.72330555852E+02  0.47000000000E+01 0.  1.
         -5    1    3    3    0  502 -0.54961959266E+01 -0.64126445008E+02 -0.32510044456E+03  0.33144350675E+03  0.47000000000E+01 0. -1.
          5    1    4    4  503    0 -0.31811935692E+02  0.92418708241E+01 -0.16914863522E+02  0.37491519531E+02  0.47000000000E+01 0. -1.
         -5    1    4    4    0  503  0.54232664358E+02  0.32442431915E+02 -0.90361110557E+02  0.11036717616E+03  0.47000000000E+01 0.  1.
<mgrwt>
<rscale>  0 0.10092649E+03</rscale>
<asrwt>0</asrwt>
<pdfrwt beam="1">  1        1 0.80806818E-01 0.10175490E+03</pdfrwt>
<pdfrwt beam="2">  1       -1 0.40597539E-02 0.10175490E+03</pdfrwt>
<totfact> 0.94921755E+03</totfact>
</mgrwt>
</event>
<event>
 8    1  0.3466492E-004  0.1860639E+03  0.7546771E-02  0.1162080E+00
          1   -1    0    0  501    0  0.00000000000E+00  0.00000000000E+00  0.12001304265E+04  0.12001304265E+04  0.00000000000E+00 0. -1.
         -1   -1    0    0    0  501 -0.00000000000E+00 -0.00000000000E+00 -0.50249916241E+02  0.50249916241E+02  0.00000000000E+00 0.  1.
         23    2    1    2    0    0  0.15014589484E+03  0.60220013763E+02  0.16671183311E+03  0.24976031863E+03  0.91744981722E+02 0.  0.
         23    2    1    2    0    0 -0.15014589484E+03 -0.60220013763E+02  0.98316867717E+03  0.10006200241E+04  0.91921407305E+02 0.  0.
          5    1    3    3  502    0  0.59647722584E+01  0.33373799293E+02  0.57226559646E+02  0.66681017660E+02  0.47000000000E+01 0. -1.
         -5    1    4    4    0  503 -0.15421913938E+02  0.18277036190E+02  0.67643565137E+02  0.71900120903E+02  0.47000000000E+01 0.  1.
          5    1    4    4  503    0 -0.13472398090E+03 -0.78497049953E+02  0.91552511204E+03  0.92871990323E+03  0.47000000000E+01 0. -1.
         -5    1    3    3    0  502  0.14418112258E+03  0.26846214470E+02  0.10948527346E+03  0.18307930097E+03  0.47000000000E+01 0.  1.
<mgrwt>
<rscale>  0 0.18604215E+03</rscale>
<asrwt>0</asrwt>
<pdfrwt beam="1">  1        1 0.18463543E+00 0.18606393E+03</pdfrwt>
<pdfrwt beam="2">  1       -1 0.77307573E-02 0.18606393E+03</pdfrwt>
<totfact> 0.10440930E+03</totfact>
</mgrwt>
</event>
<event>
 8    1  0.3466492E-004  0.9373351E+02  0.7546771E-02  0.1294858E+00
          1   -1    0    0  501    0  0.00000000000E+00  0.00000000000E+00  0.29008888737E+03  0.29008888737E+03  0.00000000000E+00 0. -1.
         -1   -1    0    0    0  501 -0.00000000000E+00 -0.00000000000E+00 -0.50017349593E+02  0.50017349593E+02  0.00000000000E+00 0.  1.
         23    2    1    2    0    0  0.10892179581E+02  0.22153490044E+02  0.12563068603E+02  0.94571671583E+02  0.90424298041E+02 0.  0.
         23    2    1    2    0    0 -0.10892179581E+02 -0.22153490044E+02  0.22750846917E+03  0.24553456538E+03  0.88981473089E+02 0.  0.
          5    1    3    3  502    0  0.37216812020E+02  0.35320573610E+02  0.30411434221E+02  0.59829585896E+02  0.47000000000E+01 0. -1.
         -5    1    3    3    0  502 -0.26324632439E+02 -0.13167083567E+02 -0.17848365618E+02  0.34742085687E+02  0.47000000000E+01 0.  1.
          5    1    4    4  503    0  0.64777138966E+01 -0.49100764982E+02  0.18782834039E+03  0.19430496996E+03  0.47000000000E+01 0. -1.
         -5    1    4    4    0  503 -0.17369893478E+02  0.26947274939E+02  0.39680128782E+02  0.51229595414E+02  0.47000000000E+01 0.  1.
<mgrwt>
<rscale>  0 0.93383779E+02</rscale>
<asrwt>0</asrwt>
<pdfrwt beam="1">  1        1 0.44629058E-01 0.93733507E+02</pdfrwt>
<pdfrwt beam="2">  1       -1 0.76949771E-02 0.93733507E+02</pdfrwt>
<totfact> 0.77225522E+03</totfact>
</mgrwt>
</event>
<event>
 8    1  0.3466492E-004  0.9932596E+02  0.7546771E-02  0.1293156E+00
         -2   -1    0    0    0  501 -0.00000000000E+00  0.00000000000E+00  0.59492113739E+02  0.59492113739E+02  0.00000000000E+00 0.  1.
          2   -1    0    0  501    0  0.00000000000E+00 -0.00000000000E+00 -0.13604866067E+03  0.13604866067E+03  0.00000000000E+00 0. -1.
         23    2    1    2    0    0 -0.16450196714E+02 -0.31857581592E+02 -0.35104625315E+02  0.10534695791E+03  0.92629003800E+02 0.  0.
         23    2    1    2    0    0  0.16450196714E+02  0.31857581592E+02 -0.41451921617E+02  0.90193816502E+02  0.71632033704E+02 0.  0.
          5    1    3    3  502    0  0.28720393033E+02 -0.34986147910E+02  0.35237595937E+01  0.45644259258E+02  0.47000000000E+01 0. -1.
         -5    1    3    3    0  502 -0.45170589748E+02  0.31285663177E+01 -0.38628384909E+02  0.59702698649E+02  0.47000000000E+01 0.  1.
          5    1    4    4  503    0  0.38103086629E+02  0.68903467409E+01 -0.41306564221E+02  0.56812360774E+02  0.47000000000E+01 0. -1.
         -5    1    4    4    0  503 -0.21652889915E+02  0.24967234851E+02 -0.14535739593E+00  0.33381455729E+02  0.47000000000E+01 0.  1.
<mgrwt>
<rscale>  0 0.94126246E+02</rscale>
<asrwt>0</asrwt>
<pdfrwt beam="1">  1        2 0.20930563E-01 0.99325962E+02</pdfrwt>
<pdfrwt beam="2">  1       -2 0.91526330E-02 0.99325962E+02</pdfrwt>
<totfact> 0.18138787E+04</totfact>
</mgrwt>
</event>
<event>
 8    1  0.3466492E-004  0.1315690E+03  0.7546771E-02  0.1225933E+00
         -2   -1    0    0    0  501 -0.00000000000E+00  0.00000000000E+00  0.67905586386E+02  0.67905586386E+02  0.00000000000E+00 0.  1.
          2   -1    0    0  501    0  0.00000000000E+00 -0.00000000000E+00 -0.34430462809E+03  0.34430462809E+03  0.00000000000E+00 0. -1.
         23    2    1    2    0    0  0.60016100868E+02 -0.67504689529E+02 -0.31617315426E+02  0.13531462103E+03  0.95663872792E+02 0.  0.
         23    2    1    2    0    0 -0.60016100868E+02  0.67504689529E+02 -0.24478172628E+03  0.27689559344E+03  0.92705235443E+02 0.  0.
          5    1    3    3  502    0  0.18654316354E+02  0.23897256673E+02 -0.26857854002E+01  0.30795549002E+02  0.47000000000E+01 0. -1.
         -5    1    3    3    0  502  0.41361784513E+02 -0.91401946202E+02 -0.28931530026E+02  0.10451907203E+03  0.47000000000E+01 0.  1.
          5    1    4    4  503    0 -0.38471612243E+02  0.17837533141E+02 -0.20539831218E+03  0.20978274281E+03  0.47000000000E+01 0. -1.
         -5    1    4    4    0  503 -0.21544488625E+02  0.49667156388E+02 -0.39383414099E+02  0.67112850631E+02  0.47000000000E+01 0.  1.
<mgrwt>
<rscale>  0 0.13103186E+03</rscale>
<asrwt>0</asrwt>
<pdfrwt beam="1">  1        2 0.52969945E-01 0.13156896E+03</pdfrwt>
<pdfrwt beam="2">  1       -2 0.10447013E-01 0.13156896E+03</pdfrwt>
<totfact> 0.55663773E+03</totfact>
</mgrwt>
</event>
<event>
 8    1  0.3466492E-004  0.1098468E+03  0.7546771E-02  0.1261756E+00
          1   -1    0    0  501    0  0.00000000000E+00  0.00000000000E+00  0.61908913442E+03  0.61908913442E+03  0.00000000000E+00 0. -1.
         -1   -1    0    0    0  501 -0.00000000000E+00 -0.00000000000E+00 -0.62575696457E+02  0.62575696457E+02  0.00000000000E+00 0.  1.
         23    2    1    2    0    0  0.16016804770E+02 -0.58896121391E+02 -0.64221922063E+01  0.10811200572E+03  0.89003764400E+02 0.  0.
         23    2    1    2    0    0 -0.16016804770E+02  0.58896121391E+02  0.56293563017E+03  0.57355282516E+03  0.91329230723E+02 0.  0.
          5    1    4    4  502    0  0.37566471594E+02  0.32547959191E+02  0.26193165874E+03  0.26664750756E+03  0.47000000000E+01 0. -1.
         -5    1    4    4    0  502 -0.53583276364E+02  0.26348162200E+02  0.30100397143E+03  0.30690531761E+03  0.47000000000E+01 0.  1.
          5    1    3    3  503    0  0.18431123859E+01 -0.40024545660E+02  0.39377984840E+02  0.56374435772E+02  0.47000000000E+01 0. -1.
         -5    1    3    3    0  503  0.14173692384E+02 -0.18871575731E+02 -0.45800177046E+02  0.51737569945E+02  0.47000000000E+01 0.  1.
<mgrwt>
<rscale>  0 0.10936217E+03</rscale>
<asrwt>0</asrwt>
<pdfrwt beam="1">  1        1 0.95244478E-01 0.10984680E+03</pdfrwt>
<pdfrwt beam="2">  1       -1 0.96270306E-02 0.10984680E+03</pdfrwt>
<totfact> 0.21273890E+03</totfact>
</mgrwt>
</event>
<event>
 8    1  0.3466492E-004  0.1403771E+03  0.7546771E-02  0.1212897E+00
         -2   -1    0    0    0  501 -0.00000000000E+00  0.00000000000E+00  0.10787974705E+03  0.10787974705E+03  0.00000000000E+00 0.  1.
          2   -1    0    0  501    0  0.00000000000E+00 -0.00000000000E+00 -0.27645461967E+03  0.27645461967E+03  0.00000000000E+00 0. -1.
         23    2    1    2    0    0  0.50112735129E+02  0.94442379419E+02 -0.19643476042E+03  0.24143809414E+03  0.90967515894E+02 0.  0.
         23    2    1    2    0    0 -0.50112735129E+02 -0.94442379419E+02  0.27859887799E+02  0.14289627258E+03  0.90622966826E+02 0.  0.
          5    1    3    3  502    0  0.21606147752E+02 -0.10610849411E+02 -0.71909281501E+02  0.75976644516E+02  0.47000000000E+01 0.  1.
         -5    1    4    4    0  503 -0.31545335222E+02 -0.56007941936E+02  0.60931808654E+02  0.88694830965E+02  0.47000000000E+01 0.  1.
          5    1    4    4  503    0 -0.18567399907E+02 -0.38434437484E+02 -0.33071920855E+02  0.54201441614E+02  0.47000000000E+01 0. -1.
         -5    1    3    3    0  502  0.28506587377E+02  0.10505322883E+03 -0.12452547892E+03  0.16546144962E+03  0.47000000000E+01 0. -1.
<mgrwt>
<rscale>  0 0.14032134E+03</rscale>
<asrwt>0</asrwt>
<pdfrwt beam="1">  1        2 0.42531479E-01 0.14037713E+03</pdfrwt>
<pdfrwt beam="2">  1       -2 0.16596884E-01 0.14037713E+03</pdfrwt>
<totfact> 0.33412290E+03</totfact>
</mgrwt>
</event>
<event>
 8    1  0.3466492E-004  0.1068191E+03  0.7546771E-02  0.1267018E+00
         -1   -1    0    0    0  501 -0.00000000000E+00  0.00000000000E+00  0.45501941268E+02  0.45501941268E+02  0.00000000000E+00 0.  1.
          1   -1    0    0  501    0  0.00000000000E+00 -0.00000000000E+00 -0.64203246493E+03  0.64203246493E+03  0.00000000000E+00 0. -1.
         23    2    1    2    0    0 -0.55695782848E+02  0.19938867184E+02 -0.28674311909E+02  0.10971868923E+03  0.87843018796E+02 0.  0.
         23    2    1    2    0    0  0.55695782848E+02 -0.19938867184E+02 -0.56785621176E+03  0.57781571697E+03  0.88942379647E+02 0.  0.
          5    1    4    4  502    0  0.72422412309E+02 -0.34422457393E+02 -0.49663676403E+03  0.50309052542E+03  0.47000000000E+01 0. -1.
         -5    1    3    3    0  503 -0.12195715274E+02  0.30849653569E+02  0.23375251950E+02  0.40852527463E+02  0.47000000000E+01 0.  1.
          5    1    3    3  503    0 -0.43500067574E+02 -0.10910786385E+02 -0.52049563859E+02  0.68866161766E+02  0.47000000000E+01 0. -1.
         -5    1    4    4    0  502 -0.16726629461E+02  0.14483590209E+02 -0.71219447722E+02  0.74725191551E+02  0.47000000000E+01 0.  1.
<mgrwt>
<rscale>  0 0.10658998E+03</rscale>
<asrwt>0</asrwt>
<pdfrwt beam="1">  1        1 0.98774227E-01 0.10681913E+03</pdfrwt>
<pdfrwt beam="2">  1       -1 0.70002986E-02 0.10681913E+03</pdfrwt>
<totfact> 0.32625392E+03</totfact>
</mgrwt>
</event>
<event>
 8    1  0.3466492E-004  0.1608022E+03  0.7546771E-02  0.1187824E+00
          1   -1    0    0  501    0  0.00000000000E+00  0.00000000000E+00  0.72680679214E+03  0.72680679214E+03  0.00000000000E+00 0. -1.
         -1   -1    0    0    0  501 -0.00000000000E+00 -0.00000000000E+00 -0.38666037782E+02  0.38666037782E+02  0.00000000000E+00 0.  1.
         23    2    1    2    0    0 -0.73206295071E+02  0.11014391072E+03  0.45276700171E+03  0.48047402927E+03  0.91468531506E+02 0.  0.
         23    2    1    2    0    0  0.73206295071E+02 -0.11014391072E+03  0.23537375265E+03  0.28499880065E+03  0.91283460894E+02 0.  0.
          5    1    4    4  502    0  0.78676658716E+01 -0.33834248030E+02  0.14698549708E+03  0.15110752085E+03  0.47000000000E+01 0. -1.
         -5    1    4    4    0  502  0.65338629200E+02 -0.76309662689E+02  0.88388255571E+02  0.13389127981E+03  0.47000000000E+01 0.  1.
          5    1    3    3  503    0 -0.59759648948E+02  0.11403212993E+02  0.17553514500E+03  0.18583844070E+03  0.47000000000E+01 0. -1.
         -5    1    3    3    0  503 -0.13446646123E+02  0.98740697726E+02  0.27723185670E+03  0.29463558857E+03  0.47000000000E+01 0.  1.
<mgrwt>
<rscale>  0 0.16077585E+03</rscale>
<asrwt>0</asrwt>
<pdfrwt beam="1">  1        1 0.11181642E+00 0.16080216E+03</pdfrwt>
<pdfrwt beam="2">  1       -1 0.59486217E-02 0.16080216E+03</pdfrwt>
<totfact> 0.35447108E+03</totfact>
</mgrwt>
</event>
<event>
 8    1  0.3466492E-004  0.1131074E+03  0.7546771E-02  0.1259903E+00
         -1   -1    0    0    0  501 -0.00000000000E+00  0.00000000000E+00  0.94666125616E+02  0.94666125616E+02  0.00000000000E+00 0.  1.
          1   -1    0    0  501    0  0.00000000000E+00 -0.00000000000E+00 -0.12672497657E+03  0.12672497657E+03  0.00000000000E+00 0. -1.
         23    2    1    2    0    0  0.33284943634E+02  0.27635928638E+02  0.27108273871E+01  0.11313986608E+03  0.10450669207E+03 0.  0.
         23    2    1    2    0    0 -0.33284943634E+02 -0.27635928638E+02 -0.34769678342E+02  0.10825123611E+03  0.92939590930E+02 0.  0.
          5    1    4    4  502    0 -0.53751801610E+02 -0.35299746660E+02 -0.49665616091E+02  0.81388523222E+02  0.47000000000E+01 0. -1.
         -5    1    4    4    0  502  0.20466857976E+02  0.76638180211E+01  0.14895937750E+02  0.26862712885E+02  0.47000000000E+01 0.  1.
          5    1    3    3  503    0 -0.37013666802E+02  0.59306642539E+01 -0.80729387765E+01  0.38632197052E+02  0.47000000000E+01 0. -1.
         -5    1    3    3    0  503  0.70298610436E+02  0.21705264384E+02  0.10783766164E+02  0.74507669027E+02  0.47000000000E+01 0.  1.
<mgrwt>
<rscale>  0 0.11036096E+03</rscale>
<asrwt>0</asrwt>
<pdfrwt beam="1">  1        1 0.19496150E-01 0.11310739E+03</pdfrwt>
<pdfrwt beam="2">  1       -1 0.14564019E-01 0.11310739E+03</pdfrwt>
<totfact> 0.82774502E+03</totfact>
</mgrwt>
</event>
<event>
 8    1  0.3466492E-004  0.1196708E+03  0.7546771E-02  0.1244730E+00
          2   -1    0    0  501    0  0.00000000000E+00  0.00000000000E+00  0.26818774717E+02  0.26818774717E+02  0.00000000000E+00 0. -1.
         -2   -1    0    0    0  501 -0.00000000000E+00 -0.00000000000E+00 -0.83084401707E+03  0.83084401707E+03  0.00000000000E+00 0.  1.
         23    2    1    2    0    0  0.15968634606E+02  0.70967289714E+02 -0.13798521514E+03  0.18095722152E+03  0.91729182512E+02 0.  0.
         23    2    1    2    0    0 -0.15968634606E+02 -0.70967289714E+02 -0.66604002722E+03  0.67670557027E+03  0.95025036027E+02 0.  0.
          5    1    3    3  502    0 -0.15161860907E+02  0.82138586088E+02 -0.97775975203E+02  0.12868123670E+03  0.47000000000E+01 0. -1.
         -5    1    4    4    0  503  0.17076261142E+02 -0.68184617997E+02 -0.58182900584E+03  0.58607834191E+03  0.47000000000E+01 0.  1.
          5    1    4    4  503    0 -0.33044895749E+02 -0.27826717168E+01 -0.84211021380E+02  0.90627228352E+02  0.47000000000E+01 0. -1.
         -5    1    3    3    0  502  0.31130495513E+02 -0.11171296374E+02 -0.40209239937E+02  0.52275984829E+02  0.47000000000E+01 0.  1.
<mgrwt>
<rscale>  0 0.11901550E+03</rscale>
<asrwt>0</asrwt>
<pdfrwt beam="1">  1        2 0.41259652E-02 0.11967084E+03</pdfrwt>
<pdfrwt beam="2">  1       -2 0.12782216E+00 0.11967084E+03</pdfrwt>
<totfact> 0.93169218E+02</totfact>
</mgrwt>
</event>
<event>
 8    1  0.3466492E-004  0.1069379E+03  0.7546771E-02  0.1271209E+00
         -1   -1    0    0    0  501 -0.00000000000E+00  0.00000000000E+00  0.82527154555E+02  0.82527154555E+02  0.00000000000E+00 0.  1.
          1   -1    0    0  501    0  0.00000000000E+00 -0.00000000000E+00 -0.13533178763E+03  0.13533178763E+03  0.00000000000E+00 0. -1.
         23    2    1    2    0    0 -0.50350222788E+01  0.38671226870E+02  0.40600460221E+00  0.10693864563E+03  0.99573560011E+02 0.  0.
         23    2    1    2    0    0  0.50350222788E+01 -0.38671226870E+02 -0.53210637679E+02  0.11092029655E+03  0.89169080897E+02 0.  0.
          5    1    3    3  502    0  0.19442481218E+02  0.56683569733E+02 -0.26862044178E+02  0.65838412580E+02  0.47000000000E+01 0. -1.
         -5    1    4    4    0  503  0.42487703935E+02 -0.39523493253E+02 -0.41118786370E+02  0.71275213764E+02  0.47000000000E+01 0.  1.
          5    1    4    4  503    0 -0.37452681656E+02  0.85226638286E+00 -0.12091851310E+02  0.39645082789E+02  0.47000000000E+01 0. -1.
         -5    1    3    3    0  502 -0.24477503497E+02 -0.18012342863E+02  0.27268048780E+02  0.41100233054E+02  0.47000000000E+01 0.  1.
<mgrwt>
<rscale>  0 0.10444882E+03</rscale>
<asrwt>0</asrwt>
<pdfrwt beam="1">  1        1 0.20820275E-01 0.10693787E+03</pdfrwt>
<pdfrwt beam="2">  1       -1 0.12696485E-01 0.10693787E+03</pdfrwt>
<totfact> 0.93771951E+03</totfact>
</mgrwt>
</event>
<event>
 8    1  0.3466492E-004  0.1867182E+03  0.7546771E-02  0.1161734E+00
          2   -1    0    0  501    0  0.00000000000E+00  0.00000000000E+00  0.12964878362E+03  0.12964878362E+03  0.00000000000E+00 0. -1.
         -2   -1    0    0    0  501 -0.00000000000E+00 -0.00000000000E+00 -0.29895547609E+03  0.29895547609E+03  0.00000000000E+00 0.  1.
         23    2    1    2    0    0 -0.15667679496E+03  0.45479580366E+02 -0.14536917673E+02  0.18608130724E+03  0.88311497661E+02 0.  0.
         23    2    1    2    0    0  0.15667679496E+03 -0.45479580366E+02 -0.15476977480E+03  0.24252295246E+03  0.90816787932E+02 0.  0.
          5    1    3    3  502    0 -0.14389285904E+03  0.27620276020E+02  0.16769608935E+02  0.14755115830E+03  0.47000000000E+01 0. -1.
         -5    1    4    4    0  503  0.78091675557E+02 -0.57450199603E+02 -0.12325179907E+03  0.15688190208E+03  0.47000000000E+01 0.  1.
          5    1    4    4  503    0  0.78585119404E+02  0.11970619237E+02 -0.31517975726E+02  0.85641050383E+02  0.47000000000E+01 0. -1.
         -5    1    3    3    0  502 -0.12783935917E+02  0.17859304345E+02 -0.31306526607E+02  0.38530148941E+02  0.47000000000E+01 0.  1.
<mgrwt>
<rscale>  0 0.18641610E+03</rscale>
<asrwt>0</asrwt>
<pdfrwt beam="1">  1        2 0.19945967E-01 0.18671823E+03</pdfrwt>
<pdfrwt beam="2">  1       -2 0.45993150E-01 0.18671823E+03</pdfrwt>
<totfact> 0.12503558E+03</totfact>
</mgrwt>
</event>
<event>
 8    1  0.3466492E-004  0.1072733E+03  0.7546771E-02  0.1270081E+00
          1   -1    0    0  501    0  0.00000000000E+00  0.00000000000E+00  0.93846227321E+02  0.93846227321E+02  0.00000000000E+00 0. -1.
         -1   -1    0    0    0  501 -0.00000000000E+00 -0.00000000000E+00 -0.12824802991E+03  0.12824802991E+03  0.00000000000E+00 0.  1.
         23    2    1    2    0    0 -0.12652237310E+02  0.34969074297E+02  0.21901405420E+02  0.10094303825E+03  0.91251904885E+02 0.  0.
         23    2    1    2    0    0  0.12652237310E+02 -0.34969074297E+02 -0.56303208005E+02  0.12115121898E+03  0.10062132658E+03 0.  0.
          5    1    4    4  502    0  0.45325526070E+02 -0.11711803539E+02  0.54538382660E+01  0.47364586006E+02  0.47000000000E+01 0. -1.
         -5    1    4    4    0  502 -0.32673288761E+02 -0.23257270758E+02 -0.61757046271E+02  0.73786632975E+02  0.47000000000E+01 0.  1.
          5    1    3    3  503    0  0.15127864497E+02  0.50405380854E+02  0.37929161867E+02  0.65040495256E+02  0.47000000000E+01 0. -1.
         -5    1    3    3    0  503 -0.27780101806E+02 -0.15436306557E+02 -0.16027756448E+02  0.35902542991E+02  0.47000000000E+01 0.  1.
<mgrwt>
<rscale>  0 0.10501957E+03</rscale>
<asrwt>0</asrwt>
<pdfrwt beam="1">  1        1 0.14437881E-01 0.10727333E+03</pdfrwt>
<pdfrwt beam="2">  1       -1 0.19730466E-01 0.10727333E+03</pdfrwt>
<totfact> 0.75010449E+03</totfact>
</mgrwt>
</event>
<event>
 7    1  0.3466492E-004  0.1738496E+03  0.7546771E-02  0.1190646E+00
          4   -1    0    0  501    0  0.00000000000E+00  0.00000000000E+00  0.32886487942E+03  0.32886487942E+03  0.00000000000E+00 0. -1.
         -4   -1    0    0    0  501 -0.00000000000E+00 -0.00000000000E+00 -0.69107976784E+02  0.69107976784E+02  0.00000000000E+00 0.  1.
         23    2    1    2    0    0 -0.52326053626E+02 -0.53909574055E+02  0.15241101918E+03  0.19365247917E+03  0.92886521407E+02 0.  0.
          5    1    3    3  502    0 -0.12343295118E+02  0.23922579002E+02  0.16437787307E+02  0.31889458635E+02  0.47000000000E+01 0. -1.
         -5    1    1    2    0  503 -0.11924004032E+02 -0.25953162805E+02 -0.24032332662E+02  0.37621689820E+02  0.47000000000E+01 0.  1.
          5    1    1    2  503    0  0.64250057657E+02  0.79862736860E+02  0.13137821612E+03  0.16669868721E+03  0.47000000000E+01 0. -1.
         -5    1    3    3    0  502 -0.39982758508E+02 -0.77832153057E+02  0.13597323187E+03  0.16176302054E+03  0.47000000000E+01 0.  1.
<mgrwt>
<rscale>  0 0.15828562E+03</rscale>
<asrwt>0</asrwt>
<pdfrwt beam="1">  1        4 0.50594596E-01 0.17384958E+03</pdfrwt>
<pdfrwt beam="2">  1       -4 0.10631997E-01 0.17384958E+03</pdfrwt>
<totfact> 0.44981244E+02</totfact>
</mgrwt>
</event>
<event>
 8    1  0.3466492E-004  0.1002566E+03  0.7546771E-02  0.1281731E+00
         -2   -1    0    0    0  501 -0.00000000000E+00  0.00000000000E+00  0.58471777895E+02  0.58471777895E+02  0.00000000000E+00 0. -1.
          2   -1    0    0  501    0  0.00000000000E+00 -0.00000000000E+00 -0.19932256606E+03  0.19932256606E+03  0.00000000000E+00 0.  1.
         23    2    1    2    0    0  0.93645763653E+00 -0.39119773619E+02 -0.12231441533E+03  0.15583854401E+03  0.88281379478E+02 0.  0.
         23    2    1    2    0    0 -0.93645763653E+00  0.39119773619E+02 -0.18536372835E+02  0.10195579994E+03  0.92304682342E+02 0.  0.
          5    1    3    3  502    0 -0.19653916880E+02  0.19967734435E+02 -0.64655247172E+02  0.70621369670E+02  0.47000000000E+01 0. -1.
         -5    1    4    4    0  503 -0.17403961755E+02 -0.22520328697E+02 -0.24305431090E+02  0.37721440453E+02  0.47000000000E+01 0.  1.
          5    1    4    4  503    0  0.16467504118E+02  0.61640102316E+02  0.57690582545E+01  0.64234359486E+02  0.47000000000E+01 0. -1.
         -5    1    3    3    0  502  0.20590374517E+02 -0.59087508054E+02 -0.57659168155E+02  0.85217174344E+02  0.47000000000E+01 0.  1.
<mgrwt>
<rscale>  0 0.99320732E+02</rscale>
<asrwt>0</asrwt>
<pdfrwt beam="1">  1        2 0.30665010E-01 0.10025661E+03</pdfrwt>
<pdfrwt beam="2">  1       -2 0.89956581E-02 0.10025661E+03</pdfrwt>
<totfact> 0.12291903E+04</totfact>
</mgrwt>
</event>
<event>
 8    1  0.3466492E-004  0.1067316E+03  0.7546771E-02  0.1267278E+00
          2   -1    0    0  501    0  0.00000000000E+00  0.00000000000E+00  0.10455633558E+03  0.10455633558E+03  0.00000000000E+00 0. -1.
         -2   -1    0    0    0  501 -0.00000000000E+00 -0.00000000000E+00 -0.10995214590E+03  0.10995214590E+03  0.00000000000E+00 0.  1.
         23    2    1    2    0    0  0.54861210533E+02 -0.58717463076E+01  0.12207442481E+02  0.10633492682E+03  0.90076995866E+02 0.  0.
         23    2    1    2    0    0 -0.54861210533E+02  0.58717463076E+01 -0.17603252801E+02  0.10817355466E+03  0.91364181121E+02 0.  0.
          5    1    4    4  502    0 -0.83113112160E+01 -0.21457141397E+02 -0.42489488078E+02  0.48548258549E+02  0.47000000000E+01 0. -1.
         -5    1    3    3    0  503 -0.11505368451E+02  0.28227934015E+02  0.46549962998E+01  0.31192126451E+02  0.47000000000E+01 0.  1.
          5    1    3    3  503    0  0.66366578984E+02 -0.34099680323E+02  0.75524461814E+01  0.75142800370E+02  0.47000000000E+01 0. -1.
         -5    1    4    4    0  502 -0.46549899317E+02  0.27328887704E+02  0.24886235277E+02  0.59625296107E+02  0.47000000000E+01 0.  1.
<mgrwt>
<rscale>  0 0.10645563E+03</rscale>
<asrwt>0</asrwt>
<pdfrwt beam="1">  1        2 0.16085590E-01 0.10673164E+03</pdfrwt>
<pdfrwt beam="2">  1       -2 0.16915715E-01 0.10673164E+03</pdfrwt>
<totfact> 0.92501911E+03</totfact>
</mgrwt>
</event>
<event>
 8    1  0.3466492E-004  0.9343865E+02  0.7546771E-02  0.1298801E+00
         -1   -1    0    0    0  501 -0.00000000000E+00  0.00000000000E+00  0.16667063357E+02  0.16667063357E+02  0.00000000000E+00 0.  1.
          1   -1    0    0  501    0  0.00000000000E+00 -0.00000000000E+00 -0.51224093168E+03  0.51224093168E+03  0.00000000000E+00 0. -1.
         23    2    1    2    0    0 -0.30607867544E+02  0.66648180975E+00 -0.19739119564E+03  0.21838971081E+03  0.88280778868E+02 0.  0.
         23    2    1    2    0    0  0.30607867544E+02 -0.66648180975E+00 -0.29818267269E+03  0.31051828423E+03  0.81064251049E+02 0.  0.
          5    1    4    4  502    0 -0.14675749147E+01 -0.27482407644E+02 -0.21972990773E+03  0.22149663396E+03  0.47000000000E+01 0. -1.
         -5    1    4    4    0  502  0.32075442458E+02  0.26815925834E+02 -0.78452764960E+02  0.89021650272E+02  0.47000000000E+01 0.  1.
          5    1    3    3  503    0 -0.56612245512E+02 -0.10805753921E+02 -0.16599781943E+03  0.17578133210E+03  0.47000000000E+01 0. -1.
         -5    1    3    3    0  503  0.26004377968E+02  0.11472235731E+02 -0.31393376204E+02  0.42608378703E+02  0.47000000000E+01 0.  1.
<mgrwt>
<rscale>  0 0.91693913E+02</rscale>
<asrwt>0</asrwt>
<pdfrwt beam="1">  1        1 0.78806286E-01 0.93438652E+02</pdfrwt>
<pdfrwt beam="2">  1       -1 0.25641640E-02 0.93438652E+02</pdfrwt>
<totfact> 0.18918539E+04</totfact>
</mgrwt>
</event>
<event>
 8    1  0.3466492E-004  0.1152506E+03  0.7546771E-02  0.1255523E+00
          1   -1    0    0  501    0  0.00000000000E+00  0.00000000000E+00  0.86118756783E+03  0.86118756783E+03  0.00000000000E+00 0. -1.
         -1   -1    0    0    0  501 -0.00000000000E+00 -0.00000000000E+00 -0.18002715658E+02  0.18002715658E+02  0.00000000000E+00 0.  1.
         23    2    1    2    0    0 -0.21667281683E+02 -0.47064650753E+02  0.23320917599E+03  0.26013308341E+03  0.10294731114E+03 0.  0.
         23    2    1    2    0    0  0.21667281683E+02  0.47064650753E+02  0.60997567619E+03  0.61905720008E+03  0.92070293753E+02 0.  0.
          5    1    3    3  502    0 -0.64920041898E+01  0.26385057549E+02  0.12741862492E+03  0.13036837560E+03  0.47000000000E+01 0. -1.
         -5    1    3    3    0  502 -0.15175277493E+02 -0.73449708302E+02  0.10579055107E+03  0.12976470781E+03  0.47000000000E+01 0.  1.
          5    1    4    4  503    0  0.49710974238E+02  0.43134432322E+02  0.52989131447E+03  0.53398375945E+03  0.47000000000E+01 0. -1.
         -5    1    4    4    0  503 -0.28043692555E+02  0.39302184311E+01  0.80084361718E+02  0.85073440631E+02  0.47000000000E+01 0.  1.
<mgrwt>
<rscale>  0 0.11277106E+03</rscale>
<asrwt>0</asrwt>
<pdfrwt beam="1">  1        1 0.13249036E+00 0.11525060E+03</pdfrwt>
<pdfrwt beam="2">  1       -1 0.27696492E-02 0.11525060E+03</pdfrwt>
<totfact> 0.83207033E+03</totfact>
</mgrwt>
</event>
<event>
 8    1  0.3466492E-004  0.1123742E+03  0.7546771E-02  0.1256558E+00
          1   -1    0    0  501    0  0.00000000000E+00  0.00000000000E+00  0.60790478610E+03  0.60790478610E+03  0.00000000000E+00 0. -1.
         -1   -1    0    0    0  501 -0.00000000000E+00 -0.00000000000E+00 -0.31236615088E+02  0.31236615088E+02  0.00000000000E+00 0.  1.
         23    2    1    2    0    0 -0.55445776575E+02 -0.34034878625E+02  0.10160423811E+03  0.15096755496E+03  0.90747861386E+02 0.  0.
         23    2    1    2    0    0  0.55445776575E+02  0.34034878625E+02  0.47506393290E+03  0.48817384623E+03  0.91626179077E+02 0.  0.
          5    1    4    4  502    0  0.34134449264E+02  0.38379261297E+02  0.45589722576E+03  0.45880551302E+03  0.47000000000E+01 0. -1.
         -5    1    4    4    0  502  0.21311327312E+02 -0.43443826719E+01  0.19166707146E+02  0.29368333208E+02  0.47000000000E+01 0.  1.
          5    1    3    3  503    0 -0.66039996298E+02  0.62591020651E+01  0.79239995773E+02  0.10344817253E+03  0.47000000000E+01 0. -1.
         -5    1    3    3    0  503  0.10594219723E+02 -0.40293980690E+02  0.22364242339E+02  0.47519382433E+02  0.47000000000E+01 0.  1.
<mgrwt>
<rscale>  0 0.11219504E+03</rscale>
<asrwt>0</asrwt>
<pdfrwt beam="1">  1        1 0.93523805E-01 0.11237421E+03</pdfrwt>
<pdfrwt beam="2">  1       -1 0.48056335E-02 0.11237421E+03</pdfrwt>
<totfact> 0.61482143E+03</totfact>
</mgrwt>
</event>
<event>
 8    1  0.3466492E-004  0.1050749E+03  0.7546771E-02  0.1271836E+00
         -3   -1    0    0    0  501 -0.00000000000E+00  0.00000000000E+00  0.46534178359E+02  0.46534178359E+02  0.00000000000E+00 0.  1.
          3   -1    0    0  501    0  0.00000000000E+00 -0.00000000000E+00 -0.30096122807E+03  0.30096122807E+03  0.00000000000E+00 0. -1.
         23    2    1    2    0    0 -0.43849149843E+00  0.46915241676E+02 -0.43973931632E+02  0.11390542140E+03  0.94018648072E+02 0.  0.
         23    2    1    2    0    0  0.43849149843E+00 -0.46915241676E+02 -0.21045311808E+03  0.23358998503E+03  0.89847281648E+02 0.  0.
          5    1    3    3  502    0  0.44109920737E+02  0.35933422577E+02 -0.13615599043E+02  0.58688759595E+02  0.47000000000E+01 0. -1.
         -5    1    3    3    0  502 -0.44548412236E+02  0.10981819099E+02 -0.30358332590E+02  0.55216661807E+02  0.47000000000E+01 0.  1.
          5    1    4    4  503    0  0.29969095639E+02 -0.19160950775E+02 -0.17765887157E+03  0.18124583685E+03  0.47000000000E+01 0. -1.
         -5    1    4    4    0  503 -0.29530604141E+02 -0.27754290901E+02 -0.32794246512E+02  0.52344148180E+02  0.47000000000E+01 0.  1.
<mgrwt>
<rscale>  0 0.10413351E+03</rscale>
<asrwt>0</asrwt>
<pdfrwt beam="1">  1        3 0.46301727E-01 0.10507492E+03</pdfrwt>
<pdfrwt beam="2">  1       -3 0.71591044E-02 0.10507492E+03</pdfrwt>
<totfact> 0.13117620E+03</totfact>
</mgrwt>
</event>
<event>
 8    1  0.3466492E-004  0.2505470E+03  0.7546771E-02  0.1113280E+00
         -1   -1    0    0    0  501 -0.00000000000E+00  0.00000000000E+00  0.49353032190E+02  0.49353032190E+02  0.00000000000E+00 0.  1.
          1   -1    0    0  501    0  0.00000000000E+00 -0.00000000000E+00 -0.13406198789E+04  0.13406198789E+04  0.00000000000E+00 0. -1.
         23    2    1    2    0    0 -0.16971797978E+03  0.16012473784E+03 -0.81182219190E+03  0.84900989969E+03  0.85547730424E+02 0.  0.
         23    2    1    2    0    0  0.16971797978E+03 -0.16012473784E+03 -0.47944465480E+03  0.54096301139E+03  0.91267071556E+02 0.  0.
          5    1    3    3  502    0 -0.15497607962E+03  0.95570747047E+02 -0.59664023772E+03  0.62382130151E+03  0.47000000000E+01 0. -1.
         -5    1    4    4    0  503  0.73568291892E+02 -0.58505794011E+02 -0.10393823069E+03  0.14021578836E+03  0.47000000000E+01 0.  1.
          5    1    4    4  503    0  0.96149687885E+02 -0.10161894383E+03 -0.37550642411E+03  0.40074722304E+03  0.47000000000E+01 0. -1.
         -5    1    3    3    0  502 -0.14741900160E+02  0.64553990790E+02 -0.21518195418E+03  0.22518859818E+03  0.47000000000E+01 0.  1.
<mgrwt>
<rscale>  0 0.25003889E+03</rscale>
<asrwt>0</asrwt>
<pdfrwt beam="1">  1        1 0.20624918E+00 0.25054701E+03</pdfrwt>
<pdfrwt beam="2">  1       -1 0.75927755E-02 0.25054701E+03</pdfrwt>
<totfact> 0.85649776E+02</totfact>
</mgrwt>
</event>
<event>
 8    1  0.3466492E-004  0.9570361E+02  0.7546771E-02  0.1290410E+00
          1   -1    0    0  501    0  0.00000000000E+00  0.00000000000E+00  0.19183229308E+03  0.19183229308E+03  0.00000000000E+00 0. -1.
         -1   -1    0    0    0  501 -0.00000000000E+00 -0.00000000000E+00 -0.54028077145E+02  0.54028077145E+02  0.00000000000E+00 0.  1.
         23    2    1    2    0    0  0.31752553691E+01 -0.23836162318E+02  0.25113010491E+02  0.98943642217E+02  0.92633342586E+02 0.  0.
         23    2    1    2    0    0 -0.31752553691E+01  0.23836162318E+02  0.11269120544E+03  0.14691672801E+03  0.91142593245E+02 0.  0.
          5    1    3    3  502    0  0.12988489046E+02  0.21266671129E+02 -0.21447904548E+02  0.33212569280E+02  0.47000000000E+01 0. -1.
         -5    1    3    3    0  502 -0.98132336772E+01 -0.45102833448E+02  0.46560915040E+02  0.65731072938E+02  0.47000000000E+01 0.  1.
          5    1    4    4  503    0 -0.19801107123E+02 -0.25732461519E+02  0.76266940597E+02  0.83023970317E+02  0.47000000000E+01 0. -1.
         -5    1    4    4    0  503  0.16625851754E+02  0.49568623837E+02  0.36424264844E+02  0.63892757689E+02  0.47000000000E+01 0.  1.
<mgrwt>
<rscale>  0 0.95341010E+02</rscale>
<asrwt>0</asrwt>
<pdfrwt beam="1">  1        1 0.29512660E-01 0.95703610E+02</pdfrwt>
<pdfrwt beam="2">  1       -1 0.83120120E-02 0.95703610E+02</pdfrwt>
<totfact> 0.11437168E+04</totfact>
</mgrwt>
</event>
<event>
 8    1  0.3466492E-004  0.1371756E+03  0.7546771E-02  0.1217674E+00
          1   -1    0    0  501    0  0.00000000000E+00  0.00000000000E+00  0.59686082459E+03  0.59686082459E+03  0.00000000000E+00 0. -1.
         -1   -1    0    0    0  501 -0.00000000000E+00 -0.00000000000E+00 -0.44633865059E+02  0.44633865059E+02  0.00000000000E+00 0.  1.
         23    2    1    2    0    0  0.10051027043E+03 -0.18182326210E+01  0.45307457018E+03  0.47338538743E+03  0.93335622677E+02 0.  0.
         23    2    1    2    0    0 -0.10051027043E+03  0.18182326210E+01  0.99152389349E+02  0.16810930221E+03  0.91235523486E+02 0.  0.
          5    1    4    4  502    0 -0.79188472097E+02 -0.12251417835E+02  0.11305201688E+03  0.13864977415E+03  0.47000000000E+01 0. -1.
         -5    1    3    3    0  503  0.97401724151E+02  0.28237109509E+02  0.28476213113E+03  0.30231769969E+03  0.47000000000E+01 0.  1.
          5    1    3    3  503    0  0.31085462767E+01 -0.30055342130E+02  0.16831243905E+03  0.17106768774E+03  0.47000000000E+01 0. -1.
         -5    1    4    4    0  502 -0.21321798330E+02  0.14069650456E+02 -0.13899627532E+02  0.29459528060E+02  0.47000000000E+01 0.  1.
<mgrwt>
<rscale>  0 0.13681921E+03</rscale>
<asrwt>0</asrwt>
<pdfrwt beam="1">  1        1 0.91824737E-01 0.13717565E+03</pdfrwt>
<pdfrwt beam="2">  1       -1 0.68667489E-02 0.13717565E+03</pdfrwt>
<totfact> 0.37491779E+03</totfact>
</mgrwt>
</event>
<event>
 8    1  0.3466492E-004  0.2241694E+03  0.7546771E-02  0.1133944E+00
         -3   -1    0    0    0  501 -0.00000000000E+00  0.00000000000E+00  0.32800751618E+03  0.32800751618E+03  0.00000000000E+00 0.  1.
          3   -1    0    0  501    0  0.00000000000E+00 -0.00000000000E+00 -0.38293714577E+03  0.38293714577E+03  0.00000000000E+00 0. -1.
         23    2    1    2    0    0  0.95105041541E+02  0.15994173987E+03  0.25474410461E+03  0.32864932306E+03  0.92138426486E+02 0.  0.
         23    2    1    2    0    0 -0.95105041541E+02 -0.15994173987E+03 -0.30967373420E+03  0.38229533889E+03  0.12500230162E+03 0.  0.
          5    1    4    4  502    0 -0.11132332289E+03 -0.11661148323E+03 -0.28993339580E+03  0.33177489996E+03  0.47000000000E+01 0.  1.
         -5    1    4    4    0  502  0.16218281348E+02 -0.43330256637E+02 -0.19740338391E+02  0.50520438932E+02  0.47000000000E+01 0.  1.
          5    1    3    3  503    0  0.32666345103E+02  0.39060954904E+02  0.15585102484E+02  0.53458710421E+02  0.47000000000E+01 0. -1.
         -5    1    3    3    0  503  0.62438696438E+02  0.12088078497E+03  0.23915900213E+03  0.27519061264E+03  0.47000000000E+01 0.  1.
<mgrwt>
<rscale>  0 0.21991851E+03</rscale>
<asrwt>0</asrwt>
<pdfrwt beam="1">  1        3 0.58913407E-01 0.22416937E+03</pdfrwt>
<pdfrwt beam="2">  1       -3 0.50462695E-01 0.22416937E+03</pdfrwt>
<totfact> 0.27599890E+01</totfact>
</mgrwt>
</event>
<event>
 8    1  0.3466492E-004  0.1690251E+03  0.7546771E-02  0.1184107E+00
          1   -1    0    0  501    0  0.00000000000E+00  0.00000000000E+00  0.95992711444E+03  0.95992711444E+03  0.00000000000E+00 0. -1.
         -1   -1    0    0    0  501 -0.00000000000E+00 -0.00000000000E+00 -0.33428127266E+02  0.33428127266E+02  0.00000000000E+00 0.  1.
         23    2    1    2    0    0  0.11257084254E+03  0.49063392791E+02  0.70973456627E+03  0.72958389133E+03  0.11614684162E+03 0.  0.
         23    2    1    2    0    0 -0.11257084254E+03 -0.49063392791E+02  0.21676442090E+03  0.26377135038E+03  0.86655063381E+02 0.  0.
          5    1    3    3  502    0  0.10667351177E+03  0.37203958085E+01  0.61586934221E+03  0.62506816919E+03  0.47000000000E+01 0. -1.
         -5    1    4    4    0  503 -0.94462090589E+02 -0.12915183258E+02  0.92152158241E+02  0.13268006175E+03  0.47000000000E+01 0.  1.
          5    1    4    4  503    0 -0.18108751954E+02 -0.36148209533E+02  0.12461226266E+03  0.13109128863E+03  0.47000000000E+01 0. -1.
         -5    1    3    3    0  502  0.58973307741E+01  0.45342996983E+02  0.93865224060E+02  0.10451572214E+03  0.47000000000E+01 0.  1.
<mgrwt>
<rscale>  0 0.16413434E+03</rscale>
<asrwt>0</asrwt>
<pdfrwt beam="1">  1        1 0.14768107E+00 0.16902515E+03</pdfrwt>
<pdfrwt beam="2">  1       -1 0.51427895E-02 0.16902515E+03</pdfrwt>
<totfact> 0.28646087E+03</totfact>
</mgrwt>
</event>
<event>
 8    1  0.3466492E-004  0.1283001E+03  0.7546771E-02  0.1237685E+00
         -1   -1    0    0    0  501 -0.00000000000E+00  0.00000000000E+00  0.57493899675E+02  0.57493899675E+02  0.00000000000E+00 0.  1.
          1   -1    0    0  501    0  0.00000000000E+00 -0.00000000000E+00 -0.69761251142E+03  0.69761251142E+03  0.00000000000E+00 0. -1.
         23    2    1    2    0    0 -0.56235211089E+02  0.23960651577E+02 -0.77551460232E+01  0.10985881767E+03  0.90952216792E+02 0.  0.
         23    2    1    2    0    0  0.56235211089E+02 -0.23960651577E+02 -0.63236346572E+03  0.64524759343E+03  0.11280244790E+03 0.  0.
          5    1    4    4  502    0  0.79304158808E+00  0.40924478904E+02 -0.25647701827E+03  0.25976526479E+03  0.47000000000E+01 0. -1.
         -5    1    3    3    0  503 -0.28368840664E+02  0.47581221858E+02  0.24636961872E+02  0.60809815691E+02  0.47000000000E+01 0.  1.
          5    1    3    3  503    0 -0.27866370426E+02 -0.23620570281E+02 -0.32392107895E+02  0.49049001977E+02  0.47000000000E+01 0. -1.
         -5    1    4    4    0  502  0.55442169501E+02 -0.64885130481E+02 -0.37588644745E+03  0.38548232864E+03  0.47000000000E+01 0.  1.
<mgrwt>
<rscale>  0 0.12334106E+03</rscale>
<asrwt>0</asrwt>
<pdfrwt beam="1">  1        1 0.10732500E+00 0.12830005E+03</pdfrwt>
<pdfrwt beam="2">  1       -1 0.88452152E-02 0.12830005E+03</pdfrwt>
<totfact> 0.20567935E+03</totfact>
</mgrwt>
</event>
<event>
 8    1  0.3466492E-004  0.1607831E+03  0.7546771E-02  0.1188023E+00
          1   -1    0    0  501    0  0.00000000000E+00  0.00000000000E+00  0.64867476444E+02  0.64867476444E+02  0.00000000000E+00 0. -1.
         -1   -1    0    0    0  501 -0.00000000000E+00 -0.00000000000E+00 -0.51148041347E+03  0.51148041347E+03  0.00000000000E+00 0.  1.
         23    2    1    2    0    0  0.11689984330E+03 -0.60638606069E+02 -0.36021689426E+03  0.39447104428E+03  0.92241964161E+02 0.  0.
         23    2    1    2    0    0 -0.11689984330E+03  0.60638606069E+02 -0.86396042761E+02  0.18187684563E+03  0.90952167987E+02 0.  0.
          5    1    4    4  502    0 -0.85739759548E+02  0.64425444874E+02 -0.21282194309E+02  0.10943932615E+03  0.47000000000E+01 0. -1.
         -5    1    4    4    0  502 -0.31160083757E+02 -0.37868388046E+01 -0.65113848452E+02  0.72437519478E+02  0.47000000000E+01 0.  1.
          5    1    3    3  503    0  0.62072225686E+02  0.15405460285E+02 -0.11142690713E+03  0.12856257248E+03  0.47000000000E+01 0. -1.
         -5    1    3    3    0  503  0.54827617619E+02 -0.76044066354E+02 -0.24878998713E+03  0.26590847180E+03  0.47000000000E+01 0.  1.
<mgrwt>
<rscale>  0 0.16059863E+03</rscale>
<asrwt>0</asrwt>
<pdfrwt beam="1">  1        1 0.99796123E-02 0.16078306E+03</pdfrwt>
<pdfrwt beam="2">  1       -1 0.78689290E-01 0.16078306E+03</pdfrwt>
<totfact> 0.10737613E+03</totfact>
</mgrwt>
</event>
<event>
 8    1  0.3466492E-004  0.9173570E+02  0.7546771E-02  0.1299953E+00
          1   -1    0    0  501    0  0.00000000000E+00  0.00000000000E+00  0.12806731030E+03  0.12806731030E+03  0.00000000000E+00 0. -1.
         -1   -1    0    0    0  501 -0.00000000000E+00 -0.00000000000E+00 -0.11138761380E+03  0.11138761380E+03  0.00000000000E+00 0.  1.
         23    2    1    2    0    0  0.50822829042E+00  0.33982823780E+00 -0.69623011214E+02  0.11350415381E+03  0.89640702039E+02 0.  0.
         23    2    1    2    0    0 -0.50822829042E+00 -0.33982823780E+00  0.86302707719E+02  0.12595077029E+03  0.91733665570E+02 0.  0.
          5    1    4    4  502    0 -0.33632624599E+02 -0.30986446258E+02  0.49254873829E+02  0.67375410092E+02  0.47000000000E+01 0. -1.
         -5    1    4    4    0  502  0.33124396308E+02  0.30646618021E+02  0.37047833890E+02  0.58575360202E+02  0.47000000000E+01 0.  1.
          5    1    3    3  503    0  0.36236965380E+02 -0.75322324256E+01 -0.66796634525E+02  0.76509689381E+02  0.47000000000E+01 0. -1.
         -5    1    3    3    0  503 -0.35728737090E+02  0.78720606634E+01 -0.28263766892E+01  0.36994464428E+02  0.47000000000E+01 0.  1.
<mgrwt>
<rscale>  0 0.91207937E+02</rscale>
<asrwt>0</asrwt>
<pdfrwt beam="1">  1        1 0.19702663E-01 0.91735703E+02</pdfrwt>
<pdfrwt beam="2">  1       -1 0.17136556E-01 0.91735703E+02</pdfrwt>
<totfact> 0.62311685E+03</totfact>
</mgrwt>
</event>
<event>
 8    1  0.3466492E-004  0.1011204E+03  0.7546771E-02  0.1279379E+00
         -1   -1    0    0    0  501 -0.00000000000E+00  0.00000000000E+00  0.44612551731E+02  0.44612551731E+02  0.00000000000E+00 0.  1.
          1   -1    0    0  501    0  0.00000000000E+00 -0.00000000000E+00 -0.27748067487E+03  0.27748067487E+03  0.00000000000E+00 0. -1.
         23    2    1    2    0    0 -0.19560639267E+01  0.34047950405E+02 -0.46421863500E+02  0.11126694325E+03  0.95195872477E+02 0.  0.
         23    2    1    2    0    0  0.19560639267E+01 -0.34047950405E+02 -0.18644625963E+03  0.21082628335E+03  0.92316980589E+02 0.  0.
          5    1    4    4  502    0 -0.38264857594E+02 -0.32457257974E+02 -0.14200170731E+03  0.15067928790E+03  0.47000000000E+01 0. -1.
         -5    1    3    3    0  503 -0.40303403079E+02  0.43826075934E+02 -0.37193162096E+02  0.70359864541E+02  0.47000000000E+01 0.  1.
          5    1    3    3  503    0  0.38347339152E+02 -0.97781255294E+01 -0.92287014035E+01  0.40907078709E+02  0.47000000000E+01 0. -1.
         -5    1    4    4    0  502  0.40220921520E+02 -0.15906924307E+01 -0.44444552322E+02  0.60146995448E+02  0.47000000000E+01 0.  1.
<mgrwt>
<rscale>  0 0.10043719E+03</rscale>
<asrwt>0</asrwt>
<pdfrwt beam="1">  1        1 0.42689334E-01 0.10112044E+03</pdfrwt>
<pdfrwt beam="2">  1       -1 0.68634695E-02 0.10112044E+03</pdfrwt>
<totfact> 0.97261365E+03</totfact>
</mgrwt>
</event>
<event>
 8    1  0.3466492E-004  0.1058718E+03  0.7546771E-02  0.1269473E+00
          1   -1    0    0  501    0  0.00000000000E+00  0.00000000000E+00  0.11606708695E+04  0.11606708695E+04  0.00000000000E+00 0. -1.
         -1   -1    0    0    0  501 -0.00000000000E+00 -0.00000000000E+00 -0.99373841267E+01  0.99373841267E+01  0.00000000000E+00 0.  1.
         23    2    1    2    0    0  0.45912587574E+02  0.22625391413E+02  0.70906353546E+03  0.71692393648E+03  0.92676638637E+02 0.  0.
         23    2    1    2    0    0 -0.45912587574E+02 -0.22625391413E+02  0.44166994990E+03  0.45368431713E+03  0.90206656799E+02 0.  0.
          5    1    4    4  502    0 -0.54650092821E+02  0.12777405896E+02  0.35644207384E+03  0.36086415276E+03  0.47000000000E+01 0. -1.
         -5    1    3    3    0  503  0.39316205409E+02 -0.30212422255E+02  0.42168096272E+03  0.42461215101E+03  0.47000000000E+01 0.  1.
          5    1    3    3  503    0  0.65963821655E+01  0.52837813668E+02  0.28738257274E+03  0.29231178547E+03  0.47000000000E+01 0. -1.
         -5    1    4    4    0  502  0.87375052469E+01 -0.35402797308E+02  0.85227876056E+02  0.92820164362E+02  0.47000000000E+01 0.  1.
<mgrwt>
<rscale>  0 0.10532880E+03</rscale>
<asrwt>0</asrwt>
<pdfrwt beam="1">  1        1 0.17856464E+00 0.10587178E+03</pdfrwt>
<pdfrwt beam="2">  1       -1 0.15288292E-02 0.10587178E+03</pdfrwt>
<totfact> 0.11775832E+04</totfact>
</mgrwt>
</event>
<event>
 8    1  0.3466492E-004  0.9486290E+02  0.7546771E-02  0.1291588E+00
         -2   -1    0    0    0  501 -0.00000000000E+00  0.00000000000E+00  0.27423376971E+03  0.27423376971E+03  0.00000000000E+00 0.  1.
          2   -1    0    0  501    0  0.00000000000E+00 -0.00000000000E+00 -0.37268924894E+02  0.37268924894E+02  0.00000000000E+00 0. -1.
         23    2    1    2    0    0  0.11313374810E+02  0.20780855736E+02  0.17280703383E+03  0.19713254754E+03  0.91864759003E+02 0.  0.
         23    2    1    2    0    0 -0.11313374810E+02 -0.20780855736E+02  0.64157810994E+02  0.11437014706E+03  0.91675893306E+02 0.  0.
          5    1    3    3  502    0  0.50333875821E+02  0.92702559823E+01  0.11806570789E+03  0.12876737973E+03  0.47000000000E+01 0. -1.
         -5    1    3    3    0  502 -0.39020501012E+02  0.11510599753E+02  0.54741325932E+02  0.68365167817E+02  0.47000000000E+01 0.  1.
          5    1    4    4  503    0  0.12393033088E+02 -0.52431858933E+02  0.44092560179E+02  0.69777725410E+02  0.47000000000E+01 0. -1.
         -5    1    4    4    0  503 -0.23706407897E+02  0.31651003197E+02  0.20065250814E+02  0.44592421655E+02  0.47000000000E+01 0.  1.
<mgrwt>
<rscale>  0 0.94817149E+02</rscale>
<asrwt>0</asrwt>
<pdfrwt beam="1">  1        2 0.57336809E-02 0.94862903E+02</pdfrwt>
<pdfrwt beam="2">  1       -2 0.42189809E-01 0.94862903E+02</pdfrwt>
<totfact> 0.64487303E+03</totfact>
</mgrwt>
</event>
<event>
 8    1  0.3466492E-004  0.9286996E+02  0.7546771E-02  0.1297312E+00
          2   -1    0    0  501    0  0.00000000000E+00  0.00000000000E+00  0.56582751189E+03  0.56582751189E+03  0.00000000000E+00 0. -1.
         -2   -1    0    0    0  501 -0.00000000000E+00 -0.00000000000E+00 -0.19011846205E+02  0.19011846205E+02  0.00000000000E+00 0.  1.
         23    2    1    2    0    0  0.75181768995E+01 -0.27535734731E+01  0.13979550372E+03  0.16783209386E+03  0.92524179088E+02 0.  0.
         23    2    1    2    0    0 -0.75181768995E+01  0.27535734731E+01  0.40702016196E+03  0.41700726424E+03  0.90363383266E+02 0.  0.
          5    1    3    3  502    0 -0.34080479657E+02  0.32686492295E+01  0.18130249920E+02  0.39025108887E+02  0.47000000000E+01 0. -1.
         -5    1    3    3    0  502  0.41598656557E+02 -0.60222227026E+01  0.12166525380E+03  0.12880698497E+03  0.47000000000E+01 0.  1.
          5    1    4    4  503    0 -0.40664075054E+02 -0.21656555558E+02  0.16121309122E+03  0.16773289534E+03  0.47000000000E+01 0. -1.
         -5    1    4    4    0  503  0.33145898155E+02  0.24410129031E+02  0.24580707074E+03  0.24927436890E+03  0.47000000000E+01 0.  1.
<mgrwt>
<rscale>  0 0.92327075E+02</rscale>
<asrwt>0</asrwt>
<pdfrwt beam="1">  1        2 0.87050374E-01 0.92869957E+02</pdfrwt>
<pdfrwt beam="2">  1       -2 0.29248998E-02 0.92869957E+02</pdfrwt>
<totfact> 0.21587046E+04</totfact>
</mgrwt>
</event>
<event>
 8    1  0.3466492E-004  0.1070987E+03  0.7546771E-02  0.1266338E+00
         -2   -1    0    0    0  501 -0.00000000000E+00  0.00000000000E+00  0.16411988421E+02  0.16411988421E+02  0.00000000000E+00 0.  1.
          2   -1    0    0  501    0  0.00000000000E+00 -0.00000000000E+00 -0.80568989501E+03  0.80568989501E+03  0.00000000000E+00 0. -1.
         23    2    1    2    0    0  0.10121621739E+02  0.54419268068E+02 -0.24117659136E+03  0.26363507655E+03  0.90958239877E+02 0.  0.
         23    2    1    2    0    0 -0.10121621739E+02 -0.54419268068E+02 -0.54810131523E+03  0.55846680688E+03  0.91685433270E+02 0.  0.
          5    1    4    4  502    0  0.13661705900E+02 -0.66702146077E+02 -0.48476717621E+03  0.48954787675E+03  0.47000000000E+01 0. -1.
         -5    1    4    4    0  502 -0.23783327640E+02  0.12282878009E+02 -0.63334139014E+02  0.68918930131E+02  0.47000000000E+01 0.  1.
          5    1    3    3  503    0 -0.27250562935E+02 -0.11886068391E+02 -0.62726027114E+02  0.69573818924E+02  0.47000000000E+01 0. -1.
         -5    1    3    3    0  503  0.37372184675E+02  0.66305336459E+02 -0.17845056425E+03  0.19406125762E+03  0.47000000000E+01 0.  1.
<mgrwt>
<rscale>  0 0.10694285E+03</rscale>
<asrwt>0</asrwt>
<pdfrwt beam="1">  1        2 0.12395231E+00 0.10709866E+03</pdfrwt>
<pdfrwt beam="2">  1       -2 0.25249209E-02 0.10709866E+03</pdfrwt>
<totfact> 0.17953915E+04</totfact>
</mgrwt>
</event>
<event>
 8    1  0.3466492E-004  0.9185021E+02  0.7546771E-02  0.1299278E+00
          2   -1    0    0  501    0  0.00000000000E+00  0.00000000000E+00  0.31763291633E+03  0.31763291633E+03  0.00000000000E+00 0. -1.
         -2   -1    0    0    0  501 -0.00000000000E+00 -0.00000000000E+00 -0.29208293669E+02  0.29208293669E+02  0.00000000000E+00 0.  1.
         23    2    1    2    0    0 -0.21988450833E+01 -0.11268424077E+02  0.19931441175E+03  0.21886820156E+03  0.89695276467E+02 0.  0.
         23    2    1    2    0    0  0.21988450833E+01  0.11268424077E+02  0.89110210911E+02  0.12797300844E+03  0.91129846375E+02 0.  0.
          5    1    3    3  502    0 -0.80536278759E+01 -0.40148865647E+02  0.42365326599E+02  0.59107556476E+02  0.47000000000E+01 0. -1.
         -5    1    3    3    0  502  0.58547827926E+01  0.28880441570E+02  0.15694908515E+03  0.15976064508E+03  0.47000000000E+01 0.  1.
          5    1    4    4  503    0  0.27934607050E+02  0.40110160071E+02  0.31164295784E+02  0.58159010856E+02  0.47000000000E+01 0. -1.
         -5    1    4    4    0  503 -0.25735761967E+02 -0.28841735994E+02  0.57945915127E+02  0.69813997587E+02  0.47000000000E+01 0.  1.
<mgrwt>
<rscale>  0 0.91492339E+02</rscale>
<asrwt>0</asrwt>
<pdfrwt beam="1">  1        2 0.48866600E-01 0.91850211E+02</pdfrwt>
<pdfrwt beam="2">  1       -2 0.44935839E-02 0.91850211E+02</pdfrwt>
<totfact> 0.21254302E+04</totfact>
</mgrwt>
</event>
<event>
 8    1  0.3466492E-004  0.9336506E+02  0.7546771E-02  0.1295438E+00
          1   -1    0    0  501    0  0.00000000000E+00  0.00000000000E+00  0.19225393488E+03  0.19225393488E+03  0.00000000000E+00 0. -1.
         -1   -1    0    0    0  501 -0.00000000000E+00 -0.00000000000E+00 -0.45066970944E+02  0.45066970944E+02  0.00000000000E+00 0.  1.
         23    2    1    2    0    0  0.89001934248E+01  0.12866480407E+02  0.65853917089E+02  0.11349805051E+03  0.91106033352E+02 0.  0.
         23    2    1    2    0    0 -0.89001934248E+01 -0.12866480407E+02  0.81333046843E+02  0.12382285531E+03  0.92044963071E+02 0.  0.
          5    1    3    3  502    0  0.42767479346E+02  0.10114636851E+02  0.61255076981E+01  0.44620343038E+02  0.47000000000E+01 0. -1.
         -5    1    3    3    0  502 -0.33867285921E+02  0.27518435561E+01  0.59728409391E+02  0.68877707475E+02  0.47000000000E+01 0.  1.
          5    1    4    4  503    0 -0.12908426634E+02 -0.39257439755E+02  0.86729497931E+02  0.96186640786E+02  0.47000000000E+01 0. -1.
         -5    1    4    4    0  503  0.40082332088E+01  0.26390959348E+02 -0.53964510875E+01  0.27636214522E+02  0.47000000000E+01 0.  1.
<mgrwt>
<rscale>  0 0.93132818E+02</rscale>
<asrwt>0</asrwt>
<pdfrwt beam="1">  1        1 0.29577528E-01 0.93365063E+02</pdfrwt>
<pdfrwt beam="2">  1       -1 0.69333802E-02 0.93365063E+02</pdfrwt>
<totfact> 0.14910807E+04</totfact>
</mgrwt>
</event>
<event>
 8    1  0.3466492E-004  0.1415724E+03  0.7546771E-02  0.1211527E+00
          1   -1    0    0  501    0  0.00000000000E+00  0.00000000000E+00  0.35652565726E+02  0.35652565726E+02  0.00000000000E+00 0. -1.
         -1   -1    0    0    0  501 -0.00000000000E+00 -0.00000000000E+00 -0.56454882743E+03  0.56454882743E+03  0.00000000000E+00 0.  1.
         23    2    1    2    0    0  0.10193623946E+03 -0.36161296105E+02 -0.23285138227E+03  0.27204697369E+03  0.89950838878E+02 0.  0.
         23    2    1    2    0    0 -0.10193623946E+03  0.36161296105E+02 -0.29604487943E+03  0.32815441947E+03  0.91346133615E+02 0.  0.
          5    1    4    4  502    0 -0.65320083919E+02  0.45741944458E+02 -0.97815545461E+02  0.12628938902E+03  0.47000000000E+01 0. -1.
         -5    1    3    3    0  503  0.92698730572E+00 -0.33245190190E+02 -0.97123658251E+02  0.10276768446E+03  0.47000000000E+01 0.  1.
          5    1    3    3  503    0  0.10100925216E+03 -0.29161059149E+01 -0.13572772402E+03  0.16927928923E+03  0.47000000000E+01 0. -1.
         -5    1    4    4    0  502 -0.36616155545E+02 -0.95806483537E+01 -0.19822933397E+03  0.20186503045E+03  0.47000000000E+01 0.  1.
<mgrwt>
<rscale>  0 0.14134783E+03</rscale>
<asrwt>0</asrwt>
<pdfrwt beam="1">  1        1 0.54850107E-02 0.14157243E+03</pdfrwt>
<pdfrwt beam="2">  1       -1 0.86853657E-01 0.14157243E+03</pdfrwt>
<totfact> 0.19538958E+03</totfact>
</mgrwt>
</event>
<event>
 8    1  0.3466492E-004  0.1046994E+03  0.7546771E-02  0.1273066E+00
         -1   -1    0    0    0  501 -0.00000000000E+00  0.00000000000E+00  0.20421326112E+02  0.20421326112E+02  0.00000000000E+00 0.  1.
          1   -1    0    0  501    0  0.00000000000E+00 -0.00000000000E+00 -0.57406841104E+03  0.57406841104E+03  0.00000000000E+00 0. -1.
         23    2    1    2    0    0  0.40009521558E+02 -0.29461608384E+02 -0.17447820756E+03  0.20113112557E+03  0.86846626743E+02 0.  0.
         23    2    1    2    0    0 -0.40009521558E+02  0.29461608384E+02 -0.37916887737E+03  0.39335861159E+03  0.92158621707E+02 0.  0.
          5    1    4    4  502    0  0.17600936848E+02  0.24961540608E+02 -0.24838722870E+03  0.25030217112E+03  0.47000000000E+01 0. -1.
         -5    1    3    3    0  503  0.55415225841E+02 -0.49136816684E+02 -0.12159309043E+03  0.14245084643E+03  0.47000000000E+01 0.  1.
          5    1    3    3  503    0 -0.15405704283E+02  0.19675208300E+02 -0.52885117130E+02  0.58680279141E+02  0.47000000000E+01 0. -1.
         -5    1    4    4    0  502 -0.57610458406E+02  0.45000677758E+01 -0.13078164867E+03  0.14305644046E+03  0.47000000000E+01 0.  1.
<mgrwt>
<rscale>  0 0.10351856E+03</rscale>
<asrwt>0</asrwt>
<pdfrwt beam="1">  1        1 0.88318226E-01 0.10469938E+03</pdfrwt>
<pdfrwt beam="2">  1       -1 0.31417422E-02 0.10469938E+03</pdfrwt>
<totfact> 0.12280371E+04</totfact>
</mgrwt>
</event>
<event>
 8    1  0.3466492E-004  0.9680848E+02  0.7546771E-02  0.1289886E+00
          2   -1    0    0  501    0  0.00000000000E+00  0.00000000000E+00  0.32510350169E+03  0.32510350169E+03  0.00000000000E+00 0. -1.
         -2   -1    0    0    0  501 -0.00000000000E+00 -0.00000000000E+00 -0.32286449936E+02  0.32286449936E+02  0.00000000000E+00 0.  1.
         23    2    1    2    0    0 -0.80638707885E+01  0.81630377639E+01  0.80125963610E+02  0.12566642749E+03  0.96126061789E+02 0.  0.
         23    2    1    2    0    0  0.80638707885E+01 -0.81630377639E+01  0.21269108814E+03  0.23172352414E+03  0.91250377898E+02 0.  0.
          5    1    4    4  502    0  0.20311486358E+02  0.37979130104E+02  0.87038268185E+02  0.97225104424E+02  0.47000000000E+01 0. -1.
         -5    1    4    4    0  502 -0.12247615569E+02 -0.46142167868E+02  0.12565281995E+03  0.13449841971E+03  0.47000000000E+01 0. -1.
          5    1    3    3  503    0  0.30380921740E+02 -0.24500918780E+02  0.12671170117E+02  0.41303074691E+02  0.47000000000E+01 0. -1.
         -5    1    3    3    0  503 -0.38444792528E+02  0.32663956544E+02  0.67454793493E+02  0.84363352795E+02  0.47000000000E+01 0.  1.
<mgrwt>
<rscale>  0 0.95575235E+02</rscale>
<asrwt>0</asrwt>
<pdfrwt beam="1">  1        2 0.50015921E-01 0.96808476E+02</pdfrwt>
<pdfrwt beam="2">  1       -2 0.49671464E-02 0.96808476E+02</pdfrwt>
<totfact> 0.17974629E+04</totfact>
</mgrwt>
</event>
<event>
 8    1  0.3466492E-004  0.9140019E+02  0.7546771E-02  0.1301069E+00
          2   -1    0    0  501    0  0.00000000000E+00  0.00000000000E+00  0.76125645875E+03  0.76125645875E+03  0.00000000000E+00 0. -1.
         -2   -1    0    0    0  501 -0.00000000000E+00 -0.00000000000E+00 -0.12640561630E+03  0.12640561630E+03  0.00000000000E+00 0.  1.
         23    2    1    2    0    0  0.95806318479E+01 -0.53584514799E+01 -0.10765854110E+03  0.13954832696E+03  0.88107165296E+02 0.  0.
         23    2    1    2    0    0 -0.95806318479E+01  0.53584514799E+01  0.74250938354E+03  0.74811374810E+03  0.90738602214E+02 0.  0.
          5    1    4    4  502    0 -0.49102197549E+02 -0.35078155284E+01  0.46551501783E+03  0.46813422476E+03  0.47000000000E+01 0. -1.
         -5    1    3    3    0  503  0.26784538428E+02 -0.40740199052E+02 -0.63953119880E+02  0.80555985873E+02  0.47000000000E+01 0.  1.
          5    1    3    3  503    0 -0.17203906580E+02  0.35381747572E+02 -0.43705421217E+02  0.58992341084E+02  0.47000000000E+01 0. -1.
         -5    1    4    4    0  502  0.39521565701E+02  0.88662670083E+01  0.27699436572E+03  0.27997952333E+03  0.47000000000E+01 0.  1.
<mgrwt>
<rscale>  0 0.90740121E+02</rscale>
<asrwt>0</asrwt>
<pdfrwt beam="1">  1        2 0.11711638E+00 0.91400194E+02</pdfrwt>
<pdfrwt beam="2">  1       -2 0.19447018E-01 0.91400194E+02</pdfrwt>
<totfact> 0.83680147E+02</totfact>
</mgrwt>
</event>
<event>
 8    1  0.3466492E-004  0.1017730E+03  0.7546771E-02  0.1276961E+00
         -2   -1    0    0    0  501 -0.00000000000E+00  0.00000000000E+00  0.22778427947E+02  0.22778427947E+02  0.00000000000E+00 0.  1.
          2   -1    0    0  501    0  0.00000000000E+00 -0.00000000000E+00 -0.52433841107E+03  0.52433841107E+03  0.00000000000E+00 0. -1.
         23    2    1    2    0    0 -0.28222025946E+01 -0.43182394728E+02 -0.14967651920E+03  0.18099944874E+03  0.92114363719E+02 0.  0.
         23    2    1    2    0    0  0.28222025946E+01  0.43182394728E+02 -0.35188346393E+03  0.36611739028E+03  0.91363489629E+02 0.  0.
          5    1    3    3  502    0  0.39325101874E+02 -0.43741784512E+02 -0.79567519851E+02  0.99060020012E+02  0.47000000000E+01 0. -1.
         -5    1    3    3    0  502 -0.42147304468E+02  0.55938978403E+00 -0.70108999347E+02  0.81939428728E+02  0.47000000000E+01 0.  1.
          5    1    4    4  503    0  0.32231198506E+02  0.87361406484E+01 -0.27267699355E+03  0.27475444149E+03  0.47000000000E+01 0. -1.
         -5    1    4    4    0  503 -0.29408995911E+02  0.34446254079E+02 -0.79206470378E+02  0.91362948783E+02  0.47000000000E+01 0.  1.
<mgrwt>
<rscale>  0 0.10160278E+03</rscale>
<asrwt>0</asrwt>
<pdfrwt beam="1">  1        2 0.80667449E-01 0.10177298E+03</pdfrwt>
<pdfrwt beam="2">  1       -2 0.35043735E-02 0.10177298E+03</pdfrwt>
<totfact> 0.18184559E+04</totfact>
</mgrwt>
</event>
<event>
 8    1  0.3466492E-004  0.1086577E+03  0.7546771E-02  0.1263596E+00
         -2   -1    0    0    0  501 -0.00000000000E+00  0.00000000000E+00  0.24797110819E+02  0.24797110819E+02  0.00000000000E+00 0.  1.
          2   -1    0    0  501    0  0.00000000000E+00 -0.00000000000E+00 -0.49352594740E+03  0.49352594740E+03  0.00000000000E+00 0. -1.
         23    2    1    2    0    0  0.45458217984E+02 -0.38881278526E+02 -0.28820071634E+03  0.30761735427E+03  0.89390046143E+02 0.  0.
         23    2    1    2    0    0 -0.45458217984E+02  0.38881278526E+02 -0.18052812024E+03  0.21070570395E+03  0.90709911670E+02 0.  0.
          5    1    4    4  502    0  0.25188345992E+02  0.64059597292E+01 -0.75198318733E+02  0.79701732943E+02  0.47000000000E+01 0. -1.
         -5    1    3    3    0  503  0.20736592420E+02  0.27757250205E+02 -0.11909453144E+03  0.12412118523E+03  0.47000000000E+01 0.  1.
          5    1    3    3  503    0  0.24721625563E+02 -0.66638528732E+02 -0.16910618489E+03  0.18349616904E+03  0.47000000000E+01 0. -1.
         -5    1    4    4    0  502 -0.70646563976E+02  0.32475318797E+02 -0.10532980151E+03  0.13100397100E+03  0.47000000000E+01 0.  1.
<mgrwt>
<rscale>  0 0.10838178E+03</rscale>
<asrwt>0</asrwt>
<pdfrwt beam="1">  1        2 0.75927055E-01 0.10865768E+03</pdfrwt>
<pdfrwt beam="2">  1       -2 0.38149408E-02 0.10865768E+03</pdfrwt>
<totfact> 0.17248547E+04</totfact>
</mgrwt>
</event>
<event>
 8    1  0.3466492E-004  0.9731686E+02  0.7546771E-02  0.1286722E+00
         -1   -1    0    0    0  501 -0.00000000000E+00  0.00000000000E+00  0.29783515036E+03  0.29783515036E+03  0.00000000000E+00 0.  1.
          1   -1    0    0  501    0  0.00000000000E+00 -0.00000000000E+00 -0.20448546801E+03  0.20448546801E+03  0.00000000000E+00 0. -1.
         23    2    1    2    0    0 -0.10353695270E+02  0.25190008677E+02  0.27779726859E+03  0.29434995071E+03  0.93428237186E+02 0.  0.
         23    2    1    2    0    0  0.10353695270E+02 -0.25190008677E+02 -0.18444758625E+03  0.20797066766E+03  0.92136588791E+02 0.  0.
          5    1    4    4  502    0  0.26521194053E+02 -0.48196756738E+02 -0.16356228302E+03  0.17262969479E+03  0.47000000000E+01 0. -1.
         -5    1    4    4    0  502 -0.16167498784E+02  0.23006748062E+02 -0.20885303223E+02  0.35340972878E+02  0.47000000000E+01 0.  1.
          5    1    3    3  503    0  0.39850558934E+02  0.18012606542E+02  0.96821817188E+02  0.10634413630E+03  0.47000000000E+01 0. -1.
         -5    1    3    3    0  503 -0.50204254204E+02  0.71774021349E+01  0.18097545140E+03  0.18800581441E+03  0.47000000000E+01 0.  1.
<mgrwt>
<rscale>  0 0.97005529E+02</rscale>
<asrwt>0</asrwt>
<pdfrwt beam="1">  1        1 0.31459303E-01 0.97316859E+02</pdfrwt>
<pdfrwt beam="2">  1       -1 0.45820792E-01 0.97316859E+02</pdfrwt>
<totfact> 0.68478186E+02</totfact>
</mgrwt>
</event>
<event>
 8    1  0.3466492E-004  0.9511062E+02  0.7546771E-02  0.1291126E+00
         -1   -1    0    0    0  501 -0.00000000000E+00  0.00000000000E+00  0.21643162127E+02  0.21643162127E+02  0.00000000000E+00 0.  1.
          1   -1    0    0  501    0  0.00000000000E+00 -0.00000000000E+00 -0.51847313183E+03  0.51847313183E+03  0.00000000000E+00 0. -1.
         23    2    1    2    0    0 -0.19000585476E+02 -0.11274314481E+02 -0.36860364551E+03  0.38067660532E+03  0.92508907345E+02 0.  0.
         23    2    1    2    0    0  0.19000585476E+02  0.11274314481E+02 -0.12822632420E+03  0.15943968864E+03  0.92146034543E+02 0.  0.
          5    1    4    4  502    0 -0.29002142668E+02 -0.20276025491E+02 -0.62893397446E+02  0.72318123118E+02  0.47000000000E+01 0. -1.
         -5    1    3    3    0  503  0.15343121696E+02 -0.43912352654E+02 -0.15884391385E+03  0.16558135482E+03  0.47000000000E+01 0.  1.
          5    1    3    3  503    0 -0.34343707172E+02  0.32638038174E+02 -0.20975973166E+03  0.21509525049E+03  0.47000000000E+01 0. -1.
         -5    1    4    4    0  502  0.48002728144E+02  0.31550339972E+02 -0.65332926753E+02  0.87121565526E+02  0.47000000000E+01 0.  1.
<mgrwt>
<rscale>  0 0.95022271E+02</rscale>
<asrwt>0</asrwt>
<pdfrwt beam="1">  1        1 0.79765104E-01 0.95110622E+02</pdfrwt>
<pdfrwt beam="2">  1       -1 0.33297170E-02 0.95110622E+02</pdfrwt>
<totfact> 0.12802903E+04</totfact>
</mgrwt>
</event>
<event>
 8    1  0.3466492E-004  0.1000325E+03  0.7546771E-02  0.1282841E+00
          1   -1    0    0  501    0  0.00000000000E+00  0.00000000000E+00  0.58874606615E+02  0.58874606615E+02  0.00000000000E+00 0. -1.
         -1   -1    0    0    0  501 -0.00000000000E+00 -0.00000000000E+00 -0.16223270117E+03  0.16223270117E+03  0.00000000000E+00 0.  1.
         23    2    1    2    0    0 -0.20782778934E+02  0.17125763139E+02 -0.58424403727E+02  0.11584432799E+03  0.96339408935E+02 0.  0.
         23    2    1    2    0    0  0.20782778934E+02 -0.17125763139E+02 -0.44933690828E+02  0.10526297979E+03  0.91301931415E+02 0.  0.
          5    1    4    4  502    0 -0.31479999283E+02 -0.12785514948E+02 -0.39524569371E+02  0.52332985118E+02  0.47000000000E+01 0. -1.
         -5    1    4    4    0  502  0.52262778217E+02 -0.43402481912E+01 -0.54091214563E+01  0.52929994675E+02  0.47000000000E+01 0.  1.
          5    1    3    3  503    0 -0.20143752241E+02  0.54612159422E+02 -0.19428882419E+02  0.61545350622E+02  0.47000000000E+01 0. -1.
         -5    1    3    3    0  503 -0.63902669310E+00 -0.37486396283E+02 -0.38995521308E+02  0.54298977371E+02  0.47000000000E+01 0.  1.
<mgrwt>
<rscale>  0 0.98799409E+02</rscale>
<asrwt>0</asrwt>
<pdfrwt beam="1">  1        1 0.90576318E-02 0.10003248E+03</pdfrwt>
<pdfrwt beam="2">  1       -1 0.24958877E-01 0.10003248E+03</pdfrwt>
<totfact> 0.93814960E+03</totfact>
</mgrwt>
</event>
<event>
 8    1  0.3466492E-004  0.1505066E+03  0.7546771E-02  0.1211413E+00
         -1   -1    0    0    0  501 -0.00000000000E+00  0.00000000000E+00  0.19238980903E+02  0.19238980903E+02  0.00000000000E+00 0.  1.
          1   -1    0    0  501    0  0.00000000000E+00 -0.00000000000E+00 -0.95495948648E+03  0.95495948648E+03  0.00000000000E+00 0. -1.
         23    2    1    2    0    0  0.75675507910E+02  0.28282603023E+02 -0.45010405754E+03  0.47460079145E+03  0.12698645796E+03 0.  0.
         23    2    1    2    0    0 -0.75675507910E+02 -0.28282603023E+02 -0.48561644804E+03  0.49959767593E+03  0.85134100440E+02 0.  0.
          5    1    3    3  502    0  0.44780244308E+02 -0.33054808001E+02 -0.34135466988E+03  0.34589447995E+03  0.47000000000E+01 0. -1.
         -5    1    4    4    0  503 -0.12125649535E+02 -0.44793034663E+02 -0.27519993548E+03  0.27912459910E+03  0.47000000000E+01 0.  1.
          5    1    4    4  503    0 -0.63549858374E+02  0.16510431639E+02 -0.21041651255E+03  0.22047307683E+03  0.47000000000E+01 0. -1.
         -5    1    3    3    0  502  0.30895263602E+02  0.61337411024E+02 -0.10874938766E+03  0.12870631150E+03  0.47000000000E+01 0.  1.
<mgrwt>
<rscale>  0 0.14143316E+03</rscale>
<asrwt>0</asrwt>
<pdfrwt beam="1">  1        1 0.14691688E+00 0.15050664E+03</pdfrwt>
<pdfrwt beam="2">  1       -1 0.29598425E-02 0.15050664E+03</pdfrwt>
<totfact> 0.64959840E+03</totfact>
</mgrwt>
</event>
<event>
 8    1  0.3466492E-004  0.1016652E+03  0.7546771E-02  0.1277669E+00
         -1   -1    0    0    0  501 -0.00000000000E+00  0.00000000000E+00  0.32968966483E+02  0.32968966483E+02  0.00000000000E+00 0.  1.
          1   -1    0    0  501    0  0.00000000000E+00 -0.00000000000E+00 -0.31449550531E+03  0.31449550531E+03  0.00000000000E+00 0. -1.
         23    2    1    2    0    0  0.44754762241E+02 -0.46996876273E+00 -0.16354682700E+03  0.19172421287E+03  0.89484074381E+02 0.  0.
         23    2    1    2    0    0 -0.44754762241E+02  0.46996876273E+00 -0.11797971184E+03  0.15574025892E+03  0.91283110328E+02 0.  0.
          5    1    3    3  502    0  0.38307780375E+02  0.22669816955E+02 -0.16101074123E+03  0.16711659232E+03  0.47000000000E+01 0. -1.
         -5    1    4    4    0  503  0.23419284825E+02 -0.16880186251E+02 -0.49241570961E+02  0.57273256415E+02  0.47000000000E+01 0.  1.
          5    1    4    4  503    0 -0.68174047067E+02  0.17350155014E+02 -0.68738140874E+02  0.98467002510E+02  0.47000000000E+01 0. -1.
         -5    1    3    3    0  502  0.64469818658E+01 -0.23139785718E+02 -0.25360857676E+01  0.24607620553E+02  0.47000000000E+01 0.  1.
<mgrwt>
<rscale>  0 0.10125975E+03</rscale>
<asrwt>0</asrwt>
<pdfrwt beam="1">  1        1 0.48383926E-01 0.10166521E+03</pdfrwt>
<pdfrwt beam="2">  1       -1 0.50721485E-02 0.10166521E+03</pdfrwt>
<totfact> 0.13047534E+04</totfact>
</mgrwt>
</event>
<event>
 8    1  0.3466492E-004  0.9396467E+02  0.7546771E-02  0.1296047E+00
         -1   -1    0    0    0  501 -0.00000000000E+00  0.00000000000E+00  0.34413300107E+02  0.34413300107E+02  0.00000000000E+00 0.  1.
          1   -1    0    0  501    0  0.00000000000E+00 -0.00000000000E+00 -0.25946350418E+03  0.25946350418E+03  0.00000000000E+00 0. -1.
         23    2    1    2    0    0  0.56094508773E+01  0.28169363326E+02 -0.80272861047E+02  0.12358434597E+03  0.89467197227E+02 0.  0.
         23    2    1    2    0    0 -0.56094508773E+01 -0.28169363326E+02 -0.14477734303E+03  0.17029245831E+03  0.84935642314E+02 0.  0.
          5    1    3    3  502    0  0.41251587737E+02  0.36330028650E+02 -0.35573197396E+02  0.65643787563E+02  0.47000000000E+01 0. -1.
         -5    1    4    4    0  503 -0.36145610337E+02 -0.41433191293E+02 -0.78252004076E+02  0.95753227774E+02  0.47000000000E+01 0.  1.
          5    1    4    4  503    0  0.30536159459E+02  0.13263827967E+02 -0.66525338951E+02  0.74539230539E+02  0.47000000000E+01 0. -1.
         -5    1    3    3    0  502 -0.35642136860E+02 -0.81606653236E+01 -0.44699663651E+02  0.57940558411E+02  0.47000000000E+01 0.  1.
<mgrwt>
<rscale>  0 0.92869684E+02</rscale>
<asrwt>0</asrwt>
<pdfrwt beam="1">  1        1 0.39917464E-01 0.93964665E+02</pdfrwt>
<pdfrwt beam="2">  1       -1 0.52943536E-02 0.93964665E+02</pdfrwt>
<totfact> 0.15386724E+04</totfact>
</mgrwt>
</event>
<event>
 8    1  0.3466492E-004  0.9886525E+02  0.7546771E-02  0.1285127E+00
          1   -1    0    0  501    0  0.00000000000E+00  0.00000000000E+00  0.13313088589E+03  0.13313088589E+03  0.00000000000E+00 0. -1.
         -1   -1    0    0    0  501 -0.00000000000E+00 -0.00000000000E+00 -0.71777954502E+02  0.71777954502E+02  0.00000000000E+00 0.  1.
         23    2    1    2    0    0  0.28232779168E+02  0.16561674716E+02  0.45351186700E+02  0.10475699221E+03  0.88577188901E+02 0.  0.
         23    2    1    2    0    0 -0.28232779168E+02 -0.16561674716E+02  0.16001744682E+02  0.10015184817E+03  0.93289645571E+02 0.  0.
          5    1    4    4  502    0 -0.47833198640E+02 -0.55344231354E+01  0.42980851648E+02  0.64715441279E+02  0.47000000000E+01 0. -1.
         -5    1    3    3    0  503  0.10036441873E+02  0.41062378414E+02 -0.78442816245E+01  0.43248951902E+02  0.47000000000E+01 0.  1.
          5    1    3    3  503    0  0.18196337295E+02 -0.24500703698E+02  0.53195468325E+02  0.61508040312E+02  0.47000000000E+01 0. -1.
         -5    1    4    4    0  502  0.19600419472E+02 -0.11027251580E+02 -0.26979106966E+02  0.35436406894E+02  0.47000000000E+01 0.  1.
<mgrwt>
<rscale>  0 0.97737650E+02</rscale>
<asrwt>0</asrwt>
<pdfrwt beam="1">  1        1 0.20481675E-01 0.98865246E+02</pdfrwt>
<pdfrwt beam="2">  1       -1 0.11042762E-01 0.98865246E+02</pdfrwt>
<totfact> 0.11767721E+04</totfact>
</mgrwt>
</event>
<event>
 8    1  0.3466492E-004  0.1191235E+03  0.7546771E-02  0.1244680E+00
         -2   -1    0    0    0  501 -0.00000000000E+00  0.00000000000E+00  0.17951226102E+02  0.17951226102E+02  0.00000000000E+00 0.  1.
          2   -1    0    0  501    0  0.00000000000E+00 -0.00000000000E+00 -0.94390304114E+03  0.94390304114E+03  0.00000000000E+00 0. -1.
         23    2    1    2    0    0  0.53719281858E+02 -0.54045995645E+02 -0.26729087561E+03  0.29250784006E+03  0.91157519822E+02 0.  0.
         23    2    1    2    0    0 -0.53719281858E+02  0.54045995645E+02 -0.65866093942E+03  0.66934642718E+03  0.91562413532E+02 0.  0.
          5    1    3    3  502    0  0.63264875363E+02 -0.60130767182E+01 -0.19431805811E+03  0.20449987593E+03  0.47000000000E+01 0. -1.
         -5    1    3    3    0  502 -0.95455935048E+01 -0.48032918927E+02 -0.72972817501E+02  0.88007964129E+02  0.47000000000E+01 0.  1.
          5    1    4    4  503    0  0.20858807110E+02  0.25205972321E+02 -0.10965882850E+03  0.11453200226E+03  0.47000000000E+01 0. -1.
         -5    1    4    4    0  503 -0.74578088968E+02  0.28840023324E+02 -0.54900211092E+03  0.55481442492E+03  0.47000000000E+01 0.  1.
<mgrwt>
<rscale>  0 0.11904568E+03</rscale>
<asrwt>0</asrwt>
<pdfrwt beam="1">  1        2 0.14521590E+00 0.11912349E+03</pdfrwt>
<pdfrwt beam="2">  1       -2 0.27617262E-02 0.11912349E+03</pdfrwt>
<totfact> 0.12969997E+04</totfact>
</mgrwt>
</event>
<event>
 8    1  0.3466492E-004  0.1016777E+03  0.7546771E-02  0.1279717E+00
         -3   -1    0    0    0  501 -0.00000000000E+00  0.00000000000E+00  0.37940651859E+03  0.37940651859E+03  0.00000000000E+00 0.  1.
          3   -1    0    0  501    0  0.00000000000E+00 -0.00000000000E+00 -0.30402580932E+02  0.30402580932E+02  0.00000000000E+00 0. -1.
         23    2    1    2    0    0  0.27415576423E+02 -0.93300839367E+01  0.25011871116E+03  0.26797595999E+03  0.91722849729E+02 0.  0.
         23    2    1    2    0    0 -0.27415576423E+02  0.93300839367E+01  0.98885226493E+02  0.14183313953E+03  0.97466338564E+02 0.  0.
          5    1    3    3  502    0 -0.12701401894E+02 -0.42065060099E+02  0.11373799835E+03  0.12202137993E+03  0.47000000000E+01 0. -1.
         -5    1    3    3    0  502  0.40116978317E+02  0.32734976162E+02  0.13638071282E+03  0.14595458007E+03  0.47000000000E+01 0.  1.
          5    1    4    4  503    0  0.15260882235E+02  0.34046412100E+02  0.80751023929E+02  0.89077890461E+02  0.47000000000E+01 0. -1.
         -5    1    4    4    0  503 -0.42676458659E+02 -0.24716328164E+02  0.18134202565E+02  0.52755249068E+02  0.47000000000E+01 0.  1.
<mgrwt>
<rscale>  0 0.10027604E+03</rscale>
<asrwt>0</asrwt>
<pdfrwt beam="1">  1        3 0.46773204E-02 0.10167768E+03</pdfrwt>
<pdfrwt beam="2">  1       -3 0.58370230E-01 0.10167768E+03</pdfrwt>
<totfact> 0.16110589E+03</totfact>
</mgrwt>
</event>
<event>
 8    1  0.3466492E-004  0.9312015E+02  0.7546771E-02  0.1295547E+00
          1   -1    0    0  501    0  0.00000000000E+00  0.00000000000E+00  0.21458282483E+03  0.21458282483E+03  0.00000000000E+00 0. -1.
         -1   -1    0    0    0  501 -0.00000000000E+00 -0.00000000000E+00 -0.70152027217E+02  0.70152027217E+02  0.00000000000E+00 0.  1.
         23    2    1    2    0    0 -0.19573702197E+02 -0.66844363251E+01 -0.20545414464E+02  0.95359722569E+02  0.90794003801E+02 0.  0.
         23    2    1    2    0    0  0.19573702197E+02  0.66844363251E+01  0.16497621207E+03  0.18937512948E+03  0.90653061764E+02 0.  0.
          5    1    4    4  502    0 -0.12803288401E+02  0.33843433017E+02  0.28122460490E+02  0.46068046803E+02  0.47000000000E+01 0. -1.
         -5    1    4    4    0  502  0.32376990598E+02 -0.27158996692E+02  0.13685375158E+03  0.14330708267E+03  0.47000000000E+01 0.  1.
          5    1    3    3  503    0  0.31433681718E+02  0.15806731804E+02  0.73750702486E+00  0.35504408646E+02  0.47000000000E+01 0. -1.
         -5    1    3    3    0  503 -0.51007383915E+02 -0.22491168129E+02 -0.21282921489E+02  0.59855313923E+02  0.47000000000E+01 0.  1.
<mgrwt>
<rscale>  0 0.93085779E+02</rscale>
<asrwt>0</asrwt>
<pdfrwt beam="1">  1        1 0.33012742E-01 0.93120152E+02</pdfrwt>
<pdfrwt beam="2">  1       -1 0.10792620E-01 0.93120152E+02</pdfrwt>
<totfact> 0.67085415E+03</totfact>
</mgrwt>
</event>
<event>
 8    1  0.3466492E-004  0.1212907E+03  0.7546771E-02  0.1242733E+00
          1   -1    0    0  501    0  0.00000000000E+00  0.00000000000E+00  0.13539975004E+03  0.13539975004E+03  0.00000000000E+00 0. -1.
         -1   -1    0    0    0  501 -0.00000000000E+00 -0.00000000000E+00 -0.10618369033E+03  0.10618369033E+03  0.00000000000E+00 0.  1.
         23    2    1    2    0    0  0.63314760394E+02 -0.50796040137E+02  0.28128913970E+02  0.12450971737E+03  0.90124565697E+02 0.  0.
         23    2    1    2    0    0 -0.63314760394E+02  0.50796040137E+02  0.10871457325E+01  0.11707372300E+03  0.84356850066E+02 0.  0.
          5    1    4    4  502    0 -0.67920681158E+02  0.23650933831E+01 -0.13424544800E+01  0.68137396338E+02  0.47000000000E+01 0. -1.
         -5    1    4    4    0  502  0.46059207647E+01  0.48430946754E+02  0.24296002125E+01  0.48936326658E+02  0.47000000000E+01 0.  1.
          5    1    3    3  503    0  0.19413672751E+02 -0.81578910473E+01  0.53810020615E+02  0.57974565066E+02  0.47000000000E+01 0. -1.
         -5    1    3    3    0  503  0.43901087643E+02 -0.42638149090E+02 -0.25681106646E+02  0.66535152307E+02  0.47000000000E+01 0.  1.
<mgrwt>
<rscale>  0 0.12022113E+03</rscale>
<asrwt>0</asrwt>
<pdfrwt beam="1">  1        1 0.20830731E-01 0.12129070E+03</pdfrwt>
<pdfrwt beam="2">  1       -1 0.16335952E-01 0.12129070E+03</pdfrwt>
<totfact> 0.63945410E+03</totfact>
</mgrwt>
</event>
<event>
 8    1  0.3466492E-004  0.1025028E+03  0.7546771E-02  0.1275632E+00
         -1   -1    0    0    0  501 -0.00000000000E+00  0.00000000000E+00  0.27638515600E+02  0.27638515600E+02  0.00000000000E+00 0.  1.
          1   -1    0    0  501    0  0.00000000000E+00 -0.00000000000E+00 -0.46881796580E+03  0.46881796580E+03  0.00000000000E+00 0. -1.
         23    2    1    2    0    0 -0.25107042058E+02 -0.35409486432E+02 -0.33164285788E+03  0.34712216810E+03  0.92858058945E+02 0.  0.
         23    2    1    2    0    0  0.25107042058E+02  0.35409486432E+02 -0.10953659232E+03  0.14933431330E+03  0.91751167744E+02 0.  0.
          5    1    3    3  502    0  0.82497519739E+01 -0.48919795458E+02 -0.27750573604E+03  0.28194454832E+03  0.47000000000E+01 0. -1.
         -5    1    4    4    0  503  0.48559866157E+01  0.40584965558E+02 -0.36536119756E+01  0.41305676557E+02  0.47000000000E+01 0.  1.
          5    1    4    4  503    0  0.20251055442E+02 -0.51754791256E+01 -0.10588298034E+03  0.10802863674E+03  0.47000000000E+01 0. -1.
         -5    1    3    3    0  502 -0.33356794032E+02  0.13510309026E+02 -0.54137121847E+02  0.65177619778E+02  0.47000000000E+01 0.  1.
<mgrwt>
<rscale>  0 0.10225142E+03</rscale>
<asrwt>0</asrwt>
<pdfrwt beam="1">  1        1 0.72125836E-01 0.10250275E+03</pdfrwt>
<pdfrwt beam="2">  1       -1 0.42520796E-02 0.10250275E+03</pdfrwt>
<totfact> 0.10277832E+04</totfact>
</mgrwt>
</event>
<event>
 8    1  0.3466492E-004  0.9310177E+02  0.7546771E-02  0.1297090E+00
         -1   -1    0    0    0  501 -0.00000000000E+00  0.00000000000E+00  0.47268020507E+03  0.47268020507E+03  0.00000000000E+00 0.  1.
          1   -1    0    0  501    0  0.00000000000E+00 -0.00000000000E+00 -0.18230195332E+02  0.18230195332E+02  0.00000000000E+00 0. -1.
         23    2    1    2    0    0 -0.13286618637E+02  0.11436564300E+02  0.18679710342E+03  0.20752723476E+03  0.88696482917E+02 0.  0.
         23    2    1    2    0    0  0.13286618637E+02 -0.11436564300E+02  0.26765290632E+03  0.28338316565E+03  0.91436377185E+02 0.  0.
          5    1    3    3  502    0 -0.36184611678E+01 -0.38681756777E+02  0.83050464249E+02  0.91808720613E+02  0.47000000000E+01 0. -1.
         -5    1    3    3    0  502 -0.96681574695E+01  0.50118321077E+02  0.10374663917E+03  0.11571851414E+03  0.47000000000E+01 0.  1.
          5    1    4    4  503    0  0.51258599522E+02  0.60830741930E+00  0.12465688251E+03  0.13486749949E+03  0.47000000000E+01 0. -1.
         -5    1    4    4    0  503 -0.37971980885E+02 -0.12044871719E+02  0.14299602381E+03  0.14851566615E+03  0.47000000000E+01 0.  1.
<mgrwt>
<rscale>  0 0.92422013E+02</rscale>
<asrwt>0</asrwt>
<pdfrwt beam="1">  1        1 0.28046458E-02 0.93101774E+02</pdfrwt>
<pdfrwt beam="2">  1       -1 0.72720022E-01 0.93101774E+02</pdfrwt>
<totfact> 0.68316196E+03</totfact>
</mgrwt>
</event>
<event>
 8    1  0.3466492E-004  0.1125609E+03  0.7546771E-02  0.1263706E+00
         -1   -1    0    0    0  501 -0.00000000000E+00  0.00000000000E+00  0.49550307361E+03  0.49550307361E+03  0.00000000000E+00 0.  1.
          1   -1    0    0  501    0  0.00000000000E+00 -0.00000000000E+00 -0.23072732522E+02  0.23072732522E+02  0.00000000000E+00 0. -1.
         23    2    1    2    0    0 -0.11874866966E+02 -0.26927938653E+02  0.27306018000E+03  0.28962511495E+03  0.91949545745E+02 0.  0.
         23    2    1    2    0    0  0.11874866966E+02  0.26927938653E+02  0.19937016108E+03  0.22895069117E+03  0.10864543945E+03 0.  0.
          5    1    3    3  502    0  0.78071693280E+00 -0.58085272154E+02  0.21078834748E+03  0.21869688108E+03  0.47000000000E+01 0. -1.
         -5    1    4    4    0  503 -0.27316273298E+02  0.11904100971E+02  0.17995770221E+03  0.18246849315E+03  0.47000000000E+01 0.  1.
          5    1    4    4  503    0  0.39191140264E+02  0.15023837682E+02  0.19412458869E+02  0.46482198025E+02  0.47000000000E+01 0. -1.
         -5    1    3    3    0  502 -0.12655583899E+02  0.31157333501E+02  0.62271832523E+02  0.70928233874E+02  0.47000000000E+01 0.  1.
<mgrwt>
<rscale>  0 0.10832348E+03</rscale>
<asrwt>0</asrwt>
<pdfrwt beam="1">  1        1 0.35496515E-02 0.11256091E+03</pdfrwt>
<pdfrwt beam="2">  1       -1 0.76231234E-01 0.11256091E+03</pdfrwt>
<totfact> 0.45722248E+03</totfact>
</mgrwt>
</event>
<event>
 8    1  0.3466492E-004  0.1057768E+03  0.7546771E-02  0.1268733E+00
          1   -1    0    0  501    0  0.00000000000E+00  0.00000000000E+00  0.50721201874E+03  0.50721201874E+03  0.00000000000E+00 0. -1.
         -1   -1    0    0    0  501 -0.00000000000E+00 -0.00000000000E+00 -0.24773730359E+02  0.24773730359E+02  0.00000000000E+00 0.  1.
         23    2    1    2    0    0  0.22249956472E+02  0.51113372688E+02  0.15251683406E+03  0.18560743121E+03  0.89894918743E+02 0.  0.
         23    2    1    2    0    0 -0.22249956472E+02 -0.51113372688E+02  0.32992145432E+03  0.34637831789E+03  0.89566375701E+02 0.  0.
          5    1    4    4  502    0 -0.55899679954E+02 -0.40893748647E+02  0.23515802985E+03  0.24519066438E+03  0.47000000000E+01 0. -1.
         -5    1    4    4    0  502  0.33649723482E+02 -0.10219624041E+02  0.94763424467E+02  0.10118765351E+03  0.47000000000E+01 0.  1.
          5    1    3    3  503    0 -0.18058124393E+02  0.37242220317E+02  0.13132069882E+03  0.13776899059E+03  0.47000000000E+01 0. -1.
         -5    1    3    3    0  503  0.40308080865E+02  0.13871152371E+02  0.21196135246E+02  0.47838440615E+02  0.47000000000E+01 0.  1.
<mgrwt>
<rscale>  0 0.10570697E+03</rscale>
<asrwt>0</asrwt>
<pdfrwt beam="1">  1        1 0.78032610E-01 0.10577681E+03</pdfrwt>
<pdfrwt beam="2">  1       -1 0.38113435E-02 0.10577681E+03</pdfrwt>
<totfact> 0.10923061E+04</totfact>
</mgrwt>
</event>
<event>
 8    1  0.3466492E-004  0.1540464E+03  0.7546771E-02  0.1196344E+00
         -2   -1    0    0    0  501 -0.00000000000E+00  0.00000000000E+00  0.32355551664E+02  0.32355551664E+02  0.00000000000E+00 0.  1.
          2   -1    0    0  501    0  0.00000000000E+00 -0.00000000000E+00 -0.73114019954E+03  0.73114019954E+03  0.00000000000E+00 0. -1.
         23    2    1    2    0    0 -0.51886124414E+02 -0.10970410056E+03 -0.39623055949E+03  0.42512228841E+03  0.94884899966E+02 0.  0.
         23    2    1    2    0    0  0.51886124414E+02  0.10970410056E+03 -0.30255408839E+03  0.33837346280E+03  0.90721906612E+02 0.  0.
          5    1    4    4  502    0  0.16146705522E+02  0.43394402103E+02 -0.22647830677E+03  0.23121051808E+03  0.47000000000E+01 0. -1.
         -5    1    4    4    0  502  0.35739418892E+02  0.66309698457E+02 -0.76075781620E+02  0.10716294472E+03  0.47000000000E+01 0.  1.
          5    1    3    3  503    0 -0.46273638266E+02 -0.35985567084E+01 -0.14455288481E+03  0.15189412667E+03  0.47000000000E+01 0. -1.
         -5    1    3    3    0  503 -0.56124861482E+01 -0.10610554385E+03 -0.25167767468E+03  0.27322816174E+03  0.47000000000E+01 0.  1.
<mgrwt>
<rscale>  0 0.15341033E+03</rscale>
<asrwt>0</asrwt>
<pdfrwt beam="1">  1        2 0.11248311E+00 0.15404643E+03</pdfrwt>
<pdfrwt beam="2">  1       -2 0.49777772E-02 0.15404643E+03</pdfrwt>
<totfact> 0.75983204E+03</totfact>
</mgrwt>
</event>
<event>
 8    1  0.3466492E-004  0.1085499E+03  0.7546771E-02  0.1265373E+00
         -2   -1    0    0    0  501 -0.00000000000E+00  0.00000000000E+00  0.43690676277E+03  0.43690676277E+03  0.00000000000E+00 0.  1.
          2   -1    0    0  501    0  0.00000000000E+00 -0.00000000000E+00 -0.26058314389E+02  0.26058314389E+02  0.00000000000E+00 0. -1.
         23    2    1    2    0    0  0.34344822101E+02 -0.41194456949E+02  0.18322387771E+03  0.21078256472E+03  0.89340641013E+02 0.  0.
         23    2    1    2    0    0 -0.34344822101E+02  0.41194456949E+02  0.22762457067E+03  0.25218251244E+03  0.94374383814E+02 0.  0.
          5    1    4    4  502    0  0.31827674988E+02  0.18750155764E+02  0.98228754267E+02  0.10505021371E+03  0.47000000000E+01 0. -1.
         -5    1    3    3    0  503  0.95573224076E+01 -0.61304155048E+02  0.15806005083E+03  0.16986645197E+03  0.47000000000E+01 0.  1.
          5    1    3    3  503    0  0.24787499694E+02  0.20109698099E+02  0.25163826881E+02  0.40916112743E+02  0.47000000000E+01 0. -1.
         -5    1    4    4    0  502 -0.66172497089E+02  0.22444301185E+02  0.12939581640E+03  0.14713229873E+03  0.47000000000E+01 0.  1.
<mgrwt>
<rscale>  0 0.10744649E+03</rscale>
<asrwt>0</asrwt>
<pdfrwt beam="1">  1        2 0.40089718E-02 0.10854987E+03</pdfrwt>
<pdfrwt beam="2">  1       -2 0.67216420E-01 0.10854987E+03</pdfrwt>
<totfact> 0.41026140E+03</totfact>
</mgrwt>
</event>
<event>
 8    1  0.3466492E-004  0.1599881E+03  0.7546771E-02  0.1188850E+00
          1   -1    0    0  501    0  0.00000000000E+00  0.00000000000E+00  0.40884517263E+03  0.40884517263E+03  0.00000000000E+00 0. -1.
         -1   -1    0    0    0  501 -0.00000000000E+00 -0.00000000000E+00 -0.91448162898E+02  0.91448162898E+02  0.00000000000E+00 0.  1.
         23    2    1    2    0    0 -0.99904385376E+02 -0.84990027275E+02  0.29948305862E+03  0.33930547952E+03  0.90740922846E+02 0.  0.
         23    2    1    2    0    0  0.99904385376E+02  0.84990027275E+02  0.17913951115E+02  0.16098785601E+03  0.91607800894E+02 0.  0.
          5    1    4    4  502    0  0.27490857658E+01  0.56497083312E+02 -0.53045067942E+01  0.57006189906E+02  0.47000000000E+01 0. -1.
         -5    1    4    4    0  502  0.97155299610E+02  0.28492943963E+02  0.23218457910E+02  0.10398166610E+03  0.47000000000E+01 0.  1.
          5    1    3    3  503    0 -0.73117229801E+02 -0.64738226033E+02  0.28695938740E+03  0.30315828740E+03  0.47000000000E+01 0. -1.
         -5    1    3    3    0  503 -0.26787155575E+02 -0.20251801242E+02  0.12523671223E+02  0.36147192121E+02  0.47000000000E+01 0.  1.
<mgrwt>
<rscale>  0 0.15986422E+03</rscale>
<asrwt>0</asrwt>
<pdfrwt beam="1">  1        1 0.62899256E-01 0.15998806E+03</pdfrwt>
<pdfrwt beam="2">  1       -1 0.14068948E-01 0.15998806E+03</pdfrwt>
<totfact> 0.20648293E+03</totfact>
</mgrwt>
</event>
<event>
 8    1  0.3466492E-004  0.1044884E+03  0.7546771E-02  0.1275261E+00
          2   -1    0    0  501    0  0.00000000000E+00  0.00000000000E+00  0.16143240838E+03  0.16143240838E+03  0.00000000000E+00 0. -1.
         -2   -1    0    0    0  501 -0.00000000000E+00 -0.00000000000E+00 -0.96374445988E+02  0.96374445988E+02  0.00000000000E+00 0.  1.
         23    2    1    2    0    0 -0.18540206852E+02 -0.71418338525E+01 -0.44621170126E+02  0.10632308320E+03  0.94439420463E+02 0.  0.
         23    2    1    2    0    0  0.18540206852E+02  0.71418338525E+01  0.10967913251E+03  0.15148377116E+03  0.10258204402E+03 0.  0.
          5    1    3    3  502    0 -0.72858323142E-01 -0.36403693923E+02  0.13005554747E+02  0.38941863000E+02  0.47000000000E+01 0. -1.
         -5    1    3    3    0  502 -0.18467348529E+02  0.29261860071E+02 -0.57626724872E+02  0.67381220203E+02  0.47000000000E+01 0.  1.
          5    1    4    4  503    0  0.47440158741E+02  0.26134517759E+02  0.10224549520E+03  0.11580074684E+03  0.47000000000E+01 0. -1.
         -5    1    4    4    0  503 -0.28899951889E+02 -0.18992683907E+02  0.74336373140E+01  0.35683024323E+02  0.47000000000E+01 0.  1.
<mgrwt>
<rscale>  0 0.10243312E+03</rscale>
<asrwt>0</asrwt>
<pdfrwt beam="1">  1        2 0.24835755E-01 0.10448838E+03</pdfrwt>
<pdfrwt beam="2">  1       -2 0.14826838E-01 0.10448838E+03</pdfrwt>
<totfact> 0.70324794E+03</totfact>
</mgrwt>
</event>
<event>
 8    1  0.3466492E-004  0.1116318E+03  0.7546771E-02  0.1257699E+00
          1   -1    0    0  501    0  0.00000000000E+00  0.00000000000E+00  0.11008784907E+04  0.11008784907E+04  0.00000000000E+00 0. -1.
         -1   -1    0    0    0  501 -0.00000000000E+00 -0.00000000000E+00 -0.11637622711E+02  0.11637622711E+02  0.00000000000E+00 0.  1.
         23    2    1    2    0    0 -0.45791056265E+02  0.43672897768E+02  0.64103252679E+03  0.65067992297E+03  0.91964769983E+02 0.  0.
         23    2    1    2    0    0  0.45791056265E+02 -0.43672897768E+02  0.44820834118E+03  0.46183619043E+03  0.91639548493E+02 0.  0.
          5    1    4    4  502    0  0.67298107754E+02 -0.42158709390E+02  0.41057174458E+03  0.41820765121E+03  0.47000000000E+01 0. -1.
         -5    1    3    3    0  503 -0.72019530732E+02  0.36016094861E+02  0.39950077678E+03  0.40756218242E+03  0.47000000000E+01 0.  1.
          5    1    3    3  503    0  0.26228474467E+02  0.76568029068E+01  0.24153175001E+03  0.24311774054E+03  0.47000000000E+01 0. -1.
         -5    1    4    4    0  502 -0.21507051489E+02 -0.15141883777E+01  0.37636596609E+02  0.43628539220E+02  0.47000000000E+01 0.  1.
<mgrwt>
<rscale>  0 0.11156481E+03</rscale>
<asrwt>0</asrwt>
<pdfrwt beam="1">  1        1 0.16936584E+00 0.11163181E+03</pdfrwt>
<pdfrwt beam="2">  1       -1 0.17904044E-02 0.11163181E+03</pdfrwt>
<totfact> 0.10370366E+04</totfact>
</mgrwt>
</event>
<event>
 8    1  0.3466492E-004  0.9728517E+02  0.7546771E-02  0.1286740E+00
         -1   -1    0    0    0  501 -0.00000000000E+00  0.00000000000E+00  0.90813851541E+02  0.90813851541E+02  0.00000000000E+00 0.  1.
          1   -1    0    0  501    0  0.00000000000E+00 -0.00000000000E+00 -0.32171978706E+03  0.32171978706E+03  0.00000000000E+00 0. -1.
         23    2    1    2    0    0 -0.27663185970E+02 -0.14909284781E+02  0.54839928862E+02  0.11068085535E+03  0.90858655681E+02 0.  0.
         23    2    1    2    0    0  0.27663185970E+02  0.14909284781E+02 -0.28574586438E+03  0.30185278326E+03  0.92069892562E+02 0.  0.
          5    1    3    3  502    0  0.25589664784E+02 -0.18193095938E+01 -0.78704478073E+01  0.27242884939E+02  0.47000000000E+01 0. -1.
         -5    1    4    4    0  503 -0.26939694295E+02  0.22327161145E+01 -0.32969358402E+02  0.42892898520E+02  0.47000000000E+01 0.  1.
          5    1    4    4  503    0  0.54602880266E+02  0.12676568666E+02 -0.25277650598E+03  0.25895988474E+03  0.47000000000E+01 0. -1.
         -5    1    3    3    0  502 -0.53252850754E+02 -0.13089975187E+02  0.62710376669E+02  0.83437970408E+02  0.47000000000E+01 0.  1.
<mgrwt>
<rscale>  0 0.96997517E+02</rscale>
<asrwt>0</asrwt>
<pdfrwt beam="1">  1        1 0.49495350E-01 0.97285167E+02</pdfrwt>
<pdfrwt beam="2">  1       -1 0.13971362E-01 0.97285167E+02</pdfrwt>
<totfact> 0.27610530E+03</totfact>
</mgrwt>
</event>
<event>
 8    1  0.3466492E-004  0.9110019E+02  0.7546771E-02  0.1301632E+00
          2   -1    0    0  501    0  0.00000000000E+00  0.00000000000E+00  0.21184133889E+03  0.21184133889E+03  0.00000000000E+00 0. -1.
         -2   -1    0    0    0  501 -0.00000000000E+00 -0.00000000000E+00 -0.38570649934E+02  0.38570649934E+02  0.00000000000E+00 0.  1.
         23    2    1    2    0    0  0.41726674599E+00 -0.78588333382E+01  0.72755548883E+02  0.11475603540E+03  0.88394809767E+02 0.  0.
         23    2    1    2    0    0 -0.41726674599E+00  0.78588333382E+01  0.10051514007E+03  0.13565595342E+03  0.90759621764E+02 0.  0.
          5    1    3    3  502    0 -0.18816199313E+02  0.13179933599E+02  0.81311795297E+02  0.84625398438E+02  0.47000000000E+01 0. -1.
         -5    1    4    4    0  503 -0.34753687214E+02 -0.24962066749E+02  0.53373335560E+02  0.68569136644E+02  0.47000000000E+01 0.  1.
          5    1    4    4  503    0  0.34336420468E+02  0.32820900087E+02  0.47141804509E+02  0.67086816778E+02  0.47000000000E+01 0. -1.
         -5    1    3    3    0  502  0.19233466059E+02 -0.21038766937E+02 -0.85562464142E+01  0.30130636959E+02  0.47000000000E+01 0.  1.
<mgrwt>
<rscale>  0 0.90505456E+02</rscale>
<asrwt>0</asrwt>
<pdfrwt beam="1">  1        2 0.32590975E-01 0.91100188E+02</pdfrwt>
<pdfrwt beam="2">  1       -2 0.59339463E-02 0.91100188E+02</pdfrwt>
<totfact> 0.21486852E+04</totfact>
</mgrwt>
</event>
<event>
 8    1  0.3466492E-004  0.9494106E+02  0.7546771E-02  0.1292582E+00
          1   -1    0    0  501    0  0.00000000000E+00  0.00000000000E+00  0.11707637322E+03  0.11707637322E+03  0.00000000000E+00 0. -1.
         -1   -1    0    0    0  501 -0.00000000000E+00 -0.00000000000E+00 -0.78644248807E+02  0.78644248807E+02  0.00000000000E+00 0.  1.
         23    2    1    2    0    0  0.86500974811E+01 -0.10336330597E+02 -0.10651831783E+01  0.94947036311E+02  0.93979472080E+02 0.  0.
         23    2    1    2    0    0 -0.86500974811E+01  0.10336330597E+02  0.39497307595E+02  0.10077358572E+03  0.91725756225E+02 0.  0.
          5    1    3    3  502    0 -0.39982688484E+02 -0.43040231304E+01 -0.15949683693E+02  0.43515771893E+02  0.47000000000E+01 0. -1.
         -5    1    4    4    0  503 -0.29378366542E+02  0.31090250548E+02 -0.89411448145E+01  0.43951406922E+02  0.47000000000E+01 0.  1.
          5    1    4    4  503    0  0.20728269060E+02 -0.20753919952E+02  0.48438452409E+02  0.56822178798E+02  0.47000000000E+01 0. -1.
         -5    1    3    3    0  502  0.48632785965E+02 -0.60323074663E+01  0.14884500515E+02  0.51431264418E+02  0.47000000000E+01 0.  1.
<mgrwt>
<rscale>  0 0.94378496E+02</rscale>
<asrwt>0</asrwt>
<pdfrwt beam="1">  1        1 0.18011750E-01 0.94941061E+02</pdfrwt>
<pdfrwt beam="2">  1       -1 0.12099115E-01 0.94941061E+02</pdfrwt>
<totfact> 0.11992078E+04</totfact>
</mgrwt>
</event>
<event>
 8    1  0.3466492E-004  0.1525339E+03  0.7546771E-02  0.1199531E+00
          1   -1    0    0  501    0  0.00000000000E+00  0.00000000000E+00  0.75863100690E+03  0.75863100690E+03  0.00000000000E+00 0. -1.
         -1   -1    0    0    0  501 -0.00000000000E+00 -0.00000000000E+00 -0.29647200771E+02  0.29647200771E+02  0.00000000000E+00 0.  1.
         23    2    1    2    0    0  0.10858431125E+03  0.30199330249E+02  0.31286784636E+03  0.34508629384E+03  0.92172168879E+02 0.  0.
         23    2    1    2    0    0 -0.10858431125E+03 -0.30199330249E+02  0.41611595977E+03  0.44319191383E+03  0.10278145898E+03 0.  0.
          5    1    4    4  502    0 -0.11849445732E+03  0.16154578576E+01  0.31250705786E+03  0.33425483890E+03  0.47000000000E+01 0. -1.
         -5    1    4    4    0  502  0.99101460739E+01 -0.31814788107E+02  0.10360890192E+03  0.10893707493E+03  0.47000000000E+01 0.  1.
          5    1    3    3  503    0  0.64649322179E+02  0.61737347110E+01  0.27370089259E+03  0.28133950747E+03  0.47000000000E+01 0. -1.
         -5    1    3    3    0  503  0.43934989069E+02  0.24025595538E+02  0.39166953772E+02  0.63746786376E+02  0.47000000000E+01 0.  1.
<mgrwt>
<rscale>  0 0.15076906E+03</rscale>
<asrwt>0</asrwt>
<pdfrwt beam="1">  1        1 0.11671245E+00 0.15253387E+03</pdfrwt>
<pdfrwt beam="2">  1       -1 0.45611084E-02 0.15253387E+03</pdfrwt>
<totfact> 0.49303920E+03</totfact>
</mgrwt>
</event>
<event>
 8    1  0.3466492E-004  0.9343721E+02  0.7546771E-02  0.1296222E+00
          1   -1    0    0  501    0  0.00000000000E+00  0.00000000000E+00  0.41442189119E+03  0.41442189119E+03  0.00000000000E+00 0. -1.
         -1   -1    0    0    0  501 -0.00000000000E+00 -0.00000000000E+00 -0.21459889655E+02  0.21459889655E+02  0.00000000000E+00 0.  1.
         23    2    1    2    0    0 -0.12231255754E+01  0.12160769466E+01  0.24523520693E+03  0.26243250528E+03  0.93421294307E+02 0.  0.
         23    2    1    2    0    0  0.12231255754E+01 -0.12160769466E+01  0.14772679460E+03  0.17344927556E+03  0.90876127066E+02 0.  0.
          5    1    3    3  502    0 -0.11747386900E+02 -0.43941398592E+02  0.14159983034E+03  0.14880003213E+03  0.47000000000E+01 0. -1.
         -5    1    3    3    0  502  0.10524261325E+02  0.45157475539E+02  0.10363537659E+03  0.11363247315E+03  0.47000000000E+01 0.  1.
          5    1    4    4  503    0  0.27776150816E+02 -0.36737408829E+02  0.75329835179E+02  0.88418469958E+02  0.47000000000E+01 0. -1.
         -5    1    4    4    0  503 -0.26553025240E+02  0.35521331882E+02  0.72396959421E+02  0.85030805603E+02  0.47000000000E+01 0.  1.
<mgrwt>
<rscale>  0 0.92794432E+02</rscale>
<asrwt>0</asrwt>
<pdfrwt beam="1">  1        1 0.63757208E-01 0.93437215E+02</pdfrwt>
<pdfrwt beam="2">  1       -1 0.33015218E-02 0.93437215E+02</pdfrwt>
<totfact> 0.17200009E+04</totfact>
</mgrwt>
</event>
<event>
 8    1  0.3466492E-004  0.1053756E+03  0.7546771E-02  0.1270285E+00
         -2   -1    0    0    0  501 -0.00000000000E+00  0.00000000000E+00  0.18287352976E+03  0.18287352976E+03  0.00000000000E+00 0.  1.
          2   -1    0    0  501    0  0.00000000000E+00 -0.00000000000E+00 -0.68175520247E+02  0.68175520247E+02  0.00000000000E+00 0. -1.
         23    2    1    2    0    0  0.81144035034E+01  0.47011416563E+02  0.10123955007E+03  0.14481751515E+03  0.91906198730E+02 0.  0.
         23    2    1    2    0    0 -0.81144035034E+01 -0.47011416563E+02  0.13458459446E+02  0.10623153486E+03  0.93957926947E+02 0.  0.
          5    1    3    3  502    0  0.39208506295E+02  0.16870241305E+01  0.14659403646E+02  0.42156151764E+02  0.47000000000E+01 0. -1.
         -5    1    3    3    0  502 -0.31094102792E+02  0.45324392432E+02  0.86580146425E+02  0.10266136339E+03  0.47000000000E+01 0.  1.
          5    1    4    4  503    0  0.40388058164E+02 -0.26195797528E+02  0.20958659836E+02  0.52714044357E+02  0.47000000000E+01 0. -1.
         -5    1    4    4    0  503 -0.48502461668E+02 -0.20815619035E+02 -0.75002003902E+01  0.53517490501E+02  0.47000000000E+01 0.  1.
<mgrwt>
<rscale>  0 0.10491625E+03</rscale>
<asrwt>0</asrwt>
<pdfrwt beam="1">  1        2 0.10488542E-01 0.10537556E+03</pdfrwt>
<pdfrwt beam="2">  1       -2 0.28134389E-01 0.10537556E+03</pdfrwt>
<totfact> 0.64367481E+03</totfact>
</mgrwt>
</event>
<event>
 8    1  0.3466492E-004  0.1067958E+03  0.7546771E-02  0.1275243E+00
         -2   -1    0    0    0  501 -0.00000000000E+00  0.00000000000E+00  0.12413289527E+02  0.12413289527E+02  0.00000000000E+00 0.  1.
          2   -1    0    0  501    0  0.00000000000E+00 -0.00000000000E+00 -0.80877257133E+03  0.80877257133E+03  0.00000000000E+00 0. -1.
         23    2    1    2    0    0 -0.26297672531E+02 -0.17160327117E+02 -0.35757495891E+03  0.37318252089E+03  0.10207496389E+03 0.  0.
         23    2    1    2    0    0  0.26297672531E+02  0.17160327117E+02 -0.43878432290E+03  0.44800333997E+03  0.84789540594E+02 0.  0.
          5    1    4    4  502    0 -0.12334327475E+02  0.40919402306E+02 -0.16844230708E+03  0.17384313025E+03  0.47000000000E+01 0. -1.
         -5    1    3    3    0  503  0.18060224555E+01 -0.51481291488E+02 -0.10917667104E+03  0.12081068078E+03  0.47000000000E+01 0.  1.
          5    1    3    3  503    0 -0.28103694986E+02  0.34320964371E+02 -0.24839828787E+03  0.25237184011E+03  0.47000000000E+01 0. -1.
         -5    1    4    4    0  502  0.38632000005E+02 -0.23759075189E+02 -0.27034201582E+03  0.27416020972E+03  0.47000000000E+01 0.  1.
<mgrwt>
<rscale>  0 0.10244214E+03</rscale>
<asrwt>0</asrwt>
<pdfrwt beam="1">  1        2 0.12442654E+00 0.10679580E+03</pdfrwt>
<pdfrwt beam="2">  1       -2 0.19097371E-02 0.10679580E+03</pdfrwt>
<totfact> 0.26756407E+04</totfact>
</mgrwt>
</event>
<event>
 8    1  0.3466492E-004  0.1059877E+03  0.7546771E-02  0.1273969E+00
          1   -1    0    0  501    0  0.00000000000E+00  0.00000000000E+00  0.13461290948E+03  0.13461290948E+03  0.00000000000E+00 0. -1.
         -1   -1    0    0    0  501 -0.00000000000E+00 -0.00000000000E+00 -0.10435836213E+03  0.10435836213E+03  0.00000000000E+00 0.  1.
         23    2    1    2    0    0  0.27456976882E+02 -0.20156868288E+01 -0.48926144964E+02  0.10667245874E+03  0.90704449839E+02 0.  0.
         23    2    1    2    0    0 -0.27456976882E+02  0.20156868288E+01  0.79180692312E+02  0.13229881287E+03  0.10234962276E+03 0.  0.
          5    1    4    4  502    0 -0.55007121362E+02 -0.29124742404E+02  0.58813877964E+02  0.85762440857E+02  0.47000000000E+01 0. -1.
         -5    1    4    4    0  502  0.27550144480E+02  0.31140429233E+02  0.20366814349E+02  0.46536372016E+02  0.47000000000E+01 0.  1.
          5    1    3    3  503    0 -0.31425677023E+02  0.67058563954E+01 -0.57327717848E+01  0.32977209686E+02  0.47000000000E+01 0. -1.
         -5    1    3    3    0  503  0.58882653905E+02 -0.87215432242E+01 -0.43193373179E+02  0.73695249058E+02  0.47000000000E+01 0.  1.
<mgrwt>
<rscale>  0 0.10307014E+03</rscale>
<asrwt>0</asrwt>
<pdfrwt beam="1">  1        1 0.20709678E-01 0.10598771E+03</pdfrwt>
<pdfrwt beam="2">  1       -1 0.16055133E-01 0.10598771E+03</pdfrwt>
<totfact> 0.65540867E+03</totfact>
</mgrwt>
</event>
<event>
 8    1  0.3466492E-004  0.1021644E+03  0.7546771E-02  0.1276046E+00
         -3   -1    0    0    0  501 -0.00000000000E+00  0.00000000000E+00  0.14897472222E+03  0.14897472222E+03  0.00000000000E+00 0.  1.
          3   -1    0    0  501    0  0.00000000000E+00 -0.00000000000E+00 -0.82400876762E+02  0.82400876762E+02  0.00000000000E+00 0. -1.
         23    2    1    2    0    0 -0.38151568898E+02  0.24283464900E+02 -0.12112303096E+02  0.10242185659E+03  0.91095005045E+02 0.  0.
         23    2    1    2    0    0  0.38151568898E+02 -0.24283464900E+02  0.78686148557E+02  0.12895374240E+03  0.91609654655E+02 0.  0.
          5    1    4    4  502    0  0.65949521585E+02 -0.56836419123E+01  0.39525576077E+02  0.77239914208E+02  0.47000000000E+01 0.  1.
         -5    1    3    3    0  503  0.28256236380E+01  0.51362333497E+02 -0.12225086997E+02  0.53081222699E+02  0.47000000000E+01 0.  1.
          5    1    3    3  503    0 -0.40977192536E+02 -0.27078868596E+02  0.11278390100E+00  0.49340633891E+02  0.47000000000E+01 0. -1.
         -5    1    4    4    0  502 -0.27797952687E+02 -0.18599822988E+02  0.39160572480E+02  0.51713828187E+02  0.47000000000E+01 0. -1.
<mgrwt>
<rscale>  0 0.10204886E+03</rscale>
<asrwt>0</asrwt>
<pdfrwt beam="1">  1        3 0.12677058E-01 0.10216437E+03</pdfrwt>
<pdfrwt beam="2">  1       -3 0.22919188E-01 0.10216437E+03</pdfrwt>
<totfact> 0.18949980E+03</totfact>
</mgrwt>
</event>
<event>
 8    1  0.3466492E-004  0.1047710E+03  0.7546771E-02  0.1272591E+00
          1   -1    0    0  501    0  0.00000000000E+00  0.00000000000E+00  0.13689041140E+03  0.13689041140E+03  0.00000000000E+00 0. -1.
         -1   -1    0    0    0  501 -0.00000000000E+00 -0.00000000000E+00 -0.97235096737E+02  0.97235096737E+02  0.00000000000E+00 0.  1.
         23    2    1    2    0    0  0.21149401072E+01 -0.46475176829E+02  0.72712535528E+02  0.12426316328E+03  0.89385714145E+02 0.  0.
         23    2    1    2    0    0 -0.21149401072E+01  0.46475176829E+02 -0.33057220861E+02  0.10986234486E+03  0.93875129473E+02 0.  0.
          5    1    3    3  502    0  0.19949182281E+02  0.75084352189E+01  0.62639392027E+02  0.66333475008E+02  0.47000000000E+01 0. -1.
         -5    1    3    3    0  502 -0.17834242174E+02 -0.53983612048E+02  0.10073143501E+02  0.57929688275E+02  0.47000000000E+01 0.  1.
          5    1    4    4  503    0 -0.12335988430E+02 -0.19850719458E+02 -0.35248806920E+02  0.42553449483E+02  0.47000000000E+01 0. -1.
         -5    1    4    4    0  503  0.10221048323E+02  0.66325896287E+02  0.21915860587E+01  0.67308895375E+02  0.47000000000E+01 0.  1.
<mgrwt>
<rscale>  0 0.10375560E+03</rscale>
<asrwt>0</asrwt>
<pdfrwt beam="1">  1        1 0.21060063E-01 0.10477096E+03</pdfrwt>
<pdfrwt beam="2">  1       -1 0.14959246E-01 0.10477096E+03</pdfrwt>
<totfact> 0.71592143E+03</totfact>
</mgrwt>
</event>
<event>
 8    1  0.3466492E-004  0.1093175E+03  0.7546771E-02  0.1263769E+00
         -1   -1    0    0    0  501 -0.00000000000E+00  0.00000000000E+00  0.23945418642E+03  0.23945418642E+03  0.00000000000E+00 0.  1.
          1   -1    0    0  501    0  0.00000000000E+00 -0.00000000000E+00 -0.83445329558E+02  0.83445329558E+02  0.00000000000E+00 0. -1.
         23    2    1    2    0    0  0.48269823902E+02  0.21055704379E+02  0.18225892659E+03  0.21047452618E+03  0.91147634419E+02 0.  0.
         23    2    1    2    0    0 -0.48269823902E+02 -0.21055704379E+02 -0.26250069731E+02  0.11242498980E+03  0.95796626165E+02 0.  0.
          5    1    3    3  502    0 -0.63869811443E+01  0.44699751922E+02  0.73498060814E+02  0.86388172184E+02  0.47000000000E+01 0. -1.
         -5    1    4    4    0  503 -0.66529216606E+02 -0.76597311516E-02  0.89420925016E+01  0.67291810343E+02  0.47000000000E+01 0.  1.
          5    1    4    4  503    0  0.18259392704E+02 -0.21048044648E+02 -0.35192162233E+02  0.45133179459E+02  0.47000000000E+01 0. -1.
         -5    1    3    3    0  502  0.54656805046E+02 -0.23644047543E+02  0.10876086578E+03  0.12408635399E+03  0.47000000000E+01 0.  1.
<mgrwt>
<rscale>  0 0.10829056E+03</rscale>
<asrwt>0</asrwt>
<pdfrwt beam="1">  1        1 0.12837743E-01 0.10931748E+03</pdfrwt>
<pdfrwt beam="2">  1       -1 0.36839105E-01 0.10931748E+03</pdfrwt>
<totfact> 0.31195312E+03</totfact>
</mgrwt>
</event>
<event>
 8    1  0.3466492E-004  0.2834733E+03  0.7546771E-02  0.1093891E+00
         -2   -1    0    0    0  501 -0.00000000000E+00  0.00000000000E+00  0.39248301348E+02  0.39248301348E+02  0.00000000000E+00 0.  1.
          2   -1    0    0  501    0  0.00000000000E+00 -0.00000000000E+00 -0.23404442601E+04  0.23404442601E+04  0.00000000000E+00 0. -1.
         23    2    1    2    0    0 -0.22657448109E+03 -0.14363434175E+03 -0.15759400611E+04  0.16012320857E+04  0.91598561891E+02 0.  0.
         23    2    1    2    0    0  0.22657448109E+03  0.14363434175E+03 -0.72525589767E+03  0.77846047575E+03  0.89653642350E+02 0.  0.
          5    1    4    4  502    0  0.44754756306E+02  0.63890642625E+02 -0.28434436885E+03  0.29488779650E+03  0.47000000000E+01 0. -1.
         -5    1    4    4    0  502  0.18181972478E+03  0.79743699124E+02 -0.44091152882E+03  0.48357267925E+03  0.47000000000E+01 0.  1.
          5    1    3    3  503    0 -0.12972443245E+03 -0.36734841967E+02 -0.90009049726E+03  0.91014442274E+03  0.47000000000E+01 0. -1.
         -5    1    3    3    0  503 -0.96850048641E+02 -0.10689949978E+03 -0.67584956379E+03  0.69108766293E+03  0.47000000000E+01 0.  1.
<mgrwt>
<rscale>  0 0.28331756E+03</rscale>
<asrwt>0</asrwt>
<pdfrwt beam="1">  1        2 0.36006830E+00 0.28347331E+03</pdfrwt>
<pdfrwt beam="2">  1       -2 0.60382010E-02 0.28347331E+03</pdfrwt>
<totfact> 0.71638388E+02</totfact>
</mgrwt>
</event>
<event>
 8    1  0.3466492E-004  0.1027669E+03  0.7546771E-02  0.1274871E+00
         -2   -1    0    0    0  501 -0.00000000000E+00  0.00000000000E+00  0.43822773379E+02  0.43822773379E+02  0.00000000000E+00 0.  1.
          2   -1    0    0  501    0  0.00000000000E+00 -0.00000000000E+00 -0.40398420134E+03  0.40398420134E+03  0.00000000000E+00 0. -1.
         23    2    1    2    0    0  0.43447014820E+02 -0.25275570205E+01 -0.32258225052E+03  0.33838469571E+03  0.92470872682E+02 0.  0.
         23    2    1    2    0    0 -0.43447014820E+02  0.25275570205E+01 -0.37579177441E+02  0.10942227902E+03  0.93096771837E+02 0.  0.
          5    1    4    4  502    0 -0.67476015868E+02  0.73850581141E+01 -0.47857427225E+01  0.68209567762E+02  0.47000000000E+01 0.  1.
         -5    1    4    4    0  502  0.24029001049E+02 -0.48575010936E+01 -0.32793434718E+02  0.41212711254E+02  0.47000000000E+01 0. -1.
          5    1    3    3  503    0 -0.52877005794E+01  0.30380610954E+02 -0.19916698153E+03  0.20159493503E+03  0.47000000000E+01 0. -1.
         -5    1    3    3    0  503  0.48734715399E+02 -0.32908167974E+02 -0.12341526900E+03  0.13678976068E+03  0.47000000000E+01 0.  1.
<mgrwt>
<rscale>  0 0.10262496E+03</rscale>
<asrwt>0</asrwt>
<pdfrwt beam="1">  1        2 0.62151419E-01 0.10276692E+03</pdfrwt>
<pdfrwt beam="2">  1       -2 0.67419648E-02 0.10276692E+03</pdfrwt>
<totfact> 0.90883956E+03</totfact>
</mgrwt>
</event>
<event>
 8    1  0.3466492E-004  0.1272282E+03  0.7546771E-02  0.1231678E+00
          2   -1    0    0  501    0  0.00000000000E+00  0.00000000000E+00  0.62290550476E+03  0.62290550476E+03  0.00000000000E+00 0. -1.
         -2   -1    0    0    0  501 -0.00000000000E+00 -0.00000000000E+00 -0.34000596752E+02  0.34000596752E+02  0.00000000000E+00 0.  1.
         23    2    1    2    0    0  0.78679706656E+02  0.41101705179E+02  0.45430144552E+03  0.47178048638E+03  0.91143719036E+02 0.  0.
         23    2    1    2    0    0 -0.78679706656E+02 -0.41101705179E+02  0.13460346250E+03  0.18512561514E+03  0.90959083421E+02 0.  0.
          5    1    4    4  502    0  0.19792977775E+02 -0.39241156012E+01  0.14126010233E+02  0.25075781495E+02  0.47000000000E+01 0. -1.
         -5    1    4    4    0  502 -0.98472684431E+02 -0.37177589578E+02  0.12047745226E+03  0.16004983364E+03  0.47000000000E+01 0.  1.
          5    1    3    3  503    0  0.41288518829E+02  0.42220370370E+02  0.40701543086E+03  0.41130396597E+03  0.47000000000E+01 0. -1.
         -5    1    3    3    0  503  0.37391187827E+02 -0.11186651906E+01  0.47286014656E+02  0.60476520410E+02  0.47000000000E+01 0.  1.
<mgrwt>
<rscale>  0 0.12719517E+03</rscale>
<asrwt>0</asrwt>
<pdfrwt beam="1">  1        2 0.95831608E-01 0.12722824E+03</pdfrwt>
<pdfrwt beam="2">  1       -2 0.52308615E-02 0.12722824E+03</pdfrwt>
<totfact> 0.84214899E+03</totfact>
</mgrwt>
</event>
<event>
 8    1  0.3466492E-004  0.1092590E+03  0.7546771E-02  0.1262147E+00
          1   -1    0    0  501    0  0.00000000000E+00  0.00000000000E+00  0.66258782909E+03  0.66258782909E+03  0.00000000000E+00 0. -1.
         -1   -1    0    0    0  501 -0.00000000000E+00 -0.00000000000E+00 -0.18942978794E+02  0.18942978794E+02  0.00000000000E+00 0.  1.
         23    2    1    2    0    0 -0.61068829074E+02  0.12462272365E+01  0.24426264588E+03  0.26758506575E+03  0.90590133425E+02 0.  0.
         23    2    1    2    0    0  0.61068829074E+02 -0.12462272365E+01  0.39938220441E+03  0.41394574213E+03  0.90077617968E+02 0.  0.
          5    1    3    3  502    0 -0.42817679681E+02  0.35098899482E+02  0.20510699813E+03  0.21250001676E+03  0.47000000000E+01 0. -1.
         -5    1    4    4    0  503  0.23861598780E+02 -0.39889595815E+02  0.10865095509E+03  0.11826950491E+03  0.47000000000E+01 0.  1.
          5    1    4    4  503    0  0.37207230294E+02  0.38643368578E+02  0.29073124932E+03  0.29567623721E+03  0.47000000000E+01 0. -1.
         -5    1    3    3    0  502 -0.18251149392E+02 -0.33852672246E+02  0.39155647748E+02  0.55085048996E+02  0.47000000000E+01 0.  1.
<mgrwt>
<rscale>  0 0.10915270E+03</rscale>
<asrwt>0</asrwt>
<pdfrwt beam="1">  1        1 0.10193657E+00 0.10925899E+03</pdfrwt>
<pdfrwt beam="2">  1       -1 0.29143049E-02 0.10925899E+03</pdfrwt>
<totfact> 0.11303198E+04</totfact>
</mgrwt>
</event>
<event>
 8    1  0.3466492E-004  0.9612659E+02  0.7546771E-02  0.1292079E+00
         -2   -1    0    0    0  501 -0.00000000000E+00  0.00000000000E+00  0.90538838521E+02  0.90538838521E+02  0.00000000000E+00 0.  1.
          2   -1    0    0  501    0  0.00000000000E+00 -0.00000000000E+00 -0.10506958099E+03  0.10506958099E+03  0.00000000000E+00 0. -1.
         23    2    1    2    0    0  0.76258153179E+01  0.29493479869E+01 -0.36047286710E+02  0.97103177988E+02  0.89792920564E+02 0.  0.
         23    2    1    2    0    0 -0.76258153179E+01 -0.29493479869E+01  0.21516544243E+02  0.98505241520E+02  0.95778229353E+02 0.  0.
          5    1    4    4  502    0 -0.34833101526E+01  0.38902913039E+02 -0.15498062152E+02  0.42282975570E+02  0.47000000000E+01 0. -1.
         -5    1    4    4    0  502 -0.41425051652E+01 -0.41852261026E+02  0.37014606395E+02  0.56222265951E+02  0.47000000000E+01 0.  1.
          5    1    3    3  503    0 -0.39661596256E+02 -0.87292748523E+01 -0.12175426000E+02  0.42656458541E+02  0.47000000000E+01 0. -1.
         -5    1    3    3    0  503  0.47287411574E+02  0.11678622839E+02 -0.23871860710E+02  0.54446719447E+02  0.47000000000E+01 0.  1.
<mgrwt>
<rscale>  0 0.94600064E+02</rscale>
<asrwt>0</asrwt>
<pdfrwt beam="1">  1        2 0.16164551E-01 0.96126588E+02</pdfrwt>
<pdfrwt beam="2">  1       -2 0.13929052E-01 0.96126588E+02</pdfrwt>
<totfact> 0.12494655E+04</totfact>
</mgrwt>
</event>
<event>
 8    1  0.3466492E-004  0.1119342E+03  0.7546771E-02  0.1262217E+00
         -1   -1    0    0    0  501 -0.00000000000E+00  0.00000000000E+00  0.37699855104E+02  0.37699855104E+02  0.00000000000E+00 0.  1.
          1   -1    0    0  501    0  0.00000000000E+00 -0.00000000000E+00 -0.38182429105E+03  0.38182429105E+03  0.00000000000E+00 0. -1.
         23    2    1    2    0    0 -0.84095411249E+01  0.43215627330E+02 -0.26162614182E+03  0.28047296255E+03  0.90986448498E+02 0.  0.
         23    2    1    2    0    0  0.84095411249E+01 -0.43215627330E+02 -0.82498294127E+02  0.13905118360E+03  0.10291235252E+03 0.  0.
          5    1    3    3  502    0  0.33315844079E+02 -0.81976359915E+01 -0.84883444991E+02  0.91675710720E+02  0.47000000000E+01 0. -1.
         -5    1    4    4    0  503 -0.22071952269E+02  0.24112225354E+02 -0.79434088442E+01  0.33967016833E+02  0.47000000000E+01 0.  1.
          5    1    4    4  503    0  0.30481493394E+02 -0.67327852684E+02 -0.74554885283E+02  0.10508416677E+03  0.47000000000E+01 0. -1.
         -5    1    3    3    0  502 -0.41725385204E+02  0.51413263321E+02 -0.17674269683E+03  0.18879725183E+03  0.47000000000E+01 0.  1.
<mgrwt>
<rscale>  0 0.10911556E+03</rscale>
<asrwt>0</asrwt>
<pdfrwt beam="1">  1        1 0.58742201E-01 0.11193419E+03</pdfrwt>
<pdfrwt beam="2">  1       -1 0.57999775E-02 0.11193419E+03</pdfrwt>
<totfact> 0.84908272E+03</totfact>
</mgrwt>
</event>
<event>
 8    1  0.3466492E-004  0.1012351E+03  0.7546771E-02  0.1278290E+00
         -1   -1    0    0    0  501 -0.00000000000E+00  0.00000000000E+00  0.17449188638E+03  0.17449188638E+03  0.00000000000E+00 0.  1.
          1   -1    0    0  501    0  0.00000000000E+00 -0.00000000000E+00 -0.58101812743E+02  0.58101812743E+02  0.00000000000E+00 0. -1.
         23    2    1    2    0    0  0.25524585809E+02 -0.38197802286E+02  0.58608417737E+02  0.11602926285E+03  0.88979023527E+02 0.  0.
         23    2    1    2    0    0 -0.25524585809E+02  0.38197802286E+02  0.57781655904E+02  0.11656443628E+03  0.90210705934E+02 0.  0.
          5    1    3    3  502    0  0.33767187186E+02  0.92062202723E+01 -0.54958962104E+01  0.35738946506E+02  0.47000000000E+01 0. -1.
         -5    1    4    4    0  503 -0.54364268018E+02  0.45562740236E+02  0.41428577139E+02  0.82279122131E+02  0.47000000000E+01 0.  1.
          5    1    4    4  503    0  0.28839682209E+02 -0.73649379503E+01  0.16353078765E+02  0.34285314145E+02  0.47000000000E+01 0. -1.
         -5    1    3    3    0  502 -0.82426013768E+01 -0.47404022558E+02  0.64104313947E+02  0.80290316345E+02  0.47000000000E+01 0.  1.
<mgrwt>
<rscale>  0 0.10095999E+03</rscale>
<asrwt>0</asrwt>
<pdfrwt beam="1">  1        1 0.89387405E-02 0.10123511E+03</pdfrwt>
<pdfrwt beam="2">  1       -1 0.26844905E-01 0.10123511E+03</pdfrwt>
<totfact> 0.84831520E+03</totfact>
</mgrwt>
</event>
<event>
 8    1  0.3466492E-004  0.9440314E+02  0.7546771E-02  0.1296093E+00
          2   -1    0    0  501    0  0.00000000000E+00  0.00000000000E+00  0.49487402507E+03  0.49487402507E+03  0.00000000000E+00 0. -1.
         -2   -1    0    0    0  501 -0.00000000000E+00 -0.00000000000E+00 -0.20460799112E+02  0.20460799112E+02  0.00000000000E+00 0.  1.
         23    2    1    2    0    0 -0.14994811902E+02  0.13533483461E+01  0.33859914219E+03  0.34993404574E+03  0.87050452830E+02 0.  0.
         23    2    1    2    0    0  0.14994811902E+02 -0.13533483461E+01  0.13581408377E+03  0.16540077845E+03  0.93194829391E+02 0.  0.
          5    1    4    4  502    0 -0.21971176055E+02 -0.29802709652E+02  0.24578680004E+02  0.44689323005E+02  0.47000000000E+01 0. -1.
         -5    1    3    3    0  503 -0.41427819552E+02  0.18232705534E+02  0.10845070688E+03  0.11761097571E+03  0.47000000000E+01 0.  1.
          5    1    3    3  503    0  0.26433007650E+02 -0.16879357188E+02  0.23014843531E+03  0.23232307003E+03  0.47000000000E+01 0. -1.
         -5    1    4    4    0  502  0.36965987957E+02  0.28449361306E+02  0.11123540376E+03  0.12071145544E+03  0.47000000000E+01 0.  1.
<mgrwt>
<rscale>  0 0.92850160E+02</rscale>
<asrwt>0</asrwt>
<pdfrwt beam="1">  1        2 0.76134457E-01 0.94403136E+02</pdfrwt>
<pdfrwt beam="2">  1       -2 0.31478156E-02 0.94403136E+02</pdfrwt>
<totfact> 0.22491843E+04</totfact>
</mgrwt>
</event>
<event>
 8    1  0.3466492E-004  0.9488876E+02  0.7546771E-02  0.1291914E+00
         -1   -1    0    0    0  501 -0.00000000000E+00  0.00000000000E+00  0.35967269450E+02  0.35967269450E+02  0.00000000000E+00 0.  1.
          1   -1    0    0  501    0  0.00000000000E+00 -0.00000000000E+00 -0.25878813227E+03  0.25878813227E+03  0.00000000000E+00 0. -1.
         23    2    1    2    0    0 -0.21778366534E+02 -0.19743396515E+01 -0.81908511866E+02  0.12535102929E+03  0.92334614108E+02 0.  0.
         23    2    1    2    0    0  0.21778366534E+02  0.19743396515E+01 -0.14091235095E+03  0.16940437243E+03  0.91451383152E+02 0.  0.
          5    1    4    4  502    0 -0.13528312411E+02  0.34591711845E+02 -0.28488398315E+02  0.47045516296E+02  0.47000000000E+01 0. -1.
         -5    1    4    4    0  502  0.35306678944E+02 -0.32617372193E+02 -0.11242395264E+03  0.12235885613E+03  0.47000000000E+01 0.  1.
          5    1    3    3  503    0 -0.28301853828E+02  0.37407068548E+02 -0.19275851817E+02  0.50930660419E+02  0.47000000000E+01 0. -1.
         -5    1    3    3    0  503  0.65234872941E+01 -0.39381408200E+02 -0.62632660049E+02  0.74420368872E+02  0.47000000000E+01 0.  1.
<mgrwt>
<rscale>  0 0.94673215E+02</rscale>
<asrwt>0</asrwt>
<pdfrwt beam="1">  1        1 0.39813559E-01 0.94888757E+02</pdfrwt>
<pdfrwt beam="2">  1       -1 0.55334261E-02 0.94888757E+02</pdfrwt>
<totfact> 0.14479720E+04</totfact>
</mgrwt>
</event>
<event>
 8    1  0.3466492E-004  0.9936979E+02  0.7546771E-02  0.1282846E+00
         -2   -1    0    0    0  501 -0.00000000000E+00  0.00000000000E+00  0.74911710092E+02  0.74911710092E+02  0.00000000000E+00 0.  1.
          2   -1    0    0  501    0  0.00000000000E+00 -0.00000000000E+00 -0.15243251976E+03  0.15243251976E+03  0.00000000000E+00 0. -1.
         23    2    1    2    0    0  0.13236594428E+02 -0.35139247367E+02  0.55989472440E+01  0.99527397697E+02  0.92002068153E+02 0.  0.
         23    2    1    2    0    0 -0.13236594428E+02  0.35139247367E+02 -0.83119756910E+02  0.12781683215E+03  0.89544818138E+02 0.  0.
          5    1    3    3  502    0  0.50713194252E+02 -0.55183675932E+01  0.55423906035E+01  0.51527551327E+02  0.47000000000E+01 0. -1.
         -5    1    3    3    0  502 -0.37476599824E+02 -0.29620879774E+02  0.56556640455E-01  0.47999846370E+02  0.47000000000E+01 0.  1.
          5    1    4    4  503    0  0.12795207271E+02  0.37574218287E+02 -0.91592325534E+02  0.99933894679E+02  0.47000000000E+01 0. -1.
         -5    1    4    4    0  503 -0.26031801699E+02 -0.24349709197E+01  0.84725686243E+01  0.27882937474E+02  0.47000000000E+01 0.  1.
<mgrwt>
<rscale>  0 0.98797203E+02</rscale>
<asrwt>0</asrwt>
<pdfrwt beam="1">  1        2 0.23451157E-01 0.99369788E+02</pdfrwt>
<pdfrwt beam="2">  1       -2 0.11524879E-01 0.99369788E+02</pdfrwt>
<totfact> 0.11157575E+04</totfact>
</mgrwt>
</event>
<event>
 8    1  0.3466492E-004  0.9991768E+02  0.7546771E-02  0.1280559E+00
          1   -1    0    0  501    0  0.00000000000E+00  0.00000000000E+00  0.47931386267E+03  0.47931386267E+03  0.00000000000E+00 0. -1.
         -1   -1    0    0    0  501 -0.00000000000E+00 -0.00000000000E+00 -0.22271781748E+02  0.22271781748E+02  0.00000000000E+00 0.  1.
         23    2    1    2    0    0 -0.23007795038E+02  0.20686402722E+02  0.29295832650E+03  0.30947364354E+03  0.94826521039E+02 0.  0.
         23    2    1    2    0    0  0.23007795038E+02 -0.20686402722E+02  0.16408375443E+03  0.19211200088E+03  0.95006613058E+02 0.  0.
          5    1    4    4  502    0 -0.17281286756E+02 -0.13488004997E+02  0.14497765695E+03  0.14670098897E+03  0.47000000000E+01 0. -1.
         -5    1    3    3    0  503 -0.17012520721E+02 -0.30576537613E+02  0.19956922404E+03  0.20266799376E+03  0.47000000000E+01 0.  1.
          5    1    3    3  503    0 -0.59952743172E+01  0.51262940335E+02  0.93389102461E+02  0.10680564978E+03  0.47000000000E+01 0. -1.
         -5    1    4    4    0  502  0.40289081794E+02 -0.71983977251E+01  0.19106097477E+02  0.45411011907E+02  0.47000000000E+01 0.  1.
<mgrwt>
<rscale>  0 0.99874844E+02</rscale>
<asrwt>0</asrwt>
<pdfrwt beam="1">  1        1 0.73740587E-01 0.99917678E+02</pdfrwt>
<pdfrwt beam="2">  1       -1 0.34264283E-02 0.99917678E+02</pdfrwt>
<totfact> 0.13648093E+04</totfact>
</mgrwt>
</event>
<event>
 8    1  0.3466492E-004  0.9187571E+02  0.7546771E-02  0.1298400E+00
          1   -1    0    0  501    0  0.00000000000E+00  0.00000000000E+00  0.35068637567E+03  0.35068637567E+03  0.00000000000E+00 0. -1.
         -1   -1    0    0    0  501 -0.00000000000E+00 -0.00000000000E+00 -0.11756252948E+03  0.11756252948E+03  0.00000000000E+00 0.  1.
         23    2    1    2    0    0 -0.16149550645E+01 -0.21517923721E+02 -0.92243274608E+02  0.13015881388E+03  0.89257302221E+02 0.  0.
         23    2    1    2    0    0  0.16149550645E+01  0.21517923721E+02  0.32536712079E+03  0.33809009127E+03  0.89305752347E+02 0.  0.
          5    1    3    3  502    0 -0.17775009936E+02  0.16289914350E+02  0.44659103138E+01  0.24966910956E+02  0.47000000000E+01 0. -1.
         -5    1    4    4    0  503 -0.29890900855E+02 -0.33567965136E+01  0.42099487784E+02  0.51953738156E+02  0.47000000000E+01 0.  1.
          5    1    4    4  503    0  0.31505855919E+02  0.24874720235E+02  0.28326763301E+03  0.28613635311E+03  0.47000000000E+01 0. -1.
         -5    1    3    3    0  502  0.16160054872E+02 -0.37807838071E+02 -0.96709184921E+02  0.10519190293E+03  0.47000000000E+01 0.  1.
<mgrwt>
<rscale>  0 0.91863937E+02</rscale>
<asrwt>0</asrwt>
<pdfrwt beam="1">  1        1 0.53951750E-01 0.91875712E+02</pdfrwt>
<pdfrwt beam="2">  1       -1 0.18086543E-01 0.91875712E+02</pdfrwt>
<totfact> 0.16566841E+03</totfact>
</mgrwt>
</event>
<event>
 8    1  0.3466492E-004  0.1359603E+03  0.7546771E-02  0.1219075E+00
          3   -1    0    0  501    0  0.00000000000E+00  0.00000000000E+00  0.33669319603E+03  0.33669319603E+03  0.00000000000E+00 0. -1.
         -3   -1    0    0    0  501 -0.00000000000E+00 -0.00000000000E+00 -0.93042690208E+02  0.93042690208E+02  0.00000000000E+00 0.  1.
         23    2    1    2    0    0  0.82052949007E+02  0.58067799118E+02  0.25997268241E+03  0.29337858209E+03  0.91545841512E+02 0.  0.
         23    2    1    2    0    0 -0.82052949007E+02 -0.58067799118E+02 -0.16322176584E+02  0.13635730415E+03  0.90677148226E+02 0.  0.
          5    1    3    3  502    0  0.73246127646E+02  0.24938219740E+02  0.24255557324E+03  0.25464132839E+03  0.47000000000E+01 0. -1.
         -5    1    4    4    0  503 -0.36890184412E+02 -0.77387992899E+02 -0.13659922678E+02  0.86939465368E+02  0.47000000000E+01 0.  1.
          5    1    4    4  503    0 -0.45162764595E+02  0.19320193781E+02 -0.26622539058E+01  0.49417838778E+02  0.47000000000E+01 0. -1.
         -5    1    3    3    0  502  0.88068213611E+01  0.33129579377E+02  0.17417109171E+02  0.38737253698E+02  0.47000000000E+01 0.  1.
<mgrwt>
<rscale>  0 0.13581419E+03</rscale>
<asrwt>0</asrwt>
<pdfrwt beam="1">  1        3 0.51798953E-01 0.13596028E+03</pdfrwt>
<pdfrwt beam="2">  1       -3 0.14314260E-01 0.13596028E+03</pdfrwt>
<totfact> 0.34849025E+02</totfact>
</mgrwt>
</event>
<event>
 8    1  0.3466492E-004  0.9653068E+02  0.7546771E-02  0.1288242E+00
          3   -1    0    0  501    0  0.00000000000E+00  0.00000000000E+00  0.51064230063E+03  0.51064230063E+03  0.00000000000E+00 0. -1.
         -3   -1    0    0    0  501 -0.00000000000E+00 -0.00000000000E+00 -0.26647963398E+02  0.26647963398E+02  0.00000000000E+00 0.  1.
         23    2    1    2    0    0  0.16105779152E+02 -0.22226777634E+02  0.88983606072E+02  0.13065572315E+03  0.91648295543E+02 0.  0.
         23    2    1    2    0    0 -0.16105779152E+02  0.22226777634E+02  0.39501073116E+03  0.40663454088E+03  0.92545914758E+02 0.  0.
          5    1    3    3  502    0 -0.26429199398E+02  0.14237675458E+02  0.68932509637E+01  0.31157998847E+02  0.47000000000E+01 0. -1.
         -5    1    4    4    0  503  0.22013639914E+02  0.16392432298E+02  0.35924562297E+02  0.45453012608E+02  0.47000000000E+01 0.  1.
          5    1    4    4  503    0 -0.38119419066E+02  0.58343453357E+01  0.35908616886E+03  0.36118152827E+03  0.47000000000E+01 0. -1.
         -5    1    3    3    0  502  0.42534978550E+02 -0.36464453092E+02  0.82090355108E+02  0.99497724302E+02  0.47000000000E+01 0.  1.
<mgrwt>
<rscale>  0 0.96314901E+02</rscale>
<asrwt>0</asrwt>
<pdfrwt beam="1">  1        3 0.78560346E-01 0.96530680E+02</pdfrwt>
<pdfrwt beam="2">  1       -3 0.40996871E-02 0.96530680E+02</pdfrwt>
<totfact> 0.10547463E+03</totfact>
</mgrwt>
</event>
<event>
 8    1  0.3466492E-004  0.1164002E+03  0.7546771E-02  0.1250165E+00
         -1   -1    0    0    0  501 -0.00000000000E+00  0.00000000000E+00  0.69979171796E+02  0.69979171796E+02  0.00000000000E+00 0.  1.
          1   -1    0    0  501    0  0.00000000000E+00 -0.00000000000E+00 -0.38540732730E+03  0.38540732730E+03  0.00000000000E+00 0. -1.
         23    2    1    2    0    0  0.24988483926E+02  0.66101662784E+02 -0.32071798673E+03  0.34118767393E+03  0.92494041325E+02 0.  0.
         23    2    1    2    0    0 -0.24988483926E+02 -0.66101662784E+02  0.52898312242E+01  0.11419882516E+03  0.89551857616E+02 0.  0.
          5    1    4    4  502    0 -0.12858898908E+01 -0.70619844585E+02  0.32185533117E+02  0.77761266091E+02  0.47000000000E+01 0. -1.
         -5    1    3    3    0  503 -0.32258834500E+02  0.82662459676E+01 -0.11789327831E+03  0.12259640410E+03  0.47000000000E+01 0.  1.
          5    1    3    3  503    0  0.57247318426E+02  0.57835416816E+02 -0.20282470841E+03  0.21859126983E+03  0.47000000000E+01 0. -1.
         -5    1    4    4    0  502 -0.23702594035E+02  0.45181818010E+01 -0.26895701893E+02  0.36437559072E+02  0.47000000000E+01 0.  1.
<mgrwt>
<rscale>  0 0.11581479E+03</rscale>
<asrwt>0</asrwt>
<pdfrwt beam="1">  1        1 0.59293435E-01 0.11640018E+03</pdfrwt>
<pdfrwt beam="2">  1       -1 0.10766026E-01 0.11640018E+03</pdfrwt>
<totfact> 0.33229847E+03</totfact>
</mgrwt>
</event>
<event>
 8    1  0.3466492E-004  0.9997033E+02  0.7546771E-02  0.1280980E+00
         -2   -1    0    0    0  501 -0.00000000000E+00  0.00000000000E+00  0.69462042315E+02  0.69462042315E+02  0.00000000000E+00 0.  1.
          2   -1    0    0  501    0  0.00000000000E+00 -0.00000000000E+00 -0.36614859661E+03  0.36614859661E+03  0.00000000000E+00 0. -1.
         23    2    1    2    0    0 -0.39895410978E+02  0.59538424577E+01 -0.31834365595E+03  0.33332135440E+03  0.90185087224E+02 0.  0.
         23    2    1    2    0    0  0.39895410978E+02 -0.59538424577E+01  0.21657101661E+02  0.10228928452E+03  0.91471173701E+02 0.  0.
          5    1    4    4  502    0 -0.22656009682E+02 -0.25314061838E+02  0.85684717142E+01  0.35349755430E+02  0.47000000000E+01 0. -1.
         -5    1    4    4    0  502  0.62551420660E+02  0.19360219380E+02  0.13088629947E+02  0.66939529091E+02  0.47000000000E+01 0.  1.
          5    1    3    3  503    0  0.12392165520E+02 -0.26794897599E+02 -0.16971244396E+03  0.17232508796E+03  0.47000000000E+01 0. -1.
         -5    1    3    3    0  503 -0.52287576498E+02  0.32748740057E+02 -0.14863121199E+03  0.16099626644E+03  0.47000000000E+01 0.  1.
<mgrwt>
<rscale>  0 0.99675183E+02</rscale>
<asrwt>0</asrwt>
<pdfrwt beam="1">  1        2 0.56330554E-01 0.99970334E+02</pdfrwt>
<pdfrwt beam="2">  1       -2 0.10686468E-01 0.99970334E+02</pdfrwt>
<totfact> 0.49495278E+03</totfact>
</mgrwt>
</event>
<event>
 8    1  0.3466492E-004  0.9830921E+02  0.7546771E-02  0.1285554E+00
         -1   -1    0    0    0  501 -0.00000000000E+00  0.00000000000E+00  0.18737588225E+02  0.18737588225E+02  0.00000000000E+00 0.  1.
          1   -1    0    0  501    0  0.00000000000E+00 -0.00000000000E+00 -0.58971393377E+03  0.58971393377E+03  0.00000000000E+00 0. -1.
         23    2    1    2    0    0 -0.58287242072E+01  0.30270736525E+02 -0.40035204586E+03  0.41153186270E+03  0.90146668702E+02 0.  0.
         23    2    1    2    0    0  0.58287242072E+01 -0.30270736525E+02 -0.17062429969E+03  0.19691965930E+03  0.93350999233E+02 0.  0.
          5    1    3    3  502    0  0.27784272755E+02  0.48319224232E+02 -0.26425843800E+03  0.27011354149E+03  0.47000000000E+01 0. -1.
         -5    1    4    4    0  503 -0.34599776884E+02 -0.42102346632E+02 -0.80485097764E+02  0.97312348211E+02  0.47000000000E+01 0.  1.
          5    1    4    4  503    0  0.40428501091E+02  0.11831610106E+02 -0.90139201923E+02  0.99607311085E+02  0.47000000000E+01 0. -1.
         -5    1    3    3    0  502 -0.33612996962E+02 -0.18048487707E+02 -0.13609360786E+03  0.14141832121E+03  0.47000000000E+01 0.  1.
<mgrwt>
<rscale>  0 0.97540893E+02</rscale>
<asrwt>0</asrwt>
<pdfrwt beam="1">  1        1 0.90725232E-01 0.98309209E+02</pdfrwt>
<pdfrwt beam="2">  1       -1 0.28827055E-02 0.98309209E+02</pdfrwt>
<totfact> 0.13346081E+04</totfact>
</mgrwt>
</event>
<event>
 8    1  0.3466492E-004  0.9863260E+02  0.7546771E-02  0.1283415E+00
          1   -1    0    0  501    0  0.00000000000E+00  0.00000000000E+00  0.27575501405E+03  0.27575501405E+03  0.00000000000E+00 0. -1.
         -1   -1    0    0    0  501 -0.00000000000E+00 -0.00000000000E+00 -0.61700964303E+02  0.61700964303E+02  0.00000000000E+00 0.  1.
         23    2    1    2    0    0  0.26475766401E+02 -0.24136291125E+02  0.21786733274E+03  0.23915384929E+03  0.91895931360E+02 0.  0.
         23    2    1    2    0    0 -0.26475766401E+02  0.24136291125E+02 -0.38132829931E+01  0.98302129060E+02  0.91461689765E+02 0.  0.
          5    1    4    4  502    0 -0.58956300079E+01 -0.21321374037E+02 -0.33223543074E+02  0.40190213466E+02  0.47000000000E+01 0. -1.
         -5    1    4    4    0  502 -0.20580136394E+02  0.45457665162E+02  0.29410260081E+02  0.58111915594E+02  0.47000000000E+01 0.  1.
          5    1    3    3  503    0  0.11179040439E+02  0.21617480659E+02  0.11780856751E+02  0.27443851788E+02  0.47000000000E+01 0.  1.
         -5    1    3    3    0  503  0.15296725962E+02 -0.45753771784E+02  0.20608647599E+03  0.21170999751E+03  0.47000000000E+01 0. -1.
<mgrwt>
<rscale>  0 0.98531326E+02</rscale>
<asrwt>0</asrwt>
<pdfrwt beam="1">  1        1 0.42423848E-01 0.98632596E+02</pdfrwt>
<pdfrwt beam="2">  1       -1 0.94924562E-02 0.98632596E+02</pdfrwt>
<totfact> 0.60196655E+03</totfact>
</mgrwt>
</event>
<event>
 8    1  0.3466492E-004  0.9632265E+02  0.7546771E-02  0.1291660E+00
         -1   -1    0    0    0  501 -0.00000000000E+00  0.00000000000E+00  0.15785229250E+03  0.15785229250E+03  0.00000000000E+00 0.  1.
          1   -1    0    0  501    0  0.00000000000E+00 -0.00000000000E+00 -0.55171230746E+02  0.55171230746E+02  0.00000000000E+00 0. -1.
         23    2    1    2    0    0  0.25444707647E+02 -0.18648344879E+02  0.53194839233E+02  0.11003519531E+03  0.91010215759E+02 0.  0.
         23    2    1    2    0    0 -0.25444707647E+02  0.18648344879E+02  0.49486222521E+02  0.10298832793E+03  0.84631646309E+02 0.  0.
          5    1    3    3  502    0  0.49671920680E+02 -0.36358426280E+01  0.59979306892E+00  0.50029679265E+02  0.47000000000E+01 0. -1.
         -5    1    3    3    0  502 -0.24227213033E+02 -0.15012502251E+02  0.52595046164E+02  0.60005516048E+02  0.47000000000E+01 0.  1.
          5    1    4    4  503    0 -0.31596827069E+02  0.42710355887E+02  0.73321062393E+01  0.53836639593E+02  0.47000000000E+01 0. -1.
         -5    1    4    4    0  503  0.61521194215E+01 -0.24062011008E+02  0.42154116282E+02  0.49151688339E+02  0.47000000000E+01 0.  1.
<mgrwt>
<rscale>  0 0.94785598E+02</rscale>
<asrwt>0</asrwt>
<pdfrwt beam="1">  1        1 0.84878817E-02 0.96322652E+02</pdfrwt>
<pdfrwt beam="2">  1       -1 0.24284968E-01 0.96322652E+02</pdfrwt>
<totfact> 0.10650362E+04</totfact>
</mgrwt>
</event>
<event>
 8    1  0.3466492E-004  0.9934988E+02  0.7546771E-02  0.1282813E+00
          1   -1    0    0  501    0  0.00000000000E+00  0.00000000000E+00  0.25028734243E+03  0.25028734243E+03  0.00000000000E+00 0. -1.
         -1   -1    0    0    0  501 -0.00000000000E+00 -0.00000000000E+00 -0.41242639857E+02  0.41242639857E+02  0.00000000000E+00 0.  1.
         23    2    1    2    0    0 -0.32778755265E+02  0.22259900431E+02  0.68649061380E+02  0.12076047678E+03  0.91106800850E+02 0.  0.
         23    2    1    2    0    0  0.32778755265E+02 -0.22259900431E+02  0.14039564119E+03  0.17076950550E+03  0.88776900035E+02 0.  0.
          5    1    4    4  502    0 -0.21466152363E+01  0.23873138143E+02  0.92008129492E+02  0.95195170961E+02  0.47000000000E+01 0. -1.
         -5    1    3    3    0  503  0.52990042196E+01 -0.31730024389E+02  0.29003362617E+02  0.43567865871E+02  0.47000000000E+01 0.  1.
          5    1    3    3  503    0 -0.38077759484E+02  0.53989924819E+02  0.39645698763E+02  0.77192610914E+02  0.47000000000E+01 0. -1.
         -5    1    4    4    0  502  0.34925370501E+02 -0.46133038574E+02  0.48387511699E+02  0.75574334540E+02  0.47000000000E+01 0.  1.
<mgrwt>
<rscale>  0 0.98812501E+02</rscale>
<asrwt>0</asrwt>
<pdfrwt beam="1">  1        1 0.38505744E-01 0.99349882E+02</pdfrwt>
<pdfrwt beam="2">  1       -1 0.63450217E-02 0.99349882E+02</pdfrwt>
<totfact> 0.12378532E+04</totfact>
</mgrwt>
</event>
<event>
 8    1  0.3466492E-004  0.1201116E+03  0.7546771E-02  0.1244170E+00
          1   -1    0    0  501    0  0.00000000000E+00  0.00000000000E+00  0.17623176742E+03  0.17623176742E+03  0.00000000000E+00 0. -1.
         -1   -1    0    0    0  501 -0.00000000000E+00 -0.00000000000E+00 -0.10922977660E+03  0.10922977660E+03  0.00000000000E+00 0.  1.
         23    2    1    2    0    0  0.36758787959E+02  0.63336809562E+02 -0.40240650479E+02  0.12667324398E+03  0.95205256431E+02 0.  0.
         23    2    1    2    0    0 -0.36758787959E+02 -0.63336809562E+02  0.10724264130E+03  0.15878830003E+03  0.91378225940E+02 0.  0.
          5    1    3    3  502    0  0.18419749643E+02  0.96473264494E+01  0.29657961908E+02  0.36524550498E+02  0.47000000000E+01 0. -1.
         -5    1    3    3    0  502  0.18339038315E+02  0.53689483112E+02 -0.69898612387E+02  0.90148693483E+02  0.47000000000E+01 0.  1.
          5    1    4    4  503    0 -0.87034537042E+01 -0.78020868996E+02  0.97624297729E+02  0.12536187464E+03  0.47000000000E+01 0. -1.
         -5    1    4    4    0  503 -0.28055334255E+02  0.14684059434E+02  0.96183435723E+01  0.33426425395E+02  0.47000000000E+01 0.  1.
<mgrwt>
<rscale>  0 0.11935189E+03</rscale>
<asrwt>0</asrwt>
<pdfrwt beam="1">  1        1 0.27112580E-01 0.12011162E+03</pdfrwt>
<pdfrwt beam="2">  1       -1 0.16804581E-01 0.12011162E+03</pdfrwt>
<totfact> 0.43916062E+03</totfact>
</mgrwt>
</event>
<event>
 8    1  0.3466492E-004  0.1640382E+03  0.7546771E-02  0.1184317E+00
          1   -1    0    0  501    0  0.00000000000E+00  0.00000000000E+00  0.46713666219E+03  0.46713666219E+03  0.00000000000E+00 0. -1.
         -1   -1    0    0    0  501 -0.00000000000E+00 -0.00000000000E+00 -0.57779213554E+02  0.57779213554E+02  0.00000000000E+00 0.  1.
         23    2    1    2    0    0  0.13158897988E+03  0.34106116597E+02  0.22370821714E+03  0.27717779036E+03  0.91122303749E+02 0.  0.
         23    2    1    2    0    0 -0.13158897988E+03 -0.34106116597E+02  0.18564923150E+03  0.24773808539E+03  0.91813043610E+02 0.  0.
          5    1    4    4  502    0 -0.57869207960E+02 -0.62017918432E+02  0.10089383656E+03  0.13189664018E+03  0.47000000000E+01 0. -1.
         -5    1    4    4    0  502 -0.73719771921E+02  0.27911801835E+02  0.84755394948E+02  0.11584144520E+03  0.47000000000E+01 0.  1.
          5    1    3    3  503    0  0.11186479105E+03  0.25348300040E+02  0.22744818792E+03  0.25477644314E+03  0.47000000000E+01 0. -1.
         -5    1    3    3    0  503  0.19724188835E+02  0.87578165567E+01 -0.37399707817E+01  0.22401347225E+02  0.47000000000E+01 0.  1.
<mgrwt>
<rscale>  0 0.16394168E+03</rscale>
<asrwt>0</asrwt>
<pdfrwt beam="1">  1        1 0.71867176E-01 0.16403817E+03</pdfrwt>
<pdfrwt beam="2">  1       -1 0.88891101E-02 0.16403817E+03</pdfrwt>
<totfact> 0.35383227E+03</totfact>
</mgrwt>
</event>
<event>
 8    1  0.3466492E-004  0.3664622E+03  0.7546771E-02  0.1056187E+00
          2   -1    0    0  501    0  0.00000000000E+00  0.00000000000E+00  0.79723755588E+03  0.79723755588E+03  0.00000000000E+00 0. -1.
         -2   -1    0    0    0  501 -0.00000000000E+00 -0.00000000000E+00 -0.17064728613E+03  0.17064728613E+03  0.00000000000E+00 0.  1.
         23    2    1    2    0    0  0.32684595457E+03  0.13509518948E+03  0.37499489265E+03  0.52336847485E+03  0.90633342167E+02 0.  0.
         23    2    1    2    0    0 -0.32684595457E+03 -0.13509518948E+03  0.25159537709E+03  0.44451636715E+03  0.95997805467E+02 0.  0.
          5    1    3    3  502    0  0.16526122372E+03  0.54306279432E+02  0.24603584755E+03  0.30135721715E+03  0.47000000000E+01 0. -1.
         -5    1    4    4    0  503 -0.28219790726E+03 -0.76143438894E+02  0.19826615028E+03  0.35322094855E+03  0.47000000000E+01 0.  1.
          5    1    4    4  503    0 -0.44648047309E+02 -0.58951750581E+02  0.53329226814E+02  0.91295418601E+02  0.47000000000E+01 0. -1.
         -5    1    3    3    0  502  0.16158473085E+03  0.80788910044E+02  0.12895904511E+03  0.22201125770E+03  0.47000000000E+01 0.  1.
<mgrwt>
<rscale>  0 0.36611961E+03</rscale>
<asrwt>0</asrwt>
<pdfrwt beam="1">  1        2 0.12265193E+00 0.36646223E+03</pdfrwt>
<pdfrwt beam="2">  1       -2 0.26253429E-01 0.36646223E+03</pdfrwt>
<totfact> 0.46396154E+02</totfact>
</mgrwt>
</event>
<event>
 8    1  0.3466492E-004  0.1142439E+03  0.7546771E-02  0.1253732E+00
          2   -1    0    0  501    0  0.00000000000E+00  0.00000000000E+00  0.10881343764E+03  0.10881343764E+03  0.00000000000E+00 0. -1.
         -2   -1    0    0    0  501 -0.00000000000E+00 -0.00000000000E+00 -0.11890834541E+03  0.11890834541E+03  0.00000000000E+00 0.  1.
         23    2    1    2    0    0 -0.63458480401E+01 -0.64072878356E+02 -0.14943411512E+02  0.11337509339E+03  0.92114074528E+02 0.  0.
         23    2    1    2    0    0  0.63458480401E+01  0.64072878356E+02  0.48485037406E+01  0.11434668966E+03  0.94371891576E+02 0.  0.
          5    1    4    4  502    0 -0.41127926666E+02  0.23289384448E+02  0.16944277731E+02  0.50429161481E+02  0.47000000000E+01 0. -1.
         -5    1    3    3    0  503  0.15511950080E+02 -0.53222351887E+02 -0.46988194104E+02  0.72823208669E+02  0.47000000000E+01 0.  1.
          5    1    3    3  503    0 -0.21857798120E+02 -0.10850526469E+02  0.32044782592E+02  0.40551884724E+02  0.47000000000E+01 0. -1.
         -5    1    4    4    0  502  0.47473774706E+02  0.40783493908E+02 -0.12095773991E+02  0.63917528180E+02  0.47000000000E+01 0.  1.
<mgrwt>
<rscale>  0 0.11377652E+03</rscale>
<asrwt>0</asrwt>
<pdfrwt beam="1">  1        2 0.16740529E-01 0.11424385E+03</pdfrwt>
<pdfrwt beam="2">  1       -2 0.18293592E-01 0.11424385E+03</pdfrwt>
<totfact> 0.78046248E+03</totfact>
</mgrwt>
</event>
<event>
 8    1  0.3466492E-004  0.1880118E+03  0.7546771E-02  0.1163071E+00
         -1   -1    0    0    0  501 -0.00000000000E+00  0.00000000000E+00  0.77241872686E+03  0.77241872686E+03  0.00000000000E+00 0.  1.
          1   -1    0    0  501    0  0.00000000000E+00 -0.00000000000E+00 -0.46957013152E+02  0.46957013152E+02  0.00000000000E+00 0. -1.
         23    2    1    2    0    0 -0.14784705814E+03  0.27756543721E+02  0.23195455033E+03  0.29126802230E+03  0.91678618410E+02 0.  0.
         23    2    1    2    0    0  0.14784705814E+03 -0.27756543721E+02  0.49350716337E+03  0.52810771771E+03  0.11277970953E+03 0.  0.
          5    1    4    4  502    0  0.14091104350E+03  0.81251042900E+01  0.30602577924E+03  0.33703977074E+03  0.47000000000E+01 0. -1.
         -5    1    4    4    0  502  0.69360146442E+01 -0.35881648011E+02  0.18748138414E+03  0.19106794697E+03  0.47000000000E+01 0.  1.
          5    1    3    3  503    0 -0.71920546440E+02  0.58187102678E+02  0.10339576619E+03  0.13882030970E+03  0.47000000000E+01 0. -1.
         -5    1    3    3    0  503 -0.75926511704E+02 -0.30430558957E+02  0.12855878414E+03  0.15244771260E+03  0.47000000000E+01 0.  1.
<mgrwt>
<rscale>  0 0.18497747E+03</rscale>
<asrwt>0</asrwt>
<pdfrwt beam="1">  1        1 0.72241564E-02 0.18801181E+03</pdfrwt>
<pdfrwt beam="2">  1       -1 0.11883364E+00 0.18801181E+03</pdfrwt>
<totfact> 0.67436869E+02</totfact>
</mgrwt>
</event>
<event>
 8    1  0.3466492E-004  0.1305365E+03  0.7546771E-02  0.1226784E+00
          1   -1    0    0  501    0  0.00000000000E+00  0.00000000000E+00  0.12477374825E+03  0.12477374825E+03  0.00000000000E+00 0. -1.
         -1   -1    0    0    0  501 -0.00000000000E+00 -0.00000000000E+00 -0.44465668616E+03  0.44465668616E+03  0.00000000000E+00 0.  1.
         23    2    1    2    0    0  0.67114424875E+02 -0.65888024302E+02 -0.39713044359E+03  0.41803393662E+03  0.90521849129E+02 0.  0.
         23    2    1    2    0    0 -0.67114424875E+02  0.65888024302E+02  0.77247505683E+02  0.15139649779E+03  0.90045236614E+02 0.  0.
          5    1    3    3  502    0 -0.22265999782E+02 -0.18065491000E+02 -0.87402865633E+02  0.92105850152E+02  0.47000000000E+01 0. -1.
         -5    1    4    4    0  503 -0.82276434288E+01  0.44227163740E+02  0.76027350468E+02  0.88464592624E+02  0.47000000000E+01 0.  1.
          5    1    4    4  503    0 -0.58886781446E+02  0.21660860561E+02  0.12201552148E+01  0.62931905168E+02  0.47000000000E+01 0. -1.
         -5    1    3    3    0  502  0.89380424657E+02 -0.47822533302E+02 -0.30972757796E+03  0.32592808647E+03  0.47000000000E+01 0.  1.
<mgrwt>
<rscale>  0 0.13045393E+03</rscale>
<asrwt>0</asrwt>
<pdfrwt beam="1">  1        1 0.19195961E-01 0.13053652E+03</pdfrwt>
<pdfrwt beam="2">  1       -1 0.68408722E-01 0.13053652E+03</pdfrwt>
<totfact> 0.60371747E+02</totfact>
</mgrwt>
</event>
<event>
 8    1  0.3466492E-004  0.1263680E+03  0.7546771E-02  0.1234548E+00
         -3   -1    0    0    0  501 -0.00000000000E+00  0.00000000000E+00  0.64558347647E+02  0.64558347647E+02  0.00000000000E+00 0.  1.
          3   -1    0    0  501    0  0.00000000000E+00 -0.00000000000E+00 -0.26634502092E+03  0.26634502092E+03  0.00000000000E+00 0. -1.
         23    2    1    2    0    0  0.32972445974E+02  0.78327998965E+02 -0.49787101575E+02  0.13582201904E+03  0.93522231353E+02 0.  0.
         23    2    1    2    0    0 -0.32972445974E+02 -0.78327998965E+02 -0.15199957170E+03  0.19508134953E+03  0.87922724723E+02 0.  0.
          5    1    3    3  502    0 -0.24610886637E+02  0.10050944320E+02 -0.36500949096E+02  0.45399631140E+02  0.47000000000E+01 0. -1.
         -5    1    4    4    0  503  0.24173314610E+02 -0.32474288041E+01 -0.51342864161E+02  0.57035731198E+02  0.47000000000E+01 0.  1.
          5    1    4    4  503    0 -0.57145760584E+02 -0.75080570161E+02 -0.10065670754E+03  0.13804561833E+03  0.47000000000E+01 0. -1.
         -5    1    3    3    0  502  0.57583332611E+02  0.68277054645E+02 -0.13286152479E+02  0.90422387898E+02  0.47000000000E+01 0.  1.
<mgrwt>
<rscale>  0 0.12533383E+03</rscale>
<asrwt>0</asrwt>
<pdfrwt beam="1">  1        3 0.40976156E-01 0.12636798E+03</pdfrwt>
<pdfrwt beam="2">  1       -3 0.99320537E-02 0.12636798E+03</pdfrwt>
<totfact> 0.10081959E+03</totfact>
</mgrwt>
</event>
<event>
 8    1  0.3466492E-004  0.9143150E+02  0.7546771E-02  0.1299676E+00
          3   -1    0    0  501    0  0.00000000000E+00  0.00000000000E+00  0.19857068819E+02  0.19857068819E+02  0.00000000000E+00 0. -1.
         -3   -1    0    0    0  501 -0.00000000000E+00 -0.00000000000E+00 -0.52026448626E+03  0.52026448626E+03  0.00000000000E+00 0.  1.
         23    2    1    2    0    0  0.30987056901E+00 -0.71789627365E+01 -0.36886195494E+03  0.37992190490E+03  0.90718677750E+02 0.  0.
         23    2    1    2    0    0 -0.30987056901E+00  0.71789627365E+01 -0.13154546250E+03  0.16019965018E+03  0.91148700965E+02 0.  0.
          5    1    3    3  502    0 -0.30515992753E+02  0.74464616179E+01 -0.50197712417E+02  0.59401817617E+02  0.47000000000E+01 0. -1.
         -5    1    4    4    0  503  0.31611811172E+02 -0.28615847369E+02 -0.68893953154E+02  0.81158117939E+02  0.47000000000E+01 0.  1.
          5    1    4    4  503    0 -0.31921681741E+02  0.35794810105E+02 -0.62651509344E+02  0.79041532239E+02  0.47000000000E+01 0. -1.
         -5    1    3    3    0  502  0.30825863322E+02 -0.14625424354E+02 -0.31866424253E+03  0.32052008729E+03  0.47000000000E+01 0.  1.
<mgrwt>
<rscale>  0 0.91324139E+02</rscale>
<asrwt>0</asrwt>
<pdfrwt beam="1">  1        3 0.30549340E-02 0.91431500E+02</pdfrwt>
<pdfrwt beam="2">  1       -3 0.80040682E-01 0.91431500E+02</pdfrwt>
<totfact> 0.15772352E+03</totfact>
</mgrwt>
</event>
<event>
 8    1  0.3466492E-004  0.1179921E+03  0.7546771E-02  0.1250027E+00
          3   -1    0    0  501    0  0.00000000000E+00  0.00000000000E+00  0.81894378942E+02  0.81894378942E+02  0.00000000000E+00 0. -1.
         -3   -1    0    0    0  501 -0.00000000000E+00 -0.00000000000E+00 -0.20654703360E+03  0.20654703360E+03  0.00000000000E+00 0.  1.
         23    2    1    2    0    0  0.71484912411E+02 -0.18437016017E+02  0.55301286587E+01  0.11812159445E+03  0.92044079067E+02 0.  0.
         23    2    1    2    0    0 -0.71484912411E+02  0.18437016017E+02 -0.13018278332E+03  0.17031981809E+03  0.81309698677E+02 0.  0.
          5    1    4    4  502    0 -0.30198114435E+02  0.35560743605E+02 -0.19356508199E+02  0.50727280736E+02  0.47000000000E+01 0. -1.
         -5    1    3    3    0  503  0.46607890612E+02 -0.46329714693E+02  0.30833550400E+02  0.72742943033E+02  0.47000000000E+01 0.  1.
          5    1    3    3  503    0  0.24877021799E+02  0.27892698675E+02 -0.25303421742E+02  0.45378651421E+02  0.47000000000E+01 0. -1.
         -5    1    4    4    0  502 -0.41286797976E+02 -0.17123727588E+02 -0.11082627512E+03  0.11959253735E+03  0.47000000000E+01 0.  1.
<mgrwt>
<rscale>  0 0.11589476E+03</rscale>
<asrwt>0</asrwt>
<pdfrwt beam="1">  1        3 0.12599135E-01 0.11799207E+03</pdfrwt>
<pdfrwt beam="2">  1       -3 0.31776467E-01 0.11799207E+03</pdfrwt>
<totfact> 0.10856526E+03</totfact>
</mgrwt>
</event>
<event>
 8    1  0.3466492E-004  0.9546981E+02  0.7546771E-02  0.1291787E+00
         -1   -1    0    0    0  501 -0.00000000000E+00  0.00000000000E+00  0.18919622857E+03  0.18919622857E+03  0.00000000000E+00 0.  1.
          1   -1    0    0  501    0  0.00000000000E+00 -0.00000000000E+00 -0.50488146852E+02  0.50488146852E+02  0.00000000000E+00 0. -1.
         23    2    1    2    0    0  0.20435120271E+02  0.25281249630E+02  0.10113961619E+03  0.13708869606E+03  0.86644981963E+02 0.  0.
         23    2    1    2    0    0 -0.20435120271E+02 -0.25281249630E+02  0.37568465523E+02  0.10259567936E+03  0.89764960308E+02 0.  0.
          5    1    4    4  502    0  0.13107532867E+02 -0.50512820392E+02  0.27506969252E+02  0.59178338936E+02  0.47000000000E+01 0. -1.
         -5    1    4    4    0  502 -0.33542653138E+02  0.25231570761E+02  0.10061496271E+02  0.43417340428E+02  0.47000000000E+01 0.  1.
          5    1    3    3  503    0  0.31814378441E+02 -0.24111213828E+02  0.32828089333E+02  0.51896808737E+02  0.47000000000E+01 0. -1.
         -5    1    3    3    0  503 -0.11379258170E+02  0.49392463459E+02  0.68311526861E+02  0.85191887320E+02  0.47000000000E+01 0.  1.
<mgrwt>
<rscale>  0 0.94729375E+02</rscale>
<asrwt>0</asrwt>
<pdfrwt beam="1">  1        1 0.77674073E-02 0.95469806E+02</pdfrwt>
<pdfrwt beam="2">  1       -1 0.29107112E-01 0.95469806E+02</pdfrwt>
<totfact> 0.88943474E+03</totfact>
</mgrwt>
</event>
<event>
 8    1  0.3466492E-004  0.1550106E+03  0.7546771E-02  0.1194948E+00
         -1   -1    0    0    0  501 -0.00000000000E+00  0.00000000000E+00  0.36032090528E+02  0.36032090528E+02  0.00000000000E+00 0.  1.
          1   -1    0    0  501    0  0.00000000000E+00 -0.00000000000E+00 -0.91570987029E+03  0.91570987029E+03  0.00000000000E+00 0. -1.
         23    2    1    2    0    0  0.59304552991E+02 -0.10925957959E+03 -0.68976077203E+03  0.70659555593E+03  0.89736677505E+02 0.  0.
         23    2    1    2    0    0 -0.59304552991E+02  0.10925957959E+03 -0.18991700773E+03  0.24514640489E+03  0.92593759330E+02 0.  0.
          5    1    4    4  502    0 -0.30687323705E+02  0.44680721726E+02 -0.14985165990E+02  0.56433358308E+02  0.47000000000E+01 0. -1.
         -5    1    4    4    0  502 -0.28617229286E+02  0.64578857864E+02 -0.17493184174E+03  0.18871304658E+03  0.47000000000E+01 0.  1.
          5    1    3    3  503    0  0.81216789817E+02 -0.83415615987E+02 -0.47227898967E+03  0.48643999221E+03  0.47000000000E+01 0. -1.
         -5    1    3    3    0  503 -0.21912236826E+02 -0.25843963603E+02 -0.21748178236E+03  0.22015556372E+03  0.47000000000E+01 0.  1.
<mgrwt>
<rscale>  0 0.15458649E+03</rscale>
<asrwt>0</asrwt>
<pdfrwt beam="1">  1        1 0.14087843E+00 0.15501061E+03</pdfrwt>
<pdfrwt beam="2">  1       -1 0.55433991E-02 0.15501061E+03</pdfrwt>
<totfact> 0.27619417E+03</totfact>
</mgrwt>
</event>
<event>
 7    1  0.3466492E-004  0.1461501E+03  0.7546771E-02  0.1223237E+00
          2   -1    0    0  501    0  0.00000000000E+00  0.00000000000E+00  0.80309374243E+03  0.80309374243E+03  0.00000000000E+00 0. -1.
         -2   -1    0    0    0  501 -0.00000000000E+00 -0.00000000000E+00 -0.18856695250E+02  0.18856695250E+02  0.00000000000E+00 0.  1.
         23    2    1    2    0    0 -0.12404137149E+02  0.36295109045E+02  0.30797761046E+03  0.32377085287E+03  0.92228840740E+02 0.  0.
          5    1    1    2  502    0 -0.43346483999E+02 -0.66864691517E+02  0.31008331596E+03  0.32019300037E+03  0.47000000000E+01 0. -1.
         -5    1    3    3    0  503 -0.33144708654E+02  0.58273585344E+02  0.23997439471E+03  0.24920710780E+03  0.47000000000E+01 0.  1.
          5    1    3    3  503    0  0.20740571505E+02 -0.21978476299E+02  0.68003215749E+02  0.74563745070E+02  0.47000000000E+01 0. -1.
         -5    1    1    2    0  502  0.55750621149E+02  0.30569582472E+02  0.16617612076E+03  0.17798658444E+03  0.47000000000E+01 0.  1.
<mgrwt>
<rscale>  0 0.13288509E+03</rscale>
<asrwt>0</asrwt>
<pdfrwt beam="1">  1        2 0.12355286E+00 0.14615009E+03</pdfrwt>
<pdfrwt beam="2">  1       -2 0.29010307E-02 0.14615009E+03</pdfrwt>
<totfact> 0.15063804E+04</totfact>
</mgrwt>
</event>
<event>
 8    1  0.3466492E-004  0.9201233E+02  0.7546771E-02  0.1298158E+00
          1   -1    0    0  501    0  0.00000000000E+00  0.00000000000E+00  0.22101300461E+03  0.22101300461E+03  0.00000000000E+00 0. -1.
         -1   -1    0    0    0  501 -0.00000000000E+00 -0.00000000000E+00 -0.31272527663E+03  0.31272527663E+03  0.00000000000E+00 0.  1.
         23    2    1    2    0    0  0.13487785067E+02  0.56168577592E+01 -0.29587584146E+03  0.30979848384E+03  0.90659349190E+02 0.  0.
         23    2    1    2    0    0 -0.13487785067E+02 -0.56168577592E+01  0.20416356943E+03  0.22393979740E+03  0.90844924664E+02 0.  0.
          5    1    4    4  502    0  0.24970457162E+02  0.13140499444E+02  0.15898252795E+03  0.16153553990E+03  0.47000000000E+01 0. -1.
         -5    1    4    4    0  502 -0.38458242229E+02 -0.18757357203E+02  0.45181041484E+02  0.62404257500E+02  0.47000000000E+01 0.  1.
          5    1    3    3  503    0 -0.22582035611E+01 -0.35512877297E+02 -0.60947611162E+02  0.70731642449E+02  0.47000000000E+01 0. -1.
         -5    1    3    3    0  503  0.15745988628E+02  0.41129735056E+02 -0.23492823030E+03  0.23906684140E+03  0.47000000000E+01 0.  1.
<mgrwt>
<rscale>  0 0.91966497E+02</rscale>
<asrwt>0</asrwt>
<pdfrwt beam="1">  1        1 0.34002001E-01 0.92012335E+02</pdfrwt>
<pdfrwt beam="2">  1       -1 0.48111581E-01 0.92012335E+02</pdfrwt>
<totfact> 0.57021950E+02</totfact>
</mgrwt>
</event>
<event>
 8    1  0.3466492E-004  0.1097246E+03  0.7546771E-02  0.1261971E+00
          2   -1    0    0  501    0  0.00000000000E+00  0.00000000000E+00  0.10461090269E+04  0.10461090269E+04  0.00000000000E+00 0. -1.
         -2   -1    0    0    0  501 -0.00000000000E+00 -0.00000000000E+00 -0.12280030315E+02  0.12280030315E+02  0.00000000000E+00 0.  1.
         23    2    1    2    0    0 -0.10049552290E+01  0.60903108107E+02  0.66145122041E+03  0.67018203215E+03  0.88972134478E+02 0.  0.
         23    2    1    2    0    0  0.10049552290E+01 -0.60903108107E+02  0.37237777622E+03  0.38820702512E+03  0.91264930920E+02 0.  0.
          5    1    4    4  502    0  0.29545873158E+02 -0.18627906262E+02  0.28304203374E+03  0.28522769918E+03  0.47000000000E+01 0. -1.
         -5    1    3    3    0  503 -0.42247559603E+02  0.15085920400E+02  0.23731055435E+03  0.24155916562E+03  0.47000000000E+01 0.  1.
          5    1    3    3  503    0  0.41242604374E+02  0.45817187707E+02  0.42414066606E+03  0.42862286653E+03  0.47000000000E+01 0. -1.
         -5    1    4    4    0  502 -0.28540917929E+02 -0.42275201845E+02  0.89335742479E+02  0.10297932594E+03  0.47000000000E+01 0.  1.
<mgrwt>
<rscale>  0 0.10924659E+03</rscale>
<asrwt>0</asrwt>
<pdfrwt beam="1">  1        2 0.16093978E+00 0.10972459E+03</pdfrwt>
<pdfrwt beam="2">  1       -2 0.18892363E-02 0.10972459E+03</pdfrwt>
<totfact> 0.19447390E+04</totfact>
</mgrwt>
</event>
<event>
 8    1  0.3466492E-004  0.1079740E+03  0.7546771E-02  0.1265699E+00
          1   -1    0    0  501    0  0.00000000000E+00  0.00000000000E+00  0.88397270140E+02  0.88397270140E+02  0.00000000000E+00 0. -1.
         -1   -1    0    0    0  501 -0.00000000000E+00 -0.00000000000E+00 -0.16336143293E+03  0.16336143293E+03  0.00000000000E+00 0.  1.
         23    2    1    2    0    0  0.44878483162E+02 -0.26991508877E+02 -0.95220399348E+02  0.14190105423E+03  0.91248917460E+02 0.  0.
         23    2    1    2    0    0 -0.44878483162E+02  0.26991508877E+02  0.20256236560E+02  0.10985764884E+03  0.94423345028E+02 0.  0.
          5    1    3    3  502    0  0.28778810088E+02 -0.55500998958E+02 -0.31628897141E+02  0.70221491937E+02  0.47000000000E+01 0. -1.
         -5    1    4    4    0  503  0.28713650213E+02  0.10895598074E+02 -0.20950535537E+01  0.31139476800E+02  0.47000000000E+01 0.  1.
          5    1    4    4  503    0 -0.73592133376E+02  0.16095910802E+02  0.22351290114E+02  0.78718172038E+02  0.47000000000E+01 0. -1.
         -5    1    3    3    0  502  0.16099673074E+02  0.28509490082E+02 -0.63591502207E+02  0.71679562295E+02  0.47000000000E+01 0.  1.
<mgrwt>
<rscale>  0 0.10727608E+03</rscale>
<asrwt>0</asrwt>
<pdfrwt beam="1">  1        1 0.13599580E-01 0.10797401E+03</pdfrwt>
<pdfrwt beam="2">  1       -1 0.25132528E-01 0.10797401E+03</pdfrwt>
<totfact> 0.54871256E+03</totfact>
</mgrwt>
</event>
<event>
 8    1  0.3466492E-004  0.9318633E+02  0.7546771E-02  0.1295807E+00
          1   -1    0    0  501    0  0.00000000000E+00  0.00000000000E+00  0.47727665952E+02  0.47727665952E+02  0.00000000000E+00 0. -1.
         -1   -1    0    0    0  501 -0.00000000000E+00 -0.00000000000E+00 -0.18556441176E+03  0.18556441176E+03  0.00000000000E+00 0.  1.
         23    2    1    2    0    0 -0.53940142830E+01 -0.47245716339E+01 -0.88891516520E+02  0.12878429397E+03  0.92910040881E+02 0.  0.
         23    2    1    2    0    0  0.53940142830E+01  0.47245716339E+01 -0.48945229293E+02  0.10450778375E+03  0.92058809606E+02 0.  0.
          5    1    3    3  502    0  0.10408684233E+02 -0.33203043069E+02 -0.12120519444E+01  0.35133201482E+02  0.47000000000E+01 0. -1.
         -5    1    3    3    0  502 -0.15802698516E+02  0.28478471435E+02 -0.87679464575E+02  0.93651092486E+02  0.47000000000E+01 0.  1.
          5    1    4    4  503    0  0.29164797028E+02 -0.20619388665E+02 -0.58014796606E+02  0.68290198417E+02  0.47000000000E+01 0. -1.
         -5    1    4    4    0  503 -0.23770782745E+02  0.25343960299E+02  0.90695673136E+01  0.36217585331E+02  0.47000000000E+01 0.  1.
<mgrwt>
<rscale>  0 0.92973433E+02</rscale>
<asrwt>0</asrwt>
<pdfrwt beam="1">  1        1 0.73427180E-02 0.93186333E+02</pdfrwt>
<pdfrwt beam="2">  1       -1 0.28548371E-01 0.93186333E+02</pdfrwt>
<totfact> 0.98752444E+03</totfact>
</mgrwt>
</event>
<event>
 8    1  0.3466492E-004  0.1257993E+03  0.7546771E-02  0.1237105E+00
          1   -1    0    0  501    0  0.00000000000E+00  0.00000000000E+00  0.56297338406E+03  0.56297338406E+03  0.00000000000E+00 0. -1.
         -1   -1    0    0    0  501 -0.00000000000E+00 -0.00000000000E+00 -0.37898289374E+02  0.37898289374E+02  0.00000000000E+00 0.  1.
         23    2    1    2    0    0 -0.31262387567E+02 -0.77492834147E+02  0.90394893774E+02  0.14835388833E+03  0.82795912599E+02 0.  0.
         23    2    1    2    0    0  0.31262387567E+02  0.77492834147E+02  0.43468020091E+03  0.45251778510E+03  0.94037187032E+02 0.  0.
          5    1    3    3  502    0  0.27362627078E+02 -0.16944094204E+02  0.32619231340E+02  0.46064302255E+02  0.47000000000E+01 0. -1.
         -5    1    3    3    0  502 -0.58625014645E+02 -0.60548739943E+02  0.57775662434E+02  0.10228958608E+03  0.47000000000E+01 0.  1.
          5    1    4    4  503    0  0.19170825931E+02  0.96505442136E+02  0.39012594062E+03  0.40236943283E+03  0.47000000000E+01 0. -1.
         -5    1    4    4    0  503  0.12091561636E+02 -0.19012607989E+02  0.44554260289E+02  0.50148352269E+02  0.47000000000E+01 0.  1.
<mgrwt>
<rscale>  0 0.12370620E+03</rscale>
<asrwt>0</asrwt>
<pdfrwt beam="1">  1        1 0.86611284E-01 0.12579932E+03</pdfrwt>
<pdfrwt beam="2">  1       -1 0.58305065E-02 0.12579932E+03</pdfrwt>
<totfact> 0.51560789E+03</totfact>
</mgrwt>
</event>
<event>
 8    1  0.3466492E-004  0.1506951E+03  0.7546771E-02  0.1199788E+00
         -4   -1    0    0    0  501 -0.00000000000E+00  0.00000000000E+00  0.62560383821E+02  0.62560383821E+02  0.00000000000E+00 0.  1.
          4   -1    0    0  501    0  0.00000000000E+00 -0.00000000000E+00 -0.44137122316E+03  0.44137122316E+03  0.00000000000E+00 0. -1.
         23    2    1    2    0    0  0.11589596190E+03  0.28091806280E+02 -0.29618639567E+03  0.33207174105E+03  0.91237254790E+02 0.  0.
         23    2    1    2    0    0 -0.11589596190E+03 -0.28091806280E+02 -0.82624443670E+02  0.17185986593E+03  0.92130295015E+02 0.  0.
          5    1    4    4  502    0 -0.20041035222E+02  0.19673347306E+02 -0.53771351473E+02  0.60845147104E+02  0.47000000000E+01 0. -1.
         -5    1    4    4    0  502 -0.95854926681E+02 -0.47765153585E+02 -0.28853092197E+02  0.11101471882E+03  0.47000000000E+01 0.  1.
          5    1    3    3  503    0  0.40273403244E+02  0.54960715278E+02 -0.15930897742E+03  0.17333224605E+03  0.47000000000E+01 0. -1.
         -5    1    3    3    0  503  0.75622558658E+02 -0.26868908998E+02 -0.13687741825E+03  0.15873949500E+03  0.47000000000E+01 0.  1.
<mgrwt>
<rscale>  0 0.15055884E+03</rscale>
<asrwt>0</asrwt>
<pdfrwt beam="1">  1        4 0.67903263E-01 0.15069511E+03</pdfrwt>
<pdfrwt beam="2">  1       -4 0.96246747E-02 0.15069511E+03</pdfrwt>
<totfact> 0.27993502E+02</totfact>
</mgrwt>
</event>
<event>
 8    1  0.3466492E-004  0.1105304E+03  0.7546771E-02  0.1260728E+00
          2   -1    0    0  501    0  0.00000000000E+00  0.00000000000E+00  0.47030830731E+02  0.47030830731E+02  0.00000000000E+00 0. -1.
         -2   -1    0    0    0  501 -0.00000000000E+00 -0.00000000000E+00 -0.27256551881E+03  0.27256551881E+03  0.00000000000E+00 0.  1.
         23    2    1    2    0    0 -0.36900032178E+02 -0.48718964464E+02 -0.15558049510E+03  0.19084617789E+03  0.92096814743E+02 0.  0.
         23    2    1    2    0    0  0.36900032178E+02  0.48718964464E+02 -0.69954192975E+02  0.12875017165E+03  0.89150814419E+02 0.  0.
          5    1    3    3  502    0  0.13908710631E+02  0.19491173364E+02 -0.24978569765E+02  0.34919579293E+02  0.47000000000E+01 0. -1.
         -5    1    3    3    0  502 -0.50808742808E+02 -0.68210137828E+02 -0.13060192534E+03  0.15592659860E+03  0.47000000000E+01 0.  1.
          5    1    4    4  503    0  0.50290256307E+02  0.30358662349E+02 -0.42676724886E+01  0.59085203626E+02  0.47000000000E+01 0. -1.
         -5    1    4    4    0  503 -0.13390224130E+02  0.18360302115E+02 -0.65686520486E+02  0.69664968023E+02  0.47000000000E+01 0.  1.
<mgrwt>
<rscale>  0 0.10991469E+03</rscale>
<asrwt>0</asrwt>
<pdfrwt beam="1">  1        2 0.72355124E-02 0.11053042E+03</pdfrwt>
<pdfrwt beam="2">  1       -2 0.41933157E-01 0.11053042E+03</pdfrwt>
<totfact> 0.49204519E+03</totfact>
</mgrwt>
</event>
<event>
 8    1  0.3466492E-004  0.1255810E+03  0.7546771E-02  0.1234786E+00
         -1   -1    0    0    0  501 -0.00000000000E+00  0.00000000000E+00  0.81493158348E+03  0.81493158348E+03  0.00000000000E+00 0.  1.
          1   -1    0    0  501    0  0.00000000000E+00 -0.00000000000E+00 -0.20699384052E+02  0.20699384052E+02  0.00000000000E+00 0. -1.
         23    2    1    2    0    0 -0.69822181044E+02  0.54594014275E+02  0.51063501868E+03  0.52547301965E+03  0.86707143368E+02 0.  0.
         23    2    1    2    0    0  0.69822181044E+02 -0.54594014275E+02  0.28359718074E+03  0.31015794788E+03  0.88965995468E+02 0.  0.
          5    1    3    3  502    0 -0.19630620378E+01  0.45317612431E+02  0.31186399559E+03  0.31518055358E+03  0.47000000000E+01 0. -1.
         -5    1    3    3    0  502 -0.67859119006E+02  0.92764018441E+01  0.19877102309E+03  0.21029246607E+03  0.47000000000E+01 0.  1.
          5    1    4    4  503    0 -0.17386223626E+02 -0.13462428967E+02  0.22603189572E+02  0.31882784453E+02  0.47000000000E+01 0. -1.
         -5    1    4    4    0  503  0.87208404670E+02 -0.41131585308E+02  0.26099399117E+03  0.27827516343E+03  0.47000000000E+01 0.  1.
<mgrwt>
<rscale>  0 0.12518162E+03</rscale>
<asrwt>0</asrwt>
<pdfrwt beam="1">  1        1 0.31845212E-02 0.12558102E+03</pdfrwt>
<pdfrwt beam="2">  1       -1 0.12537407E+00 0.12558102E+03</pdfrwt>
<totfact> 0.18049902E+03</totfact>
</mgrwt>
</event>
<event>
 8    1  0.3466492E-004  0.1155985E+03  0.7546771E-02  0.1250873E+00
         -2   -1    0    0    0  501 -0.00000000000E+00  0.00000000000E+00  0.31841299926E+02  0.31841299926E+02  0.00000000000E+00 0. -1.
          2   -1    0    0  501    0  0.00000000000E+00 -0.00000000000E+00 -0.96960342683E+03  0.96960342683E+03  0.00000000000E+00 0.  1.
         23    2    1    2    0    0  0.69434185457E+01  0.69922510913E+02 -0.91504525388E+02  0.14743161160E+03  0.91791248712E+02 0.  0.
         23    2    1    2    0    0 -0.69434185457E+01 -0.69922510913E+02 -0.84625760151E+03  0.85401311515E+03  0.90824578922E+02 0.  0.
          5    1    3    3  502    0 -0.10293365919E+02  0.88842002756E+02 -0.69848160745E+02  0.11357689199E+03  0.47000000000E+01 0. -1.
         -5    1    4    4    0  503  0.40273693023E+02 -0.25446196594E+02 -0.43794112371E+03  0.44054965339E+03  0.47000000000E+01 0.  1.
          5    1    4    4  503    0 -0.47217111569E+02 -0.44476314320E+02 -0.40831647781E+03  0.41346346176E+03  0.47000000000E+01 0. -1.
         -5    1    3    3    0  502  0.17236784464E+02 -0.18919491843E+02 -0.21656364643E+02  0.33854719609E+02  0.47000000000E+01 0.  1.
<mgrwt>
<rscale>  0 0.11540645E+03</rscale>
<asrwt>0</asrwt>
<pdfrwt beam="1">  1        2 0.14916975E+00 0.11559845E+03</pdfrwt>
<pdfrwt beam="2">  1       -2 0.48986619E-02 0.11559845E+03</pdfrwt>
<totfact> 0.53613488E+03</totfact>
</mgrwt>
</event>
<event>
 8    1  0.3466492E-004  0.1093319E+03  0.7546771E-02  0.1261819E+00
          1   -1    0    0  501    0  0.00000000000E+00  0.00000000000E+00  0.10188281028E+03  0.10188281028E+03  0.00000000000E+00 0. -1.
         -1   -1    0    0    0  501 -0.00000000000E+00 -0.00000000000E+00 -0.11734772491E+03  0.11734772491E+03  0.00000000000E+00 0.  1.
         23    2    1    2    0    0  0.44136878006E+02  0.44137436432E+02 -0.96980738441E+01  0.10976123133E+03  0.89762453020E+02 0.  0.
         23    2    1    2    0    0 -0.44136878006E+02 -0.44137436432E+02 -0.57668407815E+01  0.10946930385E+03  0.89744608410E+02 0.  0.
          5    1    3    3  502    0 -0.21142137914E+02 -0.66251795349E+01 -0.14335863145E+02  0.26804663243E+02  0.47000000000E+01 0. -1.
         -5    1    4    4    0  503 -0.31450655286E+02 -0.24342367813E+02 -0.47014815968E+02  0.61759027754E+02  0.47000000000E+01 0.  1.
          5    1    4    4  503    0 -0.12686222720E+02 -0.19795068619E+02  0.41247975186E+02  0.47710276100E+02  0.47000000000E+01 0. -1.
         -5    1    3    3    0  502  0.65279015921E+02  0.50762615967E+02  0.46377893008E+01  0.82956568088E+02  0.47000000000E+01 0.  1.
<mgrwt>
<rscale>  0 0.10932829E+03</rscale>
<asrwt>0</asrwt>
<pdfrwt beam="1">  1        1 0.15674278E-01 0.10933195E+03</pdfrwt>
<pdfrwt beam="2">  1       -1 0.18053496E-01 0.10933195E+03</pdfrwt>
<totfact> 0.77836215E+03</totfact>
</mgrwt>
</event>
<event>
 8    1  0.3466492E-004  0.9456079E+02  0.7546771E-02  0.1294418E+00
         -2   -1    0    0    0  501 -0.00000000000E+00  0.00000000000E+00  0.42042254933E+02  0.42042254933E+02  0.00000000000E+00 0.  1.
          2   -1    0    0  501    0  0.00000000000E+00 -0.00000000000E+00 -0.61407123819E+03  0.61407123819E+03  0.00000000000E+00 0. -1.
         23    2    1    2    0    0  0.66991552481E+01  0.15300445521E+01 -0.15973880871E+02  0.92075356539E+02  0.90418397986E+02 0.  0.
         23    2    1    2    0    0 -0.66991552481E+01 -0.15300445521E+01 -0.55605510239E+03  0.56403813659E+03  0.94310778358E+02 0.  0.
          5    1    3    3  502    0  0.16153085774E+02 -0.35757895126E+02 -0.31289336573E+02  0.50404978197E+02  0.47000000000E+01 0. -1.
         -5    1    4    4    0  503  0.40107149383E+02 -0.18370828419E+02 -0.24191070244E+03  0.24594501158E+03  0.47000000000E+01 0.  1.
          5    1    4    4  503    0 -0.46806304631E+02  0.16840783867E+02 -0.31414439995E+03  0.31809312500E+03  0.47000000000E+01 0. -1.
         -5    1    3    3    0  502 -0.94539305259E+01  0.37287939678E+02  0.15315455702E+02  0.41670378342E+02  0.47000000000E+01 0.  1.
<mgrwt>
<rscale>  0 0.93575070E+02</rscale>
<asrwt>0</asrwt>
<pdfrwt beam="1">  1        2 0.94472502E-01 0.94560788E+02</pdfrwt>
<pdfrwt beam="2">  1       -2 0.64680389E-02 0.94560788E+02</pdfrwt>
<totfact> 0.61041652E+03</totfact>
</mgrwt>
</event>
<event>
 8    1  0.3466492E-004  0.1085623E+03  0.7546771E-02  0.1263428E+00
          3   -1    0    0  501    0  0.00000000000E+00  0.00000000000E+00  0.50825310472E+02  0.50825310472E+02  0.00000000000E+00 0. -1.
         -3   -1    0    0    0  501 -0.00000000000E+00 -0.00000000000E+00 -0.23452139060E+03  0.23452139060E+03  0.00000000000E+00 0.  1.
         23    2    1    2    0    0  0.57121308593E+02 -0.13591945811E+02 -0.74479691137E+02  0.13135321621E+03  0.90878259940E+02 0.  0.
         23    2    1    2    0    0 -0.57121308593E+02  0.13591945811E+02 -0.10921638899E+03  0.15399348486E+03  0.91313683914E+02 0.  0.
          5    1    3    3  502    0 -0.42539424076E+01  0.30419980541E+02 -0.12325447001E+02  0.33428698538E+02  0.47000000000E+01 0. -1.
         -5    1    3    3    0  502  0.61375251000E+02 -0.44011926352E+02 -0.62154244136E+02  0.97924517669E+02  0.47000000000E+01 0.  1.
          5    1    4    4  503    0 -0.78491377248E+02  0.44570573419E+01 -0.58823176855E+02  0.98300650038E+02  0.47000000000E+01 0. -1.
         -5    1    4    4    0  503  0.21370068656E+02  0.91348884692E+01 -0.50393212131E+02  0.55692834823E+02  0.47000000000E+01 0.  1.
<mgrwt>
<rscale>  0 0.10847069E+03</rscale>
<asrwt>0</asrwt>
<pdfrwt beam="1">  1        3 0.78192785E-02 0.10856230E+03</pdfrwt>
<pdfrwt beam="2">  1       -3 0.36080214E-01 0.10856230E+03</pdfrwt>
<totfact> 0.18489445E+03</totfact>
</mgrwt>
</event>
<event>
 8    1  0.3466492E-004  0.1327987E+03  0.7546771E-02  0.1223431E+00
         -1   -1    0    0    0  501 -0.00000000000E+00  0.00000000000E+00  0.37638652447E+03  0.37638652447E+03  0.00000000000E+00 0.  1.
          1   -1    0    0  501    0  0.00000000000E+00 -0.00000000000E+00 -0.12762449632E+03  0.12762449632E+03  0.00000000000E+00 0. -1.
         23    2    1    2    0    0  0.52047549534E+02  0.81821259404E+02  0.32497750945E+03  0.35106392547E+03  0.90729445138E+02 0.  0.
         23    2    1    2    0    0 -0.52047549534E+02 -0.81821259404E+02 -0.76215481305E+02  0.15294709531E+03  0.90445278875E+02 0.  0.
          5    1    3    3  502    0 -0.25064719539E+02  0.11377789907E+02  0.58949188499E+02  0.65228759711E+02  0.47000000000E+01 0. -1.
         -5    1    3    3    0  502  0.77112269073E+02  0.70443469497E+02  0.26602832095E+03  0.28583516576E+03  0.47000000000E+01 0.  1.
          5    1    4    4  503    0 -0.16372555553E+02 -0.82250489870E+02 -0.80946341395E+02  0.11665163455E+03  0.47000000000E+01 0. -1.
         -5    1    4    4    0  503 -0.35674993982E+02  0.42923046586E+00  0.47308600892E+01  0.36295460757E+02  0.47000000000E+01 0.  1.
<mgrwt>
<rscale>  0 0.13275019E+03</rscale>
<asrwt>0</asrwt>
<pdfrwt beam="1">  1        1 0.19634538E-01 0.13279871E+03</pdfrwt>
<pdfrwt beam="2">  1       -1 0.57905618E-01 0.13279871E+03</pdfrwt>
<totfact> 0.80811582E+02</totfact>
</mgrwt>
</event>
<event>
 8    1  0.3466492E-004  0.1177778E+03  0.7546771E-02  0.1247094E+00
          1   -1    0    0  501    0  0.00000000000E+00  0.00000000000E+00  0.10867066011E+03  0.10867066011E+03  0.00000000000E+00 0. -1.
         -1   -1    0    0    0  501 -0.00000000000E+00 -0.00000000000E+00 -0.13453527715E+03  0.13453527715E+03  0.00000000000E+00 0.  1.
         23    2    1    2    0    0  0.56084969344E+02  0.46892832286E+02 -0.41829672525E+02  0.12435102549E+03  0.91482208820E+02 0.  0.
         23    2    1    2    0    0 -0.56084969344E+02 -0.46892832286E+02  0.15965055479E+02  0.11885491177E+03  0.92342544634E+02 0.  0.
          5    1    3    3  502    0  0.25793664907E+02 -0.13155087764E+02  0.17828008095E+02  0.34326336188E+02  0.47000000000E+01 0. -1.
         -5    1    4    4    0  503  0.23955016486E+02 -0.12219148101E+02 -0.76768832430E+01  0.28357978269E+02  0.47000000000E+01 0. -1.
          5    1    4    4  503    0 -0.80039985830E+02 -0.34673684185E+02  0.23641938722E+02  0.90496933502E+02  0.47000000000E+01 0.  1.
         -5    1    3    3    0  502  0.30291304437E+02  0.60047920051E+02 -0.59657680620E+02  0.90024689302E+02  0.47000000000E+01 0.  1.
<mgrwt>
<rscale>  0 0.11760909E+03</rscale>
<asrwt>0</asrwt>
<pdfrwt beam="1">  1        1 0.16718563E-01 0.11777779E+03</pdfrwt>
<pdfrwt beam="2">  1       -1 0.20697735E-01 0.11777779E+03</pdfrwt>
<totfact> 0.57961081E+03</totfact>
</mgrwt>
</event>
<event>
 8    1  0.3466492E-004  0.9596101E+02  0.7546771E-02  0.1290152E+00
         -3   -1    0    0    0  501 -0.00000000000E+00  0.00000000000E+00  0.12740723428E+03  0.12740723428E+03  0.00000000000E+00 0.  1.
          3   -1    0    0  501    0  0.00000000000E+00 -0.00000000000E+00 -0.75980187324E+02  0.75980187324E+02  0.00000000000E+00 0. -1.
         23    2    1    2    0    0 -0.29453587638E+02  0.35457916371E+01  0.52580385367E+02  0.10942217528E+03  0.91260227119E+02 0.  0.
         23    2    1    2    0    0  0.29453587638E+02 -0.35457916371E+01 -0.11533384075E+01  0.93965246332E+02  0.89151841628E+02 0.  0.
          5    1    4    4  502    0  0.60319188825E+02 -0.10676197025E+02  0.38232615081E+01  0.61555609427E+02  0.47000000000E+01 0. -1.
         -5    1    4    4    0  502 -0.30865601186E+02  0.71304053875E+01 -0.49765999155E+01  0.32409636905E+02  0.47000000000E+01 0.  1.
          5    1    3    3  503    0 -0.12647964445E+02 -0.31855864788E+02 -0.94830059727E+01  0.35871778995E+02  0.47000000000E+01 0. -1.
         -5    1    3    3    0  503 -0.16805623193E+02  0.35401656425E+02  0.62063391339E+02  0.73550396281E+02  0.47000000000E+01 0.  1.
<mgrwt>
<rscale>  0 0.95456332E+02</rscale>
<asrwt>0</asrwt>
<pdfrwt beam="1">  1        3 0.11689260E-01 0.95961010E+02</pdfrwt>
<pdfrwt beam="2">  1       -3 0.19601113E-01 0.95961010E+02</pdfrwt>
<totfact> 0.28210814E+03</totfact>
</mgrwt>
</event>
<event>
 8    1  0.3466492E-004  0.9907359E+02  0.7546771E-02  0.1282746E+00
          1   -1    0    0  501    0  0.00000000000E+00  0.00000000000E+00  0.21886452426E+03  0.21886452426E+03  0.00000000000E+00 0. -1.
         -1   -1    0    0    0  501 -0.00000000000E+00 -0.00000000000E+00 -0.65176382691E+02  0.65176382691E+02  0.00000000000E+00 0.  1.
         23    2    1    2    0    0  0.37047868351E+02  0.64926736736E+01 -0.30309124867E+01  0.99119936386E+02  0.91656292734E+02 0.  0.
         23    2    1    2    0    0 -0.37047868351E+02 -0.64926736736E+01  0.15671905406E+03  0.18492097056E+03  0.90665341172E+02 0.  0.
          5    1    4    4  502    0 -0.48218710930E+02  0.25544219594E+02  0.13130584087E+03  0.14227039426E+03  0.47000000000E+01 0. -1.
         -5    1    4    4    0  502  0.11170842579E+02 -0.32036893268E+02  0.25413213189E+02  0.42650576301E+02  0.47000000000E+01 0.  1.
          5    1    3    3  503    0 -0.29574611547E+02 -0.66623815230E+01  0.27654119068E+01  0.30802312880E+02  0.47000000000E+01 0. -1.
         -5    1    3    3    0  503  0.66622479898E+02  0.13155055197E+02 -0.57963243935E+01  0.68317623506E+02  0.47000000000E+01 0.  1.
<mgrwt>
<rscale>  0 0.98843777E+02</rscale>
<asrwt>0</asrwt>
<pdfrwt beam="1">  1        1 0.33671465E-01 0.99073586E+02</pdfrwt>
<pdfrwt beam="2">  1       -1 0.10027136E-01 0.99073586E+02</pdfrwt>
<totfact> 0.73553532E+03</totfact>
</mgrwt>
</event>
<event>
 8    1  0.3466492E-004  0.1027122E+03  0.7546771E-02  0.1277000E+00
         -1   -1    0    0    0  501 -0.00000000000E+00  0.00000000000E+00  0.19789688818E+02  0.19789688818E+02  0.00000000000E+00 0.  1.
          1   -1    0    0  501    0  0.00000000000E+00 -0.00000000000E+00 -0.53308344355E+03  0.53308344355E+03  0.00000000000E+00 0. -1.
         23    2    1    2    0    0 -0.53455788880E+01  0.37232657929E+02 -0.20494404389E+03  0.22924190439E+03  0.95576898731E+02 0.  0.
         23    2    1    2    0    0  0.53455788880E+01 -0.37232657929E+02 -0.30834971084E+03  0.32363122798E+03  0.90789765492E+02 0.  0.
          5    1    3    3  502    0  0.56896926236E+01 -0.31198671719E+02 -0.81693060736E+02  0.87758622891E+02  0.47000000000E+01 0. -1.
         -5    1    4    4    0  503  0.42782256224E+02 -0.30795532117E+02 -0.11588498110E+03  0.12739742968E+03  0.47000000000E+01 0.  1.
          5    1    4    4  503    0 -0.37436677336E+02 -0.64371258123E+01 -0.19246472974E+03  0.19623379830E+03  0.47000000000E+01 0. -1.
         -5    1    3    3    0  502 -0.11035271512E+02  0.68431329648E+02 -0.12325098315E+03  0.14148328150E+03  0.47000000000E+01 0.  1.
<mgrwt>
<rscale>  0 0.10158398E+03</rscale>
<asrwt>0</asrwt>
<pdfrwt beam="1">  1        1 0.82012836E-01 0.10271217E+03</pdfrwt>
<pdfrwt beam="2">  1       -1 0.30445675E-02 0.10271217E+03</pdfrwt>
<totfact> 0.14148278E+04</totfact>
</mgrwt>
</event>
<event>
 8    1  0.3466492E-004  0.1136105E+03  0.7546771E-02  0.1254181E+00
         -2   -1    0    0    0  501 -0.00000000000E+00  0.00000000000E+00  0.49759208190E+02  0.49759208190E+02  0.00000000000E+00 0.  1.
          2   -1    0    0  501    0  0.00000000000E+00 -0.00000000000E+00 -0.30689240237E+03  0.30689240237E+03  0.00000000000E+00 0. -1.
         23    2    1    2    0    0  0.60874915321E+02  0.28988305968E+02 -0.19913745869E+03  0.22909437200E+03  0.91007838293E+02 0.  0.
         23    2    1    2    0    0 -0.60874915321E+02 -0.28988305968E+02 -0.57995735488E+02  0.12755723856E+03  0.91439961587E+02 0.  0.
          5    1    3    3  502    0  0.41500184054E+02  0.60747083286E+02 -0.15136968920E+03  0.16836670162E+03  0.47000000000E+01 0. -1.
         -5    1    3    3    0  502  0.19374731267E+02 -0.31758777318E+02 -0.47767769490E+02  0.60727670385E+02  0.47000000000E+01 0.  1.
          5    1    4    4  503    0 -0.70787905462E+02  0.11166592460E+02 -0.40021927847E+02  0.82215965940E+02  0.47000000000E+01 0. -1.
         -5    1    4    4    0  503  0.99129901412E+01 -0.40154898428E+02 -0.17973807641E+02  0.45341272616E+02  0.47000000000E+01 0.  1.
<mgrwt>
<rscale>  0 0.11352352E+03</rscale>
<asrwt>0</asrwt>
<pdfrwt beam="1">  1        2 0.47214215E-01 0.11361049E+03</pdfrwt>
<pdfrwt beam="2">  1       -2 0.76552629E-02 0.11361049E+03</pdfrwt>
<totfact> 0.10085147E+04</totfact>
</mgrwt>
</event>
<event>
 8    1  0.3466492E-004  0.1207651E+03  0.7546771E-02  0.1245021E+00
         -1   -1    0    0    0  501 -0.00000000000E+00  0.00000000000E+00  0.13214146080E+03  0.13214146080E+03  0.00000000000E+00 0.  1.
          1   -1    0    0  501    0  0.00000000000E+00 -0.00000000000E+00 -0.20305283103E+03  0.20305283103E+03  0.00000000000E+00 0. -1.
         23    2    1    2    0    0  0.20163477188E+02  0.62589525347E+02  0.81220504659E+02  0.14553686017E+03  0.10129260978E+03 0.  0.
         23    2    1    2    0    0 -0.20163477188E+02 -0.62589525347E+02 -0.15213187490E+03  0.18965743166E+03  0.92205311826E+02 0.  0.
          5    1    4    4  502    0 -0.34457073168E+02 -0.91704919221E+01 -0.12055499009E+03  0.12580533951E+03  0.47000000000E+01 0. -1.
         -5    1    3    3    0  503  0.39885044666E+02  0.33036468740E+02  0.94051148978E+02  0.10747061775E+03  0.47000000000E+01 0.  1.
          5    1    3    3  503    0 -0.19721567477E+02  0.29553056606E+02 -0.12830644319E+02  0.38066242422E+02  0.47000000000E+01 0. -1.
         -5    1    4    4    0  502  0.14293595979E+02 -0.53419033425E+02 -0.31576884807E+02  0.63852092152E+02  0.47000000000E+01 0.  1.
<mgrwt>
<rscale>  0 0.11884113E+03</rscale>
<asrwt>0</asrwt>
<pdfrwt beam="1">  1        1 0.31238897E-01 0.12076509E+03</pdfrwt>
<pdfrwt beam="2">  1       -1 0.20329456E-01 0.12076509E+03</pdfrwt>
<totfact> 0.27226229E+03</totfact>
</mgrwt>
</event>
<event>
 8    1  0.3466492E-004  0.9966774E+02  0.7546771E-02  0.1281247E+00
          1   -1    0    0  501    0  0.00000000000E+00  0.00000000000E+00  0.49211961039E+03  0.49211961039E+03  0.00000000000E+00 0. -1.
         -1   -1    0    0    0  501 -0.00000000000E+00 -0.00000000000E+00 -0.20120221807E+02  0.20120221807E+02  0.00000000000E+00 0.  1.
         23    2    1    2    0    0 -0.38175024535E+02  0.70058823201E+01  0.24652739148E+03  0.26591241685E+03  0.91800020700E+02 0.  0.
         23    2    1    2    0    0  0.38175024535E+02 -0.70058823201E+01  0.22547199710E+03  0.24632741534E+03  0.91286139079E+02 0.  0.
          5    1    3    3  502    0 -0.63845753544E+02 -0.11748193931E+02  0.13540366178E+03  0.15023495575E+03  0.47000000000E+01 0. -1.
         -5    1    4    4    0  503 -0.67115250048E+01  0.35883257574E+02  0.89873362579E+02  0.97118299220E+02  0.47000000000E+01 0.  1.
          5    1    4    4  503    0  0.44886549540E+02 -0.42889139894E+02  0.13559863452E+03  0.14920911612E+03  0.47000000000E+01 0. -1.
         -5    1    3    3    0  502  0.25670729010E+02  0.18754076251E+02  0.11112372971E+03  0.11567746111E+03  0.47000000000E+01 0.  1.
<mgrwt>
<rscale>  0 0.99549252E+02</rscale>
<asrwt>0</asrwt>
<pdfrwt beam="1">  1        1 0.75710700E-01 0.99667741E+02</pdfrwt>
<pdfrwt beam="2">  1       -1 0.30954191E-02 0.99667741E+02</pdfrwt>
<totfact> 0.15281115E+04</totfact>
</mgrwt>
</event>
<event>
 8    1  0.3466492E-004  0.1362537E+03  0.7546771E-02  0.1218638E+00
          3   -1    0    0  501    0  0.00000000000E+00  0.00000000000E+00  0.37823533488E+02  0.37823533488E+02  0.00000000000E+00 0. -1.
         -3   -1    0    0    0  501 -0.00000000000E+00 -0.00000000000E+00 -0.55063757601E+03  0.55063757601E+03  0.00000000000E+00 0.  1.
         23    2    1    2    0    0 -0.59845326808E+02  0.81803659375E+02 -0.35526417453E+03  0.38049664945E+03  0.91059127547E+02 0.  0.
         23    2    1    2    0    0  0.59845326808E+02 -0.81803659375E+02 -0.15754986799E+03  0.20796446005E+03  0.90299246461E+02 0.  0.
          5    1    3    3  502    0 -0.33955795835E+02 -0.99301316460E+01 -0.56193646782E+02  0.66568908087E+02  0.47000000000E+01 0. -1.
         -5    1    3    3    0  502 -0.25889530973E+02  0.91733791021E+02 -0.29907052775E+03  0.31392774136E+03  0.47000000000E+01 0.  1.
          5    1    4    4  503    0  0.59080653961E+02 -0.68273802836E+01 -0.82129113836E+02  0.10151067990E+03  0.47000000000E+01 0. -1.
         -5    1    4    4    0  503  0.76467284737E+00 -0.74976279091E+02 -0.75420754156E+02  0.10645378015E+03  0.47000000000E+01 0.  1.
<mgrwt>
<rscale>  0 0.13612684E+03</rscale>
<asrwt>0</asrwt>
<pdfrwt beam="1">  1        3 0.58190052E-02 0.13625368E+03</pdfrwt>
<pdfrwt beam="2">  1       -3 0.84713472E-01 0.13625368E+03</pdfrwt>
<totfact> 0.54524773E+02</totfact>
</mgrwt>
</event>
<event>
 8    1  0.3466492E-004  0.1012891E+03  0.7546771E-02  0.1279281E+00
         -2   -1    0    0    0  501 -0.00000000000E+00  0.00000000000E+00  0.40661109044E+03  0.40661109044E+03  0.00000000000E+00 0.  1.
          2   -1    0    0  501    0  0.00000000000E+00 -0.00000000000E+00 -0.24577026803E+02  0.24577026803E+02  0.00000000000E+00 0. -1.
         23    2    1    2    0    0 -0.39009294235E+02 -0.11454470184E+02  0.17221553346E+03  0.19820035018E+03  0.89287507077E+02 0.  0.
         23    2    1    2    0    0  0.39009294235E+02  0.11454470184E+02  0.20981853018E+03  0.23298776707E+03  0.92771515426E+02 0.  0.
          5    1    4    4  502    0  0.69433968777E+02  0.46581069174E+01  0.14626591123E+03  0.16204499612E+03  0.47000000000E+01 0. -1.
         -5    1    4    4    0  502 -0.30424674543E+02  0.67963632663E+01  0.63552618949E+02  0.70942770949E+02  0.47000000000E+01 0.  1.
          5    1    3    3  503    0 -0.45779582450E+02 -0.36211281872E+02  0.63423271881E+02  0.86322815757E+02  0.47000000000E+01 0. -1.
         -5    1    3    3    0  503  0.67702882158E+01  0.24756811688E+02  0.10879226158E+03  0.11187753442E+03  0.47000000000E+01 0.  1.
<mgrwt>
<rscale>  0 0.10048430E+03</rscale>
<asrwt>0</asrwt>
<pdfrwt beam="1">  1        2 0.37810814E-02 0.10128911E+03</pdfrwt>
<pdfrwt beam="2">  1       -2 0.62555547E-01 0.10128911E+03</pdfrwt>
<totfact> 0.51132738E+03</totfact>
</mgrwt>
</event>
<event>
 8    1  0.3466492E-004  0.1226616E+03  0.7546771E-02  0.1238812E+00
         -1   -1    0    0    0  501 -0.00000000000E+00  0.00000000000E+00  0.46923256053E+02  0.46923256053E+02  0.00000000000E+00 0.  1.
          1   -1    0    0  501    0  0.00000000000E+00 -0.00000000000E+00 -0.41853440336E+03  0.41853440336E+03  0.00000000000E+00 0. -1.
         23    2    1    2    0    0 -0.66340349006E+02  0.46864143039E+02 -0.73035793649E+02  0.14266809743E+03  0.91775100444E+02 0.  0.
         23    2    1    2    0    0  0.66340349006E+02 -0.46864143039E+02 -0.29857535366E+03  0.32278956199E+03  0.91916101442E+02 0.  0.
          5    1    3    3  502    0  0.12861689054E+01  0.51966371813E+02 -0.18031205617E+02  0.55221122824E+02  0.47000000000E+01 0. -1.
         -5    1    3    3    0  502 -0.67626517912E+02 -0.51022287744E+01 -0.55004588032E+02  0.87446974607E+02  0.47000000000E+01 0.  1.
          5    1    4    4  503    0  0.67037657934E+02 -0.10507321537E+02 -0.26317619895E+03  0.27182393765E+03  0.47000000000E+01 0. -1.
         -5    1    4    4    0  503 -0.69730892747E+00 -0.36356821502E+02 -0.35399154712E+02  0.50965624335E+02  0.47000000000E+01 0.  1.
<mgrwt>
<rscale>  0 0.12263515E+03</rscale>
<asrwt>0</asrwt>
<pdfrwt beam="1">  1        1 0.64389907E-01 0.12266156E+03</pdfrwt>
<pdfrwt beam="2">  1       -1 0.72189626E-02 0.12266156E+03</pdfrwt>
<totfact> 0.54964662E+03</totfact>
</mgrwt>
</event>
<event>
 8    1  0.3466492E-004  0.9346003E+02  0.7546771E-02  0.1297145E+00
          1   -1    0    0  501    0  0.00000000000E+00  0.00000000000E+00  0.30366420660E+03  0.30366420660E+03  0.00000000000E+00 0. -1.
         -1   -1    0    0    0  501 -0.00000000000E+00 -0.00000000000E+00 -0.29025400398E+02  0.29025400398E+02  0.00000000000E+00 0.  1.
         23    2    1    2    0    0 -0.27231179294E+01 -0.15189765625E+02  0.17254284806E+03  0.19427586989E+03  0.87942793078E+02 0.  0.
         23    2    1    2    0    0  0.27231179294E+01  0.15189765625E+02  0.10209595814E+03  0.13841373711E+03  0.92177185899E+02 0.  0.
          5    1    4    4  502    0  0.43740525129E+02 -0.56154133334E+01  0.67093292010E+02  0.80426153943E+02  0.47000000000E+01 0. -1.
         -5    1    3    3    0  503 -0.40585816829E+02  0.49264671717E+01  0.52418620360E+02  0.66642931860E+02  0.47000000000E+01 0.  1.
          5    1    3    3  503    0  0.37862698900E+02 -0.20116232797E+02  0.12012422770E+03  0.12763293803E+03  0.47000000000E+01 0. -1.
         -5    1    4    4    0  502 -0.41017407199E+02  0.20805178959E+02  0.35002666132E+02  0.57987583164E+02  0.47000000000E+01 0.  1.
<mgrwt>
<rscale>  0 0.92398709E+02</rscale>
<asrwt>0</asrwt>
<pdfrwt beam="1">  1        1 0.46717568E-01 0.93460034E+02</pdfrwt>
<pdfrwt beam="2">  1       -1 0.44654464E-02 0.93460034E+02</pdfrwt>
<totfact> 0.16281856E+04</totfact>
</mgrwt>
</event>
<event>
 8    1  0.3466492E-004  0.1026252E+03  0.7546771E-02  0.1275255E+00
         -1   -1    0    0    0  501 -0.00000000000E+00  0.00000000000E+00  0.14064539559E+03  0.14064539559E+03  0.00000000000E+00 0.  1.
          1   -1    0    0  501    0  0.00000000000E+00 -0.00000000000E+00 -0.76769839632E+02  0.76769839632E+02  0.00000000000E+00 0. -1.
         23    2    1    2    0    0 -0.20913827520E+02  0.41238783339E+02  0.51420093813E+02  0.11478661451E+03  0.91618313623E+02 0.  0.
         23    2    1    2    0    0  0.20913827520E+02 -0.41238783339E+02  0.12455462143E+02  0.10262862070E+03  0.90771525368E+02 0.  0.
          5    1    3    3  502    0  0.27073618688E+02  0.13650468334E+02 -0.97135470751E+01  0.32183211639E+02  0.47000000000E+01 0. -1.
         -5    1    3    3    0  502 -0.47987446208E+02  0.27588315005E+02  0.61133640888E+02  0.82603402876E+02  0.47000000000E+01 0.  1.
          5    1    4    4  503    0  0.60841024296E+01 -0.68600315195E+02  0.70924651953E+00  0.69033416385E+02  0.47000000000E+01 0. -1.
         -5    1    4    4    0  503  0.14829725091E+02  0.27361531856E+02  0.11746215624E+02  0.33595204319E+02  0.47000000000E+01 0.  1.
<mgrwt>
<rscale>  0 0.10243591E+03</rscale>
<asrwt>0</asrwt>
<pdfrwt beam="1">  1        1 0.11810745E-01 0.10262524E+03</pdfrwt>
<pdfrwt beam="2">  1       -1 0.21637753E-01 0.10262524E+03</pdfrwt>
<totfact> 0.83631719E+03</totfact>
</mgrwt>
</event>
<event>
 8    1  0.3466492E-004  0.1076916E+03  0.7546771E-02  0.1265424E+00
          1   -1    0    0  501    0  0.00000000000E+00  0.00000000000E+00  0.14924013278E+03  0.14924013278E+03  0.00000000000E+00 0. -1.
         -1   -1    0    0    0  501 -0.00000000000E+00 -0.00000000000E+00 -0.77709840318E+02  0.77709840318E+02  0.00000000000E+00 0.  1.
         23    2    1    2    0    0  0.38670492102E+02 -0.39098128800E+02  0.47307663443E+02  0.11762440875E+03  0.92592742044E+02 0.  0.
         23    2    1    2    0    0 -0.38670492102E+02  0.39098128800E+02  0.24222629017E+02  0.10932556434E+03  0.91330567868E+02 0.  0.
          5    1    3    3  502    0 -0.18726493637E+02  0.17267246442E+02  0.42145980126E+01  0.26242945720E+02  0.47000000000E+01 0. -1.
         -5    1    4    4    0  503 -0.13763534115E+02  0.63494757845E+02 -0.24376356160E+01  0.65184746778E+02  0.47000000000E+01 0.  1.
          5    1    4    4  503    0 -0.24906957987E+02 -0.24396629045E+02  0.26660264633E+02  0.44140817564E+02  0.47000000000E+01 0. -1.
         -5    1    3    3    0  502  0.57396985739E+02 -0.56365375242E+02  0.43093065430E+02  0.91381463035E+02  0.47000000000E+01 0.  1.
<mgrwt>
<rscale>  0 0.10741978E+03</rscale>
<asrwt>0</asrwt>
<pdfrwt beam="1">  1        1 0.22960020E-01 0.10769163E+03</pdfrwt>
<pdfrwt beam="2">  1       -1 0.11955360E-01 0.10769163E+03</pdfrwt>
<totfact> 0.91016343E+03</totfact>
</mgrwt>
</event>
<event>
 8    1  0.3466492E-004  0.1073210E+03  0.7546771E-02  0.1266649E+00
          2   -1    0    0  501    0  0.00000000000E+00  0.00000000000E+00  0.30762288935E+03  0.30762288935E+03  0.00000000000E+00 0. -1.
         -2   -1    0    0    0  501 -0.00000000000E+00 -0.00000000000E+00 -0.45714454241E+02  0.45714454241E+02  0.00000000000E+00 0.  1.
         23    2    1    2    0    0 -0.47998271232E+02 -0.25673239604E+02  0.51436139320E+02  0.11708244888E+03  0.89998189615E+02 0.  0.
         23    2    1    2    0    0  0.47998271232E+02  0.25673239604E+02  0.21047229579E+03  0.23625489472E+03  0.92492371082E+02 0.  0.
          5    1    4    4  502    0  0.75796022660E+02  0.16954161494E+02  0.15270395170E+03  0.17138572726E+03  0.47000000000E+01 0. -1.
         -5    1    3    3    0  503  0.81241982473E+00 -0.43903277973E+02  0.64385293822E+00  0.44166303778E+02  0.47000000000E+01 0.  1.
          5    1    3    3  503    0 -0.48810691056E+02  0.18230038369E+02  0.50792286382E+02  0.72916145100E+02  0.47000000000E+01 0. -1.
         -5    1    4    4    0  502 -0.27797751428E+02  0.87190781106E+01  0.57768344094E+02  0.64869167460E+02  0.47000000000E+01 0.  1.
<mgrwt>
<rscale>  0 0.10678141E+03</rscale>
<asrwt>0</asrwt>
<pdfrwt beam="1">  1        2 0.47326597E-01 0.10732096E+03</pdfrwt>
<pdfrwt beam="2">  1       -2 0.70329932E-02 0.10732096E+03</pdfrwt>
<totfact> 0.11397467E+04</totfact>
</mgrwt>
</event>
<event>
 8    1  0.3466492E-004  0.9930565E+02  0.7546771E-02  0.1283714E+00
          3   -1    0    0  501    0  0.00000000000E+00  0.00000000000E+00  0.42150130181E+03  0.42150130181E+03  0.00000000000E+00 0. -1.
         -3   -1    0    0    0  501 -0.00000000000E+00 -0.00000000000E+00 -0.24348301207E+02  0.24348301207E+02  0.00000000000E+00 0.  1.
         23    2    1    2    0    0  0.11514353392E+02 -0.36576507447E+02  0.13468930332E+03  0.16522742777E+03  0.87683939400E+02 0.  0.
         23    2    1    2    0    0 -0.11514353392E+02  0.36576507447E+02  0.26246369729E+03  0.28062217525E+03  0.91603447619E+02 0.  0.
          5    1    3    3  502    0 -0.75885634120E+01  0.25704698383E+02  0.60786891327E+02  0.66599203981E+02  0.47000000000E+01 0. -1.
         -5    1    4    4    0  503  0.35087963109E+02  0.70087426964E+01  0.16129114449E+03  0.16527919083E+03  0.47000000000E+01 0.  1.
          5    1    4    4  503    0 -0.46602316501E+02  0.29567764750E+02  0.10117255280E+03  0.11534298442E+03  0.47000000000E+01 0. -1.
         -5    1    3    3    0  502  0.19102916804E+02 -0.62281205830E+02  0.73902411988E+02  0.98628223789E+02  0.47000000000E+01 0.  1.
<mgrwt>
<rscale>  0 0.98392243E+02</rscale>
<asrwt>0</asrwt>
<pdfrwt beam="1">  1        3 0.64846349E-01 0.99305654E+02</pdfrwt>
<pdfrwt beam="2">  1       -3 0.37458928E-02 0.99305654E+02</pdfrwt>
<totfact> 0.18274914E+03</totfact>
</mgrwt>
</event>
<event>
 8    1  0.3466492E-004  0.1174902E+03  0.7546771E-02  0.1248281E+00
          4   -1    0    0  501    0  0.00000000000E+00  0.00000000000E+00  0.25278608676E+03  0.25278608676E+03  0.00000000000E+00 0. -1.
         -4   -1    0    0    0  501 -0.00000000000E+00 -0.00000000000E+00 -0.83281292147E+02  0.83281292147E+02  0.00000000000E+00 0.  1.
         23    2    1    2    0    0 -0.73176604609E+02 -0.28946420840E+00 -0.15115157776E+02  0.11845850904E+03  0.91918720168E+02 0.  0.
         23    2    1    2    0    0  0.73176604609E+02  0.28946420840E+00  0.18461995239E+03  0.21760886987E+03  0.88961756802E+02 0.  0.
          5    1    3    3  502    0  0.11465306390E+02  0.18219362582E+02  0.14951310685E+02  0.26627619396E+02  0.47000000000E+01 0. -1.
         -5    1    4    4    0  503  0.46988548122E+02 -0.15628371201E+02  0.26271166806E+02  0.56253300759E+02  0.47000000000E+01 0.  1.
          5    1    4    4  503    0  0.26188056487E+02  0.15917835410E+02  0.15834878558E+03  0.16135556911E+03  0.47000000000E+01 0. -1.
         -5    1    3    3    0  502 -0.84641910999E+02 -0.18508826791E+02 -0.30066468461E+02  0.91830889642E+02  0.47000000000E+01 0.  1.
<mgrwt>
<rscale>  0 0.11691128E+03</rscale>
<asrwt>0</asrwt>
<pdfrwt beam="1">  1        4 0.38890167E-01 0.11749021E+03</pdfrwt>
<pdfrwt beam="2">  1       -4 0.12812507E-01 0.11749021E+03</pdfrwt>
<totfact> 0.51398443E+02</totfact>
</mgrwt>
</event>
<event>
 8    1  0.3466492E-004  0.1153356E+03  0.7546771E-02  0.1251853E+00
          1   -1    0    0  501    0  0.00000000000E+00  0.00000000000E+00  0.48006627768E+03  0.48006627768E+03  0.00000000000E+00 0. -1.
         -1   -1    0    0    0  501 -0.00000000000E+00 -0.00000000000E+00 -0.62253069617E+02  0.62253069617E+02  0.00000000000E+00 0.  1.
         23    2    1    2    0    0  0.38408598481E+02 -0.55727262917E+02  0.41147370672E+03  0.42680962949E+03  0.90967577961E+02 0.  0.
         23    2    1    2    0    0 -0.38408598481E+02  0.55727262917E+02  0.63395013516E+01  0.11550971781E+03  0.93389278622E+02 0.  0.
          5    1    4    4  502    0  0.24129553867E+02  0.23239630153E+02  0.25458082727E+02  0.42338159568E+02  0.47000000000E+01 0. -1.
         -5    1    4    4    0  502 -0.62538152348E+02  0.32487632764E+02 -0.19118581375E+02  0.73171558241E+02  0.47000000000E+01 0.  1.
          5    1    3    3  503    0  0.48069203108E+02  0.43578380533E+01  0.12894243418E+03  0.13776022784E+03  0.47000000000E+01 0. -1.
         -5    1    3    3    0  503 -0.96606046272E+01 -0.60085100970E+02  0.28253127253E+03  0.28904940166E+03  0.47000000000E+01 0.  1.
<mgrwt>
<rscale>  0 0.11484450E+03</rscale>
<asrwt>0</asrwt>
<pdfrwt beam="1">  1        1 0.73856348E-01 0.11533562E+03</pdfrwt>
<pdfrwt beam="2">  1       -1 0.95773956E-02 0.11533562E+03</pdfrwt>
<totfact> 0.30053917E+03</totfact>
</mgrwt>
</event>
<event>
 8    1  0.3466492E-004  0.1161553E+03  0.7546771E-02  0.1250619E+00
         -2   -1    0    0    0  501 -0.00000000000E+00  0.00000000000E+00  0.36808134076E+02  0.36808134076E+02  0.00000000000E+00 0.  1.
          2   -1    0    0  501    0  0.00000000000E+00 -0.00000000000E+00 -0.42196898446E+03  0.42196898446E+03  0.00000000000E+00 0. -1.
         23    2    1    2    0    0  0.64930379446E+02  0.19081019356E+02 -0.10230048532E+03  0.15299609458E+03  0.91446028809E+02 0.  0.
         23    2    1    2    0    0 -0.64930379446E+02 -0.19081019356E+02 -0.28286036506E+03  0.30578102395E+03  0.94403437514E+02 0.  0.
          5    1    3    3  502    0  0.28518674904E+02 -0.36729119905E+02 -0.37427921926E+02  0.59877227783E+02  0.47000000000E+01 0. -1.
         -5    1    3    3    0  502  0.36411704542E+02  0.55810139261E+02 -0.64872563398E+02  0.93118866798E+02  0.47000000000E+01 0.  1.
          5    1    4    4  503    0 -0.86844699549E+02 -0.28216760519E+02 -0.23468354499E+03  0.25186632110E+03  0.47000000000E+01 0. -1.
         -5    1    4    4    0  503  0.21914320103E+02  0.91357411629E+01 -0.48176820064E+02  0.53914702852E+02  0.47000000000E+01 0.  1.
<mgrwt>
<rscale>  0 0.11555297E+03</rscale>
<asrwt>0</asrwt>
<pdfrwt beam="1">  1        2 0.64918304E-01 0.11615528E+03</pdfrwt>
<pdfrwt beam="2">  1       -2 0.56627900E-02 0.11615528E+03</pdfrwt>
<totfact> 0.11400753E+04</totfact>
</mgrwt>
</event>
<event>
 8    1  0.3466492E-004  0.9885080E+02  0.7546771E-02  0.1285237E+00
         -1   -1    0    0    0  501 -0.00000000000E+00  0.00000000000E+00  0.17328806354E+02  0.17328806354E+02  0.00000000000E+00 0.  1.
          1   -1    0    0  501    0  0.00000000000E+00 -0.00000000000E+00 -0.54821093119E+03  0.54821093119E+03  0.00000000000E+00 0. -1.
         23    2    1    2    0    0  0.62392184961E+01  0.84292310869E+01 -0.29767883464E+03  0.31225086136E+03  0.93690618753E+02 0.  0.
         23    2    1    2    0    0 -0.62392184961E+01 -0.84292310869E+01 -0.23320329019E+03  0.25328887618E+03  0.98292931877E+02 0.  0.
          5    1    3    3  502    0 -0.27922510244E+02 -0.20070948308E+02 -0.21908015023E+03  0.22181233457E+03  0.47000000000E+01 0. -1.
         -5    1    3    3    0  502  0.34161728740E+02  0.28500179395E+02 -0.78598684417E+02  0.90438526791E+02  0.47000000000E+01 0.  1.
          5    1    4    4  503    0  0.35926757274E+02 -0.15185244379E+02 -0.42791645836E+02  0.58090777998E+02  0.47000000000E+01 0.  1.
         -5    1    4    4    0  503 -0.42165975770E+02  0.67560132923E+01 -0.19041164435E+03  0.19519809818E+03  0.47000000000E+01 0. -1.
<mgrwt>
<rscale>  0 0.97686624E+02</rscale>
<asrwt>0</asrwt>
<pdfrwt beam="1">  1        1 0.84340146E-01 0.98850798E+02</pdfrwt>
<pdfrwt beam="2">  1       -1 0.26659701E-02 0.98850798E+02</pdfrwt>
<totfact> 0.16462023E+04</totfact>
</mgrwt>
</event>
<event>
 8    1  0.3466492E-004  0.1160521E+03  0.7546771E-02  0.1260424E+00
          2   -1    0    0  501    0  0.00000000000E+00  0.00000000000E+00  0.10630175277E+03  0.10630175277E+03  0.00000000000E+00 0.  1.
         -2   -1    0    0    0  501 -0.00000000000E+00 -0.00000000000E+00 -0.16045778904E+03  0.16045778904E+03  0.00000000000E+00 0. -1.
         23    2    1    2    0    0 -0.13224115586E+02 -0.34283255152E+00 -0.10427231033E+03  0.14034860891E+03  0.93005497435E+02 0.  0.
         23    2    1    2    0    0  0.13224115586E+02  0.34283255152E+00  0.50116274059E+02  0.12641093290E+03  0.11529565588E+03 0.  0.
          5    1    4    4  502    0  0.74611694207E+01  0.55741555093E+02  0.92926663603E+01  0.57194699592E+02  0.47000000000E+01 0. -1.
         -5    1    3    3    0  503  0.46340049578E+01  0.43880263861E+02 -0.63261883742E+02  0.77272941532E+02  0.47000000000E+01 0.  1.
          5    1    3    3  503    0 -0.17858120544E+02 -0.44223096413E+02 -0.41010426590E+02  0.63075667375E+02  0.47000000000E+01 0. -1.
         -5    1    4    4    0  502  0.57629461652E+01 -0.55398722542E+02  0.40823607699E+02  0.69216233308E+02  0.47000000000E+01 0.  1.
<mgrwt>
<rscale>  0 0.11007891E+03</rscale>
<asrwt>0</asrwt>
<pdfrwt beam="1">  1        2 0.16354116E-01 0.11605207E+03</pdfrwt>
<pdfrwt beam="2">  1       -2 0.24685814E-01 0.11605207E+03</pdfrwt>
<totfact> 0.48223224E+03</totfact>
</mgrwt>
</event>
<event>
 8    1  0.3466492E-004  0.1426797E+03  0.7546771E-02  0.1210134E+00
          1   -1    0    0  501    0  0.00000000000E+00  0.00000000000E+00  0.11209053015E+03  0.11209053015E+03  0.00000000000E+00 0. -1.
         -1   -1    0    0    0  501 -0.00000000000E+00 -0.00000000000E+00 -0.20522829971E+03  0.20522829971E+03  0.00000000000E+00 0.  1.
         23    2    1    2    0    0 -0.20996704399E+02 -0.10870289414E+03  0.89901319493E+01  0.14185486975E+03  0.88231518235E+02 0.  0.
         23    2    1    2    0    0  0.20996704399E+02  0.10870289414E+03 -0.10212790151E+03  0.17546396011E+03  0.90001734654E+02 0.  0.
          5    1    4    4  502    0 -0.31304314881E+02  0.46065146306E+02 -0.19391659105E+02  0.59161510098E+02  0.47000000000E+01 0. -1.
         -5    1    4    4    0  502  0.52301019279E+02  0.62637747834E+02 -0.82736242403E+02  0.11630245001E+03  0.47000000000E+01 0.  1.
          5    1    3    3  503    0  0.11427391976E+02 -0.10191713219E+03  0.23607722948E+02  0.10534278192E+03  0.47000000000E+01 0. -1.
         -5    1    3    3    0  503 -0.32424096375E+02 -0.67857619520E+01 -0.14617590999E+02  0.36512087828E+02  0.47000000000E+01 0.  1.
<mgrwt>
<rscale>  0 0.14240138E+03</rscale>
<asrwt>0</asrwt>
<pdfrwt beam="1">  1        1 0.17244697E-01 0.14267969E+03</pdfrwt>
<pdfrwt beam="2">  1       -1 0.31573584E-01 0.14267969E+03</pdfrwt>
<totfact> 0.28109183E+03</totfact>
</mgrwt>
</event>
<event>
 8    1  0.3466492E-004  0.9588328E+02  0.7546771E-02  0.1289227E+00
          3   -1    0    0  501    0  0.00000000000E+00  0.00000000000E+00  0.12337708959E+03  0.12337708959E+03  0.00000000000E+00 0. -1.
         -3   -1    0    0    0  501 -0.00000000000E+00 -0.00000000000E+00 -0.76745063681E+02  0.76745063681E+02  0.00000000000E+00 0.  1.
         23    2    1    2    0    0 -0.15955392296E+02  0.24738177747E+02  0.61113312445E+01  0.96028303005E+02  0.91200518787E+02 0.  0.
         23    2    1    2    0    0  0.15955392296E+02 -0.24738177747E+02  0.40520694664E+02  0.10409385026E+03  0.91252676592E+02 0.  0.
          5    1    4    4  502    0  0.40176177234E+02 -0.47163800472E+02  0.21744076081E+02  0.65828900467E+02  0.47000000000E+01 0. -1.
         -5    1    3    3    0  503 -0.53859346721E+02  0.18208484673E+02  0.49540782360E+01  0.57262649558E+02  0.47000000000E+01 0.  1.
          5    1    3    3  503    0  0.37903954425E+02  0.65296930740E+01  0.11572530085E+01  0.38765653447E+02  0.47000000000E+01 0. -1.
         -5    1    4    4    0  502 -0.24220784938E+02  0.22425622725E+02  0.18776618583E+02  0.38264949798E+02  0.47000000000E+01 0.  1.
<mgrwt>
<rscale>  0 0.95870866E+02</rscale>
<asrwt>0</asrwt>
<pdfrwt beam="1">  1        3 0.18981091E-01 0.95883278E+02</pdfrwt>
<pdfrwt beam="2">  1       -3 0.11806933E-01 0.95883278E+02</pdfrwt>
<totfact> 0.29337465E+03</totfact>
</mgrwt>
</event>
<event>
 8    1  0.3466492E-004  0.9284564E+02  0.7546771E-02  0.1301298E+00
          2   -1    0    0  501    0  0.00000000000E+00  0.00000000000E+00  0.78837312968E+02  0.78837312968E+02  0.00000000000E+00 0. -1.
         -2   -1    0    0    0  501 -0.00000000000E+00 -0.00000000000E+00 -0.99760846389E+02  0.99760846389E+02  0.00000000000E+00 0.  1.
         23    2    1    2    0    0  0.16743483055E+02  0.57083963661E+01 -0.14891730895E+02  0.94032319421E+02  0.91144848636E+02 0.  0.
         23    2    1    2    0    0 -0.16743483055E+02 -0.57083963661E+01 -0.60318025261E+01  0.84565839936E+02  0.82474654461E+02 0.  0.
          5    1    4    4  502    0  0.28905182329E+01  0.26281704011E+02  0.24193564595E+02  0.36145561681E+02  0.47000000000E+01 0. -1.
         -5    1    4    4    0  502 -0.19634001288E+02 -0.31990100377E+02 -0.30225367121E+02  0.48420278256E+02  0.47000000000E+01 0.  1.
          5    1    3    3  503    0  0.37470313110E+01  0.46136595584E+02  0.52048957624E+01  0.46816734569E+02  0.47000000000E+01 0. -1.
         -5    1    3    3    0  503  0.12996451744E+02 -0.40428199218E+02 -0.20096626657E+02  0.47215584853E+02  0.47000000000E+01 0.  1.
<mgrwt>
<rscale>  0 0.90644822E+02</rscale>
<asrwt>0</asrwt>
<pdfrwt beam="1">  1        2 0.12128817E-01 0.92845643E+02</pdfrwt>
<pdfrwt beam="2">  1       -2 0.15347822E-01 0.92845643E+02</pdfrwt>
<totfact> 0.14887190E+04</totfact>
</mgrwt>
</event>
<event>
 8    1  0.3466492E-004  0.9863990E+02  0.7546771E-02  0.1283240E+00
         -1   -1    0    0    0  501 -0.00000000000E+00  0.00000000000E+00  0.17013041590E+03  0.17013041590E+03  0.00000000000E+00 0.  1.
          1   -1    0    0  501    0  0.00000000000E+00 -0.00000000000E+00 -0.86058602903E+02  0.86058602903E+02  0.00000000000E+00 0. -1.
         23    2    1    2    0    0  0.32026748354E+02 -0.12266356189E+02  0.11629048384E+03  0.15242065535E+03  0.92371009740E+02 0.  0.
         23    2    1    2    0    0 -0.32026748354E+02  0.12266356189E+02 -0.32218670848E+02  0.10376836345E+03  0.92485968654E+02 0.  0.
          5    1    4    4  502    0 -0.53858440823E+02  0.16156972423E+02 -0.49660325845E+02  0.75166597427E+02  0.47000000000E+01 0. -1.
         -5    1    4    4    0  502  0.21831692468E+02 -0.38906162342E+01  0.17441654997E+02  0.28601766025E+02  0.47000000000E+01 0.  1.
          5    1    3    3  503    0  0.22747439622E+02  0.31187139954E+02  0.95550945950E+02  0.10316083065E+03  0.47000000000E+01 0. -1.
         -5    1    3    3    0  503  0.92793087327E+01 -0.43453496143E+02  0.20739537892E+02  0.49259824701E+02  0.47000000000E+01 0.  1.
<mgrwt>
<rscale>  0 0.98612947E+02</rscale>
<asrwt>0</asrwt>
<pdfrwt beam="1">  1        1 0.13239785E-01 0.98639903E+02</pdfrwt>
<pdfrwt beam="2">  1       -1 0.26173910E-01 0.98639903E+02</pdfrwt>
<totfact> 0.52800147E+03</totfact>
</mgrwt>
</event>
<event>
 8    1  0.3466492E-004  0.1182163E+03  0.7546771E-02  0.1246211E+00
         -1   -1    0    0    0  501 -0.00000000000E+00  0.00000000000E+00  0.59156825075E+02  0.59156825075E+02  0.00000000000E+00 0.  1.
          1   -1    0    0  501    0  0.00000000000E+00 -0.00000000000E+00 -0.23928038211E+03  0.23928038211E+03  0.00000000000E+00 0. -1.
         23    2    1    2    0    0  0.25411358247E+02 -0.71640467135E+02 -0.71337135875E+02  0.13778361934E+03  0.90095755417E+02 0.  0.
         23    2    1    2    0    0 -0.25411358247E+02  0.71640467135E+02 -0.10878642116E+03  0.16065358785E+03  0.90537264150E+02 0.  0.
          5    1    4    4  502    0 -0.59145840604E+02  0.44175691295E+02 -0.75306160808E+02  0.10555960410E+03  0.47000000000E+01 0. -1.
         -5    1    3    3    0  503 -0.21130402837E+01 -0.79285021698E+02 -0.74174412058E+02  0.10869458592E+03  0.47000000000E+01 0.  1.
          5    1    3    3  503    0  0.27524398531E+02  0.76445545630E+01  0.28372761832E+01  0.29089033416E+02  0.47000000000E+01 0. -1.
         -5    1    4    4    0  502  0.33734482357E+02  0.27464775840E+02 -0.33480260353E+02  0.55093983747E+02  0.47000000000E+01 0.  1.
<mgrwt>
<rscale>  0 0.11813175E+03</rscale>
<asrwt>0</asrwt>
<pdfrwt beam="1">  1        1 0.36812367E-01 0.11821628E+03</pdfrwt>
<pdfrwt beam="2">  1       -1 0.91010500E-02 0.11821628E+03</pdfrwt>
<totfact> 0.77360327E+03</totfact>
</mgrwt>
</event>
<event>
 8    1  0.3466492E-004  0.9878585E+02  0.7546771E-02  0.1284732E+00
          1   -1    0    0  501    0  0.00000000000E+00  0.00000000000E+00  0.16893931023E+02  0.16893931023E+02  0.00000000000E+00 0. -1.
         -1   -1    0    0    0  501 -0.00000000000E+00 -0.00000000000E+00 -0.56797776069E+03  0.56797776069E+03  0.00000000000E+00 0.  1.
         23    2    1    2    0    0  0.32379041278E+02  0.19664928219E+01 -0.24122117550E+03  0.26066510939E+03  0.93307954295E+02 0.  0.
         23    2    1    2    0    0 -0.32379041278E+02 -0.19664928219E+01 -0.30986265417E+03  0.32420658233E+03  0.89681515192E+02 0.  0.
          5    1    4    4  502    0  0.19563586587E+02  0.28201207088E+02 -0.97990812042E+02  0.10393426406E+03  0.47000000000E+01 0. -1.
         -5    1    4    4    0  502 -0.51942627866E+02 -0.30167699910E+02 -0.21187184213E+03  0.22027231826E+03  0.47000000000E+01 0.  1.
          5    1    3    3  503    0  0.92937924091E+01  0.35104976178E+02 -0.35627705503E+02  0.51089698856E+02  0.47000000000E+01 0. -1.
         -5    1    3    3    0  503  0.23085248869E+02 -0.33138483356E+02 -0.20559347000E+03  0.20957541053E+03  0.47000000000E+01 0.  1.
<mgrwt>
<rscale>  0 0.97920055E+02</rscale>
<asrwt>0</asrwt>
<pdfrwt beam="1">  1        1 0.25990666E-02 0.98785848E+02</pdfrwt>
<pdfrwt beam="2">  1       -1 0.87381184E-01 0.98785848E+02</pdfrwt>
<totfact> 0.52535884E+03</totfact>
</mgrwt>
</event>
<event>
 8    1  0.3466492E-004  0.1002616E+03  0.7546771E-02  0.1280748E+00
          1   -1    0    0  501    0  0.00000000000E+00  0.00000000000E+00  0.88967767022E+03  0.88967767022E+03  0.00000000000E+00 0. -1.
         -1   -1    0    0    0  501 -0.00000000000E+00 -0.00000000000E+00 -0.25700978784E+02  0.25700978784E+02  0.00000000000E+00 0.  1.
         23    2    1    2    0    0 -0.37453273329E+02  0.20600243511E+00  0.85089602925E+02  0.13006503135E+03  0.90960880242E+02 0.  0.
         23    2    1    2    0    0  0.37453273329E+02 -0.20600243511E+00  0.77888708851E+03  0.78531361765E+03  0.93003178986E+02 0.  0.
          5    1    4    4  502    0  0.67686039762E+02  0.86424768481E+01  0.52514627070E+03  0.52958171043E+03  0.47000000000E+01 0. -1.
         -5    1    4    4    0  502 -0.30232766433E+02 -0.88484792833E+01  0.25374081781E+03  0.25573190723E+03  0.47000000000E+01 0.  1.
          5    1    3    3  503    0 -0.19068041485E+02  0.39610059152E+02  0.13595291822E+02  0.46254393865E+02  0.47000000000E+01 0. -1.
         -5    1    3    3    0  503 -0.18385231844E+02 -0.39404056717E+02  0.71494311104E+02  0.83810637486E+02  0.47000000000E+01 0.  1.
<mgrwt>
<rscale>  0 0.99785310E+02</rscale>
<asrwt>0</asrwt>
<pdfrwt beam="1">  1        1 0.13687346E+00 0.10026157E+03</pdfrwt>
<pdfrwt beam="2">  1       -1 0.39539974E-02 0.10026157E+03</pdfrwt>
<totfact> 0.46834084E+03</totfact>
</mgrwt>
</event>
<event>
 8    1  0.3466492E-004  0.2968327E+03  0.7546771E-02  0.1086913E+00
         -1   -1    0    0    0  501 -0.00000000000E+00  0.00000000000E+00  0.18708530969E+04  0.18708530969E+04  0.00000000000E+00 0.  1.
          1   -1    0    0  501    0  0.00000000000E+00 -0.00000000000E+00 -0.50642769944E+02  0.50642769944E+02  0.00000000000E+00 0. -1.
         23    2    1    2    0    0  0.21828209542E+03 -0.17769012751E+03  0.11687249356E+04  0.12058306906E+04  0.94280563433E+02 0.  0.
         23    2    1    2    0    0 -0.21828209542E+03  0.17769012751E+03  0.65148539131E+03  0.71566517623E+03  0.92317792329E+02 0.  0.
          5    1    3    3  502    0  0.84764268119E+02 -0.93120519203E+02  0.35037660457E+03  0.37234697162E+03  0.47000000000E+01 0. -1.
         -5    1    3    3    0  502  0.13351782730E+03 -0.84569608304E+02  0.81834833107E+03  0.83348371899E+03  0.47000000000E+01 0.  1.
          5    1    4    4  503    0 -0.20028483243E+03  0.15555881772E+03  0.49149804584E+03  0.55308677342E+03  0.47000000000E+01 0. -1.
         -5    1    4    4    0  503 -0.17997262990E+02  0.22131309792E+02  0.15998734547E+03  0.16257840281E+03  0.47000000000E+01 0.  1.
<mgrwt>
<rscale>  0 0.29667823E+03</rscale>
<asrwt>0</asrwt>
<pdfrwt beam="1">  1        1 0.77911968E-02 0.29683275E+03</pdfrwt>
<pdfrwt beam="2">  1       -1 0.28782350E+00 0.29683275E+03</pdfrwt>
<totfact> 0.41291504E+01</totfact>
</mgrwt>
</event>
<event>
 8    1  0.3466492E-004  0.9878121E+02  0.7546771E-02  0.1283374E+00
          1   -1    0    0  501    0  0.00000000000E+00  0.00000000000E+00  0.30464524075E+03  0.30464524075E+03  0.00000000000E+00 0. -1.
         -1   -1    0    0    0  501 -0.00000000000E+00 -0.00000000000E+00 -0.34869474656E+02  0.34869474656E+02  0.00000000000E+00 0.  1.
         23    2    1    2    0    0 -0.37514328378E+02 -0.11770055880E+01  0.84543966878E+02  0.13002080871E+03  0.91372962012E+02 0.  0.
         23    2    1    2    0    0  0.37514328378E+02  0.11770055880E+01  0.18523179921E+03  0.20949390669E+03  0.90377913925E+02 0.  0.
          5    1    4    4  502    0  0.43275604926E+02  0.31697534494E+02  0.16116041200E+03  0.16991845123E+03  0.47000000000E+01 0. -1.
         -5    1    4    4    0  502 -0.57612765482E+01 -0.30520528906E+02  0.24071387216E+02  0.39575455458E+02  0.47000000000E+01 0.  1.
          5    1    3    3  503    0 -0.43933120898E+02  0.27211883330E+02  0.14277127188E+02  0.53819439489E+02  0.47000000000E+01 0. -1.
         -5    1    3    3    0  503  0.64187925201E+01 -0.28388888918E+02  0.70266839690E+02  0.76201369223E+02  0.47000000000E+01 0.  1.
<mgrwt>
<rscale>  0 0.98550484E+02</rscale>
<asrwt>0</asrwt>
<pdfrwt beam="1">  1        1 0.46868497E-01 0.98781215E+02</pdfrwt>
<pdfrwt beam="2">  1       -1 0.53645348E-02 0.98781215E+02</pdfrwt>
<totfact> 0.12461755E+04</totfact>
</mgrwt>
</event>
<event>
 8    1  0.3466492E-004  0.1101898E+03  0.7546771E-02  0.1262671E+00
         -3   -1    0    0    0  501 -0.00000000000E+00  0.00000000000E+00  0.86265404633E+02  0.86265404633E+02  0.00000000000E+00 0.  1.
          3   -1    0    0  501    0  0.00000000000E+00 -0.00000000000E+00 -0.19373074864E+03  0.19373074864E+03  0.00000000000E+00 0. -1.
         23    2    1    2    0    0 -0.10019012532E+01 -0.53529499876E+02  0.24739469805E+02  0.10789178565E+03  0.90344811041E+02 0.  0.
         23    2    1    2    0    0  0.10019012532E+01  0.53529499876E+02 -0.13220481381E+03  0.17210436762E+03  0.96308823042E+02 0.  0.
          5    1    3    3  502    0  0.40211240425E+02 -0.62939588324E+01  0.19251472155E+01  0.41016508458E+02  0.47000000000E+01 0. -1.
         -5    1    3    3    0  502 -0.41213141678E+02 -0.47235541043E+02  0.22814322590E+02  0.66875277195E+02  0.47000000000E+01 0.  1.
          5    1    4    4  503    0 -0.15123748980E+02  0.19740527949E+02 -0.13196516349E+03  0.13437005099E+03  0.47000000000E+01 0. -1.
         -5    1    4    4    0  503  0.16125650233E+02  0.33788971927E+02 -0.23965031785E+00  0.37734316631E+02  0.47000000000E+01 0.  1.
<mgrwt>
<rscale>  0 0.10887325E+03</rscale>
<asrwt>0</asrwt>
<pdfrwt beam="1">  1        3 0.29804730E-01 0.11018984E+03</pdfrwt>
<pdfrwt beam="2">  1       -3 0.13271601E-01 0.11018984E+03</pdfrwt>
<totfact> 0.11071809E+03</totfact>
</mgrwt>
</event>
<event>
 8    1  0.3466492E-004  0.1025344E+03  0.7546771E-02  0.1276605E+00
         -2   -1    0    0    0  501 -0.00000000000E+00  0.00000000000E+00  0.65191198741E+03  0.65191198741E+03  0.00000000000E+00 0.  1.
          2   -1    0    0  501    0  0.00000000000E+00 -0.00000000000E+00 -0.15726008196E+02  0.15726008196E+02  0.00000000000E+00 0. -1.
         23    2    1    2    0    0 -0.17902492211E+02 -0.37679191447E+02  0.33526406413E+03  0.34972716400E+03  0.90370768779E+02 0.  0.
         23    2    1    2    0    0  0.17902492211E+02  0.37679191447E+02  0.30092191508E+03  0.31791083160E+03  0.93664706144E+02 0.  0.
          5    1    3    3  502    0 -0.50921639662E+02 -0.31744625640E+02  0.15438459273E+03  0.16570282772E+03  0.47000000000E+01 0. -1.
         -5    1    3    3    0  502  0.33019147451E+02 -0.59345658074E+01  0.18087947140E+03  0.18402433628E+03  0.47000000000E+01 0.  1.
          5    1    4    4  503    0  0.37517075604E+02  0.53729024120E+02  0.26886689246E+03  0.27677759096E+03  0.47000000000E+01 0.  1.
         -5    1    4    4    0  503 -0.19614583393E+02 -0.16049832673E+02  0.32055022616E+02  0.41133240639E+02  0.47000000000E+01 0. -1.
<mgrwt>
<rscale>  0 0.10177601E+03</rscale>
<asrwt>0</asrwt>
<pdfrwt beam="1">  1        2 0.24193864E-02 0.10253437E+03</pdfrwt>
<pdfrwt beam="2">  1       -2 0.10029413E+00 0.10253437E+03</pdfrwt>
<totfact> 0.33270481E+03</totfact>
</mgrwt>
</event>
<event>
 8    1  0.3466492E-004  0.1015896E+03  0.7546771E-02  0.1278057E+00
          2   -1    0    0  501    0  0.00000000000E+00  0.00000000000E+00  0.26336328637E+03  0.26336328637E+03  0.00000000000E+00 0. -1.
         -2   -1    0    0    0  501 -0.00000000000E+00 -0.00000000000E+00 -0.39449034050E+02  0.39449034050E+02  0.00000000000E+00 0.  1.
         23    2    1    2    0    0 -0.14726802009E+02  0.36348377891E+02  0.86146311002E+02  0.13163854273E+03  0.91484620351E+02 0.  0.
         23    2    1    2    0    0  0.14726802009E+02 -0.36348377891E+02  0.13776794131E+03  0.17117377768E+03  0.93714317156E+02 0.  0.
          5    1    4    4  502    0  0.33931497323E+02 -0.59099579483E+02  0.74402194606E+02  0.10100437301E+03  0.47000000000E+01 0. -1.
         -5    1    3    3    0  503  0.20627513397E+01 -0.22801811037E+02  0.60489460951E+02  0.64847840487E+02  0.47000000000E+01 0. -1.
          5    1    3    3  503    0 -0.16789553349E+02  0.59150188928E+02  0.25656850051E+02  0.66790702245E+02  0.47000000000E+01 0.  1.
         -5    1    4    4    0  502 -0.19204695313E+02  0.22751201592E+02  0.63365746708E+02  0.70169404670E+02  0.47000000000E+01 0.  1.
<mgrwt>
<rscale>  0 0.10107243E+03</rscale>
<asrwt>0</asrwt>
<pdfrwt beam="1">  1        2 0.40517428E-01 0.10158965E+03</pdfrwt>
<pdfrwt beam="2">  1       -2 0.60690823E-02 0.10158965E+03</pdfrwt>
<totfact> 0.16688129E+04</totfact>
</mgrwt>
</event>
<event>
 8    1  0.3466492E-004  0.1060986E+03  0.7546771E-02  0.1269064E+00
         -2   -1    0    0    0  501 -0.00000000000E+00  0.00000000000E+00  0.17373022867E+02  0.17373022867E+02  0.00000000000E+00 0.  1.
          2   -1    0    0  501    0  0.00000000000E+00 -0.00000000000E+00 -0.64479681182E+03  0.64479681182E+03  0.00000000000E+00 0. -1.
         23    2    1    2    0    0  0.80914670329E+01 -0.50929095574E+02 -0.27500474764E+03  0.29476182226E+03  0.92723654062E+02 0.  0.
         23    2    1    2    0    0 -0.80914670329E+01  0.50929095574E+02 -0.35241904131E+03  0.36740801242E+03  0.90167745348E+02 0.  0.
          5    1    4    4  502    0  0.17637852966E+02  0.68628513217E+02 -0.21571605347E+03  0.22710454071E+03  0.47000000000E+01 0. -1.
         -5    1    4    4    0  502 -0.25729319998E+02 -0.17699417644E+02 -0.13670298784E+03  0.14030347172E+03  0.47000000000E+01 0.  1.
          5    1    3    3  503    0 -0.11750600212E+02 -0.69842808058E+02 -0.23869010045E+03  0.24902037767E+03  0.47000000000E+01 0. -1.
         -5    1    3    3    0  503  0.19842067245E+02  0.18913712484E+02 -0.36314647188E+02  0.45741444587E+02  0.47000000000E+01 0.  1.
<mgrwt>
<rscale>  0 0.10553763E+03</rscale>
<asrwt>0</asrwt>
<pdfrwt beam="1">  1        2 0.99199482E-01 0.10609864E+03</pdfrwt>
<pdfrwt beam="2">  1       -2 0.26727735E-02 0.10609864E+03</pdfrwt>
<totfact> 0.21516147E+04</totfact>
</mgrwt>
</event>
<event>
 8    1  0.3466492E-004  0.1410336E+03  0.7546771E-02  0.1212288E+00
          1   -1    0    0  501    0  0.00000000000E+00  0.00000000000E+00  0.13691237263E+04  0.13691237263E+04  0.00000000000E+00 0. -1.
         -1   -1    0    0    0  501 -0.00000000000E+00 -0.00000000000E+00 -0.14440588521E+02  0.14440588521E+02  0.00000000000E+00 0.  1.
         23    2    1    2    0    0 -0.82488022837E+02  0.66635016932E+02  0.65532163747E+03  0.67032599428E+03  0.92983819459E+02 0.  0.
         23    2    1    2    0    0  0.82488022837E+02 -0.66635016932E+02  0.69936150030E+03  0.71323832053E+03  0.91421520311E+02 0.  0.
          5    1    4    4  502    0  0.94413387037E+02 -0.41783567731E+02  0.42204483232E+03  0.43451545965E+03  0.47000000000E+01 0. -1.
         -5    1    4    4    0  502 -0.11925364200E+02 -0.24851449202E+02  0.27731666798E+03  0.27872286088E+03  0.47000000000E+01 0.  1.
          5    1    3    3  503    0 -0.14420062615E+02  0.56326804360E+02  0.44894285859E+03  0.45271671869E+03  0.47000000000E+01 0. -1.
         -5    1    3    3    0  503 -0.68067960222E+02  0.10308212572E+02  0.20637877887E+03  0.21760927559E+03  0.47000000000E+01 0.  1.
<mgrwt>
<rscale>  0 0.14077667E+03</rscale>
<asrwt>0</asrwt>
<pdfrwt beam="1">  1        1 0.21063432E+00 0.14103365E+03</pdfrwt>
<pdfrwt beam="2">  1       -1 0.22216301E-02 0.14103365E+03</pdfrwt>
<totfact> 0.50573528E+03</totfact>
</mgrwt>
</event>
<event>
 8    1  0.3466492E-004  0.9627267E+02  0.7546771E-02  0.1290220E+00
          1   -1    0    0  501    0  0.00000000000E+00  0.00000000000E+00  0.22252107090E+03  0.22252107090E+03  0.00000000000E+00 0. -1.
         -1   -1    0    0    0  501 -0.00000000000E+00 -0.00000000000E+00 -0.49124024758E+02  0.49124024758E+02  0.00000000000E+00 0.  1.
         23    2    1    2    0    0 -0.30147030953E+01  0.22843586696E+02  0.14326812270E+03  0.17076804777E+03  0.90028069340E+02 0.  0.
         23    2    1    2    0    0  0.30147030953E+01 -0.22843586696E+02  0.30128923440E+02  0.10087704789E+03  0.93474642952E+02 0.  0.
          5    1    3    3  502    0 -0.21373635462E+02 -0.52608756389E+01  0.13365139176E+03  0.13553336720E+03  0.47000000000E+01 0. -1.
         -5    1    4    4    0  503  0.31275322185E+02 -0.46739859063E+02  0.29240440513E+02  0.63559842388E+02  0.47000000000E+01 0.  1.
          5    1    4    4  503    0 -0.28260619089E+02  0.23896272368E+02  0.88848292705E+00  0.37317205499E+02  0.47000000000E+01 0. -1.
         -5    1    3    3    0  502  0.18358932367E+02  0.28104462335E+02  0.96167309395E+01  0.35234680568E+02  0.47000000000E+01 0.  1.
<mgrwt>
<rscale>  0 0.95425876E+02</rscale>
<asrwt>0</asrwt>
<pdfrwt beam="1">  1        1 0.34234010E-01 0.96272669E+02</pdfrwt>
<pdfrwt beam="2">  1       -1 0.75575424E-02 0.96272669E+02</pdfrwt>
<totfact> 0.10993924E+04</totfact>
</mgrwt>
</event>
<event>
 8    1  0.3466492E-004  0.1058477E+03  0.7546771E-02  0.1269597E+00
          3   -1    0    0  501    0  0.00000000000E+00  0.00000000000E+00  0.16040413784E+03  0.16040413784E+03  0.00000000000E+00 0. -1.
         -3   -1    0    0    0  501 -0.00000000000E+00 -0.00000000000E+00 -0.96919729639E+02  0.96919729639E+02  0.00000000000E+00 0.  1.
         23    2    1    2    0    0 -0.23686002655E+02  0.48479501844E+02  0.10186332640E+03  0.14690089534E+03  0.91062873704E+02 0.  0.
         23    2    1    2    0    0  0.23686002655E+02 -0.48479501844E+02 -0.38378918193E+02  0.11042297214E+03  0.88368561113E+02 0.  0.
          5    1    3    3  502    0 -0.41070920979E+02  0.42422851232E+01  0.90663572786E+01  0.42533591048E+02  0.47000000000E+01 0. -1.
         -5    1    3    3    0  502  0.17384918324E+02  0.44237216721E+02  0.92796969120E+02  0.10436730430E+03  0.47000000000E+01 0.  1.
          5    1    4    4  503    0 -0.33215432288E+02 -0.24843103273E+02 -0.15259962597E+02  0.44445485494E+02  0.47000000000E+01 0. -1.
         -5    1    4    4    0  503  0.56901434943E+02 -0.23636398571E+02 -0.23118955596E+02  0.65977486644E+02  0.47000000000E+01 0.  1.
<mgrwt>
<rscale>  0 0.10526570E+03</rscale>
<asrwt>0</asrwt>
<pdfrwt beam="1">  1        3 0.24677560E-01 0.10584770E+03</pdfrwt>
<pdfrwt beam="2">  1       -3 0.14910728E-01 0.10584770E+03</pdfrwt>
<totfact> 0.12716766E+03</totfact>
</mgrwt>
</event>
<event>
 8    1  0.3466492E-004  0.1440724E+03  0.7546771E-02  0.1209911E+00
         -1   -1    0    0    0  501 -0.00000000000E+00  0.00000000000E+00  0.14670394766E+03  0.14670394766E+03  0.00000000000E+00 0.  1.
          1   -1    0    0  501    0  0.00000000000E+00 -0.00000000000E+00 -0.15795286916E+03  0.15795286916E+03  0.00000000000E+00 0. -1.
         23    2    1    2    0    0  0.89832776240E+02 -0.17060035755E+02 -0.62839111078E+02  0.15718017548E+03  0.11133679166E+03 0.  0.
         23    2    1    2    0    0 -0.89832776240E+02  0.17060035755E+02  0.51590189585E+02  0.14747664134E+03  0.10357045704E+03 0.  0.
          5    1    4    4  502    0 -0.65262767201E+02  0.53628737736E+02  0.58190397989E+02  0.10268146236E+03  0.47000000000E+01 0. -1.
         -5    1    4    4    0  502 -0.24570009040E+02 -0.36568701981E+02 -0.66002084034E+01  0.44795178979E+02  0.47000000000E+01 0.  1.
          5    1    3    3  503    0  0.40015854941E+02 -0.31577645880E+01 -0.89938442479E+02  0.98601488627E+02  0.47000000000E+01 0. -1.
         -5    1    3    3    0  503  0.49816921299E+02 -0.13902271167E+02  0.27099331402E+02  0.58578686856E+02  0.47000000000E+01 0.  1.
<mgrwt>
<rscale>  0 0.14257064E+03</rscale>
<asrwt>0</asrwt>
<pdfrwt beam="1">  1        1 0.24300441E-01 0.14407239E+03</pdfrwt>
<pdfrwt beam="2">  1       -1 0.22569838E-01 0.14407239E+03</pdfrwt>
<totfact> 0.31727713E+03</totfact>
</mgrwt>
</event>
<event>
 8    1  0.3466492E-004  0.1227100E+03  0.7546771E-02  0.1246262E+00
          3   -1    0    0  501    0  0.00000000000E+00  0.00000000000E+00  0.16715493002E+03  0.16715493002E+03  0.00000000000E+00 0. -1.
         -3   -1    0    0    0  501 -0.00000000000E+00 -0.00000000000E+00 -0.94305583874E+02  0.94305583874E+02  0.00000000000E+00 0.  1.
         23    2    1    2    0    0  0.10292089829E+02  0.21542714847E+02 -0.15927634787E+02  0.12373942421E+03  0.12036502764E+03 0.  0.
         23    2    1    2    0    0 -0.10292089829E+02 -0.21542714847E+02  0.88776980936E+02  0.13772108968E+03  0.10254623603E+03 0.  0.
          5    1    3    3  502    0 -0.46886238612E+02 -0.19266239967E+02 -0.15905812778E+02  0.53334719027E+02  0.47000000000E+01 0. -1.
         -5    1    3    3    0  502  0.57178328441E+02  0.40808954814E+02 -0.21822008735E-01  0.70404705187E+02  0.47000000000E+01 0.  1.
          5    1    4    4  503    0 -0.55853847704E+02 -0.19565818527E+02  0.52656361727E+02  0.79355251800E+02  0.47000000000E+01 0. -1.
         -5    1    4    4    0  503  0.45561757875E+02 -0.19768963206E+01  0.36120619209E+02  0.58365837883E+02  0.47000000000E+01 0.  1.
<mgrwt>
<rscale>  0 0.11810158E+03</rscale>
<asrwt>0</asrwt>
<pdfrwt beam="1">  1        3 0.25716143E-01 0.12271005E+03</pdfrwt>
<pdfrwt beam="2">  1       -3 0.14508551E-01 0.12271005E+03</pdfrwt>
<totfact> 0.12691259E+03</totfact>
</mgrwt>
</event>
<event>
 8    1  0.3466492E-004  0.9720466E+02  0.7546771E-02  0.1287115E+00
         -3   -1    0    0    0  501 -0.00000000000E+00  0.00000000000E+00  0.26945069525E+03  0.26945069525E+03  0.00000000000E+00 0.  1.
          3   -1    0    0  501    0  0.00000000000E+00 -0.00000000000E+00 -0.34533574686E+02  0.34533574686E+02  0.00000000000E+00 0. -1.
         23    2    1    2    0    0 -0.32723726909E+02  0.50411386409E+01  0.12064591072E+03  0.15493282736E+03  0.91391957191E+02 0.  0.
         23    2    1    2    0    0  0.32723726909E+02 -0.50411386409E+01  0.11427120985E+03  0.14905144258E+03  0.89789574854E+02 0.  0.
          5    1    4    4  502    0  0.55029386628E+01 -0.36150210284E+02  0.97423998656E+02  0.10416643198E+03  0.47000000000E+01 0. -1.
         -5    1    3    3    0  503 -0.64609550292E+01  0.41952928348E+02  0.91184396118E+02  0.10069000066E+03  0.47000000000E+01 0.  1.
          5    1    3    3  503    0 -0.26262771879E+02 -0.36911789707E+02  0.29461514598E+02  0.54242826702E+02  0.47000000000E+01 0. -1.
         -5    1    4    4    0  502  0.27220788246E+02  0.31109071643E+02  0.16847211192E+02  0.44885010596E+02  0.47000000000E+01 0.  1.
<mgrwt>
<rscale>  0 0.96826200E+02</rscale>
<asrwt>0</asrwt>
<pdfrwt beam="1">  1        3 0.53128578E-02 0.97204656E+02</pdfrwt>
<pdfrwt beam="2">  1       -3 0.41453952E-01 0.97204656E+02</pdfrwt>
<totfact> 0.25720223E+03</totfact>
</mgrwt>
</event>
<event>
 8    1  0.3466492E-004  0.9713313E+02  0.7546771E-02  0.1286645E+00
         -2   -1    0    0    0  501 -0.00000000000E+00  0.00000000000E+00  0.28120332089E+02  0.28120332089E+02  0.00000000000E+00 0.  1.
          2   -1    0    0  501    0  0.00000000000E+00 -0.00000000000E+00 -0.42283823936E+03  0.42283823936E+03  0.00000000000E+00 0. -1.
         23    2    1    2    0    0  0.10850478178E+02  0.31406291191E+02 -0.93852352541E+02  0.13480207873E+03  0.90880406856E+02 0.  0.
         23    2    1    2    0    0 -0.10850478178E+02 -0.31406291191E+02 -0.30086555473E+03  0.31615649272E+03  0.91272985379E+02 0.  0.
          5    1    3    3  502    0  0.24604490328E+02 -0.15052467034E+02 -0.78493514261E+02  0.83757265291E+02  0.47000000000E+01 0. -1.
         -5    1    3    3    0  502 -0.13754012150E+02  0.46458758225E+02 -0.15358838280E+02  0.51044813442E+02  0.47000000000E+01 0.  1.
          5    1    4    4  503    0  0.18177885938E+02 -0.55812292658E+02 -0.17845258798E+03  0.18791717246E+03  0.47000000000E+01 0. -1.
         -5    1    4    4    0  503 -0.29028364116E+02  0.24406001467E+02 -0.12241296675E+03  0.12823932025E+03  0.47000000000E+01 0.  1.
<mgrwt>
<rscale>  0 0.97040803E+02</rscale>
<asrwt>0</asrwt>
<pdfrwt beam="1">  1        2 0.65052034E-01 0.97133135E+02</pdfrwt>
<pdfrwt beam="2">  1       -2 0.43262051E-02 0.97133135E+02</pdfrwt>
<totfact> 0.16735720E+04</totfact>
</mgrwt>
</event>
<event>
 8    1  0.3466492E-004  0.9476031E+02  0.7546771E-02  0.1296872E+00
          2   -1    0    0  501    0  0.00000000000E+00  0.00000000000E+00  0.29280579789E+03  0.29280579789E+03  0.00000000000E+00 0. -1.
         -2   -1    0    0    0  501 -0.00000000000E+00 -0.00000000000E+00 -0.41908558458E+02  0.41908558458E+02  0.00000000000E+00 0.  1.
         23    2    1    2    0    0  0.22910506457E+02 -0.19346572065E+02  0.24850422354E+02  0.89608908106E+02  0.80703356585E+02 0.  0.
         23    2    1    2    0    0 -0.22910506457E+02  0.19346572065E+02  0.22604681708E+03  0.24510544824E+03  0.89890689671E+02 0.  0.
          5    1    3    3  502    0 -0.25517213005E+02  0.11492989709E+02  0.60768274895E+01  0.29021281921E+02  0.47000000000E+01 0. -1.
         -5    1    4    4    0  503  0.21618616214E+02 -0.11185838407E+02  0.19425871026E+02  0.31495110939E+02  0.47000000000E+01 0.  1.
          5    1    4    4  503    0 -0.44529122671E+02  0.30532410472E+02  0.20662094605E+03  0.21361033730E+03  0.47000000000E+01 0. -1.
         -5    1    3    3    0  502  0.48427719462E+02 -0.30839561773E+02  0.18773594864E+02  0.60587626186E+02  0.47000000000E+01 0.  1.
<mgrwt>
<rscale>  0 0.92515256E+02</rscale>
<asrwt>0</asrwt>
<pdfrwt beam="1">  1        2 0.45047045E-01 0.94760315E+02</pdfrwt>
<pdfrwt beam="2">  1       -2 0.64474707E-02 0.94760315E+02</pdfrwt>
<totfact> 0.13542037E+04</totfact>
</mgrwt>
</event>
<event>
 8    1  0.3466492E-004  0.1137496E+03  0.7546771E-02  0.1254347E+00
         -2   -1    0    0    0  501 -0.00000000000E+00  0.00000000000E+00  0.70186800012E+03  0.70186800012E+03  0.00000000000E+00 0.  1.
          2   -1    0    0  501    0  0.00000000000E+00 -0.00000000000E+00 -0.20928469295E+02  0.20928469295E+02  0.00000000000E+00 0. -1.
         23    2    1    2    0    0 -0.60602400388E+01 -0.68108574925E+02  0.46858864758E+03  0.48189843656E+03  0.89304412169E+02 0.  0.
         23    2    1    2    0    0  0.60602400388E+01  0.68108574925E+02  0.21235088325E+03  0.24089803286E+03  0.90903575999E+02 0.  0.
          5    1    3    3  502    0 -0.40578278022E+02 -0.14304849293E+02  0.12242729542E+03  0.12985283218E+03  0.47000000000E+01 0. -1.
         -5    1    4    4    0  503 -0.60922062487E+01 -0.20673401151E+02  0.61978844515E+02  0.65787321419E+02  0.47000000000E+01 0.  1.
          5    1    4    4  503    0  0.12152446288E+02  0.88781976076E+02  0.15037203873E+03  0.17511071144E+03  0.47000000000E+01 0. -1.
         -5    1    3    3    0  502  0.34518037983E+02 -0.53803725632E+02  0.34616135216E+03  0.35204560438E+03  0.47000000000E+01 0.  1.
<mgrwt>
<rscale>  0 0.11342976E+03</rscale>
<asrwt>0</asrwt>
<pdfrwt beam="1">  1        2 0.32197650E-02 0.11374957E+03</pdfrwt>
<pdfrwt beam="2">  1       -2 0.10797967E+00 0.11374957E+03</pdfrwt>
<totfact> 0.19285460E+03</totfact>
</mgrwt>
</event>
<event>
 8    1  0.3466492E-004  0.1033728E+03  0.7546771E-02  0.1277009E+00
          2   -1    0    0  501    0  0.00000000000E+00  0.00000000000E+00  0.50359898337E+03  0.50359898337E+03  0.00000000000E+00 0. -1.
         -2   -1    0    0    0  501 -0.00000000000E+00 -0.00000000000E+00 -0.20072725928E+02  0.20072725928E+02  0.00000000000E+00 0.  1.
         23    2    1    2    0    0 -0.29760831471E+02  0.36418103979E+02  0.26342654297E+03  0.28050545981E+03  0.84129567094E+02 0.  0.
         23    2    1    2    0    0  0.29760831471E+02 -0.36418103979E+02  0.22009971447E+03  0.24316624948E+03  0.92054088382E+02 0.  0.
          5    1    3    3  502    0  0.25814435253E+02  0.18061259657E+02  0.14328538216E+03  0.14678346265E+03  0.47000000000E+01 0. -1.
         -5    1    3    3    0  502 -0.55575266724E+02  0.18356844322E+02  0.12014116081E+03  0.13372199716E+03  0.47000000000E+01 0.  1.
          5    1    4    4  503    0  0.50802754143E+02  0.45216409875E+01  0.15540449836E+03  0.16362766629E+03  0.47000000000E+01 0. -1.
         -5    1    4    4    0  503 -0.21041922672E+02 -0.40939744966E+02  0.64695216112E+02  0.79538583187E+02  0.47000000000E+01 0.  1.
<mgrwt>
<rscale>  0 0.10157934E+03</rscale>
<asrwt>0</asrwt>
<pdfrwt beam="1">  1        2 0.77476757E-01 0.10337282E+03</pdfrwt>
<pdfrwt beam="2">  1       -2 0.30881121E-02 0.10337282E+03</pdfrwt>
<totfact> 0.22901334E+04</totfact>
</mgrwt>
</event>
<event>
 8    1  0.3466492E-004  0.9666408E+02  0.7546771E-02  0.1295470E+00
          3   -1    0    0  501    0  0.00000000000E+00  0.00000000000E+00  0.42233369164E+02  0.42233369164E+02  0.00000000000E+00 0. -1.
         -3   -1    0    0    0  501 -0.00000000000E+00 -0.00000000000E+00 -0.28421079041E+03  0.28421079041E+03  0.00000000000E+00 0.  1.
         23    2    1    2    0    0  0.18604670401E+02  0.27372419783E+02 -0.22007328028E+03  0.24036678801E+03  0.90821588624E+02 0.  0.
         23    2    1    2    0    0 -0.18604670401E+02 -0.27372419783E+02 -0.21904140964E+02  0.86077371561E+02  0.76381538201E+02 0.  0.
          5    1    4    4  502    0  0.13153873454E+02 -0.37300535989E+02  0.85372782868E+01  0.40734868264E+02  0.47000000000E+01 0. -1.
         -5    1    3    3    0  503  0.35683365070E+02  0.53318220902E+02 -0.16269333012E+03  0.17494954955E+03  0.47000000000E+01 0.  1.
          5    1    3    3  503    0 -0.17078694669E+02 -0.25945801119E+02 -0.57379950159E+02  0.65417238459E+02  0.47000000000E+01 0. -1.
         -5    1    4    4    0  502 -0.31758543855E+02  0.99281162066E+01 -0.30441419251E+02  0.45342503297E+02  0.47000000000E+01 0.  1.
<mgrwt>
<rscale>  0 0.93118667E+02</rscale>
<asrwt>0</asrwt>
<pdfrwt beam="1">  1        3 0.64974414E-02 0.96664079E+02</pdfrwt>
<pdfrwt beam="2">  1       -3 0.43724737E-01 0.96664079E+02</pdfrwt>
<totfact> 0.16852694E+03</totfact>
</mgrwt>
</event>
<event>
 8    1  0.3466492E-004  0.9630871E+02  0.7546771E-02  0.1288912E+00
         -2   -1    0    0    0  501 -0.00000000000E+00  0.00000000000E+00  0.75688458884E+02  0.75688458884E+02  0.00000000000E+00 0.  1.
          2   -1    0    0  501    0  0.00000000000E+00 -0.00000000000E+00 -0.15296412722E+03  0.15296412722E+03  0.00000000000E+00 0. -1.
         23    2    1    2    0    0  0.20993846605E+02 -0.27595146528E+02  0.13393918060E+02  0.97235614310E+02  0.89850620154E+02 0.  0.
         23    2    1    2    0    0 -0.20993846605E+02  0.27595146528E+02 -0.90669586394E+02  0.13141697179E+03  0.88584495657E+02 0.  0.
          5    1    3    3  502    0  0.69504524792E+01 -0.46609953680E+02  0.39526031175E+02  0.61686252214E+02  0.47000000000E+01 0. -1.
         -5    1    3    3    0  502  0.14043394126E+02  0.19014807152E+02 -0.26132113116E+02  0.35549362097E+02  0.47000000000E+01 0.  1.
          5    1    4    4  503    0 -0.41748530437E+02  0.46410496664E+01 -0.90756064090E+02  0.10011609413E+03  0.47000000000E+01 0. -1.
         -5    1    4    4    0  503  0.20754683833E+02  0.22954096861E+02  0.86477695873E-01  0.31300877657E+02  0.47000000000E+01 0.  1.
<mgrwt>
<rscale>  0 0.96012312E+02</rscale>
<asrwt>0</asrwt>
<pdfrwt beam="1">  1        2 0.23532942E-01 0.96308710E+02</pdfrwt>
<pdfrwt beam="2">  1       -2 0.11644378E-01 0.96308710E+02</pdfrwt>
<totfact> 0.10904349E+04</totfact>
</mgrwt>
</event>
<event>
 8    1  0.3466492E-004  0.1096544E+03  0.7546771E-02  0.1261248E+00
         -1   -1    0    0    0  501 -0.00000000000E+00  0.00000000000E+00  0.31721133928E+02  0.31721133928E+02  0.00000000000E+00 0.  1.
          1   -1    0    0  501    0  0.00000000000E+00 -0.00000000000E+00 -0.37988782337E+03  0.37988782337E+03  0.00000000000E+00 0. -1.
         23    2    1    2    0    0  0.22059001603E+02  0.57080641920E+02 -0.16290402768E+03  0.19632696462E+03  0.90894199864E+02 0.  0.
         23    2    1    2    0    0 -0.22059001603E+02 -0.57080641920E+02 -0.18526266176E+03  0.21528199268E+03  0.90990567062E+02 0.  0.
          5    1    3    3  502    0  0.27948431721E+02 -0.16603070478E+02 -0.31633692258E+02  0.45602163006E+02  0.47000000000E+01 0. -1.
         -5    1    3    3    0  502 -0.58894301180E+01  0.73683712398E+02 -0.13127033542E+03  0.15072480161E+03  0.47000000000E+01 0.  1.
          5    1    4    4  503    0 -0.43853809630E+02 -0.38521676659E+02 -0.17495632303E+03  0.18449629037E+03  0.47000000000E+01 0. -1.
         -5    1    4    4    0  503  0.21794808027E+02 -0.18558965261E+02 -0.10306338730E+02  0.30785702307E+02  0.47000000000E+01 0.  1.
<mgrwt>
<rscale>  0 0.10963438E+03</rscale>
<asrwt>0</asrwt>
<pdfrwt beam="1">  1        1 0.58444280E-01 0.10965438E+03</pdfrwt>
<pdfrwt beam="2">  1       -1 0.48801745E-02 0.10965438E+03</pdfrwt>
<totfact> 0.11005418E+04</totfact>
</mgrwt>
</event>
<event>
 7    1  0.3466492E-004  0.2516621E+03  0.7546771E-02  0.1119006E+00
         -2   -1    0    0    0  501 -0.00000000000E+00  0.00000000000E+00  0.70048267914E+02  0.70048267914E+02  0.00000000000E+00 0.  1.
          2   -1    0    0  501    0  0.00000000000E+00 -0.00000000000E+00 -0.78154008968E+03  0.78154008968E+03  0.00000000000E+00 0. -1.
         23    2    1    2    0    0 -0.18432647289E+03  0.83110471024E+02 -0.38138995914E+03  0.43649671058E+03  0.64710728759E+02 0.  0.
          5    1    3    3  502    0 -0.75550558913E+02  0.30223498861E+02 -0.92578140592E+02  0.12334564829E+03  0.47000000000E+01 0. -1.
         -5    1    1    2    0  503  0.27487421434E+02  0.37635778339E+02 -0.30212125417E+02  0.55739327862E+02  0.47000000000E+01 0.  1.
          5    1    1    2  503    0  0.15683905145E+03 -0.12074624936E+03 -0.29988973722E+03  0.35935231916E+03  0.47000000000E+01 0.  1.
         -5    1    3    3    0  502 -0.10877591397E+03  0.52886972163E+02 -0.28881181854E+03  0.31315106229E+03  0.47000000000E+01 0. -1.
<mgrwt>
<rscale>  0 0.24118521E+03</rscale>
<asrwt>0</asrwt>
<pdfrwt beam="1">  1        2 0.12023694E+00 0.25166215E+03</pdfrwt>
<pdfrwt beam="2">  1       -2 0.10776656E-01 0.25166215E+03</pdfrwt>
<totfact> 0.21458500E+03</totfact>
</mgrwt>
</event>
<event>
 8    1  0.3466492E-004  0.9400211E+02  0.7546771E-02  0.1293869E+00
          3   -1    0    0  501    0  0.00000000000E+00  0.00000000000E+00  0.16340358473E+03  0.16340358473E+03  0.00000000000E+00 0. -1.
         -3   -1    0    0    0  501 -0.00000000000E+00 -0.00000000000E+00 -0.63665244725E+02  0.63665244725E+02  0.00000000000E+00 0.  1.
         23    2    1    2    0    0 -0.15294998115E+02 -0.12976798335E+02  0.95074804587E+02  0.13369971813E+03  0.91837148792E+02 0.  0.
         23    2    1    2    0    0  0.15294998115E+02  0.12976798335E+02  0.46635354142E+01  0.93369111321E+02  0.91069798089E+02 0.  0.
          5    1    3    3  502    0  0.26395713470E+02 -0.24571059049E+02  0.79581303140E+02  0.87497111049E+02  0.47000000000E+01 0. -1.
         -5    1    3    3    0  502 -0.41690711585E+02  0.11594260714E+02  0.15493501447E+02  0.46202607081E+02  0.47000000000E+01 0.  1.
          5    1    4    4  503    0  0.74453117983E+01 -0.33950718828E+02  0.23241522975E+02  0.42075436622E+02  0.47000000000E+01 0. -1.
         -5    1    4    4    0  503  0.78496863167E+01  0.46927517164E+02 -0.18577987560E+02  0.51293674700E+02  0.47000000000E+01 0.  1.
<mgrwt>
<rscale>  0 0.93814161E+02</rscale>
<asrwt>0</asrwt>
<pdfrwt beam="1">  1        3 0.25139013E-01 0.94002107E+02</pdfrwt>
<pdfrwt beam="2">  1       -3 0.97946531E-02 0.94002107E+02</pdfrwt>
<totfact> 0.24221152E+03</totfact>
</mgrwt>
</event>
<event>
 8    1  0.3466492E-004  0.1580247E+03  0.7546771E-02  0.1194524E+00
          1   -1    0    0  501    0  0.00000000000E+00  0.00000000000E+00  0.56604676383E+03  0.56604676383E+03  0.00000000000E+00 0. -1.
         -1   -1    0    0    0  501 -0.00000000000E+00 -0.00000000000E+00 -0.48057089928E+02  0.48057089928E+02  0.00000000000E+00 0.  1.
         23    2    1    2    0    0 -0.10695961396E+03 -0.45433711179E+02  0.36924654865E+03  0.39708701104E+03  0.88490109732E+02 0.  0.
         23    2    1    2    0    0  0.10695961396E+03  0.45433711179E+02  0.14874312525E+03  0.21701684271E+03  0.10708506703E+03 0.  0.
          5    1    3    3  502    0  0.37507826440E+01 -0.32667405305E+02  0.64145069435E+02  0.72235086160E+02  0.47000000000E+01 0. -1.
         -5    1    4    4    0  503  0.74197692612E+02  0.80634307534E+02  0.10518540478E+03  0.15196462917E+03  0.47000000000E+01 0.  1.
          5    1    4    4  503    0  0.32761921345E+02 -0.35200596354E+02  0.43557720472E+02  0.65052213542E+02  0.47000000000E+01 0. -1.
         -5    1    3    3    0  502 -0.11071039660E+03 -0.12766305875E+02  0.30510147921E+03  0.32485192488E+03  0.47000000000E+01 0.  1.
<mgrwt>
<rscale>  0 0.15494602E+03</rscale>
<asrwt>0</asrwt>
<pdfrwt beam="1">  1        1 0.87084113E-01 0.15802466E+03</pdfrwt>
<pdfrwt beam="2">  1       -1 0.73933989E-02 0.15802466E+03</pdfrwt>
<totfact> 0.36252129E+03</totfact>
</mgrwt>
</event>
<event>
 8    1  0.3466492E-004  0.1031954E+03  0.7546771E-02  0.1273782E+00
          2   -1    0    0  501    0  0.00000000000E+00  0.00000000000E+00  0.10269763790E+04  0.10269763790E+04  0.00000000000E+00 0. -1.
         -2   -1    0    0    0  501 -0.00000000000E+00 -0.00000000000E+00 -0.10508566254E+02  0.10508566254E+02  0.00000000000E+00 0.  1.
         23    2    1    2    0    0 -0.34165941981E+02  0.36621566078E+02  0.57095995585E+03  0.58021079701E+03  0.90226642903E+02 0.  0.
         23    2    1    2    0    0  0.34165941981E+02 -0.36621566078E+02  0.44550785687E+03  0.45727414822E+03  0.90077441135E+02 0.  0.
          5    1    3    3  502    0 -0.54601491406E+02  0.28875960263E+02  0.52947688034E+03  0.53308817353E+03  0.47000000000E+01 0. -1.
         -5    1    4    4    0  503  0.15517072173E+02  0.27835578170E+02  0.20586070946E+03  0.20836583367E+03  0.47000000000E+01 0.  1.
          5    1    4    4  503    0  0.18648869808E+02 -0.64457144248E+02  0.23964714741E+03  0.24890831455E+03  0.47000000000E+01 0. -1.
         -5    1    3    3    0  502  0.20435549425E+02  0.77456058155E+01  0.41483075514E+02  0.47122623483E+02  0.47000000000E+01 0.  1.
<mgrwt>
<rscale>  0 0.10316281E+03</rscale>
<asrwt>0</asrwt>
<pdfrwt beam="1">  1        2 0.15799629E+00 0.10319543E+03</pdfrwt>
<pdfrwt beam="2">  1       -2 0.16167033E-02 0.10319543E+03</pdfrwt>
<totfact> 0.24834709E+04</totfact>
</mgrwt>
</event>
<event>
 8    1  0.3466492E-004  0.1059206E+03  0.7546771E-02  0.1271220E+00
         -3   -1    0    0    0  501 -0.00000000000E+00  0.00000000000E+00  0.51568332630E+03  0.51568332630E+03  0.00000000000E+00 0.  1.
          3   -1    0    0  501    0  0.00000000000E+00 -0.00000000000E+00 -0.21067107079E+02  0.21067107079E+02  0.00000000000E+00 0. -1.
         23    2    1    2    0    0  0.18712809421E+02  0.47530768620E+02  0.29473494680E+03  0.31318982848E+03  0.92789205145E+02 0.  0.
         23    2    1    2    0    0 -0.18712809421E+02 -0.47530768620E+02  0.19988127241E+03  0.22356060490E+03  0.86124780402E+02 0.  0.
          5    1    4    4  502    0 -0.48132161020E+02 -0.32212590047E+02  0.78655463143E+02  0.97791245847E+02  0.47000000000E+01 0. -1.
         -5    1    4    4    0  502  0.29419351599E+02 -0.15318178573E+02  0.12122580927E+03  0.12576935905E+03  0.47000000000E+01 0.  1.
          5    1    3    3  503    0  0.26852708973E+02 -0.15616008220E+02  0.41612667645E+02  0.52140500577E+02  0.47000000000E+01 0. -1.
         -5    1    3    3    0  503 -0.81398995520E+01  0.63146776839E+02  0.25312227916E+03  0.26104932790E+03  0.47000000000E+01 0.  1.
<mgrwt>
<rscale>  0 0.10444336E+03</rscale>
<asrwt>0</asrwt>
<pdfrwt beam="1">  1        3 0.32410938E-02 0.10592063E+03</pdfrwt>
<pdfrwt beam="2">  1       -3 0.79335887E-01 0.10592063E+03</pdfrwt>
<totfact> 0.15094461E+03</totfact>
</mgrwt>
</event>
<event>
 8    1  0.3466492E-004  0.1034984E+03  0.7546771E-02  0.1273900E+00
          1   -1    0    0  501    0  0.00000000000E+00  0.00000000000E+00  0.10836574491E+04  0.10836574491E+04  0.00000000000E+00 0. -1.
         -1   -1    0    0    0  501 -0.00000000000E+00 -0.00000000000E+00 -0.11916179353E+02  0.11916179353E+02  0.00000000000E+00 0.  1.
         23    2    1    2    0    0 -0.46245994960E+02  0.13522797522E+02  0.30490257230E+03  0.32198990421E+03  0.91598917669E+02 0.  0.
         23    2    1    2    0    0  0.46245994960E+02 -0.13522797522E+02  0.76683869745E+03  0.77358372424E+03  0.89825566528E+02 0.  0.
          5    1    3    3  502    0 -0.24348468325E+02  0.50575513718E+02  0.21422331539E+03  0.22150496462E+03  0.47000000000E+01 0. -1.
         -5    1    3    3    0  502 -0.21897526635E+02 -0.37052716196E+02  0.90679256911E+02  0.10048493959E+03  0.47000000000E+01 0.  1.
          5    1    4    4  503    0  0.69522874203E+02 -0.26846279442E+02  0.57000577892E+03  0.57487636128E+03  0.47000000000E+01 0. -1.
         -5    1    4    4    0  503 -0.23276879243E+02  0.13323481920E+02  0.19683291853E+03  0.19870736296E+03  0.47000000000E+01 0.  1.
<mgrwt>
<rscale>  0 0.10310463E+03</rscale>
<asrwt>0</asrwt>
<pdfrwt beam="1">  1        1 0.16671645E+00 0.10349840E+03</pdfrwt>
<pdfrwt beam="2">  1       -1 0.18332592E-02 0.10349840E+03</pdfrwt>
<totfact> 0.10258710E+04</totfact>
</mgrwt>
</event>
<event>
 8    1  0.3466492E-004  0.1232386E+03  0.7546771E-02  0.1238231E+00
         -1   -1    0    0    0  501 -0.00000000000E+00  0.00000000000E+00  0.86697794212E+02  0.86697794212E+02  0.00000000000E+00 0.  1.
          1   -1    0    0  501    0  0.00000000000E+00 -0.00000000000E+00 -0.17443603105E+03  0.17443603105E+03  0.00000000000E+00 0. -1.
         23    2    1    2    0    0  0.26563824318E+02  0.78917364132E+02 -0.51780757659E+02  0.13367493620E+03  0.90852377951E+02 0.  0.
         23    2    1    2    0    0 -0.26563824318E+02 -0.78917364132E+02 -0.35957479180E+02  0.12745888907E+03  0.89550214791E+02 0.  0.
          5    1    3    3  502    0  0.21305419767E+02  0.58935610925E+02 -0.77869211804E+02  0.10006513525E+03  0.47000000000E+01 0. -1.
         -5    1    3    3    0  502  0.52584045512E+01  0.19981753207E+02  0.26088454145E+02  0.33609800941E+02  0.47000000000E+01 0.  1.
          5    1    4    4  503    0 -0.42249275432E+02 -0.91378050553E+02 -0.23782307794E+02  0.10355016930E+03  0.47000000000E+01 0.  1.
         -5    1    4    4    0  503  0.15685451113E+02  0.12460686422E+02 -0.12175171386E+02  0.23908719769E+02  0.47000000000E+01 0. -1.
<mgrwt>
<rscale>  0 0.12299866E+03</rscale>
<asrwt>0</asrwt>
<pdfrwt beam="1">  1        1 0.26836312E-01 0.12323856E+03</pdfrwt>
<pdfrwt beam="2">  1       -1 0.13338122E-01 0.12323856E+03</pdfrwt>
<totfact> 0.63925411E+03</totfact>
</mgrwt>
</event>
<event>
 8    1  0.3466492E-004  0.1043416E+03  0.7546771E-02  0.1273691E+00
         -1   -1    0    0    0  501 -0.00000000000E+00  0.00000000000E+00  0.24355837473E+02  0.24355837473E+02  0.00000000000E+00 0.  1.
          1   -1    0    0  501    0  0.00000000000E+00 -0.00000000000E+00 -0.43228803820E+03  0.43228803820E+03  0.00000000000E+00 0. -1.
         23    2    1    2    0    0 -0.29065214566E+02  0.22506687676E+02 -0.17708746547E+03  0.20331314732E+03  0.92870489170E+02 0.  0.
         23    2    1    2    0    0  0.29065214566E+02 -0.22506687676E+02 -0.23084473526E+03  0.25333072835E+03  0.97651566520E+02 0.  0.
          5    1    3    3  502    0  0.31202908861E+02  0.18344074056E+02 -0.90924299843E+02  0.97976756816E+02  0.47000000000E+01 0. -1.
         -5    1    3    3    0  502 -0.60268123426E+02  0.41626136208E+01 -0.86163165625E+02  0.10533639050E+03  0.47000000000E+01 0.  1.
          5    1    4    4  503    0 -0.37626806814E+01  0.31244809929E+02 -0.13388919754E+03  0.13761832411E+03  0.47000000000E+01 0. -1.
         -5    1    4    4    0  503  0.32827895247E+02 -0.53751497605E+02 -0.96955537716E+02  0.11571240424E+03  0.47000000000E+01 0.  1.
<mgrwt>
<rscale>  0 0.10320817E+03</rscale>
<asrwt>0</asrwt>
<pdfrwt beam="1">  1        1 0.66505850E-01 0.10434158E+03</pdfrwt>
<pdfrwt beam="2">  1       -1 0.37470521E-02 0.10434158E+03</pdfrwt>
<totfact> 0.13716857E+04</totfact>
</mgrwt>
</event>
<event>
 8    1  0.3466492E-004  0.9506615E+02  0.7546771E-02  0.1292015E+00
          1   -1    0    0  501    0  0.00000000000E+00  0.00000000000E+00  0.15570871670E+03  0.15570871670E+03  0.00000000000E+00 0. -1.
         -1   -1    0    0    0  501 -0.00000000000E+00 -0.00000000000E+00 -0.60334061667E+02  0.60334061667E+02  0.00000000000E+00 0.  1.
         23    2    1    2    0    0  0.74814713136E+01  0.19935434955E+02  0.22652669689E+02  0.97727766453E+02  0.92650844098E+02 0.  0.
         23    2    1    2    0    0 -0.74814713136E+01 -0.19935434955E+02  0.72721985340E+02  0.11831501191E+03  0.90865620074E+02 0.  0.
          5    1    3    3  502    0 -0.16433781042E+02 -0.29791491471E+02  0.24708782605E+02  0.42310944934E+02  0.47000000000E+01 0. -1.
         -5    1    3    3    0  502  0.23915252356E+02  0.49726926425E+02 -0.20561129160E+01  0.55416821519E+02  0.47000000000E+01 0.  1.
          5    1    4    4  503    0 -0.21737747455E+02  0.27054313669E+02  0.63085454184E+01  0.35585858116E+02  0.47000000000E+01 0. -1.
         -5    1    4    4    0  503  0.14256276142E+02 -0.46989748624E+02  0.66413439922E+02  0.82729153794E+02  0.47000000000E+01 0.  1.
<mgrwt>
<rscale>  0 0.94628383E+02</rscale>
<asrwt>0</asrwt>
<pdfrwt beam="1">  1        1 0.23955187E-01 0.95066150E+02</pdfrwt>
<pdfrwt beam="2">  1       -1 0.92821634E-02 0.95066150E+02</pdfrwt>
<totfact> 0.12536757E+04</totfact>
</mgrwt>
</event>
<event>
 8    1  0.3466492E-004  0.9724234E+02  0.7546771E-02  0.1287667E+00
          1   -1    0    0  501    0  0.00000000000E+00  0.00000000000E+00  0.27695074193E+02  0.27695074193E+02  0.00000000000E+00 0. -1.
         -1   -1    0    0    0  501 -0.00000000000E+00 -0.00000000000E+00 -0.63904365393E+03  0.63904365393E+03  0.00000000000E+00 0.  1.
         23    2    1    2    0    0 -0.20308605541E+02  0.12190617996E+02 -0.72504487267E+02  0.11919053014E+03  0.91588379038E+02 0.  0.
         23    2    1    2    0    0  0.20308605541E+02 -0.12190617996E+02 -0.53884409247E+03  0.54754819798E+03  0.94313426928E+02 0.  0.
          5    1    4    4  502    0 -0.33211705244E+01  0.36537432679E+02 -0.31657911814E+03  0.31873255592E+03  0.47000000000E+01 0. -1.
         -5    1    3    3    0  503 -0.24652363960E+02 -0.25169041471E+02 -0.73098944754E+02  0.81282011672E+02  0.47000000000E+01 0.  1.
          5    1    3    3  503    0  0.43437584185E+01  0.37359659467E+02  0.59445748647E+00  0.37908518467E+02  0.47000000000E+01 0. -1.
         -5    1    4    4    0  502  0.23629776066E+02 -0.48728050674E+02 -0.22226497433E+03  0.22881564207E+03  0.47000000000E+01 0.  1.
<mgrwt>
<rscale>  0 0.96575351E+02</rscale>
<asrwt>0</asrwt>
<pdfrwt beam="1">  1        1 0.42607807E-02 0.97242342E+02</pdfrwt>
<pdfrwt beam="2">  1       -1 0.98314406E-01 0.97242342E+02</pdfrwt>
<totfact> 0.20765093E+03</totfact>
</mgrwt>
</event>
<event>
 8    1  0.3466492E-004  0.9006365E+02  0.7546771E-02  0.1304850E+00
          1   -1    0    0  501    0  0.00000000000E+00  0.00000000000E+00  0.49766712028E+02  0.49766712028E+02  0.00000000000E+00 0. -1.
         -1   -1    0    0    0  501 -0.00000000000E+00 -0.00000000000E+00 -0.16032443570E+03  0.16032443570E+03  0.00000000000E+00 0.  1.
         23    2    1    2    0    0  0.53149455448E+01 -0.11384496563E+02 -0.72034980331E+02  0.11532778789E+03  0.89182985263E+02 0.  0.
         23    2    1    2    0    0 -0.53149455448E+01  0.11384496563E+02 -0.38522743335E+02  0.94763359832E+02  0.85663511512E+02 0.  0.
          5    1    4    4  502    0 -0.41780281488E+02 -0.37105972737E+01 -0.35056882820E+02  0.54867435573E+02  0.47000000000E+01 0. -1.
         -5    1    4    4    0  502  0.36465335943E+02  0.15095093836E+02 -0.34658605152E+01  0.39895924259E+02  0.47000000000E+01 0.  1.
          5    1    3    3  503    0 -0.30952207002E+02 -0.20695186992E+02 -0.42795912485E+01  0.37772142965E+02  0.47000000000E+01 0. -1.
         -5    1    3    3    0  503  0.36267152547E+02  0.93106904292E+01 -0.67755389083E+02  0.77555644926E+02  0.47000000000E+01 0.  1.
<mgrwt>
<rscale>  0 0.89179803E+02</rscale>
<asrwt>0</asrwt>
<pdfrwt beam="1">  1        1 0.76564171E-02 0.90063646E+02</pdfrwt>
<pdfrwt beam="2">  1       -1 0.24665298E-01 0.90063646E+02</pdfrwt>
<totfact> 0.11827233E+04</totfact>
</mgrwt>
</event>
<event>
 8    1  0.3466492E-004  0.9284170E+02  0.7546771E-02  0.1297107E+00
         -1   -1    0    0    0  501 -0.00000000000E+00  0.00000000000E+00  0.24186407493E+02  0.24186407493E+02  0.00000000000E+00 0.  1.
          1   -1    0    0  501    0  0.00000000000E+00 -0.00000000000E+00 -0.52616412847E+03  0.52616412847E+03  0.00000000000E+00 0. -1.
         23    2    1    2    0    0 -0.22187974262E+01  0.10061231977E+02 -0.41179164731E+03  0.42212787510E+03  0.92268253965E+02 0.  0.
         23    2    1    2    0    0  0.22187974262E+01 -0.10061231977E+02 -0.90186073666E+02  0.12822266086E+03  0.90561423491E+02 0.  0.
          5    1    3    3  502    0  0.11700068581E+02  0.48695956044E+02 -0.25928020435E+03  0.26411456247E+03  0.47000000000E+01 0. -1.
         -5    1    3    3    0  502 -0.13918866007E+02 -0.38634724067E+02 -0.15251144295E+03  0.15801331262E+03  0.47000000000E+01 0.  1.
          5    1    4    4  503    0 -0.34960468547E+01  0.30281096322E+02 -0.19313929886E+01  0.30902870691E+02  0.47000000000E+01 0. -1.
         -5    1    4    4    0  503  0.57148442809E+01 -0.40342328299E+02 -0.88254680678E+02  0.97319790173E+02  0.47000000000E+01 0.  1.
<mgrwt>
<rscale>  0 0.92414746E+02</rscale>
<asrwt>0</asrwt>
<pdfrwt beam="1">  1        1 0.80948332E-01 0.92841705E+02</pdfrwt>
<pdfrwt beam="2">  1       -1 0.37209856E-02 0.92841705E+02</pdfrwt>
<totfact> 0.10672508E+04</totfact>
</mgrwt>
</event>
<event>
 8    1  0.3466492E-004  0.9944307E+02  0.7546771E-02  0.1282068E+00
          1   -1    0    0  501    0  0.00000000000E+00  0.00000000000E+00  0.89225865767E+02  0.89225865767E+02  0.00000000000E+00 0. -1.
         -1   -1    0    0    0  501 -0.00000000000E+00 -0.00000000000E+00 -0.17536618532E+03  0.17536618532E+03  0.00000000000E+00 0.  1.
         23    2    1    2    0    0  0.12860951457E+02 -0.37647572652E+02 -0.12394215676E+03  0.15820641308E+03  0.89915889142E+02 0.  0.
         23    2    1    2    0    0 -0.12860951457E+02  0.37647572652E+02  0.37801837208E+02  0.10638563800E+03  0.91138253644E+02 0.  0.
          5    1    4    4  502    0 -0.33799936929E+02 -0.18853374164E+02  0.13861476398E+02  0.41377723255E+02  0.47000000000E+01 0. -1.
         -5    1    3    3    0  503  0.39227696661E+02  0.60485189074E+01 -0.26046034778E+02  0.47706212320E+02  0.47000000000E+01 0.  1.
          5    1    3    3  503    0 -0.26366745204E+02 -0.43696091559E+02 -0.97896121979E+02  0.11050020076E+03  0.47000000000E+01 0. -1.
         -5    1    4    4    0  502  0.20938985472E+02  0.56500946816E+02  0.23940360810E+02  0.65007914745E+02  0.47000000000E+01 0.  1.
<mgrwt>
<rscale>  0 0.99162120E+02</rscale>
<asrwt>0</asrwt>
<pdfrwt beam="1">  1        1 0.13727056E-01 0.99443075E+02</pdfrwt>
<pdfrwt beam="2">  1       -1 0.26979413E-01 0.99443075E+02</pdfrwt>
<totfact> 0.47977713E+03</totfact>
</mgrwt>
</event>
<event>
 8    1  0.3466492E-004  0.9880655E+02  0.7546771E-02  0.1283294E+00
          2   -1    0    0  501    0  0.00000000000E+00  0.00000000000E+00  0.10283317442E+04  0.10283317442E+04  0.00000000000E+00 0. -1.
         -2   -1    0    0    0  501 -0.00000000000E+00 -0.00000000000E+00 -0.98041788900E+01  0.98041788900E+01  0.00000000000E+00 0.  1.
         23    2    1    2    0    0 -0.25400783302E+02  0.24578408642E+02  0.61115784855E+03  0.61895479120E+03  0.91333563105E+02 0.  0.
         23    2    1    2    0    0  0.25400783302E+02 -0.24578408642E+02  0.40736971673E+03  0.41918113185E+03  0.92268289404E+02 0.  0.
          5    1    3    3  502    0 -0.37223438803E+02 -0.25910338855E+02  0.30839765812E+03  0.31175011723E+03  0.47000000000E+01 0. -1.
         -5    1    4    4    0  503  0.33499147121E+02  0.22871338752E+02  0.99776279666E+02  0.10780856635E+03  0.47000000000E+01 0.  1.
          5    1    4    4  503    0 -0.80983638191E+01 -0.47449747394E+02  0.30759343706E+03  0.31137256551E+03  0.47000000000E+01 0. -1.
         -5    1    3    3    0  502  0.11822655501E+02  0.50488747497E+02  0.30276019042E+03  0.30720467398E+03  0.47000000000E+01 0.  1.
<mgrwt>
<rscale>  0 0.98587753E+02</rscale>
<asrwt>0</asrwt>
<pdfrwt beam="1">  1        2 0.15820480E+00 0.98806554E+02</pdfrwt>
<pdfrwt beam="2">  1       -2 0.15083360E-02 0.98806554E+02</pdfrwt>
<totfact> 0.27274535E+04</totfact>
</mgrwt>
</event>
<event>
 7    1  0.3466492E-004  0.1446710E+03  0.7546771E-02  0.1220297E+00
          1   -1    0    0  501    0  0.00000000000E+00  0.00000000000E+00  0.78834935868E+03  0.78834935868E+03  0.00000000000E+00 0. -1.
         -1   -1    0    0    0  501 -0.00000000000E+00 -0.00000000000E+00 -0.24828473638E+02  0.24828473638E+02  0.00000000000E+00 0.  1.
         23    2    1    2    0    0 -0.38103106229E+02  0.49106440828E+02  0.16957103890E+03  0.20186276802E+03  0.90171784084E+02 0.  0.
          5    1    1    2  502    0 -0.17552633292E+02  0.37451828168E+02  0.16541997699E+03  0.17057723517E+03  0.47000000000E+01 0. -1.
         -5    1    1    2    0  502  0.55655739521E+02 -0.86558268996E+02  0.42852986915E+03  0.44073782913E+03  0.47000000000E+01 0.  1.
          5    1    3    3  503    0  0.23948542028E+02  0.37704619198E+02  0.86264251845E+02  0.97256270340E+02  0.47000000000E+01 0. -1.
         -5    1    3    3    0  503 -0.62051648257E+02  0.11401821629E+02  0.83306787058E+02  0.10460649768E+03  0.47000000000E+01 0.  1.
<mgrwt>
<rscale>  0 0.13494526E+03</rscale>
<asrwt>0</asrwt>
<pdfrwt beam="1">  1        1 0.12128450E+00 0.14467096E+03</pdfrwt>
<pdfrwt beam="2">  1       -1 0.38197658E-02 0.14467096E+03</pdfrwt>
<totfact> 0.60323797E+03</totfact>
</mgrwt>
</event>
<event>
 8    1  0.3466492E-004  0.1094926E+03  0.7546771E-02  0.1262296E+00
         -1   -1    0    0    0  501 -0.00000000000E+00  0.00000000000E+00  0.24388492770E+02  0.24388492770E+02  0.00000000000E+00 0.  1.
          1   -1    0    0  501    0  0.00000000000E+00 -0.00000000000E+00 -0.49389771892E+03  0.49389771892E+03  0.00000000000E+00 0. -1.
         23    2    1    2    0    0  0.46923907626E+02 -0.33082578152E+02 -0.26946623290E+03  0.29023834852E+03  0.91268495099E+02 0.  0.
         23    2    1    2    0    0 -0.46923907626E+02  0.33082578152E+02 -0.20004299325E+03  0.22804786316E+03  0.93232605141E+02 0.  0.
          5    1    3    3  502    0  0.48602910707E+02  0.15604016624E+02 -0.19100437224E+03  0.19776371882E+03  0.47000000000E+01 0. -1.
         -5    1    3    3    0  502 -0.16790030817E+01 -0.48686594775E+02 -0.78461860655E+02  0.92474629708E+02  0.47000000000E+01 0.  1.
          5    1    4    4  503    0 -0.23713493449E+02  0.64019634063E+02 -0.14783288002E+03  0.16290332634E+03  0.47000000000E+01 0. -1.
         -5    1    4    4    0  503 -0.23210414176E+02 -0.30937055911E+02 -0.52210113226E+02  0.65144536822E+02  0.47000000000E+01 0.  1.
<mgrwt>
<rscale>  0 0.10907332E+03</rscale>
<asrwt>0</asrwt>
<pdfrwt beam="1">  1        1 0.75984261E-01 0.10949260E+03</pdfrwt>
<pdfrwt beam="2">  1       -1 0.37520760E-02 0.10949260E+03</pdfrwt>
<totfact> 0.11598715E+04</totfact>
</mgrwt>
</event>
<event>
 8    1  0.3466492E-004  0.1036168E+03  0.7546771E-02  0.1274094E+00
         -1   -1    0    0    0  501 -0.00000000000E+00  0.00000000000E+00  0.45904046102E+02  0.45904046102E+02  0.00000000000E+00 0.  1.
          1   -1    0    0  501    0  0.00000000000E+00 -0.00000000000E+00 -0.23523187341E+03  0.23523187341E+03  0.00000000000E+00 0. -1.
         23    2    1    2    0    0 -0.38519388567E+02  0.30897716324E+02 -0.11740526803E+03  0.15500386211E+03  0.88339052162E+02 0.  0.
         23    2    1    2    0    0  0.38519388567E+02 -0.30897716324E+02 -0.71922559276E+02  0.12613205741E+03  0.91093518995E+02 0.  0.
          5    1    4    4  502    0  0.78671622890E+01 -0.48856369695E+02 -0.75203392274E+02  0.90146976166E+02  0.47000000000E+01 0. -1.
         -5    1    4    4    0  502  0.30652226278E+02  0.17958653371E+02  0.32808329981E+01  0.35985081240E+02  0.47000000000E+01 0.  1.
          5    1    3    3  503    0  0.27150626468E+02  0.17304755809E+02 -0.26631515706E+02  0.42046863379E+02  0.47000000000E+01 0. -1.
         -5    1    3    3    0  503 -0.65670015035E+02  0.13592960515E+02 -0.90773752327E+02  0.11295699873E+03  0.47000000000E+01 0.  1.
<mgrwt>
<rscale>  0 0.10300820E+03</rscale>
<asrwt>0</asrwt>
<pdfrwt beam="1">  1        1 0.36189519E-01 0.10361680E+03</pdfrwt>
<pdfrwt beam="2">  1       -1 0.70621609E-02 0.10361680E+03</pdfrwt>
<totfact> 0.11436439E+04</totfact>
</mgrwt>
</event>
<event>
 8    1  0.3466492E-004  0.9332694E+02  0.7546771E-02  0.1295970E+00
          2   -1    0    0  501    0  0.00000000000E+00  0.00000000000E+00  0.16693784877E+02  0.16693784877E+02  0.00000000000E+00 0. -1.
         -2   -1    0    0    0  501 -0.00000000000E+00 -0.00000000000E+00 -0.51238844909E+03  0.51238844909E+03  0.00000000000E+00 0.  1.
         23    2    1    2    0    0 -0.11007911313E+02 -0.70578676815E+01 -0.25142886924E+03  0.26819096389E+03  0.92406326726E+02 0.  0.
         23    2    1    2    0    0  0.11007911313E+02  0.70578676815E+01 -0.24426579497E+03  0.26089127007E+03  0.90705504791E+02 0.  0.
          5    1    3    3  502    0  0.29423616987E+02  0.39947099753E+01 -0.19726155361E+03  0.19953926300E+03  0.47000000000E+01 0. -1.
         -5    1    4    4    0  503  0.30714955639E+02 -0.27177535224E+02 -0.18474186799E+03  0.18929784655E+03  0.47000000000E+01 0.  1.
          5    1    4    4  503    0 -0.19707044326E+02  0.34235402906E+02 -0.59523926986E+02  0.71593423525E+02  0.47000000000E+01 0. -1.
         -5    1    3    3    0  502 -0.40431528300E+02 -0.11052577657E+02 -0.54167315631E+02  0.68651700898E+02  0.47000000000E+01 0.  1.
<mgrwt>
<rscale>  0 0.92903123E+02</rscale>
<asrwt>0</asrwt>
<pdfrwt beam="1">  1        2 0.25682745E-02 0.93326935E+02</pdfrwt>
<pdfrwt beam="2">  1       -2 0.78828996E-01 0.93326935E+02</pdfrwt>
<totfact> 0.52023042E+03</totfact>
</mgrwt>
</event>
<event>
 8    1  0.3466492E-004  0.1198323E+03  0.7546771E-02  0.1254405E+00
         -1   -1    0    0    0  501 -0.00000000000E+00  0.00000000000E+00  0.31813300334E+03  0.31813300334E+03  0.00000000000E+00 0.  1.
          1   -1    0    0  501    0  0.00000000000E+00 -0.00000000000E+00 -0.64192565005E+02  0.64192565005E+02  0.00000000000E+00 0. -1.
         23    2    1    2    0    0 -0.15933629880E+02 -0.27937699826E+01  0.25974785347E+03  0.28605719179E+03  0.11873535228E+03 0.  0.
         23    2    1    2    0    0  0.15933629880E+02  0.27937699826E+01 -0.58074151365E+01  0.96268376552E+02  0.94721637135E+02 0.  0.
          5    1    4    4  502    0  0.32915998838E+02 -0.35228089020E+02 -0.19445352321E+02  0.52198591574E+02  0.47000000000E+01 0. -1.
         -5    1    4    4    0  502 -0.16982368957E+02  0.38021859002E+02  0.13637937184E+02  0.44069784978E+02  0.47000000000E+01 0.  1.
          5    1    3    3  503    0 -0.27042365251E+02 -0.47934354280E+02  0.21267897856E+03  0.21973490793E+03  0.47000000000E+01 0. -1.
         -5    1    3    3    0  503  0.11108735371E+02  0.45140584297E+02  0.47068874908E+02  0.66322283867E+02  0.47000000000E+01 0.  1.
<mgrwt>
<rscale>  0 0.11339745E+03</rscale>
<asrwt>0</asrwt>
<pdfrwt beam="1">  1        1 0.98757794E-02 0.11983226E+03</pdfrwt>
<pdfrwt beam="2">  1       -1 0.48943538E-01 0.11983226E+03</pdfrwt>
<totfact> 0.26784260E+03</totfact>
</mgrwt>
</event>
<event>
 8    1  0.3466492E-004  0.1126608E+03  0.7546771E-02  0.1256356E+00
          3   -1    0    0  501    0  0.00000000000E+00  0.00000000000E+00  0.14006453346E+03  0.14006453346E+03  0.00000000000E+00 0. -1.
         -3   -1    0    0    0  501 -0.00000000000E+00 -0.00000000000E+00 -0.12777193248E+03  0.12777193248E+03  0.00000000000E+00 0.  1.
         23    2    1    2    0    0 -0.33162721572E+02  0.59917094067E+02 -0.67183047788E+02  0.12996395967E+03  0.87676933331E+02 0.  0.
         23    2    1    2    0    0  0.33162721572E+02 -0.59917094067E+02  0.79475648769E+02  0.13787250627E+03  0.89457391946E+02 0.  0.
          5    1    4    4  502    0  0.36507943229E+02 -0.81715252175E+02  0.58138610218E+02  0.10682883672E+03  0.47000000000E+01 0. -1.
         -5    1    3    3    0  503 -0.39327642159E+02 -0.50770260973E+01 -0.46557867785E+02  0.61336487383E+02  0.47000000000E+01 0.  1.
          5    1    3    3  503    0  0.61649205869E+01  0.64994120164E+02 -0.20625180003E+02  0.68627472282E+02  0.47000000000E+01 0. -1.
         -5    1    4    4    0  502 -0.33452216570E+01  0.21798158108E+02  0.21337038551E+02  0.31043669547E+02  0.47000000000E+01 0.  1.
<mgrwt>
<rscale>  0 0.11230698E+03</rscale>
<asrwt>0</asrwt>
<pdfrwt beam="1">  1        3 0.21548390E-01 0.11266077E+03</pdfrwt>
<pdfrwt beam="2">  1       -3 0.19657220E-01 0.11266077E+03</pdfrwt>
<totfact> 0.10163821E+03</totfact>
</mgrwt>
</event>
<event>
 8    1  0.3466492E-004  0.9535440E+02  0.7546771E-02  0.1294159E+00
          2   -1    0    0  501    0  0.00000000000E+00  0.00000000000E+00  0.45003865961E+03  0.45003865961E+03  0.00000000000E+00 0. -1.
         -2   -1    0    0    0  501 -0.00000000000E+00 -0.00000000000E+00 -0.22820935050E+02  0.22820935050E+02  0.00000000000E+00 0.  1.
         23    2    1    2    0    0 -0.33218702302E+02  0.58665331717E+01  0.10883302627E+03  0.14050243983E+03  0.82209546872E+02 0.  0.
         23    2    1    2    0    0  0.33218702302E+02 -0.58665331717E+01  0.31838469830E+03  0.33235715484E+03  0.89188361728E+02 0.  0.
          5    1    4    4  502    0  0.55419559900E+02  0.15424294385E+02  0.14257032896E+03  0.15381035458E+03  0.47000000000E+01 0. -1.
         -5    1    3    3    0  503 -0.22503731377E+02 -0.23905512136E+02  0.71789606575E+01  0.33934037668E+02  0.47000000000E+01 0.  1.
          5    1    3    3  503    0 -0.10714970925E+02  0.29772045307E+02  0.10165406561E+03  0.10656840216E+03  0.47000000000E+01 0. -1.
         -5    1    4    4    0  502 -0.22200857597E+02 -0.21290827557E+02  0.17581436934E+03  0.17854680026E+03  0.47000000000E+01 0.  1.
<mgrwt>
<rscale>  0 0.93687915E+02</rscale>
<asrwt>0</asrwt>
<pdfrwt beam="1">  1        2 0.69236710E-01 0.95354403E+02</pdfrwt>
<pdfrwt beam="2">  1       -2 0.35109134E-02 0.95354403E+02</pdfrwt>
<totfact> 0.21255236E+04</totfact>
</mgrwt>
</event>
<event>
 8    1  0.3466492E-004  0.9401369E+02  0.7546771E-02  0.1293879E+00
         -1   -1    0    0    0  501 -0.00000000000E+00  0.00000000000E+00  0.60068340940E+02  0.60068340940E+02  0.00000000000E+00 0.  1.
          1   -1    0    0  501    0  0.00000000000E+00 -0.00000000000E+00 -0.17144543161E+03  0.17144543161E+03  0.00000000000E+00 0. -1.
         23    2    1    2    0    0  0.12166277897E+02 -0.15819462845E+02 -0.10059905941E+03  0.13769076038E+03  0.91871110905E+02 0.  0.
         23    2    1    2    0    0 -0.12166277897E+02  0.15819462845E+02 -0.10778031264E+02  0.93823012167E+02  0.91040199537E+02 0.  0.
          5    1    4    4  502    0 -0.13973280511E+02  0.53342586074E+02 -0.64579260679E+01  0.55717850519E+02  0.47000000000E+01 0. -1.
         -5    1    4    4    0  502  0.18070026142E+01 -0.37523123230E+02 -0.43201051963E+01  0.38105161649E+02  0.47000000000E+01 0.  1.
          5    1    3    3  503    0  0.29556323321E+02 -0.49514202954E+01 -0.11039255946E+03  0.11448449675E+03  0.47000000000E+01 0. -1.
         -5    1    3    3    0  503 -0.17390045425E+02 -0.10868042549E+02  0.97935000527E+01  0.23206263637E+02  0.47000000000E+01 0.  1.
<mgrwt>
<rscale>  0 0.93810082E+02</rscale>
<asrwt>0</asrwt>
<pdfrwt beam="1">  1        1 0.26376220E-01 0.94013694E+02</pdfrwt>
<pdfrwt beam="2">  1       -1 0.92412835E-02 0.94013694E+02</pdfrwt>
<totfact> 0.11187600E+04</totfact>
</mgrwt>
</event>
<event>
 8    1  0.3466492E-004  0.8954560E+02  0.7546771E-02  0.1305666E+00
         -2   -1    0    0    0  501 -0.00000000000E+00  0.00000000000E+00  0.20402791437E+03  0.20402791437E+03  0.00000000000E+00 0.  1.
          2   -1    0    0  501    0  0.00000000000E+00 -0.00000000000E+00 -0.38533456706E+02  0.38533456706E+02  0.00000000000E+00 0. -1.
         23    2    1    2    0    0  0.50620931206E+01  0.90180842060E+01  0.71157572623E+02  0.11437576425E+03  0.88946414641E+02 0.  0.
         23    2    1    2    0    0 -0.50620931206E+01 -0.90180842060E+01  0.94336885040E+02  0.12818560682E+03  0.86169317554E+02 0.  0.
          5    1    4    4  502    0 -0.37794551164E+02 -0.12179890233E+02  0.15948605974E+02  0.43049109820E+02  0.47000000000E+01 0. -1.
         -5    1    3    3    0  503 -0.22904647911E+02  0.40673328515E+02  0.40407637457E+02  0.61917765732E+02  0.47000000000E+01 0.  1.
          5    1    3    3  503    0  0.27966741032E+02 -0.31655244309E+02  0.30749935166E+02  0.52457998522E+02  0.47000000000E+01 0. -1.
         -5    1    4    4    0  502  0.32732458043E+02  0.31618060269E+01  0.78388279066E+02  0.85136497002E+02  0.47000000000E+01 0.  1.
<mgrwt>
<rscale>  0 0.88848015E+02</rscale>
<asrwt>0</asrwt>
<pdfrwt beam="1">  1        2 0.59282242E-02 0.89545605E+02</pdfrwt>
<pdfrwt beam="2">  1       -2 0.31388909E-01 0.89545605E+02</pdfrwt>
<totfact> 0.10603931E+04</totfact>
</mgrwt>
</event>
<event>
 8    1  0.3466492E-004  0.1020391E+03  0.7546771E-02  0.1276648E+00
          1   -1    0    0  501    0  0.00000000000E+00  0.00000000000E+00  0.24478478807E+02  0.24478478807E+02  0.00000000000E+00 0. -1.
         -1   -1    0    0    0  501 -0.00000000000E+00 -0.00000000000E+00 -0.47113939429E+03  0.47113939429E+03  0.00000000000E+00 0.  1.
         23    2    1    2    0    0 -0.31802274808E+02  0.26830062888E+02 -0.30556170844E+03  0.32214893495E+03  0.93170497853E+02 0.  0.
         23    2    1    2    0    0  0.31802274808E+02 -0.26830062888E+02 -0.14109920704E+03  0.17346893814E+03  0.91930676678E+02 0.  0.
          5    1    3    3  502    0 -0.18391504625E+02  0.48660113450E+02 -0.28272065989E+03  0.28750498363E+03  0.47000000000E+01 0. -1.
         -5    1    3    3    0  502 -0.13410770183E+02 -0.21830050562E+02 -0.22841048546E+02  0.34643951321E+02  0.47000000000E+01 0.  1.
          5    1    4    4  503    0  0.13407583282E+02 -0.58043356219E+02 -0.60801916766E+02  0.85251144116E+02  0.47000000000E+01 0. -1.
         -5    1    4    4    0  503  0.18394691526E+02  0.31213293332E+02 -0.80297290278E+02  0.88217794027E+02  0.47000000000E+01 0.  1.
<mgrwt>
<rscale>  0 0.10175522E+03</rscale>
<asrwt>0</asrwt>
<pdfrwt beam="1">  1        1 0.37659200E-02 0.10203910E+03</pdfrwt>
<pdfrwt beam="2">  1       -1 0.72482980E-01 0.10203910E+03</pdfrwt>
<totfact> 0.46276025E+03</totfact>
</mgrwt>
</event>
<event>
 8    1  0.3466492E-004  0.1087298E+03  0.7546771E-02  0.1267442E+00
          1   -1    0    0  501    0  0.00000000000E+00  0.00000000000E+00  0.12610878730E+02  0.12610878730E+02  0.00000000000E+00 0. -1.
         -1   -1    0    0    0  501 -0.00000000000E+00 -0.00000000000E+00 -0.86037754003E+03  0.86037754003E+03  0.00000000000E+00 0.  1.
         23    2    1    2    0    0  0.40460402745E+02 -0.16372114283E+02 -0.44103428164E+03  0.45423936798E+03  0.99584514497E+02 0.  0.
         23    2    1    2    0    0 -0.40460402745E+02  0.16372114283E+02 -0.40673237967E+03  0.41874905078E+03  0.89523452489E+02 0.  0.
          5    1    3    3  502    0  0.39895493516E+02 -0.53936353132E+02 -0.22221867236E+03  0.23217236902E+03  0.47000000000E+01 0. -1.
         -5    1    4    4    0  503  0.15384480511E+02  0.36614462999E+02 -0.15941177759E+03  0.16435177509E+03  0.47000000000E+01 0.  1.
          5    1    4    4  503    0 -0.55844883256E+02 -0.20242348717E+02 -0.24732060208E+03  0.25439727569E+03  0.47000000000E+01 0. -1.
         -5    1    3    3    0  502  0.56490922965E+00  0.37564238849E+02 -0.21881560928E+03  0.22206699896E+03  0.47000000000E+01 0.  1.
<mgrwt>
<rscale>  0 0.10637090E+03</rscale>
<asrwt>0</asrwt>
<pdfrwt beam="1">  1        1 0.19401352E-02 0.10872978E+03</pdfrwt>
<pdfrwt beam="2">  1       -1 0.13236577E+00 0.10872978E+03</pdfrwt>
<totfact> 0.31177763E+03</totfact>
</mgrwt>
</event>
<event>
 8    1  0.3466492E-004  0.9653013E+02  0.7546771E-02  0.1287955E+00
          3   -1    0    0  501    0  0.00000000000E+00  0.00000000000E+00  0.14360758507E+02  0.14360758507E+02  0.00000000000E+00 0. -1.
         -3   -1    0    0    0  501 -0.00000000000E+00 -0.00000000000E+00 -0.91610470923E+03  0.91610470923E+03  0.00000000000E+00 0.  1.
         23    2    1    2    0    0  0.22712584064E+02  0.26394986862E+02 -0.19795503683E+03  0.22008746859E+03  0.89664599577E+02 0.  0.
         23    2    1    2    0    0 -0.22712584064E+02 -0.26394986862E+02 -0.70378891389E+03  0.71037799915E+03  0.90030603404E+02 0.  0.
          5    1    3    3  502    0  0.49747006472E+02  0.41037598047E+02 -0.12365616059E+03  0.13954133853E+03  0.47000000000E+01 0. -1.
         -5    1    4    4    0  503  0.10033892101E+02  0.29174561689E+02 -0.19210188866E+03  0.19462029613E+03  0.47000000000E+01 0.  1.
          5    1    4    4  503    0 -0.32746476165E+02 -0.55569548550E+02 -0.51168702523E+03  0.51575770301E+03  0.47000000000E+01 0. -1.
         -5    1    3    3    0  502 -0.27034422408E+02 -0.14642611185E+02 -0.74298876236E+02  0.80546130057E+02  0.47000000000E+01 0.  1.
<mgrwt>
<rscale>  0 0.96444701E+02</rscale>
<asrwt>0</asrwt>
<pdfrwt beam="1">  1        3 0.22093476E-02 0.96530132E+02</pdfrwt>
<pdfrwt beam="2">  1       -3 0.14093918E+00 0.96530132E+02</pdfrwt>
<totfact> 0.71839076E+02</totfact>
</mgrwt>
</event>
<event>
 8    1  0.3466492E-004  0.1026899E+03  0.7546771E-02  0.1278457E+00
          2   -1    0    0  501    0  0.00000000000E+00  0.00000000000E+00  0.25255994593E+03  0.25255994593E+03  0.00000000000E+00 0. -1.
         -2   -1    0    0    0  501 -0.00000000000E+00 -0.00000000000E+00 -0.40669777369E+02  0.40669777369E+02  0.00000000000E+00 0.  1.
         23    2    1    2    0    0  0.28892172508E+02  0.58425871633E+00  0.79290477922E+02  0.12973897403E+03  0.98539953838E+02 0.  0.
         23    2    1    2    0    0 -0.28892172508E+02 -0.58425871633E+00  0.13259969064E+03  0.16349074927E+03  0.91167144020E+02 0.  0.
          5    1    4    4  502    0  0.15981876154E+02  0.33329145643E+02  0.69291690126E+02  0.78674523419E+02  0.47000000000E+01 0. -1.
         -5    1    3    3    0  503  0.10179282625E+02 -0.20513213210E+02 -0.17250916399E+02  0.29053292887E+02  0.47000000000E+01 0.  1.
          5    1    3    3  503    0  0.18712889883E+02  0.21097471926E+02  0.96541394322E+02  0.10068568114E+03  0.47000000000E+01 0. -1.
         -5    1    4    4    0  502 -0.44874048663E+02 -0.33913404359E+02  0.63308000510E+02  0.84816225848E+02  0.47000000000E+01 0.  1.
<mgrwt>
<rscale>  0 0.10087953E+03</rscale>
<asrwt>0</asrwt>
<pdfrwt beam="1">  1        2 0.38855375E-01 0.10268993E+03</pdfrwt>
<pdfrwt beam="2">  1       -2 0.62568890E-02 0.10268993E+03</pdfrwt>
<totfact> 0.16675293E+04</totfact>
</mgrwt>
</event>
<event>
 8    1  0.3466492E-004  0.1308846E+03  0.7546771E-02  0.1233301E+00
          4   -1    0    0  501    0  0.00000000000E+00  0.00000000000E+00  0.71129689644E+02  0.71129689644E+02  0.00000000000E+00 0. -1.
         -4   -1    0    0    0  501 -0.00000000000E+00 -0.00000000000E+00 -0.22381378159E+03  0.22381378159E+03  0.00000000000E+00 0.  1.
         23    2    1    2    0    0  0.58986022912E+02  0.26617275835E+02 -0.33112089825E+02  0.11766334132E+03  0.92522543884E+02 0.  0.
         23    2    1    2    0    0 -0.58986022912E+02 -0.26617275835E+02 -0.11957200212E+03  0.17728012991E+03  0.11376708882E+03 0.  0.
          5    1    4    4  502    0  0.10940710274E+02  0.18526201015E+02 -0.83657561922E+02  0.86507785385E+02  0.47000000000E+01 0.  1.
         -5    1    4    4    0  502 -0.69926733186E+02 -0.45143476851E+02 -0.35914440199E+02  0.90772344528E+02  0.47000000000E+01 0.  1.
          5    1    3    3  503    0 -0.13717485743E+02  0.31229132102E+02  0.58354620265E+01  0.34922352785E+02  0.47000000000E+01 0. -1.
         -5    1    3    3    0  503  0.72703508655E+02 -0.46118562669E+01 -0.38947551851E+02  0.82740988538E+02  0.47000000000E+01 0. -1.
<mgrwt>
<rscale>  0 0.12613853E+03</rscale>
<asrwt>0</asrwt>
<pdfrwt beam="1">  1        4 0.10943029E-01 0.13088461E+03</pdfrwt>
<pdfrwt beam="2">  1       -4 0.34432889E-01 0.13088461E+03</pdfrwt>
<totfact> 0.87114283E+02</totfact>
</mgrwt>
</event>
<event>
 8    1  0.3466492E-004  0.9078106E+02  0.7546771E-02  0.1301965E+00
         -2   -1    0    0    0  501 -0.00000000000E+00  0.00000000000E+00  0.50120540404E+02  0.50120540404E+02  0.00000000000E+00 0.  1.
          2   -1    0    0  501    0  0.00000000000E+00 -0.00000000000E+00 -0.19377329292E+03  0.19377329292E+03  0.00000000000E+00 0. -1.
         23    2    1    2    0    0 -0.12840124198E+02 -0.51054219459E+01 -0.22578213945E+02  0.93546659318E+02  0.89723283499E+02 0.  0.
         23    2    1    2    0    0  0.12840124198E+02  0.51054219459E+01 -0.12107453857E+03  0.15034717401E+03  0.88058473295E+02 0.  0.
          5    1    4    4  502    0  0.41553274564E+02  0.19158657805E+02 -0.10418598276E+03  0.11388826893E+03  0.47000000000E+01 0. -1.
         -5    1    3    3    0  503  0.96730894874E+01  0.19204511643E+02  0.26309255167E+02  0.34302315303E+02  0.47000000000E+01 0.  1.
          5    1    3    3  503    0 -0.22513213686E+02 -0.24309933589E+02 -0.48887469112E+02  0.59244344015E+02  0.47000000000E+01 0. -1.
         -5    1    4    4    0  502 -0.28713150365E+02 -0.14053235859E+02 -0.16888555808E+02  0.36458905075E+02  0.47000000000E+01 0.  1.
<mgrwt>
<rscale>  0 0.90366977E+02</rscale>
<asrwt>0</asrwt>
<pdfrwt beam="1">  1        2 0.29811276E-01 0.90781065E+02</pdfrwt>
<pdfrwt beam="2">  1       -2 0.77108524E-02 0.90781065E+02</pdfrwt>
<totfact> 0.15897570E+04</totfact>
</mgrwt>
</event>
<event>
 8    1  0.3466492E-004  0.1089001E+03  0.7546771E-02  0.1264066E+00
         -2   -1    0    0    0  501 -0.00000000000E+00  0.00000000000E+00  0.42885583030E+02  0.42885583030E+02  0.00000000000E+00 0.  1.
          2   -1    0    0  501    0  0.00000000000E+00 -0.00000000000E+00 -0.33048421962E+03  0.33048421962E+03  0.00000000000E+00 0. -1.
         23    2    1    2    0    0 -0.28865256816E+02 -0.45860744492E+02 -0.61550927448E+02  0.12245788791E+03  0.90945075212E+02 0.  0.
         23    2    1    2    0    0  0.28865256816E+02  0.45860744492E+02 -0.22604770914E+03  0.25091191474E+03  0.94460633146E+02 0.  0.
          5    1    3    3  502    0  0.19695964434E+02 -0.29286629169E+02 -0.61347146731E+02  0.70930952871E+02  0.47000000000E+01 0. -1.
         -5    1    4    4    0  503 -0.19689181513E+02  0.23280822485E+02 -0.17332875423E+02  0.35386143257E+02  0.47000000000E+01 0.  1.
          5    1    4    4  503    0  0.48554438328E+02  0.22579922007E+02 -0.20871483372E+03  0.21552577148E+03  0.47000000000E+01 0. -1.
         -5    1    3    3    0  502 -0.48561221249E+02 -0.16574115322E+02 -0.20378071680E+00  0.51526935039E+02  0.47000000000E+01 0.  1.
<mgrwt>
<rscale>  0 0.10813325E+03</rscale>
<asrwt>0</asrwt>
<pdfrwt beam="1">  1        2 0.50843725E-01 0.10890006E+03</pdfrwt>
<pdfrwt beam="2">  1       -2 0.65977822E-02 0.10890006E+03</pdfrwt>
<totfact> 0.11661554E+04</totfact>
</mgrwt>
</event>
<event>
 8    1  0.3466492E-004  0.1166571E+03  0.7546771E-02  0.1248930E+00
          2   -1    0    0  501    0  0.00000000000E+00  0.00000000000E+00  0.42480404866E+03  0.42480404866E+03  0.00000000000E+00 0. -1.
         -2   -1    0    0    0  501 -0.00000000000E+00 -0.00000000000E+00 -0.41891887312E+02  0.41891887312E+02  0.00000000000E+00 0.  1.
         23    2    1    2    0    0  0.38095917607E+02  0.63559437448E+02  0.77172088137E+02  0.13945616316E+03  0.89450484785E+02 0.  0.
         23    2    1    2    0    0 -0.38095917607E+02 -0.63559437448E+02  0.30574007321E+03  0.32723977281E+03  0.90098698753E+02 0.  0.
          5    1    3    3  502    0  0.42596575342E+02 -0.23060630771E+01  0.78820636230E+01  0.43634883806E+02  0.47000000000E+01 0. -1.
         -5    1    4    4    0  503 -0.60995520958E+02 -0.29593237991E+02  0.12958837564E+03  0.14632651986E+03  0.47000000000E+01 0.  1.
          5    1    4    4  503    0  0.22899603351E+02 -0.33966199458E+02  0.17615169757E+03  0.18091325296E+03  0.47000000000E+01 0. -1.
         -5    1    3    3    0  502 -0.45006577356E+01  0.65865500526E+02  0.69290024514E+02  0.95821279352E+02  0.47000000000E+01 0.  1.
<mgrwt>
<rscale>  0 0.11653191E+03</rscale>
<asrwt>0</asrwt>
<pdfrwt beam="1">  1        2 0.65354466E-01 0.11665709E+03</pdfrwt>
<pdfrwt beam="2">  1       -2 0.64449060E-02 0.11665709E+03</pdfrwt>
<totfact> 0.93127272E+03</totfact>
</mgrwt>
</event>
<event>
 8    1  0.3466492E-004  0.9853652E+02  0.7546771E-02  0.1284455E+00
         -1   -1    0    0    0  501 -0.00000000000E+00  0.00000000000E+00  0.60168823708E+02  0.60168823708E+02  0.00000000000E+00 0.  1.
          1   -1    0    0  501    0  0.00000000000E+00 -0.00000000000E+00 -0.37376528778E+03  0.37376528778E+03  0.00000000000E+00 0. -1.
         23    2    1    2    0    0 -0.22235271055E+02  0.30142555839E+02  0.73070512659E+01  0.98807083335E+02  0.91139814393E+02 0.  0.
         23    2    1    2    0    0  0.22235271055E+02 -0.30142555839E+02 -0.32090351534E+03  0.33512702816E+03  0.89039754553E+02 0.  0.
          5    1    3    3  502    0  0.32835371233E+02  0.20189969869E+02 -0.98939347211E+01  0.40072140342E+02  0.47000000000E+01 0. -1.
         -5    1    3    3    0  502 -0.55070642288E+02  0.99525859705E+01  0.17200985987E+02  0.58734942993E+02  0.47000000000E+01 0.  1.
          5    1    4    4  503    0  0.41038229023E+01 -0.53698191803E+02 -0.11543656359E+03  0.12746775035E+03  0.47000000000E+01 0. -1.
         -5    1    4    4    0  503  0.18131448153E+02  0.23555635964E+02 -0.20546695175E+03  0.20765927781E+03  0.47000000000E+01 0.  1.
<mgrwt>
<rscale>  0 0.98048126E+02</rscale>
<asrwt>0</asrwt>
<pdfrwt beam="1">  1        1 0.57502352E-01 0.98536525E+02</pdfrwt>
<pdfrwt beam="2">  1       -1 0.92567421E-02 0.98536525E+02</pdfrwt>
<totfact> 0.43023803E+03</totfact>
</mgrwt>
</event>
<event>
 8    1  0.3466492E-004  0.1252873E+03  0.7546771E-02  0.1235549E+00
         -2   -1    0    0    0  501 -0.00000000000E+00  0.00000000000E+00  0.19156529795E+02  0.19156529795E+02  0.00000000000E+00 0.  1.
          2   -1    0    0  501    0  0.00000000000E+00 -0.00000000000E+00 -0.80425984849E+03  0.80425984849E+03  0.00000000000E+00 0. -1.
         23    2    1    2    0    0  0.20216531169E+02  0.82516653320E+02 -0.38225369196E+03  0.40153400617E+03  0.88847998760E+02 0.  0.
         23    2    1    2    0    0 -0.20216531169E+02 -0.82516653320E+02 -0.40284962673E+03  0.42188237211E+03  0.92082614732E+02 0.  0.
          5    1    3    3  502    0  0.20426362394E+02 -0.32822176138E+01 -0.19750690004E+02  0.28986013675E+02  0.47000000000E+01 0. -1.
         -5    1    3    3    0  502 -0.20983122529E+00  0.85798870934E+02 -0.36250300196E+03  0.37254799249E+03  0.47000000000E+01 0.  1.
          5    1    4    4  503    0 -0.56974570847E+02 -0.52012050544E+02 -0.24955485811E+03  0.26124906187E+03  0.47000000000E+01 0. -1.
         -5    1    4    4    0  503  0.36758039678E+02 -0.30504602777E+02 -0.15329476862E+03  0.16063331024E+03  0.47000000000E+01 0.  1.
<mgrwt>
<rscale>  0 0.12469368E+03</rscale>
<asrwt>0</asrwt>
<pdfrwt beam="1">  1        2 0.12373227E+00 0.12528733E+03</pdfrwt>
<pdfrwt beam="2">  1       -2 0.29471588E-02 0.12528733E+03</pdfrwt>
<totfact> 0.14533769E+04</totfact>
</mgrwt>
</event>
<event>
 8    1  0.3466492E-004  0.9757910E+02  0.7546771E-02  0.1290204E+00
         -1   -1    0    0    0  501 -0.00000000000E+00  0.00000000000E+00  0.16870673776E+02  0.16870673776E+02  0.00000000000E+00 0.  1.
          1   -1    0    0  501    0  0.00000000000E+00 -0.00000000000E+00 -0.51833742646E+03  0.51833742646E+03  0.00000000000E+00 0. -1.
         23    2    1    2    0    0 -0.13242059517E+02 -0.29777579881E+02 -0.27339509709E+03  0.29028703048E+03  0.91976217285E+02 0.  0.
         23    2    1    2    0    0  0.13242059517E+02  0.29777579881E+02 -0.22807165559E+03  0.24492106976E+03  0.83111936105E+02 0.  0.
          5    1    3    3  502    0  0.37179144159E+02 -0.24524589043E+02 -0.15658827174E+03  0.16286718846E+03  0.47000000000E+01 0. -1.
         -5    1    3    3    0  502 -0.50421203675E+02 -0.52529908385E+01 -0.11680682535E+03  0.12741984202E+03  0.47000000000E+01 0.  1.
          5    1    4    4  503    0 -0.18363302835E+02  0.10450974162E+02 -0.10300458098E+02  0.23971299276E+02  0.47000000000E+01 0.  1.
         -5    1    4    4    0  503  0.31605362352E+02  0.19326605719E+02 -0.21777119749E+03  0.22094977048E+03  0.47000000000E+01 0. -1.
<mgrwt>
<rscale>  0 0.95432767E+02</rscale>
<asrwt>0</asrwt>
<pdfrwt beam="1">  1        1 0.79744206E-01 0.97579101E+02</pdfrwt>
<pdfrwt beam="2">  1       -1 0.25954887E-02 0.97579101E+02</pdfrwt>
<totfact> 0.18385313E+04</totfact>
</mgrwt>
</event>
<event>
 8    1  0.3466492E-004  0.1041634E+03  0.7546771E-02  0.1271931E+00
          2   -1    0    0  501    0  0.00000000000E+00  0.00000000000E+00  0.13593365409E+03  0.13593365409E+03  0.00000000000E+00 0. -1.
         -2   -1    0    0    0  501 -0.00000000000E+00 -0.00000000000E+00 -0.10696606573E+03  0.10696606573E+03  0.00000000000E+00 0.  1.
         23    2    1    2    0    0  0.41872288733E+02 -0.28090093190E+02  0.75917940350E+02  0.12864406436E+03  0.90793280204E+02 0.  0.
         23    2    1    2    0    0 -0.41872288733E+02  0.28090093190E+02 -0.46950351987E+02  0.11425565545E+03  0.91146460995E+02 0.  0.
          5    1    4    4  502    0  0.64589326427E+01  0.38522027169E+02  0.80414167362E+01  0.40154934581E+02  0.47000000000E+01 0. -1.
         -5    1    4    4    0  502 -0.48331221375E+02 -0.10431933979E+02 -0.54991768724E+02  0.74100720871E+02  0.47000000000E+01 0.  1.
          5    1    3    3  503    0  0.68170169435E+02 -0.24554021670E+02  0.37511501104E+02  0.81726829719E+02  0.47000000000E+01 0. -1.
         -5    1    3    3    0  503 -0.26297880702E+02 -0.35360715201E+01  0.38406439246E+02  0.46917234645E+02  0.47000000000E+01 0.  1.
<mgrwt>
<rscale>  0 0.10408611E+03</rscale>
<asrwt>0</asrwt>
<pdfrwt beam="1">  1        2 0.20912870E-01 0.10416343E+03</pdfrwt>
<pdfrwt beam="2">  1       -2 0.16456318E-01 0.10416343E+03</pdfrwt>
<totfact> 0.71723969E+03</totfact>
</mgrwt>
</event>
<event>
 8    1  0.3466492E-004  0.1360187E+03  0.7546771E-02  0.1218928E+00
         -1   -1    0    0    0  501 -0.00000000000E+00  0.00000000000E+00  0.13226667384E+02  0.13226667384E+02  0.00000000000E+00 0.  1.
          1   -1    0    0  501    0  0.00000000000E+00 -0.00000000000E+00 -0.16975632722E+04  0.16975632722E+04  0.00000000000E+00 0. -1.
         23    2    1    2    0    0  0.19332560248E+02 -0.98684125387E+02 -0.48186610731E+03  0.50069554305E+03  0.91590266787E+02 0.  0.
         23    2    1    2    0    0 -0.19332560248E+02  0.98684125387E+02 -0.12024704976E+04  0.12100943966E+04  0.90999157445E+02 0.  0.
          5    1    3    3  502    0 -0.10242734184E+02 -0.32379967622E+02 -0.39145322534E+02  0.52036738781E+02  0.47000000000E+01 0. -1.
         -5    1    4    4    0  503 -0.32825001013E+02 -0.14899615776E+01 -0.23192081551E+03  0.23428413379E+03  0.47000000000E+01 0.  1.
          5    1    4    4  503    0  0.13492440766E+02  0.10017408696E+03 -0.97054968205E+03  0.97581026280E+03  0.47000000000E+01 0. -1.
         -5    1    3    3    0  502  0.29575294432E+02 -0.66304157765E+02 -0.44272078477E+03  0.44865880427E+03  0.47000000000E+01 0.  1.
<mgrwt>
<rscale>  0 0.13591924E+03</rscale>
<asrwt>0</asrwt>
<pdfrwt beam="1">  1        1 0.26116374E+00 0.13601868E+03</pdfrwt>
<pdfrwt beam="2">  1       -1 0.20348706E-02 0.13601868E+03</pdfrwt>
<totfact> 0.35154470E+03</totfact>
</mgrwt>
</event>
<event>
 8    1  0.3466492E-004  0.9296082E+02  0.7546771E-02  0.1298042E+00
         -1   -1    0    0    0  501 -0.00000000000E+00  0.00000000000E+00  0.12481967770E+02  0.12481967770E+02  0.00000000000E+00 0.  1.
          1   -1    0    0  501    0  0.00000000000E+00 -0.00000000000E+00 -0.84979718490E+03  0.84979718490E+03  0.00000000000E+00 0. -1.
         23    2    1    2    0    0  0.12726107655E+02  0.99157277022E+01 -0.21088786849E+03  0.22899174737E+03  0.87768170859E+02 0.  0.
         23    2    1    2    0    0 -0.12726107655E+02 -0.99157277022E+01 -0.62642734864E+03  0.63328740530E+03  0.91550199964E+02 0.  0.
          5    1    4    4  502    0 -0.26651748619E+02  0.33960720795E+02 -0.38707586341E+03  0.38950412103E+03  0.47000000000E+01 0. -1.
         -5    1    3    3    0  503  0.46079229677E+02  0.17249178849E+02 -0.83592038171E+02  0.97111010828E+02  0.47000000000E+01 0.  1.
          5    1    3    3  503    0 -0.33353122022E+02 -0.73334511469E+01 -0.12729583032E+03  0.13188073654E+03  0.47000000000E+01 0. -1.
         -5    1    4    4    0  502  0.13925640965E+02 -0.43876448497E+02 -0.23935148522E+03  0.24378328427E+03  0.47000000000E+01 0.  1.
<mgrwt>
<rscale>  0 0.92015958E+02</rscale>
<asrwt>0</asrwt>
<pdfrwt beam="1">  1        1 0.13073807E+00 0.92960823E+02</pdfrwt>
<pdfrwt beam="2">  1       -1 0.19203021E-02 0.92960823E+02</pdfrwt>
<totfact> 0.14156201E+04</totfact>
</mgrwt>
</event>
<event>
 8    1  0.3466492E-004  0.1231407E+03  0.7546771E-02  0.1244770E+00
         -2   -1    0    0    0  501 -0.00000000000E+00  0.00000000000E+00  0.99505744121E+02  0.99505744121E+02  0.00000000000E+00 0.  1.
          2   -1    0    0  501    0  0.00000000000E+00 -0.00000000000E+00 -0.17299084136E+03  0.17299084136E+03  0.00000000000E+00 0. -1.
         23    2    1    2    0    0 -0.57364042043E+02  0.86473200310E+01 -0.99789700382E+02  0.14657768603E+03  0.90341708405E+02 0.  0.
         23    2    1    2    0    0  0.57364042043E+02 -0.86473200310E+01  0.26304603147E+02  0.12591889944E+03  0.10861964660E+03 0.  0.
          5    1    3    3  502    0 -0.14464169652E+02  0.44481614370E+02 -0.66206612605E+02  0.81198717806E+02  0.47000000000E+01 0. -1.
         -5    1    4    4    0  503 -0.42100583118E+01 -0.45809010152E+02  0.27567359431E+02  0.53835297975E+02  0.47000000000E+01 0.  1.
          5    1    4    4  503    0  0.61574100355E+02  0.37161690121E+02 -0.12627562833E+01  0.72083601467E+02  0.47000000000E+01 0. -1.
         -5    1    3    3    0  502 -0.42899872391E+02 -0.35834294339E+02 -0.33583087776E+02  0.65378968228E+02  0.47000000000E+01 0.  1.
<mgrwt>
<rscale>  0 0.11899151E+03</rscale>
<asrwt>0</asrwt>
<pdfrwt beam="1">  1        2 0.26613975E-01 0.12314072E+03</pdfrwt>
<pdfrwt beam="2">  1       -2 0.15308576E-01 0.12314072E+03</pdfrwt>
<totfact> 0.62648102E+03</totfact>
</mgrwt>
</event>
<event>
 8    1  0.3466492E-004  0.1033701E+03  0.7546771E-02  0.1274540E+00
         -1   -1    0    0    0  501 -0.00000000000E+00  0.00000000000E+00  0.17175668980E+03  0.17175668980E+03  0.00000000000E+00 0.  1.
          1   -1    0    0  501    0  0.00000000000E+00 -0.00000000000E+00 -0.97954614476E+02  0.97954614476E+02  0.00000000000E+00 0. -1.
         23    2    1    2    0    0  0.25446688155E+02 -0.42571256195E+02  0.12017746504E+03  0.15851816435E+03  0.90694760226E+02 0.  0.
         23    2    1    2    0    0 -0.25446688155E+02  0.42571256195E+02 -0.46375389713E+02  0.11119313993E+03  0.88053346358E+02 0.  0.
          5    1    3    3  502    0  0.19908698573E+01 -0.41237779155E+02  0.61552492527E+01  0.42005893465E+02  0.47000000000E+01 0. -1.
         -5    1    3    3    0  502  0.23455818298E+02 -0.13334770397E+01  0.11402221579E+03  0.11651227088E+03  0.47000000000E+01 0.  1.
          5    1    4    4  503    0 -0.29014834321E+02  0.68313383193E+02 -0.37815851908E+02  0.83430855140E+02  0.47000000000E+01 0. -1.
         -5    1    4    4    0  503  0.35681461659E+01 -0.25742126998E+02 -0.85595378052E+01  0.27762284792E+02  0.47000000000E+01 0.  1.
<mgrwt>
<rscale>  0 0.10278784E+03</rscale>
<asrwt>0</asrwt>
<pdfrwt beam="1">  1        1 0.15069941E-01 0.10337014E+03</pdfrwt>
<pdfrwt beam="2">  1       -1 0.26424106E-01 0.10337014E+03</pdfrwt>
<totfact> 0.44147847E+03</totfact>
</mgrwt>
</event>
<event>
 7    1  0.3466492E-004  0.1396188E+03  0.7546771E-02  0.1231842E+00
          2   -1    0    0  501    0  0.00000000000E+00  0.00000000000E+00  0.55588548178E+02  0.55588548178E+02  0.00000000000E+00 0. -1.
         -2   -1    0    0    0  501 -0.00000000000E+00 -0.00000000000E+00 -0.40526842370E+03  0.40526842370E+03  0.00000000000E+00 0.  1.
         23    2    1    2    0    0  0.76709729888E+01  0.24639485745E+02 -0.29624091893E+03  0.31136069775E+03  0.92308471836E+02 0.  0.
          5    1    3    3  502    0  0.21229373700E+02 -0.23132429811E+01 -0.10976159621E+02  0.24466374493E+02  0.47000000000E+01 0. -1.
         -5    1    3    3    0  502 -0.13558400712E+02  0.26952728726E+02 -0.28526475931E+03  0.28689432326E+03  0.47000000000E+01 0.  1.
          5    1    1    2  503    0 -0.35804125122E+01 -0.77983169497E+02 -0.70401809292E+01  0.78522915292E+02  0.47000000000E+01 0. -1.
         -5    1    1    2    0  503 -0.40905604766E+01  0.53343683752E+02 -0.46398775669E+02  0.70973358838E+02  0.47000000000E+01 0.  1.
<mgrwt>
<rscale>  0 0.12708770E+03</rscale>
<asrwt>0</asrwt>
<pdfrwt beam="1">  1        2 0.85520845E-02 0.13961882E+03</pdfrwt>
<pdfrwt beam="2">  1       -2 0.62348987E-01 0.13961882E+03</pdfrwt>
<totfact> 0.18438431E+03</totfact>
</mgrwt>
</event>
<event>
 8    1  0.3466492E-004  0.1023518E+03  0.7546771E-02  0.1275748E+00
          1   -1    0    0  501    0  0.00000000000E+00  0.00000000000E+00  0.46678652846E+03  0.46678652846E+03  0.00000000000E+00 0. -1.
         -1   -1    0    0    0  501 -0.00000000000E+00 -0.00000000000E+00 -0.24018045134E+02  0.24018045134E+02  0.00000000000E+00 0.  1.
         23    2    1    2    0    0  0.33289505782E+02 -0.28782955927E+02  0.15647812692E+03  0.18697939982E+03  0.92408019166E+02 0.  0.
         23    2    1    2    0    0 -0.33289505782E+02  0.28782955927E+02  0.28629035641E+03  0.30382517377E+03  0.91711058765E+02 0.  0.
          5    1    4    4  502    0  0.64137491577E+01 -0.28468275909E+02  0.58053628568E+02  0.65145166370E+02  0.47000000000E+01 0. -1.
         -5    1    4    4    0  502 -0.39703254940E+02  0.57251231835E+02  0.22823672784E+03  0.23868000740E+03  0.47000000000E+01 0.  1.
          5    1    3    3  503    0 -0.22608240162E+02  0.16860599441E+02  0.31149470452E+02  0.42282287617E+02  0.47000000000E+01 0.  1.
         -5    1    3    3    0  503  0.55897745944E+02 -0.45643555368E+02  0.12532865646E+03  0.14469711220E+03  0.47000000000E+01 0. -1.
<mgrwt>
<rscale>  0 0.10219424E+03</rscale>
<asrwt>0</asrwt>
<pdfrwt beam="1">  1        1 0.71813305E-01 0.10235180E+03</pdfrwt>
<pdfrwt beam="2">  1       -1 0.36950842E-02 0.10235180E+03</pdfrwt>
<totfact> 0.12678872E+04</totfact>
</mgrwt>
</event>
<event>
 8    1  0.3466492E-004  0.9947718E+02  0.7546771E-02  0.1281538E+00
          2   -1    0    0  501    0  0.00000000000E+00  0.00000000000E+00  0.32931619906E+03  0.32931619906E+03  0.00000000000E+00 0. -1.
         -2   -1    0    0    0  501 -0.00000000000E+00 -0.00000000000E+00 -0.38310723732E+02  0.38310723732E+02  0.00000000000E+00 0.  1.
         23    2    1    2    0    0  0.14311615029E+02 -0.35612704031E+02  0.59587968002E+02  0.11573454136E+03  0.91491371831E+02 0.  0.
         23    2    1    2    0    0 -0.14311615029E+02  0.35612704031E+02  0.23141750732E+03  0.25189238143E+03  0.91774844674E+02 0.  0.
          5    1    3    3  502    0 -0.99672187352E+00  0.25048009452E+02  0.44367655046E+02  0.51175922525E+02  0.47000000000E+01 0. -1.
         -5    1    4    4    0  503 -0.24634381930E+02  0.13702636811E+02  0.11840817626E+02  0.30933961768E+02  0.47000000000E+01 0.  1.
          5    1    4    4  503    0  0.10322766901E+02  0.21910067220E+02  0.21957668970E+03  0.22095841966E+03  0.47000000000E+01 0. -1.
         -5    1    3    3    0  502  0.15308336903E+02 -0.60660713483E+02  0.15220312955E+02  0.64558618832E+02  0.47000000000E+01 0.  1.
<mgrwt>
<rscale>  0 0.99411748E+02</rscale>
<asrwt>0</asrwt>
<pdfrwt beam="1">  1        2 0.50664029E-01 0.99477179E+02</pdfrwt>
<pdfrwt beam="2">  1       -2 0.58939577E-02 0.99477179E+02</pdfrwt>
<totfact> 0.13767282E+04</totfact>
</mgrwt>
</event>
<event>
 8    1  0.3466492E-004  0.1087242E+03  0.7546771E-02  0.1263718E+00
         -2   -1    0    0    0  501 -0.00000000000E+00  0.00000000000E+00  0.88585014721E+02  0.88585014721E+02  0.00000000000E+00 0.  1.
          2   -1    0    0  501    0  0.00000000000E+00 -0.00000000000E+00 -0.24753798396E+03  0.24753798396E+03  0.00000000000E+00 0. -1.
         23    2    1    2    0    0  0.20589237383E+01 -0.58909813959E+02  0.35289456181E+02  0.11430791593E+03  0.91358352546E+02 0.  0.
         23    2    1    2    0    0 -0.20589237383E+01  0.58909813959E+02 -0.19424242542E+03  0.22181508275E+03  0.89427097423E+02 0.  0.
          5    1    3    3  502    0  0.40399947940E+02 -0.18589788520E+02 -0.56433468558E+01  0.45074087839E+02  0.47000000000E+01 0. -1.
         -5    1    4    4    0  503 -0.31401980767E+02  0.74447015405E+00 -0.11404135062E+03  0.11838141021E+03  0.47000000000E+01 0.  1.
          5    1    4    4  503    0  0.29343057029E+02  0.58165343805E+02 -0.80201074802E+02  0.10343367254E+03  0.47000000000E+01 0. -1.
         -5    1    3    3    0  502 -0.38341024202E+02 -0.40320025439E+02  0.40932803037E+02  0.69233828095E+02  0.47000000000E+01 0.  1.
<mgrwt>
<rscale>  0 0.10831752E+03</rscale>
<asrwt>0</asrwt>
<pdfrwt beam="1">  1        2 0.38082766E-01 0.10872421E+03</pdfrwt>
<pdfrwt beam="2">  1       -2 0.13628464E-01 0.10872421E+03</pdfrwt>
<totfact> 0.51058489E+03</totfact>
</mgrwt>
</event>
<event>
 8    1  0.3466492E-004  0.9342104E+02  0.7546771E-02  0.1295236E+00
          2   -1    0    0  501    0  0.00000000000E+00  0.00000000000E+00  0.43242574776E+03  0.43242574776E+03  0.00000000000E+00 0. -1.
         -2   -1    0    0    0  501 -0.00000000000E+00 -0.00000000000E+00 -0.20957549384E+02  0.20957549384E+02  0.00000000000E+00 0.  1.
         23    2    1    2    0    0  0.15703411047E+02 -0.68921975646E+01  0.25478761209E+03  0.27137468227E+03  0.91833498243E+02 0.  0.
         23    2    1    2    0    0 -0.15703411047E+02  0.68921975646E+01  0.15668058629E+03  0.18200861487E+03  0.91017746962E+02 0.  0.
          5    1    4    4  502    0 -0.45323228472E+02  0.29041859950E+02  0.77356501275E+02  0.94359646873E+02  0.47000000000E+01 0. -1.
         -5    1    4    4    0  502  0.29619817425E+02 -0.22149662385E+02  0.79324085012E+02  0.87648967998E+02  0.47000000000E+01 0.  1.
          5    1    3    3  503    0 -0.28546189998E+02 -0.30971741250E+02  0.10309436182E+03  0.11146600899E+03  0.47000000000E+01 0. -1.
         -5    1    3    3    0  503  0.44249601045E+02  0.24079543685E+02  0.15169325026E+03  0.15990867329E+03  0.47000000000E+01 0.  1.
<mgrwt>
<rscale>  0 0.93219951E+02</rscale>
<asrwt>0</asrwt>
<pdfrwt beam="1">  1        2 0.66527031E-01 0.93421041E+02</pdfrwt>
<pdfrwt beam="2">  1       -2 0.32242387E-02 0.93421041E+02</pdfrwt>
<totfact> 0.25065644E+04</totfact>
</mgrwt>
</event>
<event>
 8    1  0.3466492E-004  0.1083851E+03  0.7546771E-02  0.1269411E+00
          2   -1    0    0  501    0  0.00000000000E+00  0.00000000000E+00  0.11676628097E+03  0.11676628097E+03  0.00000000000E+00 0. -1.
         -2   -1    0    0    0  501 -0.00000000000E+00 -0.00000000000E+00 -0.90232719776E+02  0.90232719776E+02  0.00000000000E+00 0.  1.
         23    2    1    2    0    0  0.40142618072E+02  0.10991083237E+02  0.17585063605E+02  0.10980238072E+03  0.10007544481E+03 0.  0.
         23    2    1    2    0    0 -0.40142618072E+02 -0.10991083237E+02  0.89484975884E+01  0.97196620022E+02  0.87377763981E+02 0.  0.
          5    1    3    3  502    0 -0.16321499717E+02  0.40730049348E+02  0.10962487308E+02  0.45470808228E+02  0.47000000000E+01 0. -1.
         -5    1    3    3    0  502  0.56464117788E+02 -0.29738966111E+02  0.66225762969E+01  0.64331572496E+02  0.47000000000E+01 0.  1.
          5    1    4    4  503    0 -0.17829580788E+02 -0.41754882233E+02  0.28892826895E+02  0.54020825496E+02  0.47000000000E+01 0.  1.
         -5    1    4    4    0  503 -0.22313037284E+02  0.30763798995E+02 -0.19944329306E+02  0.43175794526E+02  0.47000000000E+01 0. -1.
<mgrwt>
<rscale>  0 0.10536051E+03</rscale>
<asrwt>0</asrwt>
<pdfrwt beam="1">  1        2 0.17964043E-01 0.10838509E+03</pdfrwt>
<pdfrwt beam="2">  1       -2 0.13881957E-01 0.10838509E+03</pdfrwt>
<totfact> 0.11262443E+04</totfact>
</mgrwt>
</event>
<event>
 8    1  0.3466492E-004  0.9387656E+02  0.7546771E-02  0.1293750E+00
         -3   -1    0    0    0  501 -0.00000000000E+00  0.00000000000E+00  0.92855456455E+03  0.92855456455E+03  0.00000000000E+00 0.  1.
          3   -1    0    0  501    0  0.00000000000E+00 -0.00000000000E+00 -0.99183485656E+01  0.99183485656E+01  0.00000000000E+00 0. -1.
         23    2    1    2    0    0 -0.11209611753E+02  0.11223793346E+02  0.55711020669E+03  0.56495736713E+03  0.92484676259E+02 0.  0.
         23    2    1    2    0    0  0.11209611753E+02 -0.11223793346E+02  0.36152600930E+03  0.37351554599E+03  0.92526638134E+02 0.  0.
          5    1    3    3  502    0 -0.51168963446E+02  0.73653949511E+01  0.26208610905E+03  0.26717733889E+03  0.47000000000E+01 0. -1.
         -5    1    4    4    0  503  0.18327006200E+02 -0.46820715610E+02  0.27447140844E+03  0.27907830911E+03  0.47000000000E+01 0.  1.
          5    1    4    4  503    0 -0.71173944467E+01  0.35596922264E+02  0.87054600861E+02  0.94437236879E+02  0.47000000000E+01 0. -1.
         -5    1    3    3    0  502  0.39959351693E+02  0.38583983953E+01  0.29502409764E+03  0.29778002823E+03  0.47000000000E+01 0.  1.
<mgrwt>
<rscale>  0 0.93866214E+02</rscale>
<asrwt>0</asrwt>
<pdfrwt beam="1">  1        3 0.15259005E-02 0.93876556E+02</pdfrwt>
<pdfrwt beam="2">  1       -3 0.14285448E+00 0.93876556E+02</pdfrwt>
<totfact> 0.12083753E+03</totfact>
</mgrwt>
</event>
<event>
 8    1  0.3466492E-004  0.1016824E+03  0.7546771E-02  0.1276950E+00
          2   -1    0    0  501    0  0.00000000000E+00  0.00000000000E+00  0.64728472415E+03  0.64728472415E+03  0.00000000000E+00 0. -1.
         -2   -1    0    0    0  501 -0.00000000000E+00 -0.00000000000E+00 -0.16038374806E+02  0.16038374806E+02  0.00000000000E+00 0.  1.
         23    2    1    2    0    0 -0.25662184695E+00 -0.38452789861E+02  0.28841644158E+03  0.30581589083E+03  0.94130932262E+02 0.  0.
         23    2    1    2    0    0  0.25662184695E+00  0.38452789861E+02  0.34282990776E+03  0.35750720812E+03  0.93810315533E+02 0.  0.
          5    1    3    3  502    0  0.15156648790E+02 -0.25111490326E+02  0.28252464738E+03  0.28408199049E+03  0.47000000000E+01 0. -1.
         -5    1    3    3    0  502 -0.15413270637E+02 -0.13341299535E+02  0.58917942082E+01  0.21733900340E+02  0.47000000000E+01 0.  1.
          5    1    4    4  503    0  0.19126043335E+01  0.69628236677E+02  0.23513979395E+03  0.24528465524E+03  0.47000000000E+01 0. -1.
         -5    1    4    4    0  503 -0.16559824865E+01 -0.31175446816E+02  0.10769011381E+03  0.11222255288E+03  0.47000000000E+01 0.  1.
<mgrwt>
<rscale>  0 0.10160816E+03</rscale>
<asrwt>0</asrwt>
<pdfrwt beam="1">  1        2 0.99582245E-01 0.10168242E+03</pdfrwt>
<pdfrwt beam="2">  1       -2 0.24674428E-02 0.10168242E+03</pdfrwt>
<totfact> 0.23960947E+04</totfact>
</mgrwt>
</event>
<event>
 8    1  0.3466492E-004  0.1057981E+03  0.7546771E-02  0.1268849E+00
         -1   -1    0    0    0  501 -0.00000000000E+00  0.00000000000E+00  0.13466863063E+03  0.13466863063E+03  0.00000000000E+00 0.  1.
          1   -1    0    0  501    0  0.00000000000E+00 -0.00000000000E+00 -0.84698062643E+02  0.84698062643E+02  0.00000000000E+00 0. -1.
         23    2    1    2    0    0  0.25849026084E+02  0.46725322077E+02  0.41989107367E+02  0.11326800034E+03  0.90637337181E+02 0.  0.
         23    2    1    2    0    0 -0.25849026084E+02 -0.46725322077E+02  0.79814606238E+01  0.10609869293E+03  0.91333460769E+02 0.  0.
          5    1    4    4  502    0  0.23758721384E+02 -0.43965670386E+02 -0.13171734465E+02  0.51894523826E+02  0.47000000000E+01 0. -1.
         -5    1    4    4    0  502 -0.49607747468E+02 -0.27596516914E+01  0.21153195088E+02  0.54204169109E+02  0.47000000000E+01 0.  1.
          5    1    3    3  503    0 -0.19598887608E+02  0.82917557601E+01 -0.18270564760E+02  0.28438937141E+02  0.47000000000E+01 0. -1.
         -5    1    3    3    0  503  0.45447913692E+02  0.38433566317E+02  0.60259672127E+02  0.84829063201E+02  0.47000000000E+01 0.  1.
<mgrwt>
<rscale>  0 0.10564765E+03</rscale>
<asrwt>0</asrwt>
<pdfrwt beam="1">  1        1 0.13030471E-01 0.10579806E+03</pdfrwt>
<pdfrwt beam="2">  1       -1 0.20718251E-01 0.10579806E+03</pdfrwt>
<totfact> 0.79120164E+03</totfact>
</mgrwt>
</event>
<event>
 8    1  0.3466492E-004  0.1747194E+03  0.7546771E-02  0.1176387E+00
         -1   -1    0    0    0  501 -0.00000000000E+00  0.00000000000E+00  0.44449618143E+02  0.44449618143E+02  0.00000000000E+00 0.  1.
          1   -1    0    0  501    0  0.00000000000E+00 -0.00000000000E+00 -0.64561231781E+03  0.64561231781E+03  0.00000000000E+00 0. -1.
         23    2    1    2    0    0  0.87969896302E+02 -0.11937668109E+03 -0.35148470676E+03  0.39251545841E+03  0.92398005212E+02 0.  0.
         23    2    1    2    0    0 -0.87969896302E+02  0.11937668109E+03 -0.24967799291E+03  0.29754647754E+03  0.64848373216E+02 0.  0.
          5    1    3    3  502    0  0.38444359194E+02  0.15988765167E+01 -0.12609827344E+03  0.13192190768E+03  0.47000000000E+01 0. -1.
         -5    1    4    4    0  503 -0.75848197371E+02  0.74490369525E+02 -0.12366115281E+03  0.16314390859E+03  0.47000000000E+01 0.  1.
          5    1    4    4  503    0 -0.12121698931E+02  0.44886311563E+02 -0.12601684010E+03  0.13440256894E+03  0.47000000000E+01 0. -1.
         -5    1    3    3    0  502  0.49525537108E+02 -0.12097555760E+03 -0.22538643331E+03  0.26059355073E+03  0.47000000000E+01 0.  1.
<mgrwt>
<rscale>  0 0.17140869E+03</rscale>
<asrwt>0</asrwt>
<pdfrwt beam="1">  1        1 0.99324970E-01 0.17471945E+03</pdfrwt>
<pdfrwt beam="2">  1       -1 0.68384029E-02 0.17471945E+03</pdfrwt>
<totfact> 0.34156956E+03</totfact>
</mgrwt>
</event>
<event>
 8    1  0.3466492E-004  0.9741779E+02  0.7546771E-02  0.1286590E+00
          3   -1    0    0  501    0  0.00000000000E+00  0.00000000000E+00  0.85728352114E+02  0.85728352114E+02  0.00000000000E+00 0. -1.
         -3   -1    0    0    0  501 -0.00000000000E+00 -0.00000000000E+00 -0.16102148736E+03  0.16102148736E+03  0.00000000000E+00 0.  1.
         23    2    1    2    0    0 -0.67023603363E+01 -0.28646361614E+02  0.32215039431E+02  0.10260620949E+03  0.92869207985E+02 0.  0.
         23    2    1    2    0    0  0.67023603363E+01  0.28646361614E+02 -0.10750817468E+03  0.14414362999E+03  0.91399358725E+02 0.  0.
          5    1    4    4  502    0  0.45239057759E+02 -0.14295593065E+01 -0.64033678704E+02  0.78555827251E+02  0.47000000000E+01 0. -1.
         -5    1    4    4    0  502 -0.38536697423E+02  0.30075920921E+02 -0.43474495972E+02  0.65587802734E+02  0.47000000000E+01 0.  1.
          5    1    3    3  503    0  0.18012809653E+01 -0.60418705382E+02  0.72761107943E+01  0.61063052343E+02  0.47000000000E+01 0. -1.
         -5    1    3    3    0  503 -0.85036413016E+01  0.31772343768E+02  0.24938928637E+02  0.41543157143E+02  0.47000000000E+01 0.  1.
<mgrwt>
<rscale>  0 0.97065837E+02</rscale>
<asrwt>0</asrwt>
<pdfrwt beam="1">  1        3 0.13188977E-01 0.97417788E+02</pdfrwt>
<pdfrwt beam="2">  1       -3 0.24772536E-01 0.97417788E+02</pdfrwt>
<totfact> 0.15297877E+03</totfact>
</mgrwt>
</event>
<event>
 8    1  0.3466492E-004  0.1481967E+03  0.7546771E-02  0.1210409E+00
          2   -1    0    0  501    0  0.00000000000E+00  0.00000000000E+00  0.57050350496E+03  0.57050350496E+03  0.00000000000E+00 0. -1.
         -2   -1    0    0    0  501 -0.00000000000E+00 -0.00000000000E+00 -0.34640177919E+02  0.34640177919E+02  0.00000000000E+00 0.  1.
         23    2    1    2    0    0 -0.75569664790E+02 -0.42041253074E+02  0.22034218979E+03  0.26554275164E+03  0.12034962048E+03 0.  0.
         23    2    1    2    0    0  0.75569664790E+02  0.42041253074E+02  0.31552113725E+03  0.33960093124E+03  0.91087667946E+02 0.  0.
          5    1    3    3  502    0  0.32954135235E+02 -0.12085038294E+02  0.56989942187E+02  0.67096696567E+02  0.47000000000E+01 0. -1.
         -5    1    3    3    0  502 -0.10852380003E+03 -0.29956214780E+02  0.16335224760E+03  0.19844605507E+03  0.47000000000E+01 0.  1.
          5    1    4    4  503    0  0.74681663175E+02  0.40942430750E+01  0.26968191354E+03  0.27990094343E+03  0.47000000000E+01 0. -1.
         -5    1    4    4    0  503  0.88800161545E+00  0.37947009999E+02  0.45839223715E+02  0.59699987819E+02  0.47000000000E+01 0.  1.
<mgrwt>
<rscale>  0 0.14219223E+03</rscale>
<asrwt>0</asrwt>
<pdfrwt beam="1">  1        2 0.87769763E-01 0.14819674E+03</pdfrwt>
<pdfrwt beam="2">  1       -2 0.53292585E-02 0.14819674E+03</pdfrwt>
<totfact> 0.91352016E+03</totfact>
</mgrwt>
</event>
<event>
 8    1  0.3466492E-004  0.8945303E+02  0.7546771E-02  0.1312188E+00
         -2   -1    0    0    0  501 -0.00000000000E+00  0.00000000000E+00  0.80190806068E+01  0.80190806068E+01  0.00000000000E+00 0.  1.
          2   -1    0    0  501    0  0.00000000000E+00 -0.00000000000E+00 -0.92948217799E+03  0.92948217799E+03  0.00000000000E+00 0. -1.
         23    2    1    2    0    0 -0.19021294548E+01  0.50084125282E+01 -0.61309047748E+03  0.61958193877E+03  0.89292457612E+02 0.  0.
         23    2    1    2    0    0  0.19021294548E+01 -0.50084125282E+01 -0.30837261991E+03  0.31791931983E+03  0.77138310313E+02 0.  0.
          5    1    3    3  502    0  0.21805757324E+02 -0.35661857603E+02 -0.27554573719E+03  0.27873787404E+03  0.47000000000E+01 0. -1.
         -5    1    4    4    0  503 -0.28476987383E+02 -0.17935983897E+02 -0.23344927877E+03  0.23590950402E+03  0.47000000000E+01 0.  1.
          5    1    4    4  503    0  0.30379116838E+02  0.12927571369E+02 -0.74923341134E+02  0.82009815803E+02  0.47000000000E+01 0. -1.
         -5    1    3    3    0  502 -0.23707886779E+02  0.40670270131E+02 -0.33754474029E+03  0.34084406473E+03  0.47000000000E+01 0.  1.
<mgrwt>
<rscale>  0 0.86253171E+02</rscale>
<asrwt>0</asrwt>
<pdfrwt beam="1">  1        2 0.14299712E+00 0.89453034E+02</pdfrwt>
<pdfrwt beam="2">  1       -2 0.12337059E-02 0.89453034E+02</pdfrwt>
<totfact> 0.41169908E+04</totfact>
</mgrwt>
</event>
<event>
 8    1  0.3466492E-004  0.3089649E+03  0.7546771E-02  0.1081059E+00
          1   -1    0    0  501    0  0.00000000000E+00  0.00000000000E+00  0.49292178702E+03  0.49292178702E+03  0.00000000000E+00 0. -1.
         -1   -1    0    0    0  501 -0.00000000000E+00 -0.00000000000E+00 -0.19497858902E+03  0.19497858902E+03  0.00000000000E+00 0.  1.
         23    2    1    2    0    0 -0.24221775018E+03 -0.16844675452E+03  0.11009660293E+03  0.32631273238E+03  0.85527713206E+02 0.  0.
         23    2    1    2    0    0  0.24221775018E+03  0.16844675452E+03  0.18784659507E+03  0.36158764366E+03  0.91736215067E+02 0.  0.
          5    1    3    3  502    0 -0.16463172474E+03 -0.95583571572E+02  0.10971754717E+03  0.21977227783E+03  0.47000000000E+01 0. -1.
         -5    1    3    3    0  502 -0.77586025444E+02 -0.72863182944E+02  0.37905576041E+00  0.10654045455E+03  0.47000000000E+01 0.  1.
          5    1    4    4  503    0  0.24018745098E+02 -0.10288377878E+01  0.43279906232E+02  0.49731266892E+02  0.47000000000E+01 0. -1.
         -5    1    4    4    0  503  0.21819900509E+03  0.16947559230E+03  0.14456668884E+03  0.31185637677E+03  0.47000000000E+01 0.  1.
<mgrwt>
<rscale>  0 0.30851734E+03</rscale>
<asrwt>0</asrwt>
<pdfrwt beam="1">  1        1 0.75834120E-01 0.30896485E+03</pdfrwt>
<pdfrwt beam="2">  1       -1 0.29996706E-01 0.30896485E+03</pdfrwt>
<totfact> 0.47217623E+02</totfact>
</mgrwt>
</event>
<event>
 8    1  0.3466492E-004  0.1696687E+03  0.7546771E-02  0.1179654E+00
         -1   -1    0    0    0  501 -0.00000000000E+00  0.00000000000E+00  0.44509759899E+02  0.44509759899E+02  0.00000000000E+00 0.  1.
          1   -1    0    0  501    0  0.00000000000E+00 -0.00000000000E+00 -0.62608307753E+03  0.62608307753E+03  0.00000000000E+00 0. -1.
         23    2    1    2    0    0  0.20587698284E+02 -0.13424002424E+03 -0.29206800565E+03  0.33777386456E+03  0.10170165303E+03 0.  0.
         23    2    1    2    0    0 -0.20587698284E+02  0.13424002424E+03 -0.28950531198E+03  0.33281897286E+03  0.92254569576E+02 0.  0.
          5    1    4    4  502    0 -0.41966885537E+02  0.10357988821E+03 -0.14302360601E+03  0.18157052239E+03  0.47000000000E+01 0. -1.
         -5    1    3    3    0  503  0.33084758166E+02 -0.90114242777E+02 -0.94092656238E+02  0.13450165773E+03  0.47000000000E+01 0.  1.
          5    1    3    3  503    0 -0.12497059882E+02 -0.44125781460E+02 -0.19797534942E+03  0.20327220684E+03  0.47000000000E+01 0. -1.
         -5    1    4    4    0  502  0.21379187253E+02  0.30660136024E+02 -0.14648170597E+03  0.15124845048E+03  0.47000000000E+01 0.  1.
<mgrwt>
<rscale>  0 0.16827960E+03</rscale>
<asrwt>0</asrwt>
<pdfrwt beam="1">  1        1 0.96320472E-01 0.16966869E+03</pdfrwt>
<pdfrwt beam="2">  1       -1 0.68476554E-02 0.16966869E+03</pdfrwt>
<totfact> 0.35545580E+03</totfact>
</mgrwt>
</event>
<event>
 8    1  0.3466492E-004  0.1546203E+03  0.7546771E-02  0.1195589E+00
         -2   -1    0    0    0  501 -0.00000000000E+00  0.00000000000E+00  0.25472796306E+02  0.25472796306E+02  0.00000000000E+00 0.  1.
          2   -1    0    0  501    0  0.00000000000E+00 -0.00000000000E+00 -0.12453942581E+04  0.12453942581E+04  0.00000000000E+00 0. -1.
         23    2    1    2    0    0  0.24454894338E+02 -0.12060680788E+03 -0.92902345965E+03  0.94142954477E+03  0.89782822554E+02 0.  0.
         23    2    1    2    0    0 -0.24454894338E+02  0.12060680788E+03 -0.29089800216E+03  0.32943750965E+03  0.93612932534E+02 0.  0.
          5    1    3    3  502    0  0.42810913483E+01 -0.11479666447E+03 -0.88493204662E+03  0.89236955296E+03  0.47000000000E+01 0. -1.
         -5    1    3    3    0  502  0.20173802990E+02 -0.58101434179E+01 -0.44091413026E+02  0.49059991808E+02  0.47000000000E+01 0.  1.
          5    1    4    4  503    0  0.28935724828E+02  0.81823077741E+02 -0.14175078277E+03  0.16627587509E+03  0.47000000000E+01 0. -1.
         -5    1    4    4    0  503 -0.53390619166E+02  0.38783730142E+02 -0.14914721939E+03  0.16316163455E+03  0.47000000000E+01 0.  1.
<mgrwt>
<rscale>  0 0.15404496E+03</rscale>
<asrwt>0</asrwt>
<pdfrwt beam="1">  1        2 0.19159911E+00 0.15462026E+03</pdfrwt>
<pdfrwt beam="2">  1       -2 0.39188918E-02 0.15462026E+03</pdfrwt>
<totfact> 0.52558044E+03</totfact>
</mgrwt>
</event>
<event>
 8    1  0.3466492E-004  0.1363452E+03  0.7546771E-02  0.1218894E+00
         -1   -1    0    0    0  501 -0.00000000000E+00  0.00000000000E+00  0.25030517636E+02  0.25030517636E+02  0.00000000000E+00 0.  1.
          1   -1    0    0  501    0  0.00000000000E+00 -0.00000000000E+00 -0.99763367063E+03  0.99763367063E+03  0.00000000000E+00 0. -1.
         23    2    1    2    0    0 -0.66336944135E+02 -0.74464536135E+02 -0.75125915455E+03  0.76353148745E+03  0.92975576012E+02 0.  0.
         23    2    1    2    0    0  0.66336944135E+02  0.74464536135E+02 -0.22134399845E+03  0.25913270082E+03  0.90614754239E+02 0.  0.
          5    1    4    4  502    0 -0.12572338181E+02  0.19354333889E+02 -0.10717431481E+03  0.10973184443E+03  0.47000000000E+01 0. -1.
         -5    1    3    3    0  503  0.86120445008E+01 -0.57238455368E+02 -0.37439930211E+03  0.37887641191E+03  0.47000000000E+01 0.  1.
          5    1    3    3  503    0 -0.74948988636E+02 -0.17226080767E+02 -0.37685985243E+03  0.38465507553E+03  0.47000000000E+01 0. -1.
         -5    1    4    4    0  502  0.78909282316E+02  0.55110202246E+02 -0.11416968364E+03  0.14940085639E+03  0.47000000000E+01 0.  1.
<mgrwt>
<rscale>  0 0.13594373E+03</rscale>
<asrwt>0</asrwt>
<pdfrwt beam="1">  1        1 0.15348211E+00 0.13634521E+03</pdfrwt>
<pdfrwt beam="2">  1       -1 0.38508486E-02 0.13634521E+03</pdfrwt>
<totfact> 0.40936194E+03</totfact>
</mgrwt>
</event>
<event>
 8    1  0.3466492E-004  0.9239362E+02  0.7546771E-02  0.1297602E+00
          2   -1    0    0  501    0  0.00000000000E+00  0.00000000000E+00  0.42102809856E+02  0.42102809856E+02  0.00000000000E+00 0. -1.
         -2   -1    0    0    0  501 -0.00000000000E+00 -0.00000000000E+00 -0.20738545298E+03  0.20738545298E+03  0.00000000000E+00 0.  1.
         23    2    1    2    0    0  0.14144303205E+02 -0.37130893360E+01 -0.10469527266E+03  0.13963409967E+03  0.91229015818E+02 0.  0.
         23    2    1    2    0    0 -0.14144303205E+02  0.37130893360E+01 -0.60587370468E+02  0.10985416317E+03  0.90461369438E+02 0.  0.
          5    1    3    3  502    0 -0.22006496371E+02 -0.18325398693E+02 -0.13211739303E+01  0.29050673319E+02  0.47000000000E+01 0. -1.
         -5    1    3    3    0  502  0.36150799576E+02  0.14612309357E+02 -0.10337409873E+03  0.11058342635E+03  0.47000000000E+01 0.  1.
          5    1    4    4  503    0  0.84424143282E+01 -0.30611029493E+02  0.48289998587E+01  0.32461033963E+02  0.47000000000E+01 0. -1.
         -5    1    4    4    0  503 -0.22586717533E+02  0.34324118829E+02 -0.65416370326E+02  0.77393129210E+02  0.47000000000E+01 0.  1.
<mgrwt>
<rscale>  0 0.92203565E+02</rscale>
<asrwt>0</asrwt>
<pdfrwt beam="1">  1        2 0.64773553E-02 0.92393624E+02</pdfrwt>
<pdfrwt beam="2">  1       -2 0.31905455E-01 0.92393624E+02</pdfrwt>
<totfact> 0.92322585E+03</totfact>
</mgrwt>
</event>
<event>
 8    1  0.3466492E-004  0.1779444E+03  0.7546771E-02  0.1170118E+00
          1   -1    0    0  501    0  0.00000000000E+00  0.00000000000E+00  0.56943874749E+03  0.56943874749E+03  0.00000000000E+00 0. -1.
         -1   -1    0    0    0  501 -0.00000000000E+00 -0.00000000000E+00 -0.76612382773E+02  0.76612382773E+02  0.00000000000E+00 0.  1.
         23    2    1    2    0    0  0.10496221423E+03  0.10995597235E+03  0.41776803937E+03  0.45408627675E+03  0.92503133680E+02 0.  0.
         23    2    1    2    0    0 -0.10496221423E+03 -0.10995597235E+03  0.75058325349E+02  0.19196485352E+03  0.90052043333E+02 0.  0.
          5    1    4    4  502    0 -0.94737508030E+02 -0.38575824426E+02  0.29587206704E+02  0.10658697134E+03  0.47000000000E+01 0. -1.
         -5    1    4    4    0  502 -0.10224706204E+02 -0.71380147925E+02  0.45471118645E+02  0.85377882180E+02  0.47000000000E+01 0.  1.
          5    1    3    3  503    0  0.79808670080E+02  0.12392959643E+03  0.36729481648E+03  0.39579734828E+03  0.47000000000E+01 0. -1.
         -5    1    3    3    0  503  0.25153544154E+02 -0.13973624078E+02  0.50473222885E+02  0.58288928467E+02  0.47000000000E+01 0.  1.
<mgrwt>
<rscale>  0 0.17762812E+03</rscale>
<asrwt>0</asrwt>
<pdfrwt beam="1">  1        1 0.87605958E-01 0.17794441E+03</pdfrwt>
<pdfrwt beam="2">  1       -1 0.11786521E-01 0.17794441E+03</pdfrwt>
<totfact> 0.17684909E+03</totfact>
</mgrwt>
</event>
<event>
 8    1  0.3466492E-004  0.1031036E+03  0.7546771E-02  0.1274090E+00
          2   -1    0    0  501    0  0.00000000000E+00  0.00000000000E+00  0.84550465026E+02  0.84550465026E+02  0.00000000000E+00 0. -1.
         -2   -1    0    0    0  501 -0.00000000000E+00 -0.00000000000E+00 -0.28475744523E+03  0.28475744523E+03  0.00000000000E+00 0.  1.
         23    2    1    2    0    0 -0.44086878048E+02 -0.19706996866E+02 -0.23837338399E+03  0.25971565351E+03  0.91095180681E+02 0.  0.
         23    2    1    2    0    0  0.44086878048E+02  0.19706996866E+02  0.38166403787E+02  0.10959225674E+03  0.90673975420E+02 0.  0.
          5    1    3    3  502    0  0.19755141047E+02 -0.26571390856E+02 -0.46121900290E+02  0.56970379112E+02  0.47000000000E+01 0. -1.
         -5    1    4    4    0  503 -0.26214654228E+02  0.18194682975E+02  0.11624213180E+02  0.34285083008E+02  0.47000000000E+01 0.  1.
          5    1    4    4  503    0  0.70301532276E+02  0.15123138911E+01  0.26542190607E+02  0.75307173734E+02  0.47000000000E+01 0. -1.
         -5    1    3    3    0  502 -0.63842019095E+02  0.68643939905E+01 -0.19225148370E+03  0.20274527440E+03  0.47000000000E+01 0.  1.
<mgrwt>
<rscale>  0 0.10301048E+03</rscale>
<asrwt>0</asrwt>
<pdfrwt beam="1">  1        2 0.13007764E-01 0.10310359E+03</pdfrwt>
<pdfrwt beam="2">  1       -2 0.43808838E-01 0.10310359E+03</pdfrwt>
<totfact> 0.22004577E+03</totfact>
</mgrwt>
</event>
<event>
 8    1  0.3466492E-004  0.1029496E+03  0.7546771E-02  0.1274298E+00
          1   -1    0    0  501    0  0.00000000000E+00  0.00000000000E+00  0.48439728410E+02  0.48439728410E+02  0.00000000000E+00 0. -1.
         -1   -1    0    0    0  501 -0.00000000000E+00 -0.00000000000E+00 -0.26575156658E+03  0.26575156658E+03  0.00000000000E+00 0.  1.
         23    2    1    2    0    0 -0.48143760797E+02  0.42459525130E+01 -0.17501135934E+03  0.20304581359E+03  0.90899816842E+02 0.  0.
         23    2    1    2    0    0  0.48143760797E+02 -0.42459525130E+01 -0.42300478828E+02  0.11114548140E+03  0.90709082839E+02 0.  0.
          5    1    3    3  502    0  0.21119429487E+02  0.20185201004E+01 -0.98201011794E+01  0.23845945409E+02  0.47000000000E+01 0. -1.
         -5    1    4    4    0  503  0.32668961708E+02  0.31440906249E+02 -0.53605713427E+02  0.70366569881E+02  0.47000000000E+01 0.  1.
          5    1    4    4  503    0  0.15474799089E+02 -0.35686858762E+02  0.11305234599E+02  0.40778911516E+02  0.47000000000E+01 0. -1.
         -5    1    3    3    0  502 -0.69263190284E+02  0.22274324126E+01 -0.16519125816E+03  0.17919986818E+03  0.47000000000E+01 0.  1.
<mgrwt>
<rscale>  0 0.10290751E+03</rscale>
<asrwt>0</asrwt>
<pdfrwt beam="1">  1        1 0.74522661E-02 0.10294963E+03</pdfrwt>
<pdfrwt beam="2">  1       -1 0.40884855E-01 0.10294963E+03</pdfrwt>
<totfact> 0.53092505E+03</totfact>
</mgrwt>
</event>
<event>
 8    1  0.3466492E-004  0.1197746E+03  0.7546771E-02  0.1249553E+00
         -2   -1    0    0    0  501 -0.00000000000E+00  0.00000000000E+00  0.81089571075E+02  0.81089571075E+02  0.00000000000E+00 0.  1.
          2   -1    0    0  501    0  0.00000000000E+00 -0.00000000000E+00 -0.17222657576E+03  0.17222657576E+03  0.00000000000E+00 0. -1.
         23    2    1    2    0    0  0.50311996800E+02  0.39722515947E+02 -0.56123847752E+01  0.10614139896E+03  0.84411624885E+02 0.  0.
         23    2    1    2    0    0 -0.50311996800E+02 -0.39722515947E+02 -0.85524619914E+02  0.14717474788E+03  0.10117692675E+03 0.  0.
          5    1    3    3  502    0  0.44714232221E+02 -0.15330563990E+02 -0.15006299481E+02  0.49816340487E+02  0.47000000000E+01 0. -1.
         -5    1    3    3    0  502  0.55977645793E+01  0.55053079937E+02  0.93939147056E+01  0.56325058476E+02  0.47000000000E+01 0.  1.
          5    1    4    4  503    0 -0.21110723510E+02 -0.72306255413E+02 -0.48968576249E+02  0.89965930656E+02  0.47000000000E+01 0. -1.
         -5    1    4    4    0  503 -0.29201273290E+02  0.32583739466E+02 -0.36556043665E+02  0.57208817221E+02  0.47000000000E+01 0.  1.
<mgrwt>
<rscale>  0 0.11616964E+03</rscale>
<asrwt>0</asrwt>
<pdfrwt beam="1">  1        2 0.26496396E-01 0.11977456E+03</pdfrwt>
<pdfrwt beam="2">  1       -2 0.12475319E-01 0.11977456E+03</pdfrwt>
<totfact> 0.87437891E+03</totfact>
</mgrwt>
</event>
<event>
 8    1  0.3466492E-004  0.9443506E+02  0.7546771E-02  0.1292458E+00
         -1   -1    0    0    0  501 -0.00000000000E+00  0.00000000000E+00  0.13171982149E+03  0.13171982149E+03  0.00000000000E+00 0.  1.
          1   -1    0    0  501    0  0.00000000000E+00 -0.00000000000E+00 -0.15475575434E+03  0.15475575434E+03  0.00000000000E+00 0. -1.
         23    2    1    2    0    0  0.93797250335E+01  0.20825592152E+02  0.95915182380E+02  0.13459619039E+03  0.91622746777E+02 0.  0.
         23    2    1    2    0    0 -0.93797250335E+01 -0.20825592152E+02 -0.11895111523E+03  0.15187938544E+03  0.91631301303E+02 0.  0.
          5    1    4    4  502    0 -0.46691493631E+02 -0.20433659800E+02 -0.93103290969E+02  0.10624473079E+03  0.47000000000E+01 0. -1.
         -5    1    3    3    0  503  0.39410209756E+02  0.26158940479E+02  0.91913115012E+02  0.10347736715E+03  0.47000000000E+01 0.  1.
          5    1    3    3  503    0 -0.30030484723E+02 -0.53333483277E+01  0.40020673677E+01  0.31118823247E+02  0.47000000000E+01 0. -1.
         -5    1    4    4    0  502  0.37311768597E+02 -0.39193235194E+00 -0.25847824258E+02  0.45634654657E+02  0.47000000000E+01 0.  1.
<mgrwt>
<rscale>  0 0.94432981E+02</rscale>
<asrwt>0</asrwt>
<pdfrwt beam="1">  1        1 0.23808577E-01 0.94435057E+02</pdfrwt>
<pdfrwt beam="2">  1       -1 0.20264588E-01 0.94435057E+02</pdfrwt>
<totfact> 0.37813698E+03</totfact>
</mgrwt>
</event>
<event>
 8    1  0.3466492E-004  0.1011501E+03  0.7546771E-02  0.1283985E+00
          1   -1    0    0  501    0  0.00000000000E+00  0.00000000000E+00  0.94458548638E+02  0.94458548638E+02  0.00000000000E+00 0. -1.
         -1   -1    0    0    0  501 -0.00000000000E+00 -0.00000000000E+00 -0.35034515851E+03  0.35034515851E+03  0.00000000000E+00 0.  1.
         23    2    1    2    0    0  0.10543475478E+02  0.10250816548E+02 -0.31909616830E+03  0.33474423499E+03  0.10007544214E+03 0.  0.
         23    2    1    2    0    0 -0.10543475478E+02 -0.10250816548E+02  0.63209558427E+02  0.11005947216E+03  0.88889791433E+02 0.  0.
          5    1    4    4  502    0  0.92700154827E+01 -0.46456881872E+02  0.25745510539E+02  0.54121126866E+02  0.47000000000E+01 0. -1.
         -5    1    4    4    0  502 -0.19813490960E+02  0.36206065324E+02  0.37464047887E+02  0.55938345296E+02  0.47000000000E+01 0.  1.
          5    1    3    3  503    0  0.44647282441E+02  0.19730078580E+02 -0.86586013452E+02  0.99508208483E+02  0.47000000000E+01 0. -1.
         -5    1    3    3    0  503 -0.34103806963E+02 -0.94792620318E+01 -0.23251015485E+03  0.23523602650E+03  0.47000000000E+01 0.  1.
<mgrwt>
<rscale>  0 0.98266024E+02</rscale>
<asrwt>0</asrwt>
<pdfrwt beam="1">  1        1 0.14532084E-01 0.10115008E+03</pdfrwt>
<pdfrwt beam="2">  1       -1 0.53899255E-01 0.10115008E+03</pdfrwt>
<totfact> 0.13470217E+03</totfact>
</mgrwt>
</event>
<event>
 8    1  0.3466492E-004  0.1089755E+03  0.7546771E-02  0.1262746E+00
         -2   -1    0    0    0  501 -0.00000000000E+00  0.00000000000E+00  0.22499034581E+03  0.22499034581E+03  0.00000000000E+00 0.  1.
          2   -1    0    0  501    0  0.00000000000E+00 -0.00000000000E+00 -0.57985360493E+02  0.57985360493E+02  0.00000000000E+00 0. -1.
         23    2    1    2    0    0  0.51227971071E+02  0.19531164825E+01  0.12678867189E+03  0.16681631335E+03  0.95520654283E+02 0.  0.
         23    2    1    2    0    0 -0.51227971071E+02 -0.19531164825E+01  0.40216313431E+02  0.11615939296E+03  0.96164094251E+02 0.  0.
          5    1    3    3  502    0  0.61320527171E+01  0.44278902955E+02  0.66894122010E+02  0.80592412031E+02  0.47000000000E+01 0. -1.
         -5    1    3    3    0  502  0.45095918354E+02 -0.42325786473E+02  0.59894549881E+02  0.86223901316E+02  0.47000000000E+01 0.  1.
          5    1    4    4  503    0  0.81381169549E+01  0.30680148741E+02 -0.77627380314E+01  0.33012885001E+02  0.47000000000E+01 0. -1.
         -5    1    4    4    0  503 -0.59366088026E+02 -0.32633265224E+02  0.47979051462E+02  0.83146507960E+02  0.47000000000E+01 0.  1.
<mgrwt>
<rscale>  0 0.10883335E+03</rscale>
<asrwt>0</asrwt>
<pdfrwt beam="1">  1        2 0.89208248E-02 0.10897547E+03</pdfrwt>
<pdfrwt beam="2">  1       -2 0.34613899E-01 0.10897547E+03</pdfrwt>
<totfact> 0.54161821E+03</totfact>
</mgrwt>
</event>
<event>
 8    1  0.3466492E-004  0.9558274E+02  0.7546771E-02  0.1290444E+00
          2   -1    0    0  501    0  0.00000000000E+00  0.00000000000E+00  0.37258905342E+03  0.37258905342E+03  0.00000000000E+00 0. -1.
         -2   -1    0    0    0  501 -0.00000000000E+00 -0.00000000000E+00 -0.25359342589E+02  0.25359342589E+02  0.00000000000E+00 0.  1.
         23    2    1    2    0    0  0.10369450457E+01  0.28127283215E+02  0.13126730755E+03  0.16177934719E+03  0.90273095816E+02 0.  0.
         23    2    1    2    0    0 -0.10369450457E+01 -0.28127283215E+02  0.21596240328E+03  0.23616904882E+03  0.91344625869E+02 0.  0.
          5    1    4    4  502    0 -0.27188542595E+02 -0.25750681642E+02  0.20305717205E+03  0.20653479023E+03  0.47000000000E+01 0. -1.
         -5    1    3    3    0  503  0.25187186442E+02 -0.35901775416E+01  0.11597180372E+03  0.11882269562E+03  0.47000000000E+01 0.  1.
          5    1    3    3  503    0 -0.24150241396E+02  0.31717460757E+02  0.15295503827E+02  0.42956651565E+02  0.47000000000E+01 0. -1.
         -5    1    4    4    0  502  0.26151597549E+02 -0.23766015725E+01  0.12905231231E+02  0.29634258596E+02  0.47000000000E+01 0.  1.
<mgrwt>
<rscale>  0 0.95325832E+02</rscale>
<asrwt>0</asrwt>
<pdfrwt beam="1">  1        2 0.57321389E-01 0.95582739E+02</pdfrwt>
<pdfrwt beam="2">  1       -2 0.39014376E-02 0.95582739E+02</pdfrwt>
<totfact> 0.22237447E+04</totfact>
</mgrwt>
</event>
<event>
 8    1  0.3466492E-004  0.9498990E+02  0.7546771E-02  0.1292879E+00
          2   -1    0    0  501    0  0.00000000000E+00  0.00000000000E+00  0.57223005895E+02  0.57223005895E+02  0.00000000000E+00 0. -1.
         -2   -1    0    0    0  501 -0.00000000000E+00 -0.00000000000E+00 -0.24354153129E+03  0.24354153129E+03  0.00000000000E+00 0.  1.
         23    2    1    2    0    0 -0.18371002967E+02  0.69237390357E+01 -0.18400326786E+03  0.20574642406E+03  0.89938626406E+02 0.  0.
         23    2    1    2    0    0  0.18371002967E+02 -0.69237390357E+01 -0.23152575332E+01  0.95018113120E+02  0.92938955724E+02 0.  0.
          5    1    4    4  502    0 -0.35022658680E+02 -0.18612013655E+02  0.20030498526E+01  0.39988696928E+02  0.47000000000E+01 0. -1.
         -5    1    3    3    0  503 -0.38832739435E+02  0.37037627287E+02 -0.12691124650E+03  0.13787067119E+03  0.47000000000E+01 0.  1.
          5    1    3    3  503    0  0.20461736467E+02 -0.30113888251E+02 -0.57092021362E+02  0.67875752873E+02  0.47000000000E+01 0. -1.
         -5    1    4    4    0  502  0.53393661647E+02  0.11688274619E+02 -0.43183073858E+01  0.55029416191E+02  0.47000000000E+01 0.  1.
<mgrwt>
<rscale>  0 0.94247887E+02</rscale>
<asrwt>0</asrwt>
<pdfrwt beam="1">  1        2 0.88035395E-02 0.94989902E+02</pdfrwt>
<pdfrwt beam="2">  1       -2 0.37467927E-01 0.94989902E+02</pdfrwt>
<totfact> 0.47045551E+03</totfact>
</mgrwt>
</event>
<event>
 8    1  0.3466492E-004  0.9449069E+02  0.7546771E-02  0.1293484E+00
          1   -1    0    0  501    0  0.00000000000E+00  0.00000000000E+00  0.16758265045E+03  0.16758265045E+03  0.00000000000E+00 0. -1.
         -1   -1    0    0    0  501 -0.00000000000E+00 -0.00000000000E+00 -0.56704554799E+02  0.56704554799E+02  0.00000000000E+00 0.  1.
         23    2    1    2    0    0  0.16195740993E+02  0.17210866957E+02  0.23101790264E+02  0.95317555980E+02  0.89404853318E+02 0.  0.
         23    2    1    2    0    0 -0.16195740993E+02 -0.17210866957E+02  0.87776305388E+02  0.12896964927E+03  0.91487565699E+02 0.  0.
          5    1    3    3  502    0 -0.32139098575E+02  0.10572289777E+02  0.30444135385E+02  0.45756205565E+02  0.47000000000E+01 0. -1.
         -5    1    4    4    0  503  0.63003767494E+01 -0.29522645984E+02 -0.64314582320E+01  0.31220746757E+02  0.47000000000E+01 0.  1.
          5    1    4    4  503    0 -0.22496117742E+02  0.12311779027E+02  0.94207763620E+02  0.97748902513E+02  0.47000000000E+01 0. -1.
         -5    1    3    3    0  502  0.48334839568E+02  0.66385771803E+01 -0.73423451216E+01  0.49561350415E+02  0.47000000000E+01 0.  1.
<mgrwt>
<rscale>  0 0.93982848E+02</rscale>
<asrwt>0</asrwt>
<pdfrwt beam="1">  1        1 0.25781946E-01 0.94490691E+02</pdfrwt>
<pdfrwt beam="2">  1       -1 0.87237778E-02 0.94490691E+02</pdfrwt>
<totfact> 0.12554608E+04</totfact>
</mgrwt>
</event>
<event>
 8    1  0.3466492E-004  0.1835071E+03  0.7546771E-02  0.1164464E+00
          4   -1    0    0  501    0  0.00000000000E+00  0.00000000000E+00  0.66151223086E+02  0.66151223086E+02  0.00000000000E+00 0. -1.
         -4   -1    0    0    0  501 -0.00000000000E+00 -0.00000000000E+00 -0.50959273263E+03  0.50959273263E+03  0.00000000000E+00 0.  1.
         23    2    1    2    0    0  0.15038573912E+03  0.53125649797E+02 -0.21122530079E+03  0.27980527443E+03  0.90756039500E+02 0.  0.
         23    2    1    2    0    0 -0.15038573912E+03 -0.53125649797E+02 -0.23221620875E+03  0.29593868129E+03  0.90648388190E+02 0.  0.
          5    1    4    4  502    0 -0.93426217444E+02 -0.63312211187E+02 -0.97384059456E+02  0.14913966349E+03  0.47000000000E+01 0. -1.
         -5    1    3    3    0  503  0.23144866767E+02 -0.17116018477E+02 -0.86174778853E+01  0.30413711896E+02  0.47000000000E+01 0.  1.
          5    1    3    3  503    0  0.12724087235E+03  0.70241668274E+02 -0.20260782291E+03  0.24939156253E+03  0.47000000000E+01 0. -1.
         -5    1    4    4    0  502 -0.56959521672E+02  0.10186561391E+02 -0.13483214930E+03  0.14679901780E+03  0.47000000000E+01 0.  1.
<mgrwt>
<rscale>  0 0.18349382E+03</rscale>
<asrwt>0</asrwt>
<pdfrwt beam="1">  1        4 0.10177111E-01 0.18350712E+03</pdfrwt>
<pdfrwt beam="2">  1       -4 0.78398884E-01 0.18350712E+03</pdfrwt>
<totfact> 0.19221046E+02</totfact>
</mgrwt>
</event>
<event>
 8    1  0.3466492E-004  0.1290267E+03  0.7546771E-02  0.1228912E+00
          2   -1    0    0  501    0  0.00000000000E+00  0.00000000000E+00  0.78211001443E+03  0.78211001443E+03  0.00000000000E+00 0. -1.
         -2   -1    0    0    0  501 -0.00000000000E+00 -0.00000000000E+00 -0.22079990334E+02  0.22079990334E+02  0.00000000000E+00 0.  1.
         23    2    1    2    0    0 -0.75618294733E+02  0.52223281494E+02  0.45635421906E+03  0.47424018630E+03  0.90549342460E+02 0.  0.
         23    2    1    2    0    0  0.75618294733E+02 -0.52223281494E+02  0.30367580503E+03  0.32994981846E+03  0.90567601889E+02 0.  0.
          5    1    4    4  502    0  0.62344758902E+02 -0.68190246927E+02  0.29058837727E+03  0.30495979037E+03  0.47000000000E+01 0. -1.
         -5    1    3    3    0  503 -0.27801432910E+02  0.58460838828E+02  0.36604748557E+03  0.37175723401E+03  0.47000000000E+01 0.  1.
          5    1    3    3  503    0 -0.47816861823E+02 -0.62375573333E+01  0.90306733489E+02  0.10248295229E+03  0.47000000000E+01 0. -1.
         -5    1    4    4    0  502  0.13273535830E+02  0.15966965433E+02  0.13087427766E+02  0.24990028093E+02  0.47000000000E+01 0.  1.
<mgrwt>
<rscale>  0 0.12902349E+03</rscale>
<asrwt>0</asrwt>
<pdfrwt beam="1">  1        2 0.12032460E+00 0.12902670E+03</pdfrwt>
<pdfrwt beam="2">  1       -2 0.33969222E-02 0.12902670E+03</pdfrwt>
<totfact> 0.12234648E+04</totfact>
</mgrwt>
</event>
<event>
 8    1  0.3466492E-004  0.1286076E+03  0.7546771E-02  0.1231749E+00
          4   -1    0    0  501    0  0.00000000000E+00  0.00000000000E+00  0.39203146839E+02  0.39203146839E+02  0.00000000000E+00 0. -1.
         -4   -1    0    0    0  501 -0.00000000000E+00 -0.00000000000E+00 -0.43586918425E+03  0.43586918425E+03  0.00000000000E+00 0.  1.
         23    2    1    2    0    0 -0.82286020702E+02 -0.46976594634E+01 -0.12921968544E+03  0.17831071697E+03  0.91125888050E+02 0.  0.
         23    2    1    2    0    0  0.82286020702E+02  0.46976594634E+01 -0.26744635198E+03  0.29676161412E+03  0.98726122306E+02 0.  0.
          5    1    3    3  502    0 -0.30804244144E+02  0.28148208545E+02 -0.83575476837E+01  0.42815437693E+02  0.47000000000E+01 0. -1.
         -5    1    4    4    0  503  0.15169838313E+02 -0.40622569084E+02 -0.61344109850E+02  0.75269561755E+02  0.47000000000E+01 0.  1.
          5    1    4    4  503    0  0.67116182389E+02  0.45320228547E+02 -0.20610224213E+03  0.22149205237E+03  0.47000000000E+01 0. -1.
         -5    1    3    3    0  502 -0.51481776558E+02 -0.32845868008E+02 -0.12086213775E+03  0.13549527927E+03  0.47000000000E+01 0.  1.
<mgrwt>
<rscale>  0 0.12714847E+03</rscale>
<asrwt>0</asrwt>
<pdfrwt beam="1">  1        4 0.60312534E-02 0.12860756E+03</pdfrwt>
<pdfrwt beam="2">  1       -4 0.67056797E-01 0.12860756E+03</pdfrwt>
<totfact> 0.60424914E+02</totfact>
</mgrwt>
</event>
<event>
 8    1  0.3466492E-004  0.9145971E+02  0.7546771E-02  0.1301248E+00
          1   -1    0    0  501    0  0.00000000000E+00  0.00000000000E+00  0.19690393725E+03  0.19690393725E+03  0.00000000000E+00 0. -1.
         -1   -1    0    0    0  501 -0.00000000000E+00 -0.00000000000E+00 -0.57083452723E+02  0.57083452723E+02  0.00000000000E+00 0.  1.
         23    2    1    2    0    0 -0.59373238075E+01 -0.13525988192E+01  0.17114337159E+01  0.88340207175E+02  0.88113460157E+02 0.  0.
         23    2    1    2    0    0  0.59373238075E+01  0.13525988192E+01  0.13810905081E+03  0.16564718280E+03  0.91256769149E+02 0.  0.
          5    1    4    4  502    0 -0.21955690175E+02 -0.34762838756E+02  0.90606236085E+02  0.99609674766E+02  0.47000000000E+01 0. -1.
         -5    1    3    3    0  503  0.37345394966E+02  0.16289127282E+02 -0.30335263158E+01  0.41125496650E+02  0.47000000000E+01 0.  1.
          5    1    3    3  503    0 -0.43282718774E+02 -0.17641726101E+02  0.47449600318E+01  0.47214710525E+02  0.47000000000E+01 0. -1.
         -5    1    4    4    0  502  0.27893013982E+02  0.36115437576E+02  0.47502814728E+02  0.66037508034E+02  0.47000000000E+01 0.  1.
<mgrwt>
<rscale>  0 0.90665404E+02</rscale>
<asrwt>0</asrwt>
<pdfrwt beam="1">  1        1 0.30292913E-01 0.91459714E+02</pdfrwt>
<pdfrwt beam="2">  1       -1 0.87820697E-02 0.91459714E+02</pdfrwt>
<totfact> 0.10158322E+04</totfact>
</mgrwt>
</event>
<event>
 8    1  0.3466492E-004  0.1240231E+03  0.7546771E-02  0.1238109E+00
         -2   -1    0    0    0  501 -0.00000000000E+00  0.00000000000E+00  0.51002581327E+03  0.51002581327E+03  0.00000000000E+00 0.  1.
          2   -1    0    0  501    0  0.00000000000E+00 -0.00000000000E+00 -0.30489303527E+02  0.30489303527E+02  0.00000000000E+00 0. -1.
         23    2    1    2    0    0 -0.79056060967E+02  0.28306198043E+02  0.29770371676E+03  0.32250464076E+03  0.91272332695E+02 0.  0.
         23    2    1    2    0    0  0.79056060967E+02 -0.28306198043E+02  0.18183279298E+03  0.21801047604E+03  0.86106337948E+02 0.  0.
          5    1    4    4  502    0  0.46729435016E+00 -0.39773599046E+02  0.50451346803E+02  0.64417279819E+02  0.47000000000E+01 0. -1.
         -5    1    4    4    0  502  0.78588766617E+02  0.11467401003E+02  0.13138144618E+03  0.15359319622E+03  0.47000000000E+01 0.  1.
          5    1    3    3  503    0 -0.91579296995E+02  0.43661515809E+00  0.19985376205E+03  0.21988764057E+03  0.47000000000E+01 0. -1.
         -5    1    3    3    0  503  0.12523236027E+02  0.27869582885E+02  0.97849954710E+02  0.10261700019E+03  0.47000000000E+01 0.  1.
<mgrwt>
<rscale>  0 0.12307458E+03</rscale>
<asrwt>0</asrwt>
<pdfrwt beam="1">  1        2 0.46906625E-02 0.12402314E+03</pdfrwt>
<pdfrwt beam="2">  1       -2 0.78465504E-01 0.12402314E+03</pdfrwt>
<totfact> 0.24237748E+03</totfact>
</mgrwt>
</event>
<event>
 8    1  0.3466492E-004  0.1094618E+03  0.7546771E-02  0.1261879E+00
         -1   -1    0    0    0  501 -0.00000000000E+00  0.00000000000E+00  0.12360861456E+03  0.12360861456E+03  0.00000000000E+00 0.  1.
          1   -1    0    0  501    0  0.00000000000E+00 -0.00000000000E+00 -0.11376967223E+03  0.11376967223E+03  0.00000000000E+00 0. -1.
         23    2    1    2    0    0 -0.46053366508E+02 -0.33586185325E+02  0.51376727891E+02  0.12091915905E+03  0.93450149515E+02 0.  0.
         23    2    1    2    0    0  0.46053366508E+02  0.33586185325E+02 -0.41537785559E+02  0.11645912774E+03  0.92673601385E+02 0.  0.
          5    1    4    4  502    0 -0.24054973520E+02  0.22595790584E+02  0.14304147139E+01  0.33366863644E+02  0.47000000000E+01 0. -1.
         -5    1    3    3    0  503 -0.61791177345E+02 -0.52890074424E+02  0.49882461352E+02  0.95529364704E+02  0.47000000000E+01 0.  1.
          5    1    3    3  503    0  0.15737810837E+02  0.19303889098E+02  0.14942665389E+01  0.25389794343E+02  0.47000000000E+01 0. -1.
         -5    1    4    4    0  502  0.70108340028E+02  0.10990394741E+02 -0.42968200273E+02  0.83092264097E+02  0.47000000000E+01 0.  1.
<mgrwt>
<rscale>  0 0.10929582E+03</rscale>
<asrwt>0</asrwt>
<pdfrwt beam="1">  1        1 0.17503026E-01 0.10946175E+03</pdfrwt>
<pdfrwt beam="2">  1       -1 0.19016710E-01 0.10946175E+03</pdfrwt>
<totfact> 0.62255965E+03</totfact>
</mgrwt>
</event>
<event>
 8    1  0.3466492E-004  0.9065123E+02  0.7546771E-02  0.1302062E+00
          2   -1    0    0  501    0  0.00000000000E+00  0.00000000000E+00  0.69688214644E+03  0.69688214644E+03  0.00000000000E+00 0. -1.
         -2   -1    0    0    0  501 -0.00000000000E+00 -0.00000000000E+00 -0.11842671837E+02  0.11842671837E+02  0.00000000000E+00 0.  1.
         23    2    1    2    0    0  0.33090599283E+01  0.58297790200E+01  0.38817405805E+03  0.39832713497E+03  0.89109320012E+02 0.  0.
         23    2    1    2    0    0 -0.33090599283E+01 -0.58297790200E+01  0.29686541656E+03  0.31039768330E+03  0.90403042277E+02 0.  0.
          5    1    4    4  502    0 -0.56255430983E+01 -0.32196757747E+02  0.27129180117E+03  0.27329399797E+03  0.47000000000E+01 0. -1.
         -5    1    4    4    0  502  0.23164831700E+01  0.26366978727E+02  0.25573615384E+02  0.37103685332E+02  0.47000000000E+01 0.  1.
          5    1    3    3  503    0  0.15640929157E+02 -0.32851068628E+02  0.28502307279E+03  0.28737444806E+03  0.47000000000E+01 0. -1.
         -5    1    3    3    0  503 -0.12331869229E+02  0.38680847648E+02  0.10315098526E+03  0.11095268691E+03  0.47000000000E+01 0.  1.
<mgrwt>
<rscale>  0 0.90326966E+02</rscale>
<asrwt>0</asrwt>
<pdfrwt beam="1">  1        2 0.10721261E+00 0.90651234E+02</pdfrwt>
<pdfrwt beam="2">  1       -2 0.18219501E-02 0.90651234E+02</pdfrwt>
<totfact> 0.33664349E+04</totfact>
</mgrwt>
</event>
<event>
 8    1  0.3466492E-004  0.9471825E+02  0.7546771E-02  0.1292409E+00
          1   -1    0    0  501    0  0.00000000000E+00  0.00000000000E+00  0.26672508392E+02  0.26672508392E+02  0.00000000000E+00 0. -1.
         -1   -1    0    0    0  501 -0.00000000000E+00 -0.00000000000E+00 -0.56265958483E+03  0.56265958483E+03  0.00000000000E+00 0.  1.
         23    2    1    2    0    0  0.19448345763E+02 -0.12810716507E+02 -0.45727973268E+03  0.46698640311E+03  0.91810642979E+02 0.  0.
         23    2    1    2    0    0 -0.19448345763E+02  0.12810716507E+02 -0.78707343763E+02  0.12234569011E+03  0.90726343012E+02 0.  0.
          5    1    3    3  502    0 -0.18601297788E+02 -0.37070385972E+02 -0.12896678062E+03  0.13555346657E+03  0.47000000000E+01 0. -1.
         -5    1    4    4    0  503  0.10659699524E+02 -0.34732674295E+02 -0.37611013526E+02  0.52503963623E+02  0.47000000000E+01 0.  1.
          5    1    4    4  503    0 -0.30108045288E+02  0.47543390802E+02 -0.41096330237E+02  0.69841726489E+02  0.47000000000E+01 0. -1.
         -5    1    3    3    0  502  0.38049643552E+02  0.24259669465E+02 -0.32831295206E+03  0.33143293654E+03  0.47000000000E+01 0.  1.
<mgrwt>
<rscale>  0 0.94454491E+02</rscale>
<asrwt>0</asrwt>
<pdfrwt beam="1">  1        1 0.41034633E-02 0.94718249E+02</pdfrwt>
<pdfrwt beam="2">  1       -1 0.86563002E-01 0.94718249E+02</pdfrwt>
<totfact> 0.28582313E+03</totfact>
</mgrwt>
</event>
<event>
 8    1  0.3466492E-004  0.9479457E+02  0.7546771E-02  0.1292471E+00
         -1   -1    0    0    0  501 -0.00000000000E+00  0.00000000000E+00  0.46477238759E+02  0.46477238759E+02  0.00000000000E+00 0.  1.
          1   -1    0    0  501    0  0.00000000000E+00 -0.00000000000E+00 -0.23425167891E+03  0.23425167891E+03  0.00000000000E+00 0. -1.
         23    2    1    2    0    0  0.77023992899E+01 -0.20048173323E+02 -0.15404092652E+03  0.18011102325E+03  0.90830157137E+02 0.  0.
         23    2    1    2    0    0 -0.77023992899E+01  0.20048173323E+02 -0.33733513630E+02  0.10061789442E+03  0.92329597240E+02 0.  0.
          5    1    3    3  502    0  0.28588489410E+02  0.14083948264E+02 -0.12834017694E+03  0.13232139035E+03  0.47000000000E+01 0. -1.
         -5    1    3    3    0  502 -0.20886090120E+02 -0.34132121587E+02 -0.25700749579E+02  0.47789632907E+02  0.47000000000E+01 0.  1.
          5    1    4    4  503    0  0.35703286071E+02  0.23267344721E+02 -0.37118230372E+02  0.56709320156E+02  0.47000000000E+01 0. -1.
         -5    1    4    4    0  503 -0.43405685361E+02 -0.32191713978E+01  0.33847167416E+01  0.43908574260E+02  0.47000000000E+01 0.  1.
<mgrwt>
<rscale>  0 0.94427487E+02</rscale>
<asrwt>0</asrwt>
<pdfrwt beam="1">  1        1 0.36038720E-01 0.94794571E+02</pdfrwt>
<pdfrwt beam="2">  1       -1 0.71503444E-02 0.94794571E+02</pdfrwt>
<totfact> 0.11195345E+04</totfact>
</mgrwt>
</event>
<event>
 8    1  0.3466492E-004  0.9456475E+02  0.7546771E-02  0.1292306E+00
          1   -1    0    0  501    0  0.00000000000E+00  0.00000000000E+00  0.64543260573E+03  0.64543260573E+03  0.00000000000E+00 0. -1.
         -1   -1    0    0    0  501 -0.00000000000E+00 -0.00000000000E+00 -0.20676508706E+02  0.20676508706E+02  0.00000000000E+00 0.  1.
         23    2    1    2    0    0 -0.14987974610E+02  0.13913960831E+02  0.12083436316E+03  0.15343870448E+03  0.92326892199E+02 0.  0.
         23    2    1    2    0    0  0.14987974610E+02 -0.13913960831E+02  0.50392173386E+03  0.51267040996E+03  0.92063009379E+02 0.  0.
          5    1    3    3  502    0  0.32846674234E+02  0.16456203713E+02  0.87140585269E+02  0.94685174393E+02  0.47000000000E+01 0. -1.
         -5    1    3    3    0  502 -0.47834648844E+02 -0.25422428827E+01  0.33693777889E+02  0.58753530084E+02  0.47000000000E+01 0.  1.
          5    1    4    4  503    0  0.40904545841E+02 -0.39759779458E+02  0.29127327465E+03  0.29684378460E+03  0.47000000000E+01 0. -1.
         -5    1    4    4    0  503 -0.25916571230E+02  0.25845818628E+02  0.21264845921E+03  0.21582662535E+03  0.47000000000E+01 0.  1.
<mgrwt>
<rscale>  0 0.94500283E+02</rscale>
<asrwt>0</asrwt>
<pdfrwt beam="1">  1        1 0.99297309E-01 0.94564754E+02</pdfrwt>
<pdfrwt beam="2">  1       -1 0.31810018E-02 0.94564754E+02</pdfrwt>
<totfact> 0.10213988E+04</totfact>
</mgrwt>
</event>
<event>
 8    1  0.3466492E-004  0.1131320E+03  0.7546771E-02  0.1256020E+00
         -1   -1    0    0    0  501 -0.00000000000E+00  0.00000000000E+00  0.56429494221E+02  0.56429494221E+02  0.00000000000E+00 0.  1.
          1   -1    0    0  501    0  0.00000000000E+00 -0.00000000000E+00 -0.41868153152E+03  0.41868153152E+03  0.00000000000E+00 0. -1.
         23    2    1    2    0    0 -0.57827766651E+02 -0.11326947141E+02 -0.17130451914E+02  0.11191994686E+03  0.93596323616E+02 0.  0.
         23    2    1    2    0    0  0.57827766651E+02  0.11326947141E+02 -0.34512158538E+03  0.36319107888E+03  0.96573809882E+02 0.  0.
          5    1    3    3  502    0 -0.60646713982E+02  0.30139578693E+02 -0.36891588755E+01  0.67986160458E+02  0.47000000000E+01 0. -1.
         -5    1    3    3    0  502  0.28189473310E+01 -0.41466525834E+02 -0.13441293038E+02  0.43933786399E+02  0.47000000000E+01 0.  1.
          5    1    4    4  503    0  0.75529546448E+02 -0.56840057249E+01 -0.31517775616E+03  0.32418533016E+03  0.47000000000E+01 0. -1.
         -5    1    4    4    0  503 -0.17701779797E+02  0.17010952866E+02 -0.29943829217E+02  0.39005748725E+02  0.47000000000E+01 0.  1.
<mgrwt>
<rscale>  0 0.11249392E+03</rscale>
<asrwt>0</asrwt>
<pdfrwt beam="1">  1        1 0.64412542E-01 0.11313201E+03</pdfrwt>
<pdfrwt beam="2">  1       -1 0.86814609E-02 0.11313201E+03</pdfrwt>
<totfact> 0.41454805E+03</totfact>
</mgrwt>
</event>
<event>
 8    1  0.3466492E-004  0.1112722E+03  0.7546771E-02  0.1259286E+00
          1   -1    0    0  501    0  0.00000000000E+00  0.00000000000E+00  0.91669573487E+02  0.91669573487E+02  0.00000000000E+00 0. -1.
         -1   -1    0    0    0  501 -0.00000000000E+00 -0.00000000000E+00 -0.34686824836E+03  0.34686824836E+03  0.00000000000E+00 0.  1.
         23    2    1    2    0    0  0.48638189476E+02 -0.32294157750E+02 -0.30055471390E+03  0.32049124568E+03  0.94725479189E+02 0.  0.
         23    2    1    2    0    0 -0.48638189476E+02  0.32294157750E+02  0.45356039029E+02  0.11804657617E+03  0.92028461729E+02 0.  0.
          5    1    4    4  502    0 -0.38205213124E+02  0.54054651683E+02  0.59972154793E+02  0.89444357166E+02  0.47000000000E+01 0. -1.
         -5    1    3    3    0  503  0.22893110304E+02 -0.55952161030E+02 -0.25889242242E+03  0.26589869351E+03  0.47000000000E+01 0.  1.
          5    1    3    3  503    0  0.25745079171E+02  0.23658003280E+02 -0.41662291477E+02  0.54592552165E+02  0.47000000000E+01 0. -1.
         -5    1    4    4    0  502 -0.10432976352E+02 -0.21760493933E+02 -0.14616115764E+02  0.28602219001E+02  0.47000000000E+01 0.  1.
<mgrwt>
<rscale>  0 0.11069605E+03</rscale>
<asrwt>0</asrwt>
<pdfrwt beam="1">  1        1 0.14103011E-01 0.11127220E+03</pdfrwt>
<pdfrwt beam="2">  1       -1 0.53364346E-01 0.11127220E+03</pdfrwt>
<totfact> 0.14310329E+03</totfact>
</mgrwt>
</event>
<event>
 8    1  0.3466492E-004  0.9790597E+02  0.7546771E-02  0.1284794E+00
         -1   -1    0    0    0  501 -0.00000000000E+00  0.00000000000E+00  0.30124234310E+02  0.30124234310E+02  0.00000000000E+00 0.  1.
          1   -1    0    0  501    0  0.00000000000E+00 -0.00000000000E+00 -0.34712589107E+03  0.34712589107E+03  0.00000000000E+00 0. -1.
         23    2    1    2    0    0  0.30215918241E+02  0.20117691573E+02 -0.21317031088E+03  0.23457868650E+03  0.90927748731E+02 0.  0.
         23    2    1    2    0    0 -0.30215918241E+02 -0.20117691573E+02 -0.10383134588E+03  0.14267143889E+03  0.90865108025E+02 0.  0.
          5    1    3    3  502    0  0.33040402907E+01  0.30318835715E+02 -0.20036848572E+03  0.20273077850E+03  0.47000000000E+01 0. -1.
         -5    1    3    3    0  502  0.26911877950E+02 -0.10201144142E+02 -0.12801825164E+02  0.31847908003E+02  0.47000000000E+01 0.  1.
          5    1    4    4  503    0 -0.51809586551E+02  0.16655078557E+02 -0.63855301231E+02  0.84031032337E+02  0.47000000000E+01 0. -1.
         -5    1    4    4    0  503  0.21593668310E+02 -0.36772770130E+02 -0.39976044652E+02  0.58640406548E+02  0.47000000000E+01 0.  1.
<mgrwt>
<rscale>  0 0.97891422E+02</rscale>
<asrwt>0</asrwt>
<pdfrwt beam="1">  1        1 0.53403982E-01 0.97905969E+02</pdfrwt>
<pdfrwt beam="2">  1       -1 0.46344977E-02 0.97905969E+02</pdfrwt>
<totfact> 0.13144394E+04</totfact>
</mgrwt>
</event>
<event>
 8    1  0.3466492E-004  0.1084873E+03  0.7546771E-02  0.1266794E+00
         -2   -1    0    0    0  501 -0.00000000000E+00  0.00000000000E+00  0.46280002976E+02  0.46280002976E+02  0.00000000000E+00 0.  1.
          2   -1    0    0  501    0  0.00000000000E+00 -0.00000000000E+00 -0.31169981580E+03  0.31169981580E+03  0.00000000000E+00 0. -1.
         23    2    1    2    0    0  0.45366219156E+02  0.12763852229E+02 -0.42517363931E+02  0.11007863727E+03  0.89936479717E+02 0.  0.
         23    2    1    2    0    0 -0.45366219156E+02 -0.12763852229E+02 -0.22290244890E+03  0.24790118151E+03  0.97716346145E+02 0.  0.
          5    1    4    4  502    0 -0.38993986353E+02 -0.49825324690E+02 -0.17896230228E+03  0.18987545810E+03  0.47000000000E+01 0. -1.
         -5    1    4    4    0  502 -0.63722328036E+01  0.37061472461E+02 -0.43940146616E+02  0.58025723404E+02  0.47000000000E+01 0.  1.
          5    1    3    3  503    0 -0.24353788135E+02 -0.28338251311E+01  0.31410251832E+01  0.25161351327E+02  0.47000000000E+01 0. -1.
         -5    1    3    3    0  503  0.69720007292E+02  0.15597677360E+02 -0.45658389114E+02  0.84917285945E+02  0.47000000000E+01 0.  1.
<mgrwt>
<rscale>  0 0.10670611E+03</rscale>
<asrwt>0</asrwt>
<pdfrwt beam="1">  1        2 0.47953818E-01 0.10848730E+03</pdfrwt>
<pdfrwt beam="2">  1       -2 0.71200004E-02 0.10848730E+03</pdfrwt>
<totfact> 0.11042505E+04</totfact>
</mgrwt>
</event>
<event>
 8    1  0.3466492E-004  0.1062979E+03  0.7546771E-02  0.1270280E+00
         -1   -1    0    0    0  501 -0.00000000000E+00  0.00000000000E+00  0.78794168941E+02  0.78794168941E+02  0.00000000000E+00 0.  1.
          1   -1    0    0  501    0  0.00000000000E+00 -0.00000000000E+00 -0.21533881960E+03  0.21533881960E+03  0.00000000000E+00 0. -1.
         23    2    1    2    0    0 -0.31538197698E+02  0.32209970254E+02 -0.15853896801E+03  0.19087653438E+03  0.96265813778E+02 0.  0.
         23    2    1    2    0    0  0.31538197698E+02 -0.32209970254E+02  0.21994317350E+02  0.10325645416E+03  0.90255222739E+02 0.  0.
          5    1    3    3  502    0 -0.61984738719E+02  0.39716243490E+02 -0.12127312030E+03  0.14194628399E+03  0.47000000000E+01 0. -1.
         -5    1    3    3    0  502  0.30446541021E+02 -0.75062732361E+01 -0.37265847708E+02  0.48930250392E+02  0.47000000000E+01 0.  1.
          5    1    4    4  503    0 -0.27790103118E+02 -0.30031835309E+02  0.11734721593E+02  0.42825163797E+02  0.47000000000E+01 0. -1.
         -5    1    4    4    0  503  0.59328300816E+02 -0.21781349444E+01  0.10259595757E+02  0.60431290361E+02  0.47000000000E+01 0.  1.
<mgrwt>
<rscale>  0 0.10491852E+03</rscale>
<asrwt>0</asrwt>
<pdfrwt beam="1">  1        1 0.33129049E-01 0.10629792E+03</pdfrwt>
<pdfrwt beam="2">  1       -1 0.12122180E-01 0.10629792E+03</pdfrwt>
<totfact> 0.56492551E+03</totfact>
</mgrwt>
</event>
<event>
 8    1  0.3466492E-004  0.9694115E+02  0.7546771E-02  0.1293512E+00
         -1   -1    0    0    0  501 -0.00000000000E+00  0.00000000000E+00  0.11804825892E+03  0.11804825892E+03  0.00000000000E+00 0.  1.
          1   -1    0    0  501    0  0.00000000000E+00 -0.00000000000E+00 -0.17942011680E+03  0.17942011680E+03  0.00000000000E+00 0. -1.
         23    2    1    2    0    0  0.24038295594E+02  0.23711404552E+01 -0.14720055844E+03  0.17625433502E+03  0.93883567496E+02 0.  0.
         23    2    1    2    0    0 -0.24038295594E+02 -0.23711404552E+01  0.85828700556E+02  0.12121404071E+03  0.82114650721E+02 0.  0.
          5    1    3    3  502    0 -0.25314427568E+01 -0.40343021046E+02 -0.96259042626E+02  0.10450770707E+03  0.47000000000E+01 0. -1.
         -5    1    3    3    0  502  0.26569738351E+02  0.42714161501E+02 -0.50941515812E+02  0.71746627949E+02  0.47000000000E+01 0.  1.
          5    1    4    4  503    0  0.22478877154E+02 -0.24156601519E+02  0.26374161450E+02  0.42503267018E+02  0.47000000000E+01 0. -1.
         -5    1    4    4    0  503 -0.46517172748E+02  0.21785461064E+02  0.59454539106E+02  0.78710773688E+02  0.47000000000E+01 0.  1.
<mgrwt>
<rscale>  0 0.93970501E+02</rscale>
<asrwt>0</asrwt>
<pdfrwt beam="1">  1        1 0.27603095E-01 0.96941148E+02</pdfrwt>
<pdfrwt beam="2">  1       -1 0.18161271E-01 0.96941148E+02</pdfrwt>
<totfact> 0.37508334E+03</totfact>
</mgrwt>
</event>
<event>
 8    1  0.3466492E-004  0.1064252E+03  0.7546771E-02  0.1267980E+00
         -1   -1    0    0    0  501 -0.00000000000E+00  0.00000000000E+00  0.10518773566E+02  0.10518773566E+02  0.00000000000E+00 0.  1.
          1   -1    0    0  501    0  0.00000000000E+00 -0.00000000000E+00 -0.10634641647E+04  0.10634641647E+04  0.00000000000E+00 0. -1.
         23    2    1    2    0    0  0.40818058798E+02  0.31424381486E+02 -0.52799917936E+03  0.53861810003E+03  0.93127432059E+02 0.  0.
         23    2    1    2    0    0 -0.40818058798E+02 -0.31424381486E+02 -0.52494621177E+03  0.53536483823E+03  0.91615386728E+02 0.  0.
          5    1    4    4  502    0 -0.46221788791E+02 -0.56732491464E+02 -0.45004420189E+03  0.45597905982E+03  0.47000000000E+01 0. -1.
         -5    1    4    4    0  502  0.54037299926E+01  0.25308109978E+02 -0.74902009887E+02  0.79385778408E+02  0.47000000000E+01 0.  1.
          5    1    3    3  503    0 -0.98004332717E+01 -0.22151153018E+02 -0.24132292966E+03  0.24258105542E+03  0.47000000000E+01 0. -1.
         -5    1    3    3    0  503  0.50618492070E+02  0.53575534504E+02 -0.28667624970E+03  0.29603704461E+03  0.47000000000E+01 0.  1.
<mgrwt>
<rscale>  0 0.10609352E+03</rscale>
<asrwt>0</asrwt>
<pdfrwt beam="1">  1        1 0.16360990E+00 0.10642521E+03</pdfrwt>
<pdfrwt beam="2">  1       -1 0.16182726E-02 0.10642521E+03</pdfrwt>
<totfact> 0.12690852E+04</totfact>
</mgrwt>
</event>
<event>
 8    1  0.3466492E-004  0.9620899E+02  0.7546771E-02  0.1289054E+00
         -1   -1    0    0    0  501 -0.00000000000E+00  0.00000000000E+00  0.84423199347E+02  0.84423199347E+02  0.00000000000E+00 0.  1.
          1   -1    0    0  501    0  0.00000000000E+00 -0.00000000000E+00 -0.15636309013E+03  0.15636309013E+03  0.00000000000E+00 0. -1.
         23    2    1    2    0    0  0.19266983337E+02 -0.22340704839E+02  0.30530334440E+02  0.10093696703E+03  0.91574266325E+02 0.  0.
         23    2    1    2    0    0 -0.19266983337E+02  0.22340704839E+02 -0.10247022522E+03  0.13984932244E+03  0.90484043849E+02 0.  0.
          5    1    4    4  502    0 -0.34149937195E+02  0.42020353053E+02 -0.10099228696E+03  0.11468853607E+03  0.47000000000E+01 0. -1.
         -5    1    4    4    0  502  0.14882953858E+02 -0.19679648214E+02 -0.14779382636E+01  0.25160786372E+02  0.47000000000E+01 0.  1.
          5    1    3    3  503    0 -0.34911657609E+02 -0.42885085159E+00  0.22394508167E+02  0.41744601401E+02  0.47000000000E+01 0. -1.
         -5    1    3    3    0  503  0.54178640946E+02 -0.21911853987E+02  0.81358262730E+01  0.59192365632E+02  0.47000000000E+01 0.  1.
<mgrwt>
<rscale>  0 0.95948658E+02</rscale>
<asrwt>0</asrwt>
<pdfrwt beam="1">  1        1 0.24055860E-01 0.96208991E+02</pdfrwt>
<pdfrwt beam="2">  1       -1 0.12988185E-01 0.96208991E+02</pdfrwt>
<totfact> 0.74909679E+03</totfact>
</mgrwt>
</event>
<event>
 8    1  0.3466492E-004  0.1150593E+03  0.7546771E-02  0.1253709E+00
          1   -1    0    0  501    0  0.00000000000E+00  0.00000000000E+00  0.67101613667E+03  0.67101613667E+03  0.00000000000E+00 0. -1.
         -1   -1    0    0    0  501 -0.00000000000E+00 -0.00000000000E+00 -0.88470252802E+02  0.88470252802E+02  0.00000000000E+00 0.  1.
         23    2    1    2    0    0 -0.53180949658E+02 -0.45637840027E+02 -0.44120228233E+02  0.12322840016E+03  0.91255784574E+02 0.  0.
         23    2    1    2    0    0  0.53180949658E+02  0.45637840027E+02  0.62666611210E+03  0.63625798931E+03  0.84869235053E+02 0.  0.
          5    1    3    3  502    0 -0.81322989500E+01  0.27483231392E+02 -0.11509078358E+02  0.31241177613E+02  0.47000000000E+01 0. -1.
         -5    1    4    4    0  503 -0.13148522023E+02  0.16712085486E+02  0.43975145282E+02  0.49072200228E+02  0.47000000000E+01 0.  1.
          5    1    4    4  503    0  0.66329471681E+02  0.28925754541E+02  0.58269096682E+03  0.58718578908E+03  0.47000000000E+01 0. -1.
         -5    1    3    3    0  502 -0.45048650708E+02 -0.73121071419E+02 -0.32611149874E+02  0.91987222549E+02  0.47000000000E+01 0.  1.
<mgrwt>
<rscale>  0 0.11378930E+03</rscale>
<asrwt>0</asrwt>
<pdfrwt beam="1">  1        1 0.10323325E+00 0.11505931E+03</pdfrwt>
<pdfrwt beam="2">  1       -1 0.13610809E-01 0.11505931E+03</pdfrwt>
<totfact> 0.11212250E+03</totfact>
</mgrwt>
</event>
<event>
 8    1  0.3466492E-004  0.9495214E+02  0.7546771E-02  0.1297096E+00
          1   -1    0    0  501    0  0.00000000000E+00  0.00000000000E+00  0.40772783773E+03  0.40772783773E+03  0.00000000000E+00 0. -1.
         -1   -1    0    0    0  501 -0.00000000000E+00 -0.00000000000E+00 -0.42493766886E+02  0.42493766886E+02  0.00000000000E+00 0.  1.
         23    2    1    2    0    0 -0.26520946375E+02 -0.10666722051E+02  0.23219903762E+02  0.97750052577E+02  0.90547055679E+02 0.  0.
         23    2    1    2    0    0  0.26520946375E+02  0.10666722051E+02  0.34201416708E+03  0.35247155204E+03  0.80283030314E+02 0.  0.
          5    1    3    3  502    0 -0.22800108537E+02  0.25954538857E+02  0.43272077217E+02  0.55570187180E+02  0.47000000000E+01 0. -1.
         -5    1    3    3    0  502 -0.37208378379E+01 -0.36621260907E+02 -0.20052173455E+02  0.42179865397E+02  0.47000000000E+01 0.  1.
          5    1    4    4  503    0  0.33763108108E+02 -0.20679995580E+02  0.27621170222E+03  0.27907454941E+03  0.47000000000E+01 0. -1.
         -5    1    4    4    0  503 -0.72421617335E+01  0.31346717631E+02  0.65802464865E+02  0.73397002630E+02  0.47000000000E+01 0.  1.
<mgrwt>
<rscale>  0 0.92419661E+02</rscale>
<asrwt>0</asrwt>
<pdfrwt beam="1">  1        1 0.62727357E-01 0.94952140E+02</pdfrwt>
<pdfrwt beam="2">  1       -1 0.65375029E-02 0.94952140E+02</pdfrwt>
<totfact> 0.64756348E+03</totfact>
</mgrwt>
</event>
<event>
 8    1  0.3466492E-004  0.9546875E+02  0.7546771E-02  0.1291389E+00
         -1   -1    0    0    0  501 -0.00000000000E+00  0.00000000000E+00  0.16819319423E+03  0.16819319423E+03  0.00000000000E+00 0.  1.
          1   -1    0    0  501    0  0.00000000000E+00 -0.00000000000E+00 -0.53297034056E+02  0.53297034056E+02  0.00000000000E+00 0. -1.
         23    2    1    2    0    0  0.66640061775E+01  0.16425477996E+02  0.47570042096E+02  0.10466947195E+03  0.91534606283E+02 0.  0.
         23    2    1    2    0    0 -0.66640061775E+01 -0.16425477996E+02  0.67326118080E+02  0.11682075634E+03  0.93808728964E+02 0.  0.
          5    1    4    4  502    0  0.20946753821E+02 -0.26944834207E+02 -0.83471130790E+01  0.35447917891E+02  0.47000000000E+01 0. -1.
         -5    1    3    3    0  503  0.44578278202E+01  0.52780911160E+02  0.14179904184E+02  0.55035047874E+02  0.47000000000E+01 0.  1.
          5    1    3    3  503    0  0.22061783573E+01 -0.36355433165E+02  0.33390137913E+02  0.49634424076E+02  0.47000000000E+01 0. -1.
         -5    1    4    4    0  502 -0.27610759999E+02  0.10519356211E+02  0.75673231159E+02  0.81372838446E+02  0.47000000000E+01 0.  1.
<mgrwt>
<rscale>  0 0.94905381E+02</rscale>
<asrwt>0</asrwt>
<pdfrwt beam="1">  1        1 0.81995438E-02 0.95468754E+02</pdfrwt>
<pdfrwt beam="2">  1       -1 0.25875876E-01 0.95468754E+02</pdfrwt>
<totfact> 0.10046342E+04</totfact>
</mgrwt>
</event>
<event>
 8    1  0.3466492E-004  0.9696428E+02  0.7546771E-02  0.1290166E+00
         -1   -1    0    0    0  501 -0.00000000000E+00  0.00000000000E+00  0.61166578346E+03  0.61166578346E+03  0.00000000000E+00 0.  1.
          1   -1    0    0  501    0  0.00000000000E+00 -0.00000000000E+00 -0.14722616986E+02  0.14722616986E+02  0.00000000000E+00 0. -1.
         23    2    1    2    0    0 -0.29465040520E+02  0.26788544035E+01  0.35048367913E+03  0.36364939298E+03  0.92340168996E+02 0.  0.
         23    2    1    2    0    0  0.29465040520E+02 -0.26788544035E+01  0.24645948735E+03  0.26273900746E+03  0.86105413674E+02 0.  0.
          5    1    3    3  502    0 -0.32716131522E+01  0.44527709256E+02  0.20774827849E+03  0.21254377799E+03  0.47000000000E+01 0. -1.
         -5    1    3    3    0  502 -0.26193427368E+02 -0.41848854853E+02  0.14273540063E+03  0.15110561500E+03  0.47000000000E+01 0.  1.
          5    1    4    4  503    0  0.30071752873E+02  0.38494678473E+02  0.11942319604E+03  0.12911289767E+03  0.47000000000E+01 0. -1.
         -5    1    4    4    0  503 -0.60671235260E+00 -0.41173532876E+02  0.12703629131E+03  0.13362610980E+03  0.47000000000E+01 0.  1.
<mgrwt>
<rscale>  0 0.95449778E+02</rscale>
<asrwt>0</asrwt>
<pdfrwt beam="1">  1        1 0.22650185E-02 0.96964280E+02</pdfrwt>
<pdfrwt beam="2">  1       -1 0.94102408E-01 0.96964280E+02</pdfrwt>
<totfact> 0.54223264E+03</totfact>
</mgrwt>
</event>
<event>
 8    1  0.3466492E-004  0.9384957E+02  0.7546771E-02  0.1294113E+00
          1   -1    0    0  501    0  0.00000000000E+00  0.00000000000E+00  0.50559691668E+02  0.50559691668E+02  0.00000000000E+00 0. -1.
         -1   -1    0    0    0  501 -0.00000000000E+00 -0.00000000000E+00 -0.23018840059E+03  0.23018840059E+03  0.00000000000E+00 0.  1.
         23    2    1    2    0    0 -0.19546713637E+02  0.16403237620E+02 -0.15948244706E+03  0.18476052026E+03  0.89725462974E+02 0.  0.
         23    2    1    2    0    0  0.19546713637E+02 -0.16403237620E+02 -0.20146261860E+02  0.95987572003E+02  0.90313907532E+02 0.  0.
          5    1    3    3  502    0  0.31322250310E+02  0.12543513054E+02 -0.29564415335E+02  0.45106182928E+02  0.47000000000E+01 0. -1.
         -5    1    3    3    0  502 -0.50868963947E+02  0.38597245661E+01 -0.12991803173E+03  0.13965433733E+03  0.47000000000E+01 0.  1.
          5    1    4    4  503    0  0.41294181333E+02  0.19930097131E+02  0.52460363916E+01  0.46389967466E+02  0.47000000000E+01 0. -1.
         -5    1    4    4    0  503 -0.21747467697E+02 -0.36333334751E+02 -0.25392298252E+02  0.49597604537E+02  0.47000000000E+01 0.  1.
<mgrwt>
<rscale>  0 0.93707716E+02</rscale>
<asrwt>0</asrwt>
<pdfrwt beam="1">  1        1 0.77784141E-02 0.93849572E+02</pdfrwt>
<pdfrwt beam="2">  1       -1 0.35413600E-01 0.93849572E+02</pdfrwt>
<totfact> 0.63770339E+03</totfact>
</mgrwt>
</event>
<event>
 8    1  0.3466492E-004  0.1541138E+03  0.7546771E-02  0.1200611E+00
         -2   -1    0    0    0  501 -0.00000000000E+00  0.00000000000E+00  0.29776582616E+02  0.29776582616E+02  0.00000000000E+00 0.  1.
          2   -1    0    0  501    0  0.00000000000E+00 -0.00000000000E+00 -0.93760818886E+03  0.93760818886E+03  0.00000000000E+00 0. -1.
         23    2    1    2    0    0  0.84712204098E+02 -0.64622949574E+02 -0.19972494067E+03  0.24270131190E+03  0.87530518883E+02 0.  0.
         23    2    1    2    0    0 -0.84712204098E+02  0.64622949574E+02 -0.70810666557E+03  0.72468345957E+03  0.11134982543E+03 0.  0.
          5    1    3    3  502    0  0.25634399801E+02 -0.70648059657E+02 -0.13609563375E+03  0.15553900576E+03  0.47000000000E+01 0. -1.
         -5    1    4    4    0  503 -0.45445573792E+02 -0.25757178784E+02 -0.18197137795E+03  0.18937899786E+03  0.47000000000E+01 0.  1.
          5    1    4    4  503    0 -0.39266630306E+02  0.90380128358E+02 -0.52613528762E+03  0.53530446171E+03  0.47000000000E+01 0. -1.
         -5    1    3    3    0  502  0.59077804297E+02  0.60251100836E+01 -0.63629306915E+02  0.87162306134E+02  0.47000000000E+01 0.  1.
<mgrwt>
<rscale>  0 0.14988736E+03</rscale>
<asrwt>0</asrwt>
<pdfrwt beam="1">  1        2 0.14424740E+00 0.15411381E+03</pdfrwt>
<pdfrwt beam="2">  1       -2 0.45810132E-02 0.15411381E+03</pdfrwt>
<totfact> 0.62771627E+03</totfact>
</mgrwt>
</event>
<event>
 8    1  0.3466492E-004  0.1041872E+03  0.7546771E-02  0.1273690E+00
          1   -1    0    0  501    0  0.00000000000E+00  0.00000000000E+00  0.47230612282E+03  0.47230612282E+03  0.00000000000E+00 0. -1.
         -1   -1    0    0    0  501 -0.00000000000E+00 -0.00000000000E+00 -0.22319487357E+02  0.22319487357E+02  0.00000000000E+00 0.  1.
         23    2    1    2    0    0 -0.14003020040E+01  0.43228398212E+02  0.20698077458E+03  0.23172400805E+03  0.94785650826E+02 0.  0.
         23    2    1    2    0    0  0.14003020040E+01 -0.43228398212E+02  0.24300586089E+03  0.26290160213E+03  0.90524851398E+02 0.  0.
          5    1    4    4  502    0  0.21651365208E+02  0.17025806257E+02  0.13175153172E+03  0.13468190600E+03  0.47000000000E+01 0. -1.
         -5    1    4    4    0  502 -0.20251063204E+02 -0.60254204469E+02  0.11125432917E+03  0.12821969613E+03  0.47000000000E+01 0.  1.
          5    1    3    3  503    0  0.34424847252E+02  0.20640053283E+02  0.31767988838E+02  0.51404056481E+02  0.47000000000E+01 0. -1.
         -5    1    3    3    0  503 -0.35825149256E+02  0.22588344929E+02  0.17521278574E+03  0.18031995157E+03  0.47000000000E+01 0.  1.
<mgrwt>
<rscale>  0 0.10320832E+03</rscale>
<asrwt>0</asrwt>
<pdfrwt beam="1">  1        1 0.72662473E-01 0.10418721E+03</pdfrwt>
<pdfrwt beam="2">  1       -1 0.34337677E-02 0.10418721E+03</pdfrwt>
<totfact> 0.13915494E+04</totfact>
</mgrwt>
</event>
<event>
 7    1  0.3466492E-004  0.1404043E+03  0.7546771E-02  0.1225128E+00
         -2   -1    0    0    0  501 -0.00000000000E+00  0.00000000000E+00  0.55025393826E+03  0.55025393826E+03  0.00000000000E+00 0.  1.
          2   -1    0    0  501    0  0.00000000000E+00 -0.00000000000E+00 -0.39548300078E+02  0.39548300078E+02  0.00000000000E+00 0. -1.
         23    2    1    2    0    0 -0.25528012331E+02 -0.52090999304E+02  0.38963558731E+03  0.40440719251E+03  0.91455644113E+02 0.  0.
          5    1    1    2  502    0 -0.36686249884E+02  0.49808167070E+02  0.17495431950E+02  0.64458626859E+02  0.47000000000E+01 0. -1.
         -5    1    3    3    0  503  0.18032815731E+02 -0.56423857314E+02  0.16202622950E+03  0.17257874482E+03  0.47000000000E+01 0.  1.
          5    1    3    3  503    0 -0.43560828062E+02  0.43328580097E+01  0.22760935781E+03  0.23182844770E+03  0.47000000000E+01 0. -1.
         -5    1    1    2    0  502  0.62214262215E+02  0.22828322340E+01  0.10357461892E+03  0.12093641896E+03  0.47000000000E+01 0.  1.
<mgrwt>
<rscale>  0 0.13158132E+03</rscale>
<asrwt>0</asrwt>
<pdfrwt beam="1">  1        2 0.60843542E-02 0.14040429E+03</pdfrwt>
<pdfrwt beam="2">  1       -2 0.84654447E-01 0.14040429E+03</pdfrwt>
<totfact> 0.14747726E+03</totfact>
</mgrwt>
</event>
<event>
 8    1  0.3466492E-004  0.1731626E+03  0.7546771E-02  0.1174972E+00
         -3   -1    0    0    0  501 -0.00000000000E+00  0.00000000000E+00  0.33613340784E+03  0.33613340784E+03  0.00000000000E+00 0.  1.
          3   -1    0    0  501    0  0.00000000000E+00 -0.00000000000E+00 -0.16402691575E+03  0.16402691575E+03  0.00000000000E+00 0. -1.
         23    2    1    2    0    0 -0.12586656557E+03  0.69003300772E+02  0.25602000298E+03  0.30908177696E+03  0.96857911780E+02 0.  0.
         23    2    1    2    0    0  0.12586656557E+03 -0.69003300772E+02 -0.83913510892E+02  0.19107854664E+03  0.94157770941E+02 0.  0.
          5    1    3    3  502    0 -0.71316939065E+02  0.84139154374E+02  0.20448655634E+03  0.23238404597E+03  0.47000000000E+01 0.  1.
         -5    1    4    4    0  503  0.12918507678E+02 -0.51893305732E+02 -0.45782229477E+02  0.70554273835E+02  0.47000000000E+01 0.  1.
          5    1    4    4  503    0  0.11294805789E+03 -0.17109995040E+02 -0.38131281414E+02  0.12052427280E+03  0.47000000000E+01 0. -1.
         -5    1    3    3    0  502 -0.54549626508E+02 -0.15135853602E+02  0.51533446642E+02  0.76697730991E+02  0.47000000000E+01 0. -1.
<mgrwt>
<rscale>  0 0.17278750E+03</rscale>
<asrwt>0</asrwt>
<pdfrwt beam="1">  1        3 0.25234910E-01 0.17316265E+03</pdfrwt>
<pdfrwt beam="2">  1       -3 0.51712832E-01 0.17316265E+03</pdfrwt>
<totfact> 0.13274639E+02</totfact>
</mgrwt>
</event>
<event>
 8    1  0.3466492E-004  0.9749970E+02  0.7546771E-02  0.1288056E+00
          2   -1    0    0  501    0  0.00000000000E+00  0.00000000000E+00  0.32506473256E+03  0.32506473256E+03  0.00000000000E+00 0. -1.
         -2   -1    0    0    0  501 -0.00000000000E+00 -0.00000000000E+00 -0.33986041361E+02  0.33986041361E+02  0.00000000000E+00 0.  1.
         23    2    1    2    0    0  0.17083035679E+02 -0.17019271278E+02  0.22383501916E+03  0.24414812728E+03  0.94470665028E+02 0.  0.
         23    2    1    2    0    0 -0.17083035679E+02  0.17019271278E+02  0.67243672036E+02  0.11490264663E+03  0.89996783674E+02 0.  0.
          5    1    3    3  502    0 -0.58725293939E+01 -0.40999667190E+02  0.19654870376E+03  0.20092023855E+03  0.47000000000E+01 0. -1.
         -5    1    3    3    0  502  0.22955565073E+02  0.23980395912E+02  0.27286315404E+02  0.43227888733E+02  0.47000000000E+01 0.  1.
          5    1    4    4  503    0  0.24828330229E+02  0.24485132405E+02  0.10162308967E-01  0.35186045446E+02  0.47000000000E+01 0. -1.
         -5    1    4    4    0  503 -0.41911365909E+02 -0.74658611272E+01  0.67233509727E+02  0.79716601188E+02  0.47000000000E+01 0.  1.
<mgrwt>
<rscale>  0 0.96399129E+02</rscale>
<asrwt>0</asrwt>
<pdfrwt beam="1">  1        2 0.50009957E-01 0.97499704E+02</pdfrwt>
<pdfrwt beam="2">  1       -2 0.52286220E-02 0.97499704E+02</pdfrwt>
<totfact> 0.16665668E+04</totfact>
</mgrwt>
</event>
<event>
 8    1  0.3466492E-004  0.1061466E+03  0.7546771E-02  0.1268299E+00
         -1   -1    0    0    0  501 -0.00000000000E+00  0.00000000000E+00  0.19388097111E+03  0.19388097111E+03  0.00000000000E+00 0.  1.
          1   -1    0    0  501    0  0.00000000000E+00 -0.00000000000E+00 -0.65299312848E+02  0.65299312848E+02  0.00000000000E+00 0. -1.
         23    2    1    2    0    0  0.18650706754E+02 -0.50571718541E+02  0.20141664523E+02  0.10804068646E+03  0.91442636126E+02 0.  0.
         23    2    1    2    0    0 -0.18650706754E+02  0.50571718541E+02  0.10843999374E+03  0.15113959750E+03  0.90435602014E+02 0.  0.
          5    1    4    4  502    0 -0.54775383391E+02  0.34202020082E+02  0.59127898551E+02  0.87683061023E+02  0.47000000000E+01 0. -1.
         -5    1    3    3    0  503  0.53725689869E+02 -0.39494175980E+02  0.23383500319E+02  0.70817496252E+02  0.47000000000E+01 0.  1.
          5    1    3    3  503    0 -0.35074983115E+02 -0.11077542561E+02 -0.32418357959E+01  0.37223190205E+02  0.47000000000E+01 0. -1.
         -5    1    4    4    0  502  0.36124676637E+02  0.16369698460E+02  0.49312095186E+02  0.63456536475E+02  0.47000000000E+01 0.  1.
<mgrwt>
<rscale>  0 0.10592937E+03</rscale>
<asrwt>0</asrwt>
<pdfrwt beam="1">  1        1 0.10046048E-01 0.10614661E+03</pdfrwt>
<pdfrwt beam="2">  1       -1 0.29827841E-01 0.10614661E+03</pdfrwt>
<totfact> 0.61323762E+03</totfact>
</mgrwt>
</event>
<event>
 8    1  0.3466492E-004  0.1025740E+03  0.7546771E-02  0.1279666E+00
         -1   -1    0    0    0  501 -0.00000000000E+00  0.00000000000E+00  0.56030675217E+02  0.56030675217E+02  0.00000000000E+00 0.  1.
          1   -1    0    0  501    0  0.00000000000E+00 -0.00000000000E+00 -0.38082001178E+03  0.38082001178E+03  0.00000000000E+00 0. -1.
         23    2    1    2    0    0 -0.22377614488E+02  0.26548989830E+01 -0.40181443808E+01  0.10265266694E+03  0.10006806897E+03 0.  0.
         23    2    1    2    0    0  0.22377614488E+02 -0.26548989830E+01 -0.32077119218E+03  0.33419802005E+03  0.91029406001E+02 0.  0.
          5    1    4    4  502    0  0.10516081126E+02  0.42680688706E+02 -0.11747313411E+03  0.12551596069E+03  0.47000000000E+01 0. -1.
         -5    1    4    4    0  502  0.11861533361E+02 -0.45335587689E+02 -0.20329805807E+03  0.20868205936E+03  0.47000000000E+01 0.  1.
          5    1    3    3  503    0  0.29966674856E+02  0.19525421108E+02  0.21336441601E+02  0.41911542701E+02  0.47000000000E+01 0. -1.
         -5    1    3    3    0  503 -0.52344289344E+02 -0.16870522125E+02 -0.25354585981E+02  0.60741124240E+02  0.47000000000E+01 0.  1.
<mgrwt>
<rscale>  0 0.10030030E+03</rscale>
<asrwt>0</asrwt>
<pdfrwt beam="1">  1        1 0.58587693E-01 0.10257400E+03</pdfrwt>
<pdfrwt beam="2">  1       -1 0.86201041E-02 0.10257400E+03</pdfrwt>
<totfact> 0.46908160E+03</totfact>
</mgrwt>
</event>
<event>
 8    1  0.3466492E-004  0.1119353E+03  0.7546771E-02  0.1266750E+00
          1   -1    0    0  501    0  0.00000000000E+00  0.00000000000E+00  0.49555170571E+03  0.49555170571E+03  0.00000000000E+00 0. -1.
         -1   -1    0    0    0  501 -0.00000000000E+00 -0.00000000000E+00 -0.36935063056E+02  0.36935063056E+02  0.00000000000E+00 0.  1.
         23    2    1    2    0    0 -0.79938969724E+01  0.66494452241E+01  0.39081782033E+03  0.40161972825E+03  0.91933236251E+02 0.  0.
         23    2    1    2    0    0  0.79938969724E+01 -0.66494452241E+01  0.67798822325E+02  0.13086704051E+03  0.11145126501E+03 0.  0.
          5    1    3    3  502    0  0.20839183336E+02  0.31265539725E+02  0.30912904601E+03  0.31143966129E+03  0.47000000000E+01 0. -1.
         -5    1    4    4    0  503  0.47474265704E+02 -0.35685707394E+02  0.21655188995E+02  0.63390163486E+02  0.47000000000E+01 0.  1.
          5    1    4    4  503    0 -0.39480368732E+02  0.29036262170E+02  0.46143633331E+02  0.67476877024E+02  0.47000000000E+01 0. -1.
         -5    1    3    3    0  502 -0.28833080309E+02 -0.24616094500E+02  0.81688774313E+02  0.90180066962E+02  0.47000000000E+01 0.  1.
<mgrwt>
<rscale>  0 0.10672923E+03</rscale>
<asrwt>0</asrwt>
<pdfrwt beam="1">  1        1 0.76238719E-01 0.11193526E+03</pdfrwt>
<pdfrwt beam="2">  1       -1 0.56823177E-02 0.11193526E+03</pdfrwt>
<totfact> 0.62906969E+03</totfact>
</mgrwt>
</event>
<event>
 8    1  0.3466492E-004  0.1024277E+03  0.7546771E-02  0.1285044E+00
         -2   -1    0    0    0  501 -0.00000000000E+00  0.00000000000E+00  0.14703853304E+03  0.14703853304E+03  0.00000000000E+00 0.  1.
          2   -1    0    0  501    0  0.00000000000E+00 -0.00000000000E+00 -0.21772347413E+03  0.21772347413E+03  0.00000000000E+00 0. -1.
         23    2    1    2    0    0  0.15192385129E+02  0.42450667535E+02  0.12072148919E+03  0.14767250507E+03  0.72115345540E+02 0.  0.
         23    2    1    2    0    0 -0.15192385129E+02 -0.42450667535E+02 -0.19140643027E+03  0.21708950210E+03  0.91970444345E+02 0.  0.
          5    1    4    4  502    0  0.33988786797E+02 -0.36206081435E+02 -0.12075082623E+03  0.13064826825E+03  0.47000000000E+01 0. -1.
         -5    1    4    4    0  502 -0.49181171926E+02 -0.62445861007E+01 -0.70655604041E+02  0.86441233853E+02  0.47000000000E+01 0.  1.
          5    1    3    3  503    0 -0.16240559669E+02  0.12791880745E+02  0.20623022083E+01  0.21300964339E+02  0.47000000000E+01 0. -1.
         -5    1    3    3    0  503  0.31432944798E+02  0.29658786790E+02  0.11865918698E+03  0.12637154073E+03  0.47000000000E+01 0.  1.
<mgrwt>
<rscale>  0 0.97775829E+02</rscale>
<asrwt>0</asrwt>
<pdfrwt beam="1">  1        2 0.33495919E-01 0.10242768E+03</pdfrwt>
<pdfrwt beam="2">  1       -2 0.22621313E-01 0.10242768E+03</pdfrwt>
<totfact> 0.25194302E+03</totfact>
</mgrwt>
</event>
<event>
 8    1  0.3466492E-004  0.1092163E+03  0.7546771E-02  0.1263302E+00
          2   -1    0    0  501    0  0.00000000000E+00  0.00000000000E+00  0.36429102449E+03  0.36429102449E+03  0.00000000000E+00 0. -1.
         -2   -1    0    0    0  501 -0.00000000000E+00 -0.00000000000E+00 -0.32464588434E+02  0.32464588434E+02  0.00000000000E+00 0.  1.
         23    2    1    2    0    0 -0.54873629572E+02  0.84403585085E+00  0.19310416448E+03  0.22184997732E+03  0.94426513627E+02 0.  0.
         23    2    1    2    0    0  0.54873629572E+02 -0.84403585085E+00  0.13872227158E+03  0.17490563561E+03  0.91303259076E+02 0.  0.
          5    1    4    4  502    0  0.35131526834E+01 -0.31896478283E+02  0.11946637964E+02  0.34562114045E+02  0.47000000000E+01 0. -1.
         -5    1    4    4    0  502  0.51360476888E+02  0.31052442432E+02  0.12677563361E+03  0.14034352156E+03  0.47000000000E+01 0.  1.
          5    1    3    3  503    0  0.20214008641E+02 -0.22242317342E+02  0.49685660303E+02  0.58258747548E+02  0.47000000000E+01 0. -1.
         -5    1    3    3    0  503 -0.75087638213E+02  0.23086353192E+02  0.14341850418E+03  0.16359122977E+03  0.47000000000E+01 0.  1.
<mgrwt>
<rscale>  0 0.10853779E+03</rscale>
<asrwt>0</asrwt>
<pdfrwt beam="1">  1        2 0.56044770E-01 0.10921627E+03</pdfrwt>
<pdfrwt beam="2">  1       -2 0.49945523E-02 0.10921627E+03</pdfrwt>
<totfact> 0.16000466E+04</totfact>
</mgrwt>
</event>
<event>
 8    1  0.3466492E-004  0.1368554E+03  0.7546771E-02  0.1217672E+00
         -1   -1    0    0    0  501 -0.00000000000E+00  0.00000000000E+00  0.21492723914E+02  0.21492723914E+02  0.00000000000E+00 0.  1.
          1   -1    0    0  501    0  0.00000000000E+00 -0.00000000000E+00 -0.98542635601E+03  0.98542635601E+03  0.00000000000E+00 0. -1.
         23    2    1    2    0    0  0.10158543897E+03  0.12290504267E+02 -0.65365103040E+03  0.66779566371E+03  0.90668191853E+02 0.  0.
         23    2    1    2    0    0 -0.10158543897E+03 -0.12290504267E+02 -0.31028260170E+03  0.33912341622E+03  0.90877613342E+02 0.  0.
          5    1    3    3  502    0 -0.91212859253E+01  0.20836439599E+02 -0.73035861798E+02  0.76639951596E+02  0.47000000000E+01 0. -1.
         -5    1    3    3    0  502  0.11070672490E+03 -0.85459353315E+01 -0.58061516860E+03  0.59115571211E+03  0.47000000000E+01 0.  1.
          5    1    4    4  503    0 -0.82791966970E+02  0.10320454509E+02 -0.29302749217E+03  0.30471006341E+03  0.47000000000E+01 0. -1.
         -5    1    4    4    0  503 -0.18793472003E+02 -0.22610958777E+02 -0.17255109523E+02  0.34413352807E+02  0.47000000000E+01 0.  1.
<mgrwt>
<rscale>  0 0.13682064E+03</rscale>
<asrwt>0</asrwt>
<pdfrwt beam="1">  1        1 0.15160401E+00 0.13685539E+03</pdfrwt>
<pdfrwt beam="2">  1       -1 0.33065739E-02 0.13685539E+03</pdfrwt>
<totfact> 0.52237755E+03</totfact>
</mgrwt>
</event>
<event>
 8    1  0.3466492E-004  0.1087867E+03  0.7546771E-02  0.1263185E+00
          1   -1    0    0  501    0  0.00000000000E+00  0.00000000000E+00  0.18417208984E+03  0.18417208984E+03  0.00000000000E+00 0. -1.
         -1   -1    0    0    0  501 -0.00000000000E+00 -0.00000000000E+00 -0.63850148681E+02  0.63850148681E+02  0.00000000000E+00 0.  1.
         23    2    1    2    0    0 -0.23252183715E+02  0.53897075344E+02  0.62692746447E+02  0.12491387600E+03  0.90705772601E+02 0.  0.
         23    2    1    2    0    0  0.23252183715E+02 -0.53897075344E+02  0.57629194714E+02  0.12310836252E+03  0.91591408223E+02 0.  0.
          5    1    4    4  502    0 -0.22337076344E+02 -0.50417630821E+02  0.53475230379E+02  0.76958253237E+02  0.47000000000E+01 0. -1.
         -5    1    4    4    0  502  0.45589260059E+02 -0.34794445233E+01  0.41539643343E+01  0.46150109281E+02  0.47000000000E+01 0.  1.
          5    1    3    3  503    0  0.33156654096E+02  0.86765764380E+01  0.28399970856E+02  0.44758183991E+02  0.47000000000E+01 0. -1.
         -5    1    3    3    0  503 -0.56408837811E+02  0.45220498906E+02  0.34292775591E+02  0.80155692014E+02  0.47000000000E+01 0.  1.
<mgrwt>
<rscale>  0 0.10860007E+03</rscale>
<asrwt>0</asrwt>
<pdfrwt beam="1">  1        1 0.28334168E-01 0.10878669E+03</pdfrwt>
<pdfrwt beam="2">  1       -1 0.98230998E-02 0.10878669E+03</pdfrwt>
<totfact> 0.94581159E+03</totfact>
</mgrwt>
</event>
<event>
 8    1  0.4992499E-004  0.1265480E+03  0.7546771E-02  0.1234660E+00
          3   -1    0    0  501    0  0.00000000000E+00  0.00000000000E+00  0.11804594650E+04  0.11804594650E+04  0.00000000000E+00 0. -1.
         -3   -1    0    0    0  501 -0.00000000000E+00 -0.00000000000E+00 -0.41384899565E+02  0.41384899565E+02  0.00000000000E+00 0.  1.
         23    2    1    2    0    0 -0.19242864210E+01 -0.84399842091E+02  0.10715379045E+04  0.10784024269E+04  0.87357182798E+02 0.  0.
         23    2    1    2    0    0  0.19242864210E+01  0.84399842091E+02  0.67536660996E+02  0.14344193770E+03  0.94272756885E+02 0.  0.
          5    1    3    3  502    0  0.25439908820E+02 -0.87974182207E+02  0.89111798226E+03  0.89582364001E+03  0.47000000000E+01 0. -1.
         -5    1    4    4    0  503 -0.31150846301E+02  0.75690636382E+02  0.71380413568E+02  0.10870465079E+03  0.47000000000E+01 0.  1.
          5    1    4    4  503    0  0.33075132722E+02  0.87092057085E+01 -0.38437525723E+01  0.34737286919E+02  0.47000000000E+01 0. -1.
         -5    1    3    3    0  502 -0.27364195241E+02  0.35743401162E+01  0.18041992222E+03  0.18257878689E+03  0.47000000000E+01 0.  1.
<mgrwt>
<rscale>  0 0.12526247E+03</rscale>
<asrwt>0</asrwt>
<pdfrwt beam="1">  1        3 0.18160912E+00 0.12654797E+03</pdfrwt>
<pdfrwt beam="2">  1       -3 0.63669085E-02 0.12654797E+03</pdfrwt>
<totfact> 0.76111325E+01</totfact>
</mgrwt>
</event>
<event>
 8    1  0.3466492E-004  0.9455742E+02  0.7546771E-02  0.1293228E+00
         -1   -1    0    0    0  501 -0.00000000000E+00  0.00000000000E+00  0.11394005835E+03  0.11394005835E+03  0.00000000000E+00 0.  1.
          1   -1    0    0  501    0  0.00000000000E+00 -0.00000000000E+00 -0.11489427943E+03  0.11489427943E+03  0.00000000000E+00 0. -1.
         23    2    1    2    0    0  0.19881606399E+02 -0.11038783310E+02  0.65272130631E+02  0.11339155910E+03  0.89889163019E+02 0.  0.
         23    2    1    2    0    0 -0.19881606399E+02  0.11038783310E+02 -0.66226351706E+02  0.11544277867E+03  0.91782201312E+02 0.  0.
          5    1    3    3  502    0  0.43126113527E+01 -0.44311819969E+02  0.84396731179E+01  0.45557151886E+02  0.47000000000E+01 0. -1.
         -5    1    3    3    0  502  0.15568995046E+02  0.33273036659E+02  0.56832457513E+02  0.67834407215E+02  0.47000000000E+01 0.  1.
          5    1    4    4  503    0 -0.12875638082E+01 -0.20107779780E+02 -0.75021676163E+02  0.77822378032E+02  0.47000000000E+01 0. -1.
         -5    1    4    4    0  503 -0.18594042591E+02  0.31146563090E+02  0.87953244569E+01  0.37620400642E+02  0.47000000000E+01 0.  1.
<mgrwt>
<rscale>  0 0.94094947E+02</rscale>
<asrwt>0</asrwt>
<pdfrwt beam="1">  1        1 0.17676043E-01 0.94557419E+02</pdfrwt>
<pdfrwt beam="2">  1       -1 0.17529240E-01 0.94557419E+02</pdfrwt>
<totfact> 0.69128463E+03</totfact>
</mgrwt>
</event>
<event>
 8    1  0.3466492E-004  0.1209704E+03  0.7546771E-02  0.1243172E+00
         -2   -1    0    0    0  501 -0.00000000000E+00  0.00000000000E+00  0.33031927578E+03  0.33031927578E+03  0.00000000000E+00 0.  1.
          2   -1    0    0  501    0  0.00000000000E+00 -0.00000000000E+00 -0.53962161515E+02  0.53962161515E+02  0.00000000000E+00 0. -1.
         23    2    1    2    0    0  0.99602139602E+01  0.74889430861E+02  0.49126593311E+02  0.12685658571E+03  0.89283472442E+02 0.  0.
         23    2    1    2    0    0 -0.99602139602E+01 -0.74889430861E+02  0.22723052095E+03  0.25742485158E+03  0.94478631670E+02 0.  0.
          5    1    4    4  502    0 -0.29752937078E+02  0.11063273452E+02  0.71930629892E+02  0.78763816571E+02  0.47000000000E+01 0. -1.
         -5    1    4    4    0  502  0.19792723118E+02 -0.85952704313E+02  0.15529989106E+03  0.17866103501E+03  0.47000000000E+01 0.  1.
          5    1    3    3  503    0 -0.37902569532E+02  0.45245709162E+02  0.15871833625E+02  0.61300767347E+02  0.47000000000E+01 0. -1.
         -5    1    3    3    0  503  0.47862783492E+02  0.29643721700E+02  0.33254759686E+02  0.65555818366E+02  0.47000000000E+01 0.  1.
<mgrwt>
<rscale>  0 0.11995459E+03</rscale>
<asrwt>0</asrwt>
<pdfrwt beam="1">  1        2 0.83018712E-02 0.12097043E+03</pdfrwt>
<pdfrwt beam="2">  1       -2 0.50818349E-01 0.12097043E+03</pdfrwt>
<totfact> 0.28710657E+03</totfact>
</mgrwt>
</event>
<event>
 8    1  0.3466492E-004  0.1198384E+03  0.7546771E-02  0.1244368E+00
         -1   -1    0    0    0  501 -0.00000000000E+00  0.00000000000E+00  0.36303162573E+02  0.36303162573E+02  0.00000000000E+00 0.  1.
          1   -1    0    0  501    0  0.00000000000E+00 -0.00000000000E+00 -0.43748085346E+03  0.43748085346E+03  0.00000000000E+00 0. -1.
         23    2    1    2    0    0 -0.78355699583E+02  0.16480623038E+01 -0.11887663276E+03  0.16709994216E+03  0.87455160448E+02 0.  0.
         23    2    1    2    0    0  0.78355699583E+02 -0.16480623038E+01 -0.28230105813E+03  0.30668407387E+03  0.90658160017E+02 0.  0.
          5    1    3    3  502    0 -0.31045136836E+02 -0.29253870801E+02 -0.97453801782E+02  0.10648437895E+03  0.47000000000E+01 0. -1.
         -5    1    3    3    0  502 -0.47310562746E+02  0.30901933105E+02 -0.21422830974E+02  0.60615563216E+02  0.47000000000E+01 0.  1.
          5    1    4    4  503    0  0.62735119172E+02  0.40063041232E+02 -0.18920388845E+03  0.20337390161E+03  0.47000000000E+01 0. -1.
         -5    1    4    4    0  503  0.15620580411E+02 -0.41711103536E+02 -0.93097169682E+02  0.10331017227E+03  0.47000000000E+01 0.  1.
<mgrwt>
<rscale>  0 0.11923269E+03</rscale>
<asrwt>0</asrwt>
<pdfrwt beam="1">  1        1 0.67304747E-01 0.11983837E+03</pdfrwt>
<pdfrwt beam="2">  1       -1 0.55851019E-02 0.11983837E+03</pdfrwt>
<totfact> 0.76033866E+03</totfact>
</mgrwt>
</event>
<event>
 8    1  0.3466492E-004  0.9553573E+02  0.7546771E-02  0.1290831E+00
         -1   -1    0    0    0  501 -0.00000000000E+00  0.00000000000E+00  0.25057918938E+02  0.25057918938E+02  0.00000000000E+00 0.  1.
          1   -1    0    0  501    0  0.00000000000E+00 -0.00000000000E+00 -0.45091825797E+03  0.45091825797E+03  0.00000000000E+00 0. -1.
         23    2    1    2    0    0  0.37378774011E+02 -0.22820473484E+01 -0.10652789047E+03  0.14309181364E+03  0.87890245169E+02 0.  0.
         23    2    1    2    0    0 -0.37378774011E+02  0.22820473484E+01 -0.31933244856E+03  0.33288436327E+03  0.86234599309E+02 0.  0.
          5    1    4    4  502    0 -0.29924013907E+02 -0.40264824013E+02 -0.18164553406E+03  0.18850435726E+03  0.47000000000E+01 0. -1.
         -5    1    3    3    0  503  0.59867979364E+02 -0.21231090530E+02 -0.85578186811E+02  0.10668013037E+03  0.47000000000E+01 0.  1.
          5    1    3    3  503    0 -0.22489205354E+02  0.18949043182E+02 -0.20949703657E+02  0.36411683266E+02  0.47000000000E+01 0. -1.
         -5    1    4    4    0  502 -0.74547601037E+01  0.42546871362E+02 -0.13768691450E+03  0.14438000601E+03  0.47000000000E+01 0.  1.
<mgrwt>
<rscale>  0 0.95153211E+02</rscale>
<asrwt>0</asrwt>
<pdfrwt beam="1">  1        1 0.69372039E-01 0.95535730E+02</pdfrwt>
<pdfrwt beam="2">  1       -1 0.38550645E-02 0.95535730E+02</pdfrwt>
<totfact> 0.12382968E+04</totfact>
</mgrwt>
</event>
<event>
 8    1  0.3466492E-004  0.9975594E+02  0.7546771E-02  0.1282871E+00
         -2   -1    0    0    0  501 -0.00000000000E+00  0.00000000000E+00  0.39366157006E+02  0.39366157006E+02  0.00000000000E+00 0.  1.
          2   -1    0    0  501    0  0.00000000000E+00 -0.00000000000E+00 -0.24372466400E+03  0.24372466400E+03  0.00000000000E+00 0. -1.
         23    2    1    2    0    0 -0.23219500069E+02  0.19663164378E+02 -0.97504126703E+02  0.13949302068E+03  0.95002436160E+02 0.  0.
         23    2    1    2    0    0  0.23219500069E+02 -0.19663164378E+02 -0.10685438030E+03  0.14359780033E+03  0.90976285129E+02 0.  0.
          5    1    3    3  502    0 -0.29568504483E+02 -0.17201496215E+02 -0.95710812757E+02  0.10174889487E+03  0.47000000000E+01 0. -1.
         -5    1    4    4    0  503  0.31569045282E+02  0.11429306122E+02 -0.21666359974E+01  0.33970839996E+02  0.47000000000E+01 0.  1.
          5    1    4    4  503    0 -0.83495452131E+01 -0.31092470499E+02 -0.10468774430E+03  0.10962696034E+03  0.47000000000E+01 0. -1.
         -5    1    3    3    0  502  0.63490044136E+01  0.36864660592E+02 -0.17933139457E+01  0.37744125802E+02  0.47000000000E+01 0.  1.
<mgrwt>
<rscale>  0 0.98785257E+02</rscale>
<asrwt>0</asrwt>
<pdfrwt beam="1">  1        2 0.37496102E-01 0.99755943E+02</pdfrwt>
<pdfrwt beam="2">  1       -2 0.60563319E-02 0.99755943E+02</pdfrwt>
<totfact> 0.18133199E+04</totfact>
</mgrwt>
</event>
<event>
 8    1  0.3640767E-004  0.9714823E+02  0.7546771E-02  0.1289089E+00
         -3   -1    0    0    0  501 -0.00000000000E+00  0.00000000000E+00  0.22568211054E+03  0.22568211054E+03  0.00000000000E+00 0.  1.
          3   -1    0    0  501    0  0.00000000000E+00 -0.00000000000E+00 -0.99937729072E+02  0.99937729072E+02  0.00000000000E+00 0. -1.
         23    2    1    2    0    0 -0.98900119300E+01  0.25660251898E+02 -0.62787972453E+02  0.11567241569E+03  0.93174660742E+02 0.  0.
         23    2    1    2    0    0  0.98900119300E+01 -0.25660251898E+02  0.18853235392E+03  0.20994742392E+03  0.88188499654E+02 0.  0.
          5    1    3    3  502    0 -0.27940950223E+02  0.74057456209E+00 -0.76557303938E+02  0.81635506591E+02  0.47000000000E+01 0. -1.
         -5    1    3    3    0  502  0.18050938293E+02  0.24919677336E+02  0.13769331485E+02  0.34036909104E+02  0.47000000000E+01 0.  1.
          5    1    4    4  503    0 -0.34776150400E+02  0.83090625129E+01  0.72939509170E+02  0.81367580488E+02  0.47000000000E+01 0. -1.
         -5    1    4    4    0  503  0.44666162330E+02 -0.33969314411E+02  0.11559284475E+03  0.12857984343E+03  0.47000000000E+01 0.  1.
<mgrwt>
<rscale>  0 0.95932748E+02</rscale>
<asrwt>0</asrwt>
<pdfrwt beam="1">  1        3 0.15375035E-01 0.97148228E+02</pdfrwt>
<pdfrwt beam="2">  1       -3 0.34720324E-01 0.97148228E+02</pdfrwt>
<totfact> 0.63616875E+02</totfact>
</mgrwt>
</event>
<event>
 8    1  0.3466492E-004  0.1170000E+03  0.7546771E-02  0.1254171E+00
          4   -1    0    0  501    0  0.00000000000E+00  0.00000000000E+00  0.11340174564E+03  0.11340174564E+03  0.00000000000E+00 0. -1.
         -4   -1    0    0    0  501 -0.00000000000E+00 -0.00000000000E+00 -0.13761634420E+03  0.13761634420E+03  0.00000000000E+00 0.  1.
         23    2    1    2    0    0  0.45308589577E+02 -0.15375520802E+02  0.47187337314E+02  0.11395159190E+03  0.92027417465E+02 0.  0.
         23    2    1    2    0    0 -0.45308589577E+02  0.15375520802E+02 -0.71401935866E+02  0.13706649794E+03  0.10676944077E+03 0.  0.
          5    1    3    3  502    0  0.13805783399E+02  0.22054974705E+02 -0.18239203710E+02  0.32121334288E+02  0.47000000000E+01 0. -1.
         -5    1    3    3    0  502  0.31502806178E+02 -0.37430495507E+02  0.65426541024E+02  0.81830257615E+02  0.47000000000E+01 0.  1.
          5    1    4    4  503    0  0.14755660677E+02  0.25494817722E+02  0.13276535601E+02  0.32650752675E+02  0.47000000000E+01 0. -1.
         -5    1    4    4    0  503 -0.60064250254E+02 -0.10119296920E+02 -0.84678471467E+02  0.10441574526E+03  0.47000000000E+01 0.  1.
<mgrwt>
<rscale>  0 0.11352913E+03</rscale>
<asrwt>0</asrwt>
<pdfrwt beam="1">  1        4 0.17446422E-01 0.11699995E+03</pdfrwt>
<pdfrwt beam="2">  1       -4 0.21171745E-01 0.11699995E+03</pdfrwt>
<totfact> 0.93835617E+02</totfact>
</mgrwt>
</event>
<event>
 8    1  0.3466492E-004  0.9215582E+02  0.7546771E-02  0.1297847E+00
          3   -1    0    0  501    0  0.00000000000E+00  0.00000000000E+00  0.15176364182E+02  0.15176364182E+02  0.00000000000E+00 0. -1.
         -3   -1    0    0    0  501 -0.00000000000E+00 -0.00000000000E+00 -0.56499435244E+03  0.56499435244E+03  0.00000000000E+00 0.  1.
         23    2    1    2    0    0  0.77336576725E+01 -0.54530179502E+01 -0.24347634474E+03  0.26033329728E+03  0.91668698905E+02 0.  0.
         23    2    1    2    0    0 -0.77336576725E+01  0.54530179502E+01 -0.30634164351E+03  0.31983741934E+03  0.91439747335E+02 0.  0.
          5    1    3    3  502    0 -0.33081785544E+02 -0.20359111617E+02 -0.17328085467E+03  0.17764358293E+03  0.47000000000E+01 0. -1.
         -5    1    4    4    0  503  0.18162884236E+02  0.41951378991E+02 -0.17796884253E+03  0.18380644025E+03  0.47000000000E+01 0.  1.
          5    1    4    4  503    0 -0.25896541908E+02 -0.36498361041E+02 -0.12837280098E+03  0.13603097909E+03  0.47000000000E+01 0. -1.
         -5    1    3    3    0  502  0.40815443217E+02  0.14906093667E+02 -0.70195490072E+02  0.82689714353E+02  0.47000000000E+01 0.  1.
<mgrwt>
<rscale>  0 0.92098833E+02</rscale>
<asrwt>0</asrwt>
<pdfrwt beam="1">  1        3 0.23348253E-02 0.92155820E+02</pdfrwt>
<pdfrwt beam="2">  1       -3 0.86922207E-01 0.92155820E+02</pdfrwt>
<totfact> 0.19905076E+03</totfact>
</mgrwt>
</event>
<event>
 8    1  0.3466492E-004  0.1118102E+03  0.7546771E-02  0.1261192E+00
          1   -1    0    0  501    0  0.00000000000E+00  0.00000000000E+00  0.32372892988E+03  0.32372892988E+03  0.00000000000E+00 0. -1.
         -1   -1    0    0    0  501 -0.00000000000E+00 -0.00000000000E+00 -0.38927690460E+02  0.38927690460E+02  0.00000000000E+00 0.  1.
         23    2    1    2    0    0  0.45925728661E+02 -0.41501512978E+02  0.85895055742E+02  0.13447865955E+03  0.82915626633E+02 0.  0.
         23    2    1    2    0    0 -0.45925728661E+02  0.41501512978E+02  0.19890618368E+03  0.22817796080E+03  0.93112640143E+02 0.  0.
          5    1    3    3  502    0 -0.31253687900E+01 -0.48696623953E+02  0.62573164593E+02  0.79489748029E+02  0.47000000000E+01 0. -1.
         -5    1    3    3    0  502  0.49051097451E+02  0.71951109748E+01  0.23321891148E+02  0.54988911517E+02  0.47000000000E+01 0.  1.
          5    1    4    4  503    0 -0.68580312183E+02  0.13610126447E+02  0.94398594355E+02  0.11756563859E+03  0.47000000000E+01 0. -1.
         -5    1    4    4    0  503  0.22654583522E+02  0.27891386531E+02  0.10450758932E+03  0.11061232221E+03  0.47000000000E+01 0.  1.
<mgrwt>
<rscale>  0 0.10966477E+03</rscale>
<asrwt>0</asrwt>
<pdfrwt beam="1">  1        1 0.49804449E-01 0.11181016E+03</pdfrwt>
<pdfrwt beam="2">  1       -1 0.59888757E-02 0.11181016E+03</pdfrwt>
<totfact> 0.99350615E+03</totfact>
</mgrwt>
</event>
<event>
 8    1  0.3466492E-004  0.1945006E+03  0.7546771E-02  0.1154915E+00
         -1   -1    0    0    0  501 -0.00000000000E+00  0.00000000000E+00  0.51049722795E+02  0.51049722795E+02  0.00000000000E+00 0.  1.
          1   -1    0    0  501    0  0.00000000000E+00 -0.00000000000E+00 -0.90081975112E+03  0.90081975112E+03  0.00000000000E+00 0. -1.
         23    2    1    2    0    0  0.98494155841E+02  0.13794765269E+03 -0.22145440262E+03  0.29474145164E+03  0.95392962286E+02 0.  0.
         23    2    1    2    0    0 -0.98494155841E+02 -0.13794765269E+03 -0.62831562570E+03  0.65712802227E+03  0.91137580309E+02 0.  0.
          5    1    4    4  502    0 -0.69532902512E+02 -0.14455878776E+03 -0.55874370319E+03  0.58133353895E+03  0.47000000000E+01 0. -1.
         -5    1    3    3    0  503  0.53820469383E+02  0.13738332371E+03 -0.15091767204E+03  0.21111384202E+03  0.47000000000E+01 0.  1.
          5    1    3    3  503    0  0.44673686458E+02  0.56432898074E+00 -0.70536730580E+02  0.83627609615E+02  0.47000000000E+01 0. -1.
         -5    1    4    4    0  502 -0.28961253329E+02  0.66111350714E+01 -0.69571922505E+02  0.75794483324E+02  0.47000000000E+01 0.  1.
<mgrwt>
<rscale>  0 0.19398570E+03</rscale>
<asrwt>0</asrwt>
<pdfrwt beam="1">  1        1 0.13858763E+00 0.19450057E+03</pdfrwt>
<pdfrwt beam="2">  1       -1 0.78538050E-02 0.19450057E+03</pdfrwt>
<totfact> 0.16850450E+03</totfact>
</mgrwt>
</event>
<event>
 8    1  0.3466492E-004  0.1162473E+03  0.7546771E-02  0.1250297E+00
          1   -1    0    0  501    0  0.00000000000E+00  0.00000000000E+00  0.60047545347E+03  0.60047545347E+03  0.00000000000E+00 0. -1.
         -1   -1    0    0    0  501 -0.00000000000E+00 -0.00000000000E+00 -0.49813219574E+02  0.49813219574E+02  0.00000000000E+00 0.  1.
         23    2    1    2    0    0 -0.72610049482E+02  0.57296171209E+01  0.33952813143E+02  0.12110417121E+03  0.90600104668E+02 0.  0.
         23    2    1    2    0    0  0.72610049482E+02 -0.57296171209E+01  0.51670942075E+03  0.52918450183E+03  0.87991838758E+02 0.  0.
          5    1    4    4  502    0  0.80413135736E+02  0.16007178940E+02  0.46705803046E+03  0.47422336087E+03  0.47000000000E+01 0. -1.
         -5    1    3    3    0  503 -0.33388735702E+02 -0.76413255471E+01 -0.29314909234E+02  0.45328263051E+02  0.47000000000E+01 0.  1.
          5    1    3    3  503    0 -0.39221313781E+02  0.13370942668E+02  0.63267722377E+02  0.75775908159E+02  0.47000000000E+01 0. -1.
         -5    1    4    4    0  502 -0.78030862539E+01 -0.21736796061E+02  0.49651390285E+02  0.54961140958E+02  0.47000000000E+01 0.  1.
<mgrwt>
<rscale>  0 0.11573866E+03</rscale>
<asrwt>0</asrwt>
<pdfrwt beam="1">  1        1 0.92380834E-01 0.11624727E+03</pdfrwt>
<pdfrwt beam="2">  1       -1 0.76635727E-02 0.11624727E+03</pdfrwt>
<totfact> 0.31329462E+03</totfact>
</mgrwt>
</event>
<event>
 8    1  0.3466492E-004  0.1125655E+03  0.7546771E-02  0.1256468E+00
         -2   -1    0    0    0  501 -0.00000000000E+00  0.00000000000E+00  0.33811902995E+02  0.33811902995E+02  0.00000000000E+00 0.  1.
          2   -1    0    0  501    0  0.00000000000E+00 -0.00000000000E+00 -0.41075058759E+03  0.41075058759E+03  0.00000000000E+00 0. -1.
         23    2    1    2    0    0  0.86871603221E+00  0.61696245339E+02 -0.11792752550E+03  0.16214831253E+03  0.92617453161E+02 0.  0.
         23    2    1    2    0    0 -0.86871603221E+00 -0.61696245339E+02 -0.25901115910E+03  0.28241417805E+03  0.94147788465E+02 0.  0.
          5    1    3    3  502    0  0.46500662202E+02  0.30307510957E+02 -0.59206272881E+02  0.81291632743E+02  0.47000000000E+01 0. -1.
         -5    1    4    4    0  503 -0.41994479902E+02 -0.34373567498E+02 -0.80923056195E+02  0.97548498239E+02  0.47000000000E+01 0.  1.
          5    1    4    4  503    0  0.41125763870E+02 -0.27322677841E+02 -0.17808810290E+03  0.18486567981E+03  0.47000000000E+01 0. -1.
         -5    1    3    3    0  502 -0.45631946170E+02  0.31388734382E+02 -0.58721252621E+02  0.80856679791E+02  0.47000000000E+01 0.  1.
<mgrwt>
<rscale>  0 0.11224492E+03</rscale>
<asrwt>0</asrwt>
<pdfrwt beam="1">  1        2 0.63192402E-01 0.11256548E+03</pdfrwt>
<pdfrwt beam="2">  1       -2 0.52018309E-02 0.11256548E+03</pdfrwt>
<totfact> 0.13294325E+04</totfact>
</mgrwt>
</event>
<event>
 8    1  0.3466492E-004  0.9599124E+02  0.7546771E-02  0.1289966E+00
          2   -1    0    0  501    0  0.00000000000E+00  0.00000000000E+00  0.18597019626E+03  0.18597019626E+03  0.00000000000E+00 0. -1.
         -2   -1    0    0    0  501 -0.00000000000E+00 -0.00000000000E+00 -0.54211228497E+02  0.54211228497E+02  0.00000000000E+00 0.  1.
         23    2    1    2    0    0  0.13808674018E+02  0.29900388409E+02  0.26775414112E+02  0.97928604959E+02  0.88251777111E+02 0.  0.
         23    2    1    2    0    0 -0.13808674018E+02 -0.29900388409E+02  0.10498355365E+03  0.14225281980E+03  0.90164324977E+02 0.  0.
          5    1    3    3  502    0  0.30502494890E+02 -0.95686297636E+01 -0.16981079096E+02  0.36502163187E+02  0.47000000000E+01 0. -1.
         -5    1    3    3    0  502 -0.16693820872E+02  0.39469018173E+02  0.43756493208E+02  0.61426441772E+02  0.47000000000E+01 0.  1.
          5    1    4    4  503    0  0.19211491614E+02  0.95442859948E+01 -0.33686486940E+01  0.22217394069E+02  0.47000000000E+01 0. -1.
         -5    1    4    4    0  503 -0.33020165632E+02 -0.39444674404E+02  0.10835220235E+03  0.12003542573E+03  0.47000000000E+01 0.  1.
<mgrwt>
<rscale>  0 0.95539520E+02</rscale>
<asrwt>0</asrwt>
<pdfrwt beam="1">  1        2 0.28610799E-01 0.95991240E+02</pdfrwt>
<pdfrwt beam="2">  1       -2 0.83401891E-02 0.95991240E+02</pdfrwt>
<totfact> 0.14816834E+04</totfact>
</mgrwt>
</event>
<event>
 8    1  0.3466492E-004  0.1333206E+03  0.7546771E-02  0.1222691E+00
         -1   -1    0    0    0  501 -0.00000000000E+00  0.00000000000E+00  0.47015193258E+02  0.47015193258E+02  0.00000000000E+00 0.  1.
          1   -1    0    0  501    0  0.00000000000E+00 -0.00000000000E+00 -0.82409782761E+03  0.82409782761E+03  0.00000000000E+00 0. -1.
         23    2    1    2    0    0 -0.65438602553E+02 -0.69334854230E+02 -0.67726618859E+02  0.14933720445E+03  0.92871809582E+02 0.  0.
         23    2    1    2    0    0  0.65438602553E+02  0.69334854230E+02 -0.70935601549E+03  0.72177581642E+03  0.93192487555E+02 0.  0.
          5    1    4    4  502    0  0.15993808408E+02  0.76860256227E+02 -0.33752301695E+03  0.34656482491E+03  0.47000000000E+01 0. -1.
         -5    1    3    3    0  503  0.43799678582E+01 -0.45940593164E+02  0.38410954235E+01  0.46546387967E+02  0.47000000000E+01 0.  1.
          5    1    3    3  503    0 -0.69818570411E+02 -0.23394261066E+02 -0.71567714283E+02  0.10279081648E+03  0.47000000000E+01 0. -1.
         -5    1    4    4    0  502  0.49444794145E+02 -0.75254019964E+01 -0.37183299854E+03  0.37521099151E+03  0.47000000000E+01 0.  1.
<mgrwt>
<rscale>  0 0.13326454E+03</rscale>
<asrwt>0</asrwt>
<pdfrwt beam="1">  1        1 0.12678427E+00 0.13332056E+03</pdfrwt>
<pdfrwt beam="2">  1       -1 0.72331072E-02 0.13332056E+03</pdfrwt>
<totfact> 0.21814864E+03</totfact>
</mgrwt>
</event>
<event>
 8    1  0.3466492E-004  0.8974865E+02  0.7546771E-02  0.1306622E+00
          1   -1    0    0  501    0  0.00000000000E+00  0.00000000000E+00  0.13251568460E+04  0.13251568460E+04  0.00000000000E+00 0. -1.
         -1   -1    0    0    0  501 -0.00000000000E+00 -0.00000000000E+00 -0.59097396874E+01  0.59097396874E+01  0.00000000000E+00 0.  1.
         23    2    1    2    0    0  0.10245375135E+02 -0.12165775798E+02  0.79028472539E+03  0.79536454956E+03  0.88328057323E+02 0.  0.
         23    2    1    2    0    0 -0.10245375135E+02  0.12165775798E+02  0.52896238088E+03  0.53570203608E+03  0.83201546015E+02 0.  0.
          5    1    3    3  502    0  0.16850718173E+02  0.36071542142E+02  0.30572698216E+03  0.30834425643E+03  0.47000000000E+01 0. -1.
         -5    1    4    4    0  503  0.97504138904E+01 -0.27109608012E+02  0.92539596452E+02  0.97034366742E+02  0.47000000000E+01 0.  1.
          5    1    4    4  503    0 -0.19995789026E+02  0.39275383811E+02  0.43642278443E+03  0.43866766934E+03  0.47000000000E+01 0. -1.
         -5    1    3    3    0  502 -0.66053430375E+01 -0.48237317940E+02  0.48455774323E+03  0.48702029313E+03  0.47000000000E+01 0.  1.
<mgrwt>
<rscale>  0 0.88461079E+02</rscale>
<asrwt>0</asrwt>
<pdfrwt beam="1">  1        1 0.20387005E+00 0.89748646E+02</pdfrwt>
<pdfrwt beam="2">  1       -1 0.90919178E-03 0.89748646E+02</pdfrwt>
<totfact> 0.18863662E+04</totfact>
</mgrwt>
</event>
<event>
 8    1  0.3466492E-004  0.1337109E+03  0.7546771E-02  0.1222819E+00
         -1   -1    0    0    0  501 -0.00000000000E+00  0.00000000000E+00  0.14405808081E+03  0.14405808081E+03  0.00000000000E+00 0.  1.
          1   -1    0    0  501    0  0.00000000000E+00 -0.00000000000E+00 -0.20557940761E+03  0.20557940761E+03  0.00000000000E+00 0. -1.
         23    2    1    2    0    0  0.74590324014E+02 -0.61002835213E+02 -0.14228116759E+03  0.19524992858E+03  0.92701357143E+02 0.  0.
         23    2    1    2    0    0 -0.74590324014E+02  0.61002835213E+02  0.80759840791E+02  0.15438755984E+03  0.89600805852E+02 0.  0.
          5    1    4    4  502    0 -0.46586758900E+02  0.83096582187E+02  0.54583254690E+02  0.10989444831E+03  0.47000000000E+01 0. -1.
         -5    1    4    4    0  502 -0.28003565113E+02 -0.22093746974E+02  0.26176586102E+02  0.44493111538E+02  0.47000000000E+01 0.  1.
          5    1    3    3  503    0 -0.91752718537E+01 -0.19948552304E+02 -0.79740804705E+02  0.82842116629E+02  0.47000000000E+01 0. -1.
         -5    1    3    3    0  503  0.83765595867E+02 -0.41054282909E+02 -0.62540362889E+02  0.11240781195E+03  0.47000000000E+01 0.  1.
<mgrwt>
<rscale>  0 0.13317503E+03</rscale>
<asrwt>0</asrwt>
<pdfrwt beam="1">  1        1 0.31627601E-01 0.13371090E+03</pdfrwt>
<pdfrwt beam="2">  1       -1 0.22162782E-01 0.13371090E+03</pdfrwt>
<totfact> 0.23434435E+03</totfact>
</mgrwt>
</event>
<event>
 8    1  0.3466492E-004  0.9626265E+02  0.7546771E-02  0.1288427E+00
         -1   -1    0    0    0  501 -0.00000000000E+00  0.00000000000E+00  0.13780511971E+02  0.13780511971E+02  0.00000000000E+00 0.  1.
          1   -1    0    0  501    0  0.00000000000E+00 -0.00000000000E+00 -0.70757445996E+03  0.70757445996E+03  0.00000000000E+00 0. -1.
         23    2    1    2    0    0  0.31606896679E+02  0.47791238217E+01 -0.42805556449E+03  0.43871848097E+03  0.90666991298E+02 0.  0.
         23    2    1    2    0    0 -0.31606896679E+02 -0.47791238217E+01 -0.26573838350E+03  0.28263649096E+03  0.90800119031E+02 0.  0.
          5    1    4    4  502    0  0.15583715319E+02 -0.13438189824E+02 -0.20002903959E+03  0.20113961273E+03  0.47000000000E+01 0. -1.
         -5    1    3    3    0  503  0.61587638010E+02  0.70995927293E+01 -0.33767248430E+03  0.34334856637E+03  0.47000000000E+01 0.  1.
          5    1    3    3  503    0 -0.29980741331E+02 -0.23204689076E+01 -0.90383080189E+02  0.95369914602E+02  0.47000000000E+01 0. -1.
         -5    1    4    4    0  502 -0.47190611998E+02  0.86590660024E+01 -0.65709343905E+02  0.81496878230E+02  0.47000000000E+01 0.  1.
<mgrwt>
<rscale>  0 0.96231243E+02</rscale>
<asrwt>0</asrwt>
<pdfrwt beam="1">  1        1 0.10885763E+00 0.96262649E+02</pdfrwt>
<pdfrwt beam="2">  1       -1 0.21200783E-02 0.96262649E+02</pdfrwt>
<totfact> 0.16124322E+04</totfact>
</mgrwt>
</event>
<event>
 8    1  0.3466492E-004  0.1122283E+03  0.7546771E-02  0.1257516E+00
          3   -1    0    0  501    0  0.00000000000E+00  0.00000000000E+00  0.14088443460E+03  0.14088443460E+03  0.00000000000E+00 0. -1.
         -3   -1    0    0    0  501 -0.00000000000E+00 -0.00000000000E+00 -0.14777737966E+03  0.14777737966E+03  0.00000000000E+00 0.  1.
         23    2    1    2    0    0 -0.42162594965E+01 -0.58304602229E+02  0.88650733612E+02  0.14127193139E+03  0.93175117619E+02 0.  0.
         23    2    1    2    0    0  0.42162594965E+01  0.58304602229E+02 -0.95543678669E+02  0.14738988288E+03  0.95801772196E+02 0.  0.
          5    1    3    3  502    0 -0.35002402764E+02 -0.17966218061E+02  0.70755536406E+00  0.39630087374E+02  0.47000000000E+01 0. -1.
         -5    1    3    3    0  502  0.30786143268E+02 -0.40338384168E+02  0.87943178248E+02  0.10164184402E+03  0.47000000000E+01 0.  1.
          5    1    4    4  503    0 -0.57333351479E+01  0.78006217227E+02 -0.41160362725E+02  0.88510488179E+02  0.47000000000E+01 0. -1.
         -5    1    4    4    0  503  0.99495946444E+01 -0.19701614998E+02 -0.54383315943E+02  0.58879394699E+02  0.47000000000E+01 0.  1.
<mgrwt>
<rscale>  0 0.11166562E+03</rscale>
<asrwt>0</asrwt>
<pdfrwt beam="1">  1        3 0.21674528E-01 0.11222826E+03</pdfrwt>
<pdfrwt beam="2">  1       -3 0.22734982E-01 0.11222826E+03</pdfrwt>
<totfact> 0.77776886E+02</totfact>
</mgrwt>
</event>
<event>
 8    1  0.3466492E-004  0.1195129E+03  0.7546771E-02  0.1244087E+00
          1   -1    0    0  501    0  0.00000000000E+00  0.00000000000E+00  0.12820400116E+03  0.12820400116E+03  0.00000000000E+00 0. -1.
         -1   -1    0    0    0  501 -0.00000000000E+00 -0.00000000000E+00 -0.16180998210E+03  0.16180998210E+03  0.00000000000E+00 0.  1.
         23    2    1    2    0    0  0.52177689080E+02  0.57194163514E+02  0.64477442917E+02  0.13540583027E+03  0.90463885872E+02 0.  0.
         23    2    1    2    0    0 -0.52177689080E+02 -0.57194163514E+02 -0.98083423852E+02  0.15460815299E+03  0.91047456636E+02 0.  0.
          5    1    3    3  502    0 -0.25895263019E+00  0.48357071341E+02 -0.38027332567E+01  0.48734219860E+02  0.47000000000E+01 0. -1.
         -5    1    3    3    0  502  0.52436641711E+02  0.88370921724E+01  0.68280176174E+02  0.86671610405E+02  0.47000000000E+01 0.  1.
          5    1    4    4  503    0 -0.50875994294E+02  0.10031645457E+02 -0.44789784833E+02  0.68681988406E+02  0.47000000000E+01 0. -1.
         -5    1    4    4    0  503 -0.13016947866E+01 -0.67225808970E+02 -0.53293639019E+02  0.85926164589E+02  0.47000000000E+01 0.  1.
<mgrwt>
<rscale>  0 0.11940171E+03</rscale>
<asrwt>0</asrwt>
<pdfrwt beam="1">  1        1 0.19723692E-01 0.11951286E+03</pdfrwt>
<pdfrwt beam="2">  1       -1 0.24893843E-01 0.11951286E+03</pdfrwt>
<totfact> 0.34849487E+03</totfact>
</mgrwt>
</event>
<event>
 8    1  0.3466492E-004  0.1113997E+03  0.7546771E-02  0.1258799E+00
         -1   -1    0    0    0  501 -0.00000000000E+00  0.00000000000E+00  0.95571734244E+02  0.95571734244E+02  0.00000000000E+00 0.  1.
          1   -1    0    0  501    0  0.00000000000E+00 -0.00000000000E+00 -0.14570737819E+03  0.14570737819E+03  0.00000000000E+00 0. -1.
         23    2    1    2    0    0 -0.55231496188E+02  0.30393629492E+02 -0.67154994816E+02  0.12858683648E+03  0.89724524528E+02 0.  0.
         23    2    1    2    0    0  0.55231496188E+02 -0.30393629492E+02  0.17019350866E+02  0.11269227596E+03  0.91845521786E+02 0.  0.
          5    1    3    3  502    0 -0.18763531704E+02  0.59624975374E+02 -0.38231699152E+02  0.73423161403E+02  0.47000000000E+01 0. -1.
         -5    1    3    3    0  502 -0.36467964484E+02 -0.29231345882E+02 -0.28923295664E+02  0.55163675075E+02  0.47000000000E+01 0.  1.
          5    1    4    4  503    0  0.14159186130E+02  0.27268955714E+02 -0.15396229083E+02  0.34687351695E+02  0.47000000000E+01 0. -1.
         -5    1    4    4    0  503  0.41072310058E+02 -0.57662585206E+02  0.32415579949E+02  0.78004924265E+02  0.47000000000E+01 0.  1.
<mgrwt>
<rscale>  0 0.11096158E+03</rscale>
<asrwt>0</asrwt>
<pdfrwt beam="1">  1        1 0.22416520E-01 0.11139969E+03</pdfrwt>
<pdfrwt beam="2">  1       -1 0.14703344E-01 0.11139969E+03</pdfrwt>
<totfact> 0.68320252E+03</totfact>
</mgrwt>
</event>
<event>
 8    1  0.3466492E-004  0.9770586E+02  0.7546771E-02  0.1286207E+00
         -2   -1    0    0    0  501 -0.00000000000E+00  0.00000000000E+00  0.54052233492E+02  0.54052233492E+02  0.00000000000E+00 0.  1.
          2   -1    0    0  501    0  0.00000000000E+00 -0.00000000000E+00 -0.17346814791E+03  0.17346814791E+03  0.00000000000E+00 0. -1.
         23    2    1    2    0    0 -0.18030586321E+02 -0.18872666246E+02 -0.55545914171E+02  0.11079072470E+03  0.92238584790E+02 0.  0.
         23    2    1    2    0    0  0.18030586321E+02  0.18872666246E+02 -0.63870000251E+02  0.11672965671E+03  0.94154958704E+02 0.  0.
          5    1    3    3  502    0 -0.40956470375E+02  0.12575447733E+02 -0.36375201297E+00  0.43102165453E+02  0.47000000000E+01 0. -1.
         -5    1    3    3    0  502  0.22925884054E+02 -0.31448113979E+02 -0.55182162158E+02  0.67688559247E+02  0.47000000000E+01 0.  1.
          5    1    4    4  503    0 -0.26292484483E+01  0.54705233096E+02 -0.44929591818E+02  0.70995307566E+02  0.47000000000E+01 0. -1.
         -5    1    4    4    0  503  0.20659834769E+02 -0.35832566850E+02 -0.18940408433E+02  0.45734349141E+02  0.47000000000E+01 0.  1.
<mgrwt>
<rscale>  0 0.97241220E+02</rscale>
<asrwt>0</asrwt>
<pdfrwt beam="1">  1        2 0.26687407E-01 0.97705864E+02</pdfrwt>
<pdfrwt beam="2">  1       -2 0.83157283E-02 0.97705864E+02</pdfrwt>
<totfact> 0.16073458E+04</totfact>
</mgrwt>
</event>
<event>
 8    1  0.3466492E-004  0.9487992E+02  0.7546771E-02  0.1292217E+00
         -3   -1    0    0    0  501 -0.00000000000E+00  0.00000000000E+00  0.41419066913E+03  0.41419066913E+03  0.00000000000E+00 0.  1.
          3   -1    0    0  501    0  0.00000000000E+00 -0.00000000000E+00 -0.26998538066E+02  0.26998538066E+02  0.00000000000E+00 0. -1.
         23    2    1    2    0    0  0.19802420179E+02 -0.13538978163E+02  0.29492711642E+03  0.30981317603E+03  0.91797387033E+02 0.  0.
         23    2    1    2    0    0 -0.19802420179E+02  0.13538978163E+02  0.92265014640E+02  0.13137603116E+03  0.90395734761E+02 0.  0.
          5    1    3    3  502    0  0.56756358168E+01  0.38168707767E+02  0.92052802350E+02  0.99924328945E+02  0.47000000000E+01 0. -1.
         -5    1    3    3    0  502  0.14126784362E+02 -0.51707685930E+02  0.20287431407E+03  0.20988884709E+03  0.47000000000E+01 0.  1.
          5    1    4    4  503    0 -0.24262096270E+02  0.49018495988E+02  0.40207788181E+02  0.68045708864E+02  0.47000000000E+01 0. -1.
         -5    1    4    4    0  503  0.44596760910E+01 -0.35479517825E+02  0.52057226458E+02  0.63330322299E+02  0.47000000000E+01 0.  1.
<mgrwt>
<rscale>  0 0.94539233E+02</rscale>
<asrwt>0</asrwt>
<pdfrwt beam="1">  1        3 0.41536215E-02 0.94879924E+02</pdfrwt>
<pdfrwt beam="2">  1       -3 0.63721637E-01 0.94879924E+02</pdfrwt>
<totfact> 0.15986258E+03</totfact>
</mgrwt>
</event>
<event>
 8    1  0.3466492E-004  0.1139307E+03  0.7546771E-02  0.1254252E+00
          1   -1    0    0  501    0  0.00000000000E+00  0.00000000000E+00  0.14733117811E+03  0.14733117811E+03  0.00000000000E+00 0. -1.
         -1   -1    0    0    0  501 -0.00000000000E+00 -0.00000000000E+00 -0.12384608327E+03  0.12384608327E+03  0.00000000000E+00 0.  1.
         23    2    1    2    0    0  0.36746547170E+02  0.53983269059E+02 -0.62415921799E+02  0.12990748511E+03  0.93357941952E+02 0.  0.
         23    2    1    2    0    0 -0.36746547170E+02 -0.53983269059E+02  0.85901016636E+02  0.14126977627E+03  0.91179290197E+02 0.  0.
          5    1    4    4  502    0 -0.11047641543E+01 -0.20098369067E+02  0.89385643111E+02  0.91744471972E+02  0.47000000000E+01 0. -1.
         -5    1    4    4    0  502 -0.35641783016E+02 -0.33884899992E+02 -0.34846264758E+01  0.49525304297E+02  0.47000000000E+01 0.  1.
          5    1    3    3  503    0  0.43084186732E+02 -0.10517300420E+02 -0.43331167784E+02  0.62181515389E+02  0.47000000000E+01 0. -1.
         -5    1    3    3    0  503 -0.63376395620E+01  0.64500569480E+02 -0.19084754015E+02  0.67725969718E+02  0.47000000000E+01 0.  1.
<mgrwt>
<rscale>  0 0.11348351E+03</rscale>
<asrwt>0</asrwt>
<pdfrwt beam="1">  1        1 0.22666335E-01 0.11393071E+03</pdfrwt>
<pdfrwt beam="2">  1       -1 0.19053244E-01 0.11393071E+03</pdfrwt>
<totfact> 0.44885928E+03</totfact>
</mgrwt>
</event>
<event>
 8    1  0.3466492E-004  0.9127603E+02  0.7546771E-02  0.1300452E+00
         -1   -1    0    0    0  501 -0.00000000000E+00  0.00000000000E+00  0.16411964636E+02  0.16411964636E+02  0.00000000000E+00 0.  1.
          1   -1    0    0  501    0  0.00000000000E+00 -0.00000000000E+00 -0.62054454321E+03  0.62054454321E+03  0.00000000000E+00 0. -1.
         23    2    1    2    0    0 -0.14622711201E+02 -0.86916319879E+01 -0.44006619176E+03  0.44920908952E+03  0.88550464885E+02 0.  0.
         23    2    1    2    0    0  0.14622711201E+02  0.86916319879E+01 -0.16406638681E+03  0.18774741832E+03  0.89676895880E+02 0.  0.
          5    1    3    3  502    0 -0.48475326267E+02 -0.16508374455E+02 -0.32083482016E+03  0.32492992400E+03  0.47000000000E+01 0. -1.
         -5    1    4    4    0  503  0.20754660831E+02 -0.28331867482E+02 -0.24328158969E+02  0.42981391090E+02  0.47000000000E+01 0.  1.
          5    1    4    4  503    0 -0.61319496297E+01  0.37023499470E+02 -0.13973822784E+03  0.14476602723E+03  0.47000000000E+01 0. -1.
         -5    1    3    3    0  502  0.33852615066E+02  0.78167424668E+01 -0.11923137160E+03  0.12427916552E+03  0.47000000000E+01 0.  1.
<mgrwt>
<rscale>  0 0.90998151E+02</rscale>
<asrwt>0</asrwt>
<pdfrwt beam="1">  1        1 0.95468404E-01 0.91276031E+02</pdfrwt>
<pdfrwt beam="2">  1       -1 0.25249173E-02 0.91276031E+02</pdfrwt>
<totfact> 0.14981751E+04</totfact>
</mgrwt>
</event>
<event>
 8    1  0.3466492E-004  0.9412429E+02  0.7546771E-02  0.1293195E+00
          2   -1    0    0  501    0  0.00000000000E+00  0.00000000000E+00  0.11235598753E+04  0.11235598753E+04  0.00000000000E+00 0. -1.
         -2   -1    0    0    0  501 -0.00000000000E+00 -0.00000000000E+00 -0.11606528891E+02  0.11606528891E+02  0.00000000000E+00 0.  1.
         23    2    1    2    0    0 -0.26471465292E+02 -0.41772020512E+01  0.23448992084E+03  0.25267549239E+03  0.90228565244E+02 0.  0.
         23    2    1    2    0    0  0.26471465292E+02  0.41772020512E+01  0.87746342556E+03  0.88249091180E+03  0.90166283691E+02 0.  0.
          5    1    4    4  502    0 -0.24361158906E+02 -0.25007962521E+02  0.34032333442E+03  0.34214167563E+03  0.47000000000E+01 0. -1.
         -5    1    4    4    0  502  0.50832624198E+02  0.29185164572E+02  0.53714009114E+03  0.54034923617E+03  0.47000000000E+01 0.  1.
          5    1    3    3  503    0  0.30303942740E+02  0.69650627634E+01  0.48205144708E+02  0.57555773135E+02  0.47000000000E+01 0. -1.
         -5    1    3    3    0  503 -0.56775408032E+02 -0.11142264815E+02  0.18628477614E+03  0.19511971926E+03  0.47000000000E+01 0.  1.
<mgrwt>
<rscale>  0 0.94109358E+02</rscale>
<asrwt>0</asrwt>
<pdfrwt beam="1">  1        2 0.17285528E+00 0.94124287E+02</pdfrwt>
<pdfrwt beam="2">  1       -2 0.17856207E-02 0.94124287E+02</pdfrwt>
<totfact> 0.18831296E+04</totfact>
</mgrwt>
</event>
<event>
 8    1  0.3466492E-004  0.9803647E+02  0.7546771E-02  0.1286146E+00
         -2   -1    0    0    0  501 -0.00000000000E+00  0.00000000000E+00  0.41942573781E+02  0.41942573781E+02  0.00000000000E+00 0.  1.
          2   -1    0    0  501    0  0.00000000000E+00 -0.00000000000E+00 -0.26550821446E+03  0.26550821446E+03  0.00000000000E+00 0. -1.
         23    2    1    2    0    0 -0.57883647165E+01 -0.32780247319E+02 -0.17245451122E+03  0.19689086143E+03  0.88979790377E+02 0.  0.
         23    2    1    2    0    0  0.57883647165E+01  0.32780247319E+02 -0.51111129455E+02  0.11055992680E+03  0.92212255587E+02 0.  0.
          5    1    3    3  502    0 -0.39839667254E+02 -0.28792386241E+02 -0.14354052249E+03  0.15179648280E+03  0.47000000000E+01 0. -1.
         -5    1    3    3    0  502  0.34051302538E+02 -0.39878610775E+01 -0.28913988730E+02  0.45094378638E+02  0.47000000000E+01 0.  1.
          5    1    4    4  503    0  0.27358578960E+02 -0.23558809462E+02 -0.27412945746E+02  0.45574871810E+02  0.47000000000E+01 0. -1.
         -5    1    4    4    0  503 -0.21570214243E+02  0.56339056781E+02 -0.23698183709E+02  0.64985054994E+02  0.47000000000E+01 0.  1.
<mgrwt>
<rscale>  0 0.97268984E+02</rscale>
<asrwt>0</asrwt>
<pdfrwt beam="1">  1        2 0.40847417E-01 0.98036472E+02</pdfrwt>
<pdfrwt beam="2">  1       -2 0.64527038E-02 0.98036472E+02</pdfrwt>
<totfact> 0.15033975E+04</totfact>
</mgrwt>
</event>
<event>
 8    1  0.3466492E-004  0.9902831E+02  0.7546771E-02  0.1285302E+00
         -1   -1    0    0    0  501 -0.00000000000E+00  0.00000000000E+00  0.38655654721E+03  0.38655654721E+03  0.00000000000E+00 0.  1.
          1   -1    0    0  501    0  0.00000000000E+00 -0.00000000000E+00 -0.25952829871E+02  0.25952829871E+02  0.00000000000E+00 0. -1.
         23    2    1    2    0    0  0.76183122071E+01 -0.38321966316E+02  0.12855993071E+03  0.16227834997E+03  0.90994479516E+02 0.  0.
         23    2    1    2    0    0 -0.76183122071E+01  0.38321966316E+02  0.23204378662E+03  0.25023102711E+03  0.85115428870E+02 0.  0.
          5    1    4    4  502    0 -0.21097793002E+02  0.10478519818E+02  0.10042772076E+02  0.26035812223E+02  0.47000000000E+01 0. -1.
         -5    1    4    4    0  502  0.13479480795E+02  0.27843446498E+02  0.22200101455E+03  0.22419521488E+03  0.47000000000E+01 0.  1.
          5    1    3    3  503    0  0.73683227761E+01  0.29084100186E+02  0.29275424487E+02  0.42181957553E+02  0.47000000000E+01 0. -1.
         -5    1    3    3    0  503  0.24998943094E+00 -0.67406066502E+02  0.99284506224E+02  0.12009639242E+03  0.47000000000E+01 0.  1.
<mgrwt>
<rscale>  0 0.97656738E+02</rscale>
<asrwt>0</asrwt>
<pdfrwt beam="1">  1        1 0.39927433E-02 0.99028315E+02</pdfrwt>
<pdfrwt beam="2">  1       -1 0.59470234E-01 0.99028315E+02</pdfrwt>
<totfact> 0.62407191E+03</totfact>
</mgrwt>
</event>
<event>
 8    1  0.3466492E-004  0.9752992E+02  0.7546771E-02  0.1286330E+00
          1   -1    0    0  501    0  0.00000000000E+00  0.00000000000E+00  0.86000036754E+02  0.86000036754E+02  0.00000000000E+00 0. -1.
         -1   -1    0    0    0  501 -0.00000000000E+00 -0.00000000000E+00 -0.10909570883E+03  0.10909570883E+03  0.00000000000E+00 0.  1.
         23    2    1    2    0    0  0.17602583013E+02 -0.24312758622E+02 -0.13381440699E+02  0.97083241126E+02  0.91351691784E+02 0.  0.
         23    2    1    2    0    0 -0.17602583013E+02  0.24312758622E+02 -0.97142313809E+01  0.98012504462E+02  0.92796139893E+02 0.  0.
          5    1    3    3  502    0 -0.28675435192E+02  0.11188971534E+02 -0.21735967940E+02  0.37973885365E+02  0.47000000000E+01 0. -1.
         -5    1    4    4    0  503 -0.19845017403E+02  0.50229924329E+02 -0.32418383342E+02  0.63165746986E+02  0.47000000000E+01 0.  1.
          5    1    4    4  503    0  0.22424343903E+01 -0.25917165707E+02  0.22704151961E+02  0.34846757476E+02  0.47000000000E+01 0. -1.
         -5    1    3    3    0  502  0.46278018205E+02 -0.35501730156E+02  0.83545272408E+01  0.59109355761E+02  0.47000000000E+01 0.  1.
<mgrwt>
<rscale>  0 0.97184761E+02</rscale>
<asrwt>0</asrwt>
<pdfrwt beam="1">  1        1 0.13230775E-01 0.97529917E+02</pdfrwt>
<pdfrwt beam="2">  1       -1 0.16783955E-01 0.97529917E+02</pdfrwt>
<totfact> 0.10748995E+04</totfact>
</mgrwt>
</event>
<event>
 8    1  0.3466492E-004  0.1342642E+03  0.7546771E-02  0.1222662E+00
          2   -1    0    0  501    0  0.00000000000E+00  0.00000000000E+00  0.27991938267E+03  0.27991938267E+03  0.00000000000E+00 0. -1.
         -2   -1    0    0    0  501 -0.00000000000E+00 -0.00000000000E+00 -0.12121099879E+03  0.12121099879E+03  0.00000000000E+00 0.  1.
         23    2    1    2    0    0  0.20738186082E+02 -0.96641063256E+02  0.21946905535E+03  0.25728108110E+03  0.90869802266E+02 0.  0.
         23    2    1    2    0    0 -0.20738186082E+02  0.96641063256E+02 -0.60760671479E+02  0.14384930036E+03  0.85036430705E+02 0.  0.
          5    1    3    3  502    0 -0.83438829057E+01 -0.92742842437E+02  0.11174315442E+03  0.14553170708E+03  0.47000000000E+01 0. -1.
         -5    1    3    3    0  502  0.29082068987E+02 -0.38982208190E+01  0.10772590093E+03  0.11174937402E+03  0.47000000000E+01 0.  1.
          5    1    4    4  503    0 -0.46752373628E+02  0.69006512288E+02 -0.16049178803E+02  0.85013818396E+02  0.47000000000E+01 0. -1.
         -5    1    4    4    0  503  0.26014187546E+02  0.27634550968E+02 -0.44711492677E+02  0.58835481967E+02  0.47000000000E+01 0.  1.
<mgrwt>
<rscale>  0 0.13328425E+03</rscale>
<asrwt>0</asrwt>
<pdfrwt beam="1">  1        2 0.43064520E-01 0.13426425E+03</pdfrwt>
<pdfrwt beam="2">  1       -2 0.18647846E-01 0.13426425E+03</pdfrwt>
<totfact> 0.27106000E+03</totfact>
</mgrwt>
</event>
<event>
 8    1  0.3466492E-004  0.1004791E+03  0.7546771E-02  0.1280089E+00
         -1   -1    0    0    0  501 -0.00000000000E+00  0.00000000000E+00  0.45155521174E+03  0.45155521174E+03  0.00000000000E+00 0.  1.
          1   -1    0    0  501    0  0.00000000000E+00 -0.00000000000E+00 -0.26368927417E+02  0.26368927417E+02  0.00000000000E+00 0. -1.
         23    2    1    2    0    0 -0.32338718881E+02 -0.21060601904E+02  0.31095185270E+03  0.32678296005E+03  0.92772337431E+02 0.  0.
         23    2    1    2    0    0  0.32338718881E+02  0.21060601904E+02  0.11423443163E+03  0.15114117911E+03  0.91130724574E+02 0.  0.
          5    1    4    4  502    0 -0.21249079168E+02  0.24030370550E+02  0.82435095903E+02  0.88581132928E+02  0.47000000000E+01 0. -1.
         -5    1    4    4    0  502  0.53587798049E+02 -0.29697686462E+01  0.31799335726E+02  0.62560046181E+02  0.47000000000E+01 0.  1.
          5    1    3    3  503    0 -0.56828839568E+02 -0.21494425637E+02  0.12389751597E+03  0.13807321175E+03  0.47000000000E+01 0. -1.
         -5    1    3    3    0  503  0.24490120687E+02  0.43382373234E+00  0.18705433673E+03  0.18870974830E+03  0.47000000000E+01 0.  1.
<mgrwt>
<rscale>  0 0.10009851E+03</rscale>
<asrwt>0</asrwt>
<pdfrwt beam="1">  1        1 0.40567584E-02 0.10047909E+03</pdfrwt>
<pdfrwt beam="2">  1       -1 0.69470027E-01 0.10047909E+03</pdfrwt>
<totfact> 0.45391792E+03</totfact>
</mgrwt>
</event>
<event>
 8    1  0.3466492E-004  0.1171115E+03  0.7546771E-02  0.1249080E+00
          3   -1    0    0  501    0  0.00000000000E+00  0.00000000000E+00  0.43744638699E+03  0.43744638699E+03  0.00000000000E+00 0. -1.
         -3   -1    0    0    0  501 -0.00000000000E+00 -0.00000000000E+00 -0.42981643772E+02  0.42981643772E+02  0.00000000000E+00 0.  1.
         23    2    1    2    0    0 -0.60501158502E+02 -0.33202715705E+02  0.32750774795E+03  0.34781665586E+03  0.94616545181E+02 0.  0.
         23    2    1    2    0    0  0.60501158502E+02  0.33202715705E+02  0.66956995275E+02  0.13261137490E+03  0.91322105903E+02 0.  0.
          5    1    4    4  502    0 -0.85280426992E+01  0.40487540864E+02  0.10321757888E+02  0.42902181336E+02  0.47000000000E+01 0. -1.
         -5    1    4    4    0  502  0.69029201201E+02 -0.72848251591E+01  0.56635237387E+02  0.89709193564E+02  0.47000000000E+01 0.  1.
          5    1    3    3  503    0 -0.48488908473E+02 -0.53543037157E+02  0.12957945783E+03  0.14842828896E+03  0.47000000000E+01 0. -1.
         -5    1    3    3    0  503 -0.12012250029E+02  0.20340321452E+02  0.19792829012E+03  0.19938836690E+03  0.47000000000E+01 0.  1.
<mgrwt>
<rscale>  0 0.11644452E+03</rscale>
<asrwt>0</asrwt>
<pdfrwt beam="1">  1        3 0.67299441E-01 0.11711149E+03</pdfrwt>
<pdfrwt beam="2">  1       -3 0.66125609E-02 0.11711149E+03</pdfrwt>
<totfact> 0.71204579E+02</totfact>
</mgrwt>
</event>
<event>
 8    1  0.3466492E-004  0.9351182E+02  0.7546771E-02  0.1296792E+00
          1   -1    0    0  501    0  0.00000000000E+00  0.00000000000E+00  0.21151012650E+03  0.21151012650E+03  0.00000000000E+00 0. -1.
         -1   -1    0    0    0  501 -0.00000000000E+00 -0.00000000000E+00 -0.43513786707E+02  0.43513786707E+02  0.00000000000E+00 0.  1.
         23    2    1    2    0    0 -0.17253862020E+02 -0.13676279823E+02  0.12340207128E+03  0.15483065775E+03  0.90883029217E+02 0.  0.
         23    2    1    2    0    0  0.17253862020E+02  0.13676279823E+02  0.44594268514E+02  0.10019325546E+03  0.86978751831E+02 0.  0.
          5    1    4    4  502    0  0.51225628869E+02  0.11217672549E+02  0.38618272654E+02  0.65294427122E+02  0.47000000000E+01 0. -1.
         -5    1    3    3    0  503 -0.48509425665E+02 -0.11468158587E+02  0.35454138629E+02  0.61349563858E+02  0.47000000000E+01 0.  1.
          5    1    3    3  503    0  0.31255563644E+02 -0.22081212359E+01  0.87947932651E+02  0.93481093894E+02  0.47000000000E+01 0. -1.
         -5    1    4    4    0  502 -0.33971766848E+02  0.24586072739E+01  0.59759958596E+01  0.34898828333E+02  0.47000000000E+01 0.  1.
<mgrwt>
<rscale>  0 0.92549622E+02</rscale>
<asrwt>0</asrwt>
<pdfrwt beam="1">  1        1 0.32540019E-01 0.93511825E+02</pdfrwt>
<pdfrwt beam="2">  1       -1 0.66944288E-02 0.93511825E+02</pdfrwt>
<totfact> 0.13971864E+04</totfact>
</mgrwt>
</event>
<event>
 8    1  0.3466492E-004  0.9267808E+02  0.7546771E-02  0.1296824E+00
          2   -1    0    0  501    0  0.00000000000E+00  0.00000000000E+00  0.60631642943E+03  0.60631642943E+03  0.00000000000E+00 0.  1.
         -2   -1    0    0    0  501 -0.00000000000E+00 -0.00000000000E+00 -0.14280875297E+02  0.14280875297E+02  0.00000000000E+00 0. -1.
         23    2    1    2    0    0 -0.16581443635E+02 -0.41029957255E+00  0.33194519282E+03  0.34448822619E+03  0.90605818387E+02 0.  0.
         23    2    1    2    0    0  0.16581443635E+02  0.41029957255E+00  0.26009036131E+03  0.27610907854E+03  0.91181766743E+02 0.  0.
          5    1    3    3  502    0 -0.18784033408E+02 -0.41240447680E+02  0.11543383233E+03  0.12409945238E+03  0.47000000000E+01 0. -1.
         -5    1    4    4    0  503  0.28940720914E+02  0.32915949722E+02  0.21224450372E+03  0.21677371712E+03  0.47000000000E+01 0.  1.
          5    1    4    4  503    0 -0.12359277279E+02 -0.32505650149E+02  0.47845857585E+02  0.59335361417E+02  0.47000000000E+01 0. -1.
         -5    1    3    3    0  502  0.22025897735E+01  0.40830148107E+02  0.21651136049E+03  0.22038877380E+03  0.47000000000E+01 0.  1.
<mgrwt>
<rscale>  0 0.92536110E+02</rscale>
<asrwt>0</asrwt>
<pdfrwt beam="1">  1        2 0.93279431E-01 0.92678084E+02</pdfrwt>
<pdfrwt beam="2">  1       -2 0.21970582E-02 0.92678084E+02</pdfrwt>
<totfact> 0.30233033E+04</totfact>
</mgrwt>
</event>
<event>
 8    1  0.3466492E-004  0.1241042E+03  0.7546771E-02  0.1236783E+00
         -2   -1    0    0    0  501 -0.00000000000E+00  0.00000000000E+00  0.16041249594E+02  0.16041249594E+02  0.00000000000E+00 0.  1.
          2   -1    0    0  501    0  0.00000000000E+00 -0.00000000000E+00 -0.95806337209E+03  0.95806337209E+03  0.00000000000E+00 0. -1.
         23    2    1    2    0    0  0.69706406483E+02  0.45589984792E+02 -0.44133393262E+03  0.45845120022E+03  0.92002353712E+02 0.  0.
         23    2    1    2    0    0 -0.69706406483E+02 -0.45589984792E+02 -0.50068818988E+03  0.51565342146E+03  0.90952502783E+02 0.  0.
          5    1    3    3  502    0  0.33195857622E+01 -0.20990581789E+02 -0.33919417618E+02  0.40301874212E+02  0.47000000000E+01 0. -1.
         -5    1    4    4    0  503 -0.47825166741E+02  0.20932903537E+02 -0.24209822411E+03  0.24770763642E+03  0.47000000000E+01 0.  1.
          5    1    4    4  503    0 -0.21881239742E+02 -0.66522888329E+02 -0.25858996577E+03  0.26794578504E+03  0.47000000000E+01 0. -1.
         -5    1    3    3    0  502  0.66386820721E+02  0.66580566581E+02 -0.40741451500E+03  0.41814932601E+03  0.47000000000E+01 0.  1.
<mgrwt>
<rscale>  0 0.12390972E+03</rscale>
<asrwt>0</asrwt>
<pdfrwt beam="1">  1        2 0.14739433E+00 0.12410424E+03</pdfrwt>
<pdfrwt beam="2">  1       -2 0.24678851E-02 0.12410424E+03</pdfrwt>
<totfact> 0.15024120E+04</totfact>
</mgrwt>
</event>
<event>
 8    1  0.3466492E-004  0.9590989E+02  0.7546771E-02  0.1290319E+00
          1   -1    0    0  501    0  0.00000000000E+00  0.00000000000E+00  0.36201536624E+03  0.36201536624E+03  0.00000000000E+00 0. -1.
         -1   -1    0    0    0  501 -0.00000000000E+00 -0.00000000000E+00 -0.25117323704E+02  0.25117323704E+02  0.00000000000E+00 0.  1.
         23    2    1    2    0    0  0.13986975505E+02 -0.25131315585E+02  0.18629690739E+03  0.20858463394E+03  0.89296099036E+02 0.  0.
         23    2    1    2    0    0 -0.13986975505E+02  0.25131315585E+02  0.15060113515E+03  0.17854805601E+03  0.91495835379E+02 0.  0.
          5    1    4    4  502    0  0.35979895063E+02  0.25402462094E+02  0.55422306156E+02  0.70947585926E+02  0.47000000000E+01 0. -1.
         -5    1    4    4    0  502 -0.49966870568E+02 -0.27114650891E+00  0.95178828990E+02  0.10760047009E+03  0.47000000000E+01 0.  1.
          5    1    3    3  503    0  0.35661490554E+02 -0.44111541977E+02  0.78876127599E+02  0.97268204205E+02  0.47000000000E+01 0. -1.
         -5    1    3    3    0  503 -0.21674515049E+02  0.18980226392E+02  0.10742077980E+03  0.11131642973E+03  0.47000000000E+01 0.  1.
<mgrwt>
<rscale>  0 0.95381492E+02</rscale>
<asrwt>0</asrwt>
<pdfrwt beam="1">  1        1 0.55694668E-01 0.95909887E+02</pdfrwt>
<pdfrwt beam="2">  1       -1 0.38642039E-02 0.95909887E+02</pdfrwt>
<totfact> 0.16235385E+04</totfact>
</mgrwt>
</event>
<event>
 8    1  0.3466492E-004  0.9585688E+02  0.7546771E-02  0.1289533E+00
         -3   -1    0    0    0  501 -0.00000000000E+00  0.00000000000E+00  0.13550748731E+03  0.13550748731E+03  0.00000000000E+00 0.  1.
          3   -1    0    0  501    0  0.00000000000E+00 -0.00000000000E+00 -0.69329404381E+02  0.69329404381E+02  0.00000000000E+00 0. -1.
         23    2    1    2    0    0 -0.13919372675E+02  0.25886166727E+00  0.16355719007E+02  0.97242232775E+02  0.94840531135E+02 0.  0.
         23    2    1    2    0    0  0.13919372675E+02 -0.25886166727E+00  0.49822363920E+02  0.10759465891E+03  0.94342602970E+02 0.  0.
          5    1    4    4  502    0  0.39155142181E+02 -0.21008027895E+02 -0.35682895001E+01  0.44825049751E+02  0.47000000000E+01 0. -1.
         -5    1    3    3    0  503 -0.21774272853E+02  0.43633945027E+02  0.19660300659E+02  0.52788801264E+02  0.47000000000E+01 0.  1.
          5    1    3    3  503    0  0.78549001781E+01 -0.43375083360E+02 -0.33045816515E+01  0.44453431512E+02  0.47000000000E+01 0. -1.
         -5    1    4    4    0  502 -0.25235769506E+02  0.20749166228E+02  0.53390653420E+02  0.62769609162E+02  0.47000000000E+01 0.  1.
<mgrwt>
<rscale>  0 0.95733491E+02</rscale>
<asrwt>0</asrwt>
<pdfrwt beam="1">  1        3 0.10666062E-01 0.95856884E+02</pdfrwt>
<pdfrwt beam="2">  1       -3 0.20847306E-01 0.95856884E+02</pdfrwt>
<totfact> 0.29463063E+03</totfact>
</mgrwt>
</event>
<event>
 8    1  0.3466492E-004  0.1052042E+03  0.7546771E-02  0.1270160E+00
         -1   -1    0    0    0  501 -0.00000000000E+00  0.00000000000E+00  0.11324851830E+04  0.11324851830E+04  0.00000000000E+00 0.  1.
          1   -1    0    0  501    0  0.00000000000E+00 -0.00000000000E+00 -0.96992589966E+01  0.96992589966E+01  0.00000000000E+00 0. -1.
         23    2    1    2    0    0  0.16558448872E+02 -0.45785923551E+02  0.58126620795E+03  0.59071001573E+03  0.93259772470E+02 0.  0.
         23    2    1    2    0    0 -0.16558448872E+02  0.45785923551E+02  0.54151971601E+03  0.55147442621E+03  0.92249156745E+02 0.  0.
          5    1    4    4  502    0 -0.52638107197E+02  0.34382468046E+02  0.26837863059E+03  0.27568479065E+03  0.47000000000E+01 0. -1.
         -5    1    3    3    0  503 -0.27711759951E+01 -0.65615679499E+02  0.50791496295E+03  0.51216481370E+03  0.47000000000E+01 0.  1.
          5    1    3    3  503    0  0.19329624867E+02  0.19829755947E+02  0.73351245002E+02  0.78545202029E+02  0.47000000000E+01 0. -1.
         -5    1    4    4    0  502  0.36079658325E+02  0.11403455505E+02  0.27314108541E+03  0.27578963556E+03  0.47000000000E+01 0.  1.
<mgrwt>
<rscale>  0 0.10497975E+03</rscale>
<asrwt>0</asrwt>
<pdfrwt beam="1">  1        1 0.14921946E-02 0.10520417E+03</pdfrwt>
<pdfrwt beam="2">  1       -1 0.17422838E+00 0.10520417E+03</pdfrwt>
<totfact> 0.21950938E+03</totfact>
</mgrwt>
</event>
<event>
 8    1  0.3466492E-004  0.3405673E+03  0.7546771E-02  0.1066576E+00
          2   -1    0    0  501    0  0.00000000000E+00  0.00000000000E+00  0.11975548559E+03  0.11975548559E+03  0.00000000000E+00 0. -1.
         -2   -1    0    0    0  501 -0.00000000000E+00 -0.00000000000E+00 -0.18131263533E+04  0.18131263533E+04  0.00000000000E+00 0.  1.
         23    2    1    2    0    0  0.28402896940E+03  0.16398291630E+03 -0.18698708131E+03  0.38852321299E+03  0.91778353400E+02 0.  0.
         23    2    1    2    0    0 -0.28402896940E+03 -0.16398291630E+03 -0.15063837864E+04  0.15443586259E+04  0.91041755022E+02 0.  0.
          5    1    4    4  502    0 -0.14360096938E+03 -0.42927301834E+02 -0.54522361382E+03  0.56546871772E+03  0.47000000000E+01 0. -1.
         -5    1    3    3    0  503  0.59714663116E+02  0.32349648084E+02  0.14810795846E+00  0.68076814395E+02  0.47000000000E+01 0.  1.
          5    1    3    3  503    0  0.22431430629E+03  0.13163326822E+03 -0.18713518927E+03  0.32044639859E+03  0.47000000000E+01 0. -1.
         -5    1    4    4    0  502 -0.14042800003E+03 -0.12105561447E+03 -0.96116017262E+03  0.97888990822E+03  0.47000000000E+01 0.  1.
<mgrwt>
<rscale>  0 0.34051790E+03</rscale>
<asrwt>0</asrwt>
<pdfrwt beam="1">  1        2 0.18423920E-01 0.34056735E+03</pdfrwt>
<pdfrwt beam="2">  1       -2 0.27894252E+00 0.34056735E+03</pdfrwt>
<totfact> 0.14636381E+01</totfact>
</mgrwt>
</event>
<event>
 8    1  0.3466492E-004  0.1067712E+03  0.7546771E-02  0.1266832E+00
          3   -1    0    0  501    0  0.00000000000E+00  0.00000000000E+00  0.99494243426E+02  0.99494243426E+02  0.00000000000E+00 0. -1.
         -3   -1    0    0    0  501 -0.00000000000E+00 -0.00000000000E+00 -0.11881731726E+03  0.11881731726E+03  0.00000000000E+00 0.  1.
         23    2    1    2    0    0 -0.34944088519E+02  0.46386225256E+02  0.11832609317E+02  0.10708765953E+03  0.89190722408E+02 0.  0.
         23    2    1    2    0    0  0.34944088519E+02 -0.46386225256E+02 -0.31155683154E+02  0.11122390116E+03  0.89595247537E+02 0.  0.
          5    1    4    4  502    0  0.39882424342E+02 -0.69746910062E+02 -0.14611214977E+02  0.81797413392E+02  0.47000000000E+01 0. -1.
         -5    1    4    4    0  502 -0.49383358224E+01  0.23360684806E+02 -0.16544468177E+02  0.29426487771E+02  0.47000000000E+01 0.  1.
          5    1    3    3  503    0  0.12879104350E+02  0.35246218896E+02  0.35950423674E+02  0.52179404344E+02  0.47000000000E+01 0. -1.
         -5    1    3    3    0  503 -0.47823192869E+02  0.11140006360E+02 -0.24117814357E+02  0.54908255183E+02  0.47000000000E+01 0.  1.
<mgrwt>
<rscale>  0 0.10668625E+03</rscale>
<asrwt>0</asrwt>
<pdfrwt beam="1">  1        3 0.15306807E-01 0.10677116E+03</pdfrwt>
<pdfrwt beam="2">  1       -3 0.18279587E-01 0.10677116E+03</pdfrwt>
<totfact> 0.20676545E+03</totfact>
</mgrwt>
</event>
<event>
 8    1  0.3466492E-004  0.1145279E+03  0.7546771E-02  0.1254795E+00
          1   -1    0    0  501    0  0.00000000000E+00  0.00000000000E+00  0.99395436807E+02  0.99395436807E+02  0.00000000000E+00 0. -1.
         -1   -1    0    0    0  501 -0.00000000000E+00 -0.00000000000E+00 -0.33149466120E+03  0.33149466120E+03  0.00000000000E+00 0.  1.
         23    2    1    2    0    0 -0.80995028774E+01 -0.58176350329E+02 -0.28673589840E+03  0.30876224854E+03  0.98318670698E+02 0.  0.
         23    2    1    2    0    0  0.80995028774E+01  0.58176350329E+02  0.54636674010E+02  0.12212784946E+03  0.92086675385E+02 0.  0.
          5    1    4    4  502    0  0.22438620756E+02  0.31128785121E+02  0.75473642716E+02  0.84798901581E+02  0.47000000000E+01 0. -1.
         -5    1    4    4    0  502 -0.14339117878E+02  0.27047565208E+02 -0.20836968706E+02  0.37328947883E+02  0.47000000000E+01 0.  1.
          5    1    3    3  503    0 -0.44430092379E+02 -0.55620670183E+02 -0.13552546426E+03  0.15315656540E+03  0.47000000000E+01 0. -1.
         -5    1    3    3    0  503  0.36330589502E+02 -0.25556801453E+01 -0.15121043414E+03  0.15560568314E+03  0.47000000000E+01 0.  1.
<mgrwt>
<rscale>  0 0.11317848E+03</rscale>
<asrwt>0</asrwt>
<pdfrwt beam="1">  1        1 0.15291605E-01 0.11452795E+03</pdfrwt>
<pdfrwt beam="2">  1       -1 0.50999180E-01 0.11452795E+03</pdfrwt>
<totfact> 0.14023662E+03</totfact>
</mgrwt>
</event>
<event>
 8    1  0.3466492E-004  0.1636856E+03  0.7546771E-02  0.1184633E+00
          3   -1    0    0  501    0  0.00000000000E+00  0.00000000000E+00  0.65579335424E+02  0.65579335424E+02  0.00000000000E+00 0. -1.
         -3   -1    0    0    0  501 -0.00000000000E+00 -0.00000000000E+00 -0.41846189266E+03  0.41846189266E+03  0.00000000000E+00 0.  1.
         23    2    1    2    0    0  0.60365859575E+02  0.12165883326E+03 -0.13854548125E+03  0.21435001823E+03  0.91138198523E+02 0.  0.
         23    2    1    2    0    0 -0.60365859575E+02 -0.12165883326E+03 -0.21433707598E+03  0.26969120985E+03  0.91367706642E+02 0.  0.
          5    1    3    3  502    0 -0.17144427572E+02  0.38449667775E+02 -0.11737421029E+02  0.43956403415E+02  0.47000000000E+01 0. -1.
         -5    1    3    3    0  502  0.77510287147E+02  0.83209165480E+02 -0.12680806022E+03  0.17039361482E+03  0.47000000000E+01 0.  1.
          5    1    4    4  503    0 -0.12331282516E+02 -0.96866603403E+02 -0.18181573854E+03  0.20643219750E+03  0.47000000000E+01 0. -1.
         -5    1    4    4    0  503 -0.48034577060E+02 -0.24792229852E+02 -0.32521337444E+02  0.63259012350E+02  0.47000000000E+01 0.  1.
<mgrwt>
<rscale>  0 0.16365356E+03</rscale>
<asrwt>0</asrwt>
<pdfrwt beam="1">  1        3 0.10089129E-01 0.16368557E+03</pdfrwt>
<pdfrwt beam="2">  1       -3 0.64378751E-01 0.16368557E+03</pdfrwt>
<totfact> 0.41146841E+02</totfact>
</mgrwt>
</event>
<event>
 8    1  0.3466492E-004  0.1608500E+03  0.7546771E-02  0.1187985E+00
          1   -1    0    0  501    0  0.00000000000E+00  0.00000000000E+00  0.46637264406E+03  0.46637264406E+03  0.00000000000E+00 0. -1.
         -1   -1    0    0    0  501 -0.00000000000E+00 -0.00000000000E+00 -0.56288697164E+02  0.56288697164E+02  0.00000000000E+00 0.  1.
         23    2    1    2    0    0 -0.11487514184E+03 -0.65431332212E+02  0.24232584193E+03  0.29085138532E+03  0.91625090610E+02 0.  0.
         23    2    1    2    0    0  0.11487514184E+03  0.65431332212E+02  0.16775810497E+03  0.23180995591E+03  0.90086161132E+02 0.  0.
          5    1    3    3  502    0 -0.99579510281E+02 -0.84162215973E+02  0.22704903791E+03  0.26186392093E+03  0.47000000000E+01 0. -1.
         -5    1    4    4    0  503  0.58434110777E+02 -0.14480404433E+02  0.80511762885E+02  0.10064025724E+03  0.47000000000E+01 0.  1.
          5    1    4    4  503    0  0.56441031059E+02  0.79911736645E+02  0.87246342083E+02  0.13116969866E+03  0.47000000000E+01 0. -1.
         -5    1    3    3    0  502 -0.15295631555E+02  0.18730883762E+02  0.15276804020E+02  0.28987464398E+02  0.47000000000E+01 0.  1.
<mgrwt>
<rscale>  0 0.16063163E+03</rscale>
<asrwt>0</asrwt>
<pdfrwt beam="1">  1        1 0.71749635E-01 0.16084998E+03</pdfrwt>
<pdfrwt beam="2">  1       -1 0.86597999E-02 0.16084998E+03</pdfrwt>
<totfact> 0.36868663E+03</totfact>
</mgrwt>
</event>
<event>
 8    1  0.3466492E-004  0.9492157E+02  0.7546771E-02  0.1293553E+00
         -1   -1    0    0    0  501 -0.00000000000E+00  0.00000000000E+00  0.45185761877E+03  0.45185761877E+03  0.00000000000E+00 0.  1.
          1   -1    0    0  501    0  0.00000000000E+00 -0.00000000000E+00 -0.21430214328E+02  0.21430214328E+02  0.00000000000E+00 0. -1.
         23    2    1    2    0    0 -0.17783386991E+01  0.18425883867E+02  0.13403076914E+03  0.16206272179E+03  0.89204276982E+02 0.  0.
         23    2    1    2    0    0  0.17783386991E+01 -0.18425883867E+02  0.29639663531E+03  0.31122511132E+03  0.93099026887E+02 0.  0.
          5    1    4    4  502    0  0.32482546783E+02 -0.83913228549E+01  0.38547214893E+02  0.51317715467E+02  0.47000000000E+01 0. -1.
         -5    1    3    3    0  503 -0.66122705382E+01 -0.35313441069E+02  0.44025899263E+02  0.57018690337E+02  0.47000000000E+01 0.  1.
          5    1    3    3  503    0  0.48339318391E+01  0.53739324936E+02  0.90004869876E+02  0.10504403145E+03  0.47000000000E+01 0. -1.
         -5    1    4    4    0  502 -0.30704208084E+02 -0.10034561012E+02  0.25784942042E+03  0.25990739585E+03  0.47000000000E+01 0.  1.
<mgrwt>
<rscale>  0 0.93952634E+02</rscale>
<asrwt>0</asrwt>
<pdfrwt beam="1">  1        1 0.32969564E-02 0.94921570E+02</pdfrwt>
<pdfrwt beam="2">  1       -1 0.69516550E-01 0.94921570E+02</pdfrwt>
<totfact> 0.59900360E+03</totfact>
</mgrwt>
</event>
<event>
 8    1  0.3466492E-004  0.9621702E+02  0.7546771E-02  0.1289101E+00
         -1   -1    0    0    0  501 -0.00000000000E+00  0.00000000000E+00  0.11234801310E+02  0.11234801310E+02  0.00000000000E+00 0.  1.
          1   -1    0    0  501    0  0.00000000000E+00 -0.00000000000E+00 -0.82765728597E+03  0.82765728597E+03  0.00000000000E+00 0. -1.
         23    2    1    2    0    0 -0.15808229078E+02 -0.32312870318E+02 -0.45932091065E+03  0.46905530105E+03  0.87995197525E+02 0.  0.
         23    2    1    2    0    0  0.15808229078E+02  0.32312870318E+02 -0.35710157401E+03  0.36983678623E+03  0.89239523723E+02 0.  0.
          5    1    4    4  502    0  0.27564226936E+02  0.53430477509E+02 -0.31771352873E+03  0.32338611422E+03  0.47000000000E+01 0. -1.
         -5    1    3    3    0  503 -0.48817827302E+02 -0.37195338496E+01 -0.28936365290E+03  0.29351393291E+03  0.47000000000E+01 0.  1.
          5    1    3    3  503    0  0.33009598224E+02 -0.28593336468E+02 -0.16995725775E+03  0.17554136814E+03  0.47000000000E+01 0. -1.
         -5    1    4    4    0  502 -0.11755997858E+02 -0.21117607191E+02 -0.39388045281E+02  0.46450672010E+02  0.47000000000E+01 0.  1.
<mgrwt>
<rscale>  0 0.95927474E+02</rscale>
<asrwt>0</asrwt>
<pdfrwt beam="1">  1        1 0.12733189E+00 0.96217017E+02</pdfrwt>
<pdfrwt beam="2">  1       -1 0.17284310E-02 0.96217017E+02</pdfrwt>
<totfact> 0.17169633E+04</totfact>
</mgrwt>
</event>
<event>
 8    1  0.3466492E-004  0.1026389E+03  0.7546771E-02  0.1278085E+00
         -1   -1    0    0    0  501 -0.00000000000E+00  0.00000000000E+00  0.18793551732E+03  0.18793551732E+03  0.00000000000E+00 0.  1.
          1   -1    0    0  501    0  0.00000000000E+00 -0.00000000000E+00 -0.60580564990E+02  0.60580564990E+02  0.00000000000E+00 0. -1.
         23    2    1    2    0    0 -0.36635094209E+02 -0.15744600643E+02  0.11010110086E+03  0.15052240183E+03  0.94576521746E+02 0.  0.
         23    2    1    2    0    0  0.36635094209E+02  0.15744600643E+02  0.17253851466E+02  0.97993680473E+02  0.87835320032E+02 0.  0.
          5    1    3    3  502    0  0.15715180566E+02 -0.38830681096E+02  0.29023125694E+02  0.51178320797E+02  0.47000000000E+01 0. -1.
         -5    1    4    4    0  503  0.12758981461E+02  0.37567286026E+02 -0.23031917815E+02  0.46115635369E+02  0.47000000000E+01 0.  1.
          5    1    4    4  503    0  0.23876112748E+02 -0.21822685383E+02  0.40285769281E+02  0.51878045104E+02  0.47000000000E+01 0. -1.
         -5    1    3    3    0  502 -0.52350274775E+02  0.23086080452E+02  0.81077975166E+02  0.99344081035E+02  0.47000000000E+01 0.  1.
<mgrwt>
<rscale>  0 0.10105874E+03</rscale>
<asrwt>0</asrwt>
<pdfrwt beam="1">  1        1 0.93200870E-02 0.10263889E+03</pdfrwt>
<pdfrwt beam="2">  1       -1 0.28913156E-01 0.10263889E+03</pdfrwt>
<totfact> 0.71099974E+03</totfact>
</mgrwt>
</event>
<event>
 8    1  0.3466492E-004  0.1212001E+03  0.7546771E-02  0.1241152E+00
          2   -1    0    0  501    0  0.00000000000E+00  0.00000000000E+00  0.32013537629E+03  0.32013537629E+03  0.00000000000E+00 0. -1.
         -2   -1    0    0    0  501 -0.00000000000E+00 -0.00000000000E+00 -0.97973719264E+02  0.97973719264E+02  0.00000000000E+00 0.  1.
         23    2    1    2    0    0  0.50268306485E+02 -0.58528909487E+02 -0.41368899565E+02  0.12806581983E+03  0.93471559706E+02 0.  0.
         23    2    1    2    0    0 -0.50268306485E+02  0.58528909487E+02  0.26353055659E+03  0.29004327573E+03  0.93403488454E+02 0.  0.
          5    1    4    4  502    0 -0.63668514923E+02  0.85542411233E+01  0.18491144289E+03  0.19580905634E+03  0.47000000000E+01 0. -1.
         -5    1    4    4    0  502  0.13400208439E+02  0.49974668363E+02  0.78619113699E+02  0.94234219385E+02  0.47000000000E+01 0.  1.
          5    1    3    3  503    0 -0.17549617696E+02 -0.39195224652E+02 -0.37627852156E+02  0.57290487646E+02  0.47000000000E+01 0. -1.
         -5    1    3    3    0  503  0.67817924181E+02 -0.19333684834E+02 -0.37410474091E+01  0.70775332180E+02  0.47000000000E+01 0.  1.
<mgrwt>
<rscale>  0 0.12118699E+03</rscale>
<asrwt>0</asrwt>
<pdfrwt beam="1">  1        2 0.49251596E-01 0.12120012E+03</pdfrwt>
<pdfrwt beam="2">  1       -2 0.15072880E-01 0.12120012E+03</pdfrwt>
<totfact> 0.33270524E+03</totfact>
</mgrwt>
</event>
<event>
 8    1  0.3466492E-004  0.2006315E+03  0.7546771E-02  0.1149332E+00
         -1   -1    0    0    0  501 -0.00000000000E+00  0.00000000000E+00  0.54584674497E+03  0.54584674497E+03  0.00000000000E+00 0.  1.
          1   -1    0    0  501    0  0.00000000000E+00 -0.00000000000E+00 -0.87957190801E+02  0.87957190801E+02  0.00000000000E+00 0. -1.
         23    2    1    2    0    0 -0.15725404696E+03  0.86567892949E+02  0.10086627331E+03  0.22455961892E+03  0.89611282680E+02 0.  0.
         23    2    1    2    0    0  0.15725404696E+03 -0.86567892949E+02  0.35702328086E+03  0.40924431685E+03  0.88274868592E+02 0.  0.
          5    1    4    4  502    0  0.42164336243E+02  0.10670934099E+02  0.45238211826E+02  0.62930802431E+02  0.47000000000E+01 0. -1.
         -5    1    3    3    0  503  0.71781556991E+01  0.22311376019E+02  0.14626142008E+02  0.28023872844E+02  0.47000000000E+01 0.  1.
          5    1    3    3  503    0 -0.16443220266E+03  0.64256516929E+02  0.86240131306E+02  0.19653574608E+03  0.47000000000E+01 0. -1.
         -5    1    4    4    0  502  0.11508971072E+03 -0.97238827048E+02  0.31178506903E+03  0.34631351442E+03  0.47000000000E+01 0.  1.
<mgrwt>
<rscale>  0 0.20048305E+03</rscale>
<asrwt>0</asrwt>
<pdfrwt beam="1">  1        1 0.13531876E-01 0.20063155E+03</pdfrwt>
<pdfrwt beam="2">  1       -1 0.83976420E-01 0.20063155E+03</pdfrwt>
<totfact> 0.62911484E+02</totfact>
</mgrwt>
</event>
<event>
 8    1  0.3466492E-004  0.1061670E+03  0.7546771E-02  0.1269035E+00
          1   -1    0    0  501    0  0.00000000000E+00  0.00000000000E+00  0.36894243710E+03  0.36894243710E+03  0.00000000000E+00 0. -1.
         -1   -1    0    0    0  501 -0.00000000000E+00 -0.00000000000E+00 -0.55400334403E+02  0.55400334403E+02  0.00000000000E+00 0.  1.
         23    2    1    2    0    0  0.20161650893E+02 -0.48108491469E+02  0.11717350936E+02  0.10439026480E+03  0.89661094990E+02 0.  0.
         23    2    1    2    0    0 -0.20161650893E+02  0.48108491469E+02  0.30182475176E+03  0.31995250669E+03  0.92468949647E+02 0.  0.
          5    1    4    4  502    0  0.12166727293E+02  0.63109048322E+02  0.23935361628E+03  0.24787703576E+03  0.47000000000E+01 0. -1.
         -5    1    4    4    0  502 -0.32328378186E+02 -0.15000556852E+02  0.62471135477E+02  0.72075470930E+02  0.47000000000E+01 0.  1.
          5    1    3    3  503    0  0.43926935667E+02  0.55723276995E+01  0.90354472708E+01  0.45435182629E+02  0.47000000000E+01 0. -1.
         -5    1    3    3    0  503 -0.23765284775E+02 -0.53680819169E+02  0.26819036651E+01  0.58955082176E+02  0.47000000000E+01 0.  1.
<mgrwt>
<rscale>  0 0.10555256E+03</rscale>
<asrwt>0</asrwt>
<pdfrwt beam="1">  1        1 0.56760374E-01 0.10616697E+03</pdfrwt>
<pdfrwt beam="2">  1       -1 0.85231286E-02 0.10616697E+03</pdfrwt>
<totfact> 0.49732459E+03</totfact>
</mgrwt>
</event>
<event>
 8    1  0.3466492E-004  0.9329410E+02  0.7546771E-02  0.1296508E+00
         -1   -1    0    0    0  501 -0.00000000000E+00  0.00000000000E+00  0.38011829701E+02  0.38011829701E+02  0.00000000000E+00 0.  1.
          1   -1    0    0  501    0  0.00000000000E+00 -0.00000000000E+00 -0.26183660746E+03  0.26183660746E+03  0.00000000000E+00 0. -1.
         23    2    1    2    0    0  0.69191231558E+01 -0.12617137598E+02 -0.52873503125E+02  0.10509698824E+03  0.89681119411E+02 0.  0.
         23    2    1    2    0    0 -0.69191231558E+01  0.12617137598E+02 -0.17095127464E+03  0.19475144892E+03  0.92177666113E+02 0.  0.
          5    1    3    3  502    0  0.13375423977E+02  0.32426996740E+02 -0.47208167914E+02  0.59000959330E+02  0.47000000000E+01 0. -1.
         -5    1    4    4    0  503 -0.27965995253E+02 -0.37518995399E+01 -0.81912701608E+01  0.29755008780E+02  0.47000000000E+01 0.  1.
          5    1    4    4  503    0  0.21046872097E+02  0.16369037138E+02 -0.16276000448E+03  0.16499644014E+03  0.47000000000E+01 0. -1.
         -5    1    3    3    0  502 -0.64563008215E+01 -0.45044134338E+02 -0.56653352115E+01  0.46096028914E+02  0.47000000000E+01 0.  1.
<mgrwt>
<rscale>  0 0.92671427E+02</rscale>
<asrwt>0</asrwt>
<pdfrwt beam="1">  1        1 0.40282556E-01 0.93294097E+02</pdfrwt>
<pdfrwt beam="2">  1       -1 0.58479737E-02 0.93294097E+02</pdfrwt>
<totfact> 0.13137645E+04</totfact>
</mgrwt>
</event>
<event>
 8    1  0.3466492E-004  0.1376602E+03  0.7546771E-02  0.1216855E+00
         -1   -1    0    0    0  501 -0.00000000000E+00  0.00000000000E+00  0.22630681713E+02  0.22630681713E+02  0.00000000000E+00 0.  1.
          1   -1    0    0  501    0  0.00000000000E+00 -0.00000000000E+00 -0.90973467379E+03  0.90973467379E+03  0.00000000000E+00 0. -1.
         23    2    1    2    0    0 -0.94491096293E+02 -0.34626006380E+02 -0.30818189683E+03  0.33752988331E+03  0.93929830171E+02 0.  0.
         23    2    1    2    0    0  0.94491096293E+02  0.34626006380E+02 -0.57892209524E+03  0.59483547219E+03  0.92471179394E+02 0.  0.
          5    1    4    4  502    0  0.71931046341E+02 -0.92277457317E+01 -0.46448341733E+03  0.47013419541E+03  0.47000000000E+01 0. -1.
         -5    1    3    3    0  503 -0.10888844280E+03 -0.13169129785E+02 -0.22599808012E+03  0.25125154959E+03  0.47000000000E+01 0.  1.
          5    1    3    3  503    0  0.14397346508E+02 -0.21456876594E+02 -0.82183816713E+02  0.86278333719E+02  0.47000000000E+01 0. -1.
         -5    1    4    4    0  502  0.22560049952E+02  0.43853752111E+02 -0.11443867791E+03  0.12470127678E+03  0.47000000000E+01 0.  1.
<mgrwt>
<rscale>  0 0.13741178E+03</rscale>
<asrwt>0</asrwt>
<pdfrwt beam="1">  1        1 0.13995918E+00 0.13766024E+03</pdfrwt>
<pdfrwt beam="2">  1       -1 0.34816434E-02 0.13766024E+03</pdfrwt>
<totfact> 0.55224716E+03</totfact>
</mgrwt>
</event>
<event>
 8    1  0.3466492E-004  0.2261442E+03  0.7546771E-02  0.1129513E+00
          1   -1    0    0  501    0  0.00000000000E+00  0.00000000000E+00  0.13535764253E+04  0.13535764253E+04  0.00000000000E+00 0. -1.
         -1   -1    0    0    0  501 -0.00000000000E+00 -0.00000000000E+00 -0.38286732266E+03  0.38286732266E+03  0.00000000000E+00 0.  1.
         23    2    1    2    0    0  0.28435407854E+02 -0.20444207516E+03 -0.33913492015E+03  0.40722120973E+03  0.90617244914E+02 0.  0.
         23    2    1    2    0    0 -0.28435407854E+02  0.20444207516E+03  0.13098440228E+04  0.13292225383E+04  0.92390787390E+02 0.  0.
          5    1    3    3  502    0 -0.21616383203E+02 -0.83098887695E+02 -0.83732215691E+02  0.12002444377E+03  0.47000000000E+01 0. -1.
         -5    1    3    3    0  502  0.50051791057E+02 -0.12134318747E+03 -0.25540270446E+03  0.28719676596E+03  0.47000000000E+01 0.  1.
          5    1    4    4  503    0  0.27899787518E+02  0.11241972456E+03  0.77047970864E+03  0.77915188765E+03  0.47000000000E+01 0. -1.
         -5    1    4    4    0  503 -0.56335195372E+02  0.92022350596E+02  0.53936431417E+03  0.55007065060E+03  0.47000000000E+01 0.  1.
<mgrwt>
<rscale>  0 0.22596428E+03</rscale>
<asrwt>0</asrwt>
<pdfrwt beam="1">  1        1 0.20824252E+00 0.22614418E+03</pdfrwt>
<pdfrwt beam="2">  1       -1 0.58902666E-01 0.22614418E+03</pdfrwt>
<totfact> 0.27972370E+01</totfact>
</mgrwt>
</event>
<event>
 8    1  0.3466492E-004  0.9003126E+02  0.7546771E-02  0.1304142E+00
          1   -1    0    0  501    0  0.00000000000E+00  0.00000000000E+00  0.24368546616E+03  0.24368546616E+03  0.00000000000E+00 0. -1.
         -1   -1    0    0    0  501 -0.00000000000E+00 -0.00000000000E+00 -0.33704892298E+02  0.33704892298E+02  0.00000000000E+00 0.  1.
         23    2    1    2    0    0 -0.39838104041E+01  0.10074307992E-01  0.13306955955E+03  0.16066467004E+03  0.89943080176E+02 0.  0.
         23    2    1    2    0    0  0.39838104041E+01 -0.10074307992E-01  0.76911014309E+02  0.11672568842E+03  0.87713803751E+02 0.  0.
          5    1    4    4  502    0  0.28717010761E+02  0.25444804476E+01 -0.61886793954E+01  0.29858513702E+02  0.47000000000E+01 0. -1.
         -5    1    3    3    0  503 -0.29490777556E+02 -0.35288456773E+02  0.68401803609E+02  0.82558330163E+02  0.47000000000E+01 0.  1.
          5    1    3    3  503    0  0.25506967152E+02  0.35298531081E+02  0.64667755942E+02  0.78106339873E+02  0.47000000000E+01 0. -1.
         -5    1    4    4    0  502 -0.24733200357E+02 -0.25545547556E+01  0.83099693704E+02  0.86867174719E+02  0.47000000000E+01 0.  1.
<mgrwt>
<rscale>  0 0.89469264E+02</rscale>
<asrwt>0</asrwt>
<pdfrwt beam="1">  1        1 0.37490070E-01 0.90031264E+02</pdfrwt>
<pdfrwt beam="2">  1       -1 0.51853682E-02 0.90031264E+02</pdfrwt>
<totfact> 0.17052320E+04</totfact>
</mgrwt>
</event>
<event>
 8    1  0.3466492E-004  0.1025665E+03  0.7546771E-02  0.1276320E+00
          2   -1    0    0  501    0  0.00000000000E+00  0.00000000000E+00  0.60708472433E+02  0.60708472433E+02  0.00000000000E+00 0. -1.
         -2   -1    0    0    0  501 -0.00000000000E+00 -0.00000000000E+00 -0.16979772191E+03  0.16979772191E+03  0.00000000000E+00 0.  1.
         23    2    1    2    0    0  0.42905732284E+02 -0.10510810889E+02 -0.63367945906E+02  0.12056280511E+03  0.92566270316E+02 0.  0.
         23    2    1    2    0    0 -0.42905732284E+02  0.10510810889E+02 -0.45721303566E+02  0.10994338922E+03  0.89698005697E+02 0.  0.
          5    1    3    3  502    0  0.21690229560E+01 -0.47168984717E+02 -0.32147560270E+02  0.57316432296E+02  0.47000000000E+01 0. -1.
         -5    1    3    3    0  502  0.40736709328E+02  0.36658173828E+02 -0.31220385636E+02  0.63246372818E+02  0.47000000000E+01 0.  1.
          5    1    4    4  503    0 -0.22996980466E+02 -0.19291186806E+02  0.18984107104E+02  0.35825930853E+02  0.47000000000E+01 0. -1.
         -5    1    4    4    0  503 -0.19908751818E+02  0.29801997694E+02 -0.64705410670E+02  0.74117458372E+02  0.47000000000E+01 0.  1.
<mgrwt>
<rscale>  0 0.10191511E+03</rscale>
<asrwt>0</asrwt>
<pdfrwt beam="1">  1        2 0.93397651E-02 0.10256653E+03</pdfrwt>
<pdfrwt beam="2">  1       -2 0.26122726E-01 0.10256653E+03</pdfrwt>
<totfact> 0.84267152E+03</totfact>
</mgrwt>
</event>
<event>
 8    1  0.3466492E-004  0.9620927E+02  0.7546771E-02  0.1290033E+00
         -2   -1    0    0    0  501 -0.00000000000E+00  0.00000000000E+00  0.14145910169E+02  0.14145910169E+02  0.00000000000E+00 0.  1.
          2   -1    0    0  501    0  0.00000000000E+00 -0.00000000000E+00 -0.65091018673E+03  0.65091018673E+03  0.00000000000E+00 0. -1.
         23    2    1    2    0    0  0.26320553102E+02 -0.55457391144E+00 -0.27200231278E+03  0.28851599775E+03  0.92537255909E+02 0.  0.
         23    2    1    2    0    0 -0.26320553102E+02  0.55457391144E+00 -0.36476196378E+03  0.37654009915E+03  0.89655323209E+02 0.  0.
          5    1    3    3  502    0  0.16623468692E+02 -0.20090302675E+02 -0.26320212122E+03  0.26453243013E+03  0.47000000000E+01 0. -1.
         -5    1    4    4    0  503 -0.42877193878E+02  0.33366566360E+02 -0.25249888491E+03  0.25832065033E+03  0.47000000000E+01 0.  1.
          5    1    4    4  503    0  0.16556640776E+02 -0.32811992449E+02 -0.11226307886E+03  0.11821944882E+03  0.47000000000E+01 0. -1.
         -5    1    3    3    0  502  0.96970844092E+01  0.19535728763E+02 -0.88001915565E+01  0.23983567620E+02  0.47000000000E+01 0.  1.
<mgrwt>
<rscale>  0 0.95509516E+02</rscale>
<asrwt>0</asrwt>
<pdfrwt beam="1">  1        2 0.10014002E+00 0.96209266E+02</pdfrwt>
<pdfrwt beam="2">  1       -2 0.21762941E-02 0.96209266E+02</pdfrwt>
<totfact> 0.28390254E+04</totfact>
</mgrwt>
</event>
<event>
 8    1  0.3466492E-004  0.1112084E+03  0.7546771E-02  0.1258728E+00
         -1   -1    0    0    0  501 -0.00000000000E+00  0.00000000000E+00  0.28602423144E+02  0.28602423144E+02  0.00000000000E+00 0.  1.
          1   -1    0    0  501    0  0.00000000000E+00 -0.00000000000E+00 -0.47572887211E+03  0.47572887211E+03  0.00000000000E+00 0. -1.
         23    2    1    2    0    0  0.42258300530E+02  0.45561701669E+02 -0.30320111067E+03  0.32295234213E+03  0.92226184751E+02 0.  0.
         23    2    1    2    0    0 -0.42258300530E+02 -0.45561701669E+02 -0.14392533829E+03  0.18137895312E+03  0.91226032522E+02 0.  0.
          5    1    3    3  502    0  0.57344506892E+02 -0.54286246240E+01 -0.16157002883E+03  0.17159494938E+03  0.47000000000E+01 0. -1.
         -5    1    3    3    0  502 -0.15086206361E+02  0.50990326293E+02 -0.14163108184E+03  0.15135739275E+03  0.47000000000E+01 0.  1.
          5    1    4    4  503    0  0.36012016547E+01  0.24757823644E+02 -0.24564755677E+02  0.35375637188E+02  0.47000000000E+01 0. -1.
         -5    1    4    4    0  503 -0.45859502185E+02 -0.70319525313E+02 -0.11936058262E+03  0.14600331593E+03  0.47000000000E+01 0.  1.
<mgrwt>
<rscale>  0 0.11100079E+03</rscale>
<asrwt>0</asrwt>
<pdfrwt beam="1">  1        1 0.73189061E-01 0.11120837E+03</pdfrwt>
<pdfrwt beam="2">  1       -1 0.44003725E-02 0.11120837E+03</pdfrwt>
<totfact> 0.96550164E+03</totfact>
</mgrwt>
</event>
<event>
 8    1  0.3466492E-004  0.1367414E+03  0.7546771E-02  0.1218535E+00
         -1   -1    0    0    0  501 -0.00000000000E+00  0.00000000000E+00  0.34477132054E+02  0.34477132054E+02  0.00000000000E+00 0.  1.
          1   -1    0    0  501    0  0.00000000000E+00 -0.00000000000E+00 -0.70929768604E+03  0.70929768604E+03  0.00000000000E+00 0. -1.
         23    2    1    2    0    0  0.26350707671E+02 -0.94944401744E+02 -0.15043934293E+03  0.20185797569E+03  0.91683407598E+02 0.  0.
         23    2    1    2    0    0 -0.26350707671E+02  0.94944401744E+02 -0.52438121106E+03  0.54191684241E+03  0.94812501085E+02 0.  0.
          5    1    3    3  502    0 -0.15444577710E+02 -0.55002257655E+02 -0.12692732970E+03  0.13927103199E+03  0.47000000000E+01 0. -1.
         -5    1    3    3    0  502  0.41795285381E+02 -0.39942144088E+02 -0.23512013232E+02  0.62586943692E+02  0.47000000000E+01 0.  1.
          5    1    4    4  503    0 -0.40422020623E+02  0.66534793445E+02 -0.48457655883E+03  0.49081294794E+03  0.47000000000E+01 0. -1.
         -5    1    4    4    0  503  0.14071312953E+02  0.28409608299E+02 -0.39804652221E+02  0.51103894473E+02  0.47000000000E+01 0.  1.
<mgrwt>
<rscale>  0 0.13620051E+03</rscale>
<asrwt>0</asrwt>
<pdfrwt beam="1">  1        1 0.10912272E+00 0.13674140E+03</pdfrwt>
<pdfrwt beam="2">  1       -1 0.53041742E-02 0.13674140E+03</pdfrwt>
<totfact> 0.43286835E+03</totfact>
</mgrwt>
</event>
<event>
 8    1  0.3466492E-004  0.1138377E+03  0.7546771E-02  0.1258025E+00
          1   -1    0    0  501    0  0.00000000000E+00  0.00000000000E+00  0.17026832117E+03  0.17026832117E+03  0.00000000000E+00 0. -1.
         -1   -1    0    0    0  501 -0.00000000000E+00 -0.00000000000E+00 -0.92215122252E+02  0.92215122252E+02  0.00000000000E+00 0.  1.
         23    2    1    2    0    0  0.45221642020E+02 -0.24843037588E+02  0.10483707826E+03  0.15475731168E+03  0.10147334190E+03 0.  0.
         23    2    1    2    0    0 -0.45221642020E+02  0.24843037588E+02 -0.26783879341E+02  0.10772613175E+03  0.90693824734E+02 0.  0.
          5    1    4    4  502    0 -0.27831207934E+02 -0.32440024197E+02 -0.28872435923E+01  0.43097070440E+02  0.47000000000E+01 0. -1.
         -5    1    3    3    0  503  0.18288897719E+02  0.36232598670E+02  0.16802577640E+02  0.44178066973E+02  0.47000000000E+01 0.  1.
          5    1    3    3  503    0  0.26932744300E+02 -0.61075636257E+02  0.88034500624E+02  0.11057924471E+03  0.47000000000E+01 0. -1.
         -5    1    4    4    0  502 -0.17390434086E+02  0.57283061785E+02 -0.23896635749E+02  0.64629061306E+02  0.47000000000E+01 0.  1.
<mgrwt>
<rscale>  0 0.11138602E+03</rscale>
<asrwt>0</asrwt>
<pdfrwt beam="1">  1        1 0.26195126E-01 0.11383766E+03</pdfrwt>
<pdfrwt beam="2">  1       -1 0.14186942E-01 0.11383766E+03</pdfrwt>
<totfact> 0.59537167E+03</totfact>
</mgrwt>
</event>
