<event>
 8    1  0.8174053E-004  0.1080207E+03  0.7546771E-02  0.1267350E+00
          1   -1    0    0  501    0  0.00000000000E+00  0.00000000000E+00  0.34032118102E+03  0.34032118102E+03  0.00000000000E+00 0. -1.
         -1   -1    0    0    0  501 -0.00000000000E+00 -0.00000000000E+00 -0.56409002816E+02  0.56409002816E+02  0.00000000000E+00 0.  1.
         23    2    1    2    0    0  0.27599352061E+02  0.34027627714E+02  0.99459790093E+01  0.10223746999E+03  0.91836670720E+02 0.  0.
         23    2    1    2    0    0 -0.27599352061E+02 -0.34027627714E+02  0.27396619919E+03  0.29449271385E+03  0.98736399197E+02 0.  0.
          5    1    3    3  502    0  0.41872356572E+02 -0.19093618520E+02  0.71398202284E+00  0.46265108704E+02  0.47000000000E+01 0. -1.
         -5    1    4    4    0  503 -0.78568821493E+01 -0.58142605031E+02  0.87968398870E+02  0.10584338580E+03  0.47000000000E+01 0.  1.
          5    1    4    4  503    0 -0.19742469912E+02  0.24114977317E+02  0.18599780032E+03  0.18864932805E+03  0.47000000000E+01 0. -1.
         -5    1    3    3    0  502 -0.14273004511E+02  0.53121246234E+02  0.92319969864E+01  0.55972361283E+02  0.47000000000E+01 0.  1.
<mgrwt>
<rscale>  0 0.10641839E+03</rscale>
<asrwt>0</asrwt>
<pdfrwt beam="1">  1        1 0.52357104E-01 0.10802074E+03</pdfrwt>
<pdfrwt beam="2">  1       -1 0.86783083E-02 0.10802074E+03</pdfrwt>
<totfact> 0.53550776E+03</totfact>
</mgrwt>
</event>
<event>
 8    1  0.8174053E-004  0.9467082E+02  0.7546771E-02  0.1292637E+00
          1   -1    0    0  501    0  0.00000000000E+00  0.00000000000E+00  0.29497601467E+03  0.29497601467E+03  0.00000000000E+00 0. -1.
         -1   -1    0    0    0  501 -0.00000000000E+00 -0.00000000000E+00 -0.35833124887E+02  0.35833124887E+02  0.00000000000E+00 0.  1.
         23    2    1    2    0    0  0.34591923652E+01 -0.13906299820E+02  0.19713912454E+03  0.21869247642E+03  0.93579985215E+02 0.  0.
         23    2    1    2    0    0 -0.34591923652E+01  0.13906299820E+02  0.62003765242E+02  0.11211666313E+03  0.92305623129E+02 0.  0.
          5    1    3    3  502    0 -0.35599986083E+02 -0.32215597348E+02  0.76023319017E+02  0.90037985073E+02  0.47000000000E+01 0. -1.
         -5    1    4    4    0  503  0.19808064767E+02  0.10363728957E+02 -0.17686610608E+02  0.28890699239E+02  0.47000000000E+01 0.  1.
          5    1    4    4  503    0 -0.23267257132E+02  0.35425708628E+01  0.79690375850E+02  0.83225963893E+02  0.47000000000E+01 0. -1.
         -5    1    3    3    0  502  0.39059178448E+02  0.18309297528E+02  0.12111580552E+03  0.12865449135E+03  0.47000000000E+01 0.  1.
<mgrwt>
<rscale>  0 0.94354371E+02</rscale>
<asrwt>0</asrwt>
<pdfrwt beam="1">  1        1 0.45380924E-01 0.94670823E+02</pdfrwt>
<pdfrwt beam="2">  1       -1 0.55127886E-02 0.94670823E+02</pdfrwt>
<totfact> 0.12406328E+04</totfact>
</mgrwt>
</event>
<event>
 8    1  0.8174053E-004  0.9453995E+02  0.7546771E-02  0.1293485E+00
          1   -1    0    0  501    0  0.00000000000E+00  0.00000000000E+00  0.33138407686E+03  0.33138407686E+03  0.00000000000E+00 0. -1.
         -1   -1    0    0    0  501 -0.00000000000E+00 -0.00000000000E+00 -0.26471147160E+02  0.26471147160E+02  0.00000000000E+00 0.  1.
         23    2    1    2    0    0  0.16380014329E+02  0.43278691205E+01  0.14185305146E+03  0.17047020414E+03  0.93009499352E+02 0.  0.
         23    2    1    2    0    0 -0.16380014329E+02 -0.43278691205E+01  0.16305987824E+03  0.18738501988E+03  0.90761150633E+02 0.  0.
          5    1    4    4  502    0 -0.61071812662E+01 -0.39778594867E+02  0.13452830216E+03  0.14049764537E+03  0.47000000000E+01 0. -1.
         -5    1    3    3    0  503  0.12791243685E+02 -0.17782711392E+02  0.14556888521E+03  0.14728282684E+03  0.47000000000E+01 0.  1.
          5    1    3    3  503    0  0.35887706439E+01  0.22110580512E+02 -0.37158337571E+01  0.23187377295E+02  0.47000000000E+01 0. -1.
         -5    1    4    4    0  502 -0.10272833063E+02  0.35450725746E+02  0.28531576081E+02  0.46887374514E+02  0.47000000000E+01 0.  1.
<mgrwt>
<rscale>  0 0.93982267E+02</rscale>
<asrwt>0</asrwt>
<pdfrwt beam="1">  1        1 0.50982162E-01 0.94539951E+02</pdfrwt>
<pdfrwt beam="2">  1       -1 0.40724844E-02 0.94539951E+02</pdfrwt>
<totfact> 0.16749132E+04</totfact>
</mgrwt>
</event>
<event>
 8    1  0.8174053E-004  0.1159877E+03  0.7546771E-02  0.1251465E+00
         -3   -1    0    0    0  501 -0.00000000000E+00  0.00000000000E+00  0.29218954090E+03  0.29218954090E+03  0.00000000000E+00 0.  1.
          3   -1    0    0  501    0  0.00000000000E+00 -0.00000000000E+00 -0.44871452766E+02  0.44871452766E+02  0.00000000000E+00 0. -1.
         23    2    1    2    0    0  0.19181980870E+02  0.68228598515E+02  0.13460568214E+03  0.17532899329E+03  0.87169238716E+02 0.  0.
         23    2    1    2    0    0 -0.19181980870E+02 -0.68228598515E+02  0.11271240599E+03  0.16173200038E+03  0.91815376900E+02 0.  0.
          5    1    4    4  502    0 -0.27561583980E+02 -0.36298405472E+02  0.17323092143E+01  0.45850911076E+02  0.47000000000E+01 0. -1.
         -5    1    3    3    0  503  0.15289147439E+02 -0.18943081743E+02  0.33839054201E+02  0.41949612210E+02  0.47000000000E+01 0.  1.
          5    1    3    3  503    0  0.38928334309E+01  0.87171680258E+02  0.10076662794E+03  0.13337938108E+03  0.47000000000E+01 0. -1.
         -5    1    4    4    0  502  0.83796031096E+01 -0.31930193042E+02  0.11098009678E+03  0.11588108930E+03  0.47000000000E+01 0.  1.
<mgrwt>
<rscale>  0 0.11506631E+03</rscale>
<asrwt>0</asrwt>
<pdfrwt beam="1">  1        3 0.69033006E-02 0.11598773E+03</pdfrwt>
<pdfrwt beam="2">  1       -3 0.44952236E-01 0.11598773E+03</pdfrwt>
<totfact> 0.14992601E+03</totfact>
</mgrwt>
</event>
<event>
 8    1  0.8174053E-004  0.1054104E+03  0.7546771E-02  0.1271055E+00
          1   -1    0    0  501    0  0.00000000000E+00  0.00000000000E+00  0.19927869829E+03  0.19927869829E+03  0.00000000000E+00 0. -1.
         -1   -1    0    0    0  501 -0.00000000000E+00 -0.00000000000E+00 -0.85476275820E+02  0.85476275820E+02  0.00000000000E+00 0.  1.
         23    2    1    2    0    0 -0.75841819062E+00 -0.48388242682E+02  0.14399712521E+03  0.17845591645E+03  0.93644779988E+02 0.  0.
         23    2    1    2    0    0  0.75841819062E+00  0.48388242682E+02 -0.30194702740E+02  0.10629905766E+03  0.89698229401E+02 0.  0.
          5    1    3    3  502    0  0.15571137217E+02 -0.64138418342E+02  0.53651404545E+02  0.85186620025E+02  0.47000000000E+01 0. -1.
         -5    1    4    4    0  503  0.33140234755E+02  0.57345955383E+01 -0.39120753926E+02  0.51804286824E+02  0.47000000000E+01 0.  1.
          5    1    4    4  503    0 -0.32381816564E+02  0.42653647144E+02  0.89260511857E+01  0.54494770836E+02  0.47000000000E+01 0. -1.
         -5    1    3    3    0  502 -0.16329555408E+02  0.15750175660E+02  0.90345720663E+02  0.93269296423E+02  0.47000000000E+01 0.  1.
<mgrwt>
<rscale>  0 0.10452682E+03</rscale>
<asrwt>0</asrwt>
<pdfrwt beam="1">  1        1 0.30658261E-01 0.10541035E+03</pdfrwt>
<pdfrwt beam="2">  1       -1 0.13150196E-01 0.10541035E+03</pdfrwt>
<totfact> 0.54805782E+03</totfact>
</mgrwt>
</event>
<event>
 8    1  0.8174053E-004  0.9255184E+02  0.7546771E-02  0.1297946E+00
         -1   -1    0    0    0  501 -0.00000000000E+00  0.00000000000E+00  0.80522447222E+02  0.80522447222E+02  0.00000000000E+00 0.  1.
          1   -1    0    0  501    0  0.00000000000E+00 -0.00000000000E+00 -0.12225849030E+03  0.12225849030E+03  0.00000000000E+00 0. -1.
         23    2    1    2    0    0 -0.12995986062E+02 -0.81818549841E+01 -0.59715972149E+02  0.10849880047E+03  0.89275718804E+02 0.  0.
         23    2    1    2    0    0  0.12995986062E+02  0.81818549841E+01  0.17979929072E+02  0.94282137056E+02  0.91268861688E+02 0.  0.
          5    1    4    4  502    0  0.40924580081E+02  0.22688968147E+02 -0.14100294686E+02  0.49097034948E+02  0.47000000000E+01 0. -1.
         -5    1    4    4    0  502 -0.27928594019E+02 -0.14507113163E+02  0.32080223757E+02  0.45185102108E+02  0.47000000000E+01 0.  1.
          5    1    3    3  503    0  0.12151114451E+02 -0.42557916319E+02 -0.44736827039E+02  0.63105463450E+02  0.47000000000E+01 0. -1.
         -5    1    3    3    0  503 -0.25147100513E+02  0.34376061335E+02 -0.14979145110E+02  0.45393337015E+02  0.47000000000E+01 0.  1.
<mgrwt>
<rscale>  0 0.92056655E+02</rscale>
<asrwt>0</asrwt>
<pdfrwt beam="1">  1        1 0.18808998E-01 0.92551842E+02</pdfrwt>
<pdfrwt beam="2">  1       -1 0.12388069E-01 0.92551842E+02</pdfrwt>
<totfact> 0.10924646E+04</totfact>
</mgrwt>
</event>
<event>
 8    1  0.8174053E-004  0.1190546E+03  0.7546771E-02  0.1245330E+00
         -1   -1    0    0    0  501 -0.00000000000E+00  0.00000000000E+00  0.39011427740E+03  0.39011427740E+03  0.00000000000E+00 0.  1.
          1   -1    0    0  501    0  0.00000000000E+00 -0.00000000000E+00 -0.54609223256E+02  0.54609223256E+02  0.00000000000E+00 0. -1.
         23    2    1    2    0    0 -0.23179097731E+01  0.74850264103E+02  0.29733585400E+03  0.31969993245E+03  0.90506916796E+02 0.  0.
         23    2    1    2    0    0  0.23179097731E+01 -0.74850264103E+02  0.38169200137E+02  0.12502356821E+03  0.92553066000E+02 0.  0.
          5    1    3    3  502    0  0.19407520356E+02  0.46214741191E+02  0.54582622427E+02  0.74255012092E+02  0.47000000000E+01 0. -1.
         -5    1    3    3    0  502 -0.21725430129E+02  0.28635522912E+02  0.24275323158E+03  0.24544492035E+03  0.47000000000E+01 0.  1.
          5    1    4    4  503    0  0.31339531819E+02 -0.50683710380E+02 -0.13079333586E+02  0.61189571984E+02  0.47000000000E+01 0. -1.
         -5    1    4    4    0  503 -0.29021622046E+02 -0.24166553723E+02  0.51248533723E+02  0.63833996223E+02  0.47000000000E+01 0.  1.
<mgrwt>
<rscale>  0 0.11865673E+03</rscale>
<asrwt>0</asrwt>
<pdfrwt beam="1">  1        1 0.84014192E-02 0.11905463E+03</pdfrwt>
<pdfrwt beam="2">  1       -1 0.60017579E-01 0.11905463E+03</pdfrwt>
<totfact> 0.22750329E+03</totfact>
</mgrwt>
</event>
<event>
 8    1  0.8174053E-004  0.9181475E+02  0.7546771E-02  0.1300771E+00
          4   -1    0    0  501    0  0.00000000000E+00  0.00000000000E+00  0.30691453432E+03  0.30691453432E+03  0.00000000000E+00 0. -1.
         -4   -1    0    0    0  501 -0.00000000000E+00 -0.00000000000E+00 -0.45257914970E+02  0.45257914970E+02  0.00000000000E+00 0.  1.
         23    2    1    2    0    0  0.31451797931E+01 -0.94506262594E+01  0.24301759057E+03  0.25848487481E+03  0.87508140675E+02 0.  0.
         23    2    1    2    0    0 -0.31451797931E+01  0.94506262594E+01  0.18639028776E+02  0.93687574480E+02  0.91272896994E+02 0.  0.
          5    1    3    3  502    0 -0.24741380672E+02 -0.19954610154E+02  0.21475874998E+03  0.21714910333E+03  0.47000000000E+01 0. -1.
         -5    1    3    3    0  502  0.27886560465E+02  0.10503983895E+02  0.28258840598E+02  0.41335771484E+02  0.47000000000E+01 0.  1.
          5    1    4    4  503    0  0.26809275448E+02  0.55422574949E+00 -0.26891594166E+02  0.38266071827E+02  0.47000000000E+01 0. -1.
         -5    1    4    4    0  503 -0.29954455242E+02  0.88964005099E+01  0.45530622942E+02  0.55421502653E+02  0.47000000000E+01 0.  1.
<mgrwt>
<rscale>  0 0.90864707E+02</rscale>
<asrwt>0</asrwt>
<pdfrwt beam="1">  1        4 0.47217619E-01 0.91814749E+02</pdfrwt>
<pdfrwt beam="2">  1       -4 0.69627563E-02 0.91814749E+02</pdfrwt>
<totfact> 0.91678695E+02</totfact>
</mgrwt>
</event>
<event>
 8    1  0.8174053E-004  0.1167989E+03  0.7546771E-02  0.1255303E+00
          1   -1    0    0  501    0  0.00000000000E+00  0.00000000000E+00  0.79451363374E+03  0.79451363374E+03  0.00000000000E+00 0. -1.
         -1   -1    0    0    0  501 -0.00000000000E+00 -0.00000000000E+00 -0.20784342456E+02  0.20784342456E+02  0.00000000000E+00 0.  1.
         23    2    1    2    0    0 -0.53593602313E+01  0.43182573002E+02  0.19224165179E+03  0.22494187493E+03  0.10839066869E+03 0.  0.
         23    2    1    2    0    0  0.53593602313E+01 -0.43182573002E+02  0.58148763949E+03  0.59035610127E+03  0.92189988996E+02 0.  0.
          5    1    4    4  502    0 -0.24853121352E+02  0.19345159800E+02  0.15654189127E+03  0.15974782180E+03  0.47000000000E+01 0. -1.
         -5    1    3    3    0  503  0.31819790187E+02 -0.56164736728E+01  0.14141444843E+03  0.14513504073E+03  0.47000000000E+01 0.  1.
          5    1    3    3  503    0 -0.37179150418E+02  0.48799046674E+02  0.50827203361E+02  0.79806834192E+02  0.47000000000E+01 0. -1.
         -5    1    4    4    0  502  0.30212481583E+02 -0.62527732801E+02  0.42494574822E+03  0.43060827947E+03  0.47000000000E+01 0.  1.
<mgrwt>
<rscale>  0 0.11289350E+03</rscale>
<asrwt>0</asrwt>
<pdfrwt beam="1">  1        1 0.12223284E+00 0.11679895E+03</pdfrwt>
<pdfrwt beam="2">  1       -1 0.31975918E-02 0.11679895E+03</pdfrwt>
<totfact> 0.76424657E+03</totfact>
</mgrwt>
</event>
<event>
 8    1  0.8174053E-004  0.9541146E+02  0.7546771E-02  0.1290569E+00
         -1   -1    0    0    0  501 -0.00000000000E+00  0.00000000000E+00  0.34898761497E+02  0.34898761497E+02  0.00000000000E+00 0.  1.
          1   -1    0    0  501    0  0.00000000000E+00 -0.00000000000E+00 -0.26010032556E+03  0.26010032556E+03  0.00000000000E+00 0. -1.
         23    2    1    2    0    0  0.12153688125E+02 -0.83073360282E+01 -0.12041078321E+03  0.15327945715E+03  0.93696911917E+02 0.  0.
         23    2    1    2    0    0 -0.12153688125E+02  0.83073360282E+01 -0.10479078085E+03  0.14171962991E+03  0.94268880251E+02 0.  0.
          5    1    3    3  502    0  0.39419082693E+02  0.27870385386E+02 -0.71977763466E+02  0.86795799988E+02  0.47000000000E+01 0. -1.
         -5    1    3    3    0  502 -0.27265394568E+02 -0.36177721414E+02 -0.48433019748E+02  0.66483657161E+02  0.47000000000E+01 0.  1.
          5    1    4    4  503    0 -0.51235492686E+02  0.18210498174E+02 -0.55056417411E+02  0.77524170764E+02  0.47000000000E+01 0. -1.
         -5    1    4    4    0  503  0.39081804561E+02 -0.99031621463E+01 -0.49734363442E+02  0.64195459148E+02  0.47000000000E+01 0.  1.
<mgrwt>
<rscale>  0 0.95269871E+02</rscale>
<asrwt>0</asrwt>
<pdfrwt beam="1">  1        1 0.40015435E-01 0.95411455E+02</pdfrwt>
<pdfrwt beam="2">  1       -1 0.53690401E-02 0.95411455E+02</pdfrwt>
<totfact> 0.15050820E+04</totfact>
</mgrwt>
</event>
<event>
 8    1  0.8174053E-004  0.1044564E+03  0.7546771E-02  0.1272660E+00
          2   -1    0    0  501    0  0.00000000000E+00  0.00000000000E+00  0.47533453807E+02  0.47533453807E+02  0.00000000000E+00 0. -1.
         -2   -1    0    0    0  501 -0.00000000000E+00 -0.00000000000E+00 -0.22341748973E+03  0.22341748973E+03  0.00000000000E+00 0.  1.
         23    2    1    2    0    0 -0.41787117939E+02  0.24650942121E+02 -0.93467504278E+02  0.14016885899E+03  0.92505689026E+02 0.  0.
         23    2    1    2    0    0  0.41787117939E+02 -0.24650942121E+02 -0.82416531649E+02  0.13078208455E+03  0.89205587139E+02 0.  0.
          5    1    4    4  502    0  0.24393521375E+02  0.19731890588E+02  0.40015711840E+01  0.31976459517E+02  0.47000000000E+01 0. -1.
         -5    1    3    3    0  503 -0.59060542705E+02 -0.31908149412E+01 -0.88717389127E+02  0.10672953733E+03  0.47000000000E+01 0.  1.
          5    1    3    3  503    0  0.17273424766E+02  0.27841757063E+02 -0.47501151514E+01  0.33439321665E+02  0.47000000000E+01 0. -1.
         -5    1    4    4    0  502  0.17393596564E+02 -0.44382832710E+02 -0.86418102833E+02  0.98805625032E+02  0.47000000000E+01 0.  1.
<mgrwt>
<rscale>  0 0.10372090E+03</rscale>
<asrwt>0</asrwt>
<pdfrwt beam="1">  1        2 0.73128389E-02 0.10445638E+03</pdfrwt>
<pdfrwt beam="2">  1       -2 0.34371922E-01 0.10445638E+03</pdfrwt>
<totfact> 0.70011865E+03</totfact>
</mgrwt>
</event>
<event>
 8    1  0.8174053E-004  0.1069682E+03  0.7546771E-02  0.1267496E+00
         -2   -1    0    0    0  501 -0.00000000000E+00  0.00000000000E+00  0.63367796191E+02  0.63367796191E+02  0.00000000000E+00 0.  1.
          2   -1    0    0  501    0  0.00000000000E+00 -0.00000000000E+00 -0.22066628321E+03  0.22066628321E+03  0.00000000000E+00 0. -1.
         23    2    1    2    0    0 -0.32313364914E+02  0.39314780841E+02 -0.14314839714E+02  0.10546612897E+03  0.91259981255E+02 0.  0.
         23    2    1    2    0    0  0.32313364914E+02 -0.39314780841E+02 -0.14298364731E+03  0.17856795044E+03  0.94087108472E+02 0.  0.
          5    1    3    3  502    0 -0.64388815660E+01  0.19619276333E+02 -0.51596263257E+02  0.55773108052E+02  0.47000000000E+01 0. -1.
         -5    1    3    3    0  502 -0.25874483348E+02  0.19695504509E+02  0.37281423543E+02  0.49693020916E+02  0.47000000000E+01 0.  1.
          5    1    4    4  503    0  0.19777358668E+02 -0.65786935187E+02 -0.63259694218E+02  0.93503709391E+02  0.47000000000E+01 0. -1.
         -5    1    4    4    0  503  0.12536006246E+02  0.26472154346E+02 -0.79723953089E+02  0.85064241044E+02  0.47000000000E+01 0.  1.
<mgrwt>
<rscale>  0 0.10634321E+03</rscale>
<asrwt>0</asrwt>
<pdfrwt beam="1">  1        2 0.33948659E-01 0.10696817E+03</pdfrwt>
<pdfrwt beam="2">  1       -2 0.97488918E-02 0.10696817E+03</pdfrwt>
<totfact> 0.97886641E+03</totfact>
</mgrwt>
</event>
<event>
 8    1  0.8174053E-004  0.9289550E+02  0.7546771E-02  0.1296444E+00
         -1   -1    0    0    0  501 -0.00000000000E+00  0.00000000000E+00  0.46201177362E+02  0.46201177362E+02  0.00000000000E+00 0.  1.
          1   -1    0    0  501    0  0.00000000000E+00 -0.00000000000E+00 -0.21489436094E+03  0.21489436094E+03  0.00000000000E+00 0. -1.
         23    2    1    2    0    0 -0.12792250805E+02 -0.10014212119E+00 -0.36135721545E+02  0.99676294447E+02  0.92010442853E+02 0.  0.
         23    2    1    2    0    0  0.12792250805E+02  0.10014212119E+00 -0.13255746203E+03  0.16141924385E+03  0.91219733815E+02 0.  0.
          5    1    3    3  502    0 -0.38136537158E+02  0.21301034292E+02 -0.47114596549E+02  0.64420530394E+02  0.47000000000E+01 0. -1.
         -5    1    4    4    0  503  0.22084590892E+02  0.40917974286E+02 -0.90710481526E+02  0.10204161520E+03  0.47000000000E+01 0.  1.
          5    1    4    4  503    0 -0.92923400867E+01 -0.40817832165E+02 -0.41846980506E+02  0.59377628652E+02  0.47000000000E+01 0. -1.
         -5    1    3    3    0  502  0.25344286352E+02 -0.21401176413E+02  0.10978875004E+02  0.35255764053E+02  0.47000000000E+01 0.  1.
<mgrwt>
<rscale>  0 0.92699097E+02</rscale>
<asrwt>0</asrwt>
<pdfrwt beam="1">  1        1 0.33060671E-01 0.92895497E+02</pdfrwt>
<pdfrwt beam="2">  1       -1 0.71078734E-02 0.92895497E+02</pdfrwt>
<totfact> 0.12529400E+04</totfact>
</mgrwt>
</event>
<event>
 8    1  0.8174053E-004  0.9393620E+02  0.7546771E-02  0.1294060E+00
         -3   -1    0    0    0  501 -0.00000000000E+00  0.00000000000E+00  0.39530981045E+02  0.39530981045E+02  0.00000000000E+00 0.  1.
          3   -1    0    0  501    0  0.00000000000E+00 -0.00000000000E+00 -0.34802424307E+03  0.34802424307E+03  0.00000000000E+00 0. -1.
         23    2    1    2    0    0  0.16689899514E+02  0.12571662480E+02 -0.27161646818E+03  0.28740131318E+03  0.91582801824E+02 0.  0.
         23    2    1    2    0    0 -0.16689899514E+02 -0.12571662480E+02 -0.36876793840E+02  0.10015391093E+03  0.90743090681E+02 0.  0.
          5    1    4    4  502    0  0.34908589315E+02 -0.13924015980E+02 -0.29056752881E+02  0.47737539913E+02  0.47000000000E+01 0. -1.
         -5    1    3    3    0  503 -0.24272827941E+02 -0.11850297282E+02 -0.19579572616E+03  0.19770598399E+03  0.47000000000E+01 0.  1.
          5    1    3    3  503    0  0.40962727455E+02  0.24421959763E+02 -0.75820742023E+02  0.89695329199E+02  0.47000000000E+01 0. -1.
         -5    1    4    4    0  502 -0.51598488829E+02  0.13523534998E+01 -0.78200409595E+01  0.52416371012E+02  0.47000000000E+01 0.  1.
<mgrwt>
<rscale>  0 0.93730903E+02</rscale>
<asrwt>0</asrwt>
<pdfrwt beam="1">  1        3 0.53542190E-01 0.93936197E+02</pdfrwt>
<pdfrwt beam="2">  1       -3 0.60816895E-02 0.93936197E+02</pdfrwt>
<totfact> 0.12501488E+03</totfact>
</mgrwt>
</event>
<event>
 8    1  0.8174053E-004  0.1252319E+03  0.7546771E-02  0.1234756E+00
          3   -1    0    0  501    0  0.00000000000E+00  0.00000000000E+00  0.54586931911E+03  0.54586931911E+03  0.00000000000E+00 0. -1.
         -3   -1    0    0    0  501 -0.00000000000E+00 -0.00000000000E+00 -0.93258824762E+02  0.93258824762E+02  0.00000000000E+00 0.  1.
         23    2    1    2    0    0  0.24750283195E+02 -0.81449284100E+02  0.49221924923E+03  0.50790039040E+03  0.91850176153E+02 0.  0.
         23    2    1    2    0    0 -0.24750283195E+02  0.81449284100E+02 -0.39608754886E+02  0.13122775346E+03  0.91680463661E+02 0.  0.
          5    1    3    3  502    0  0.49832792479E+02 -0.77621672699E+02  0.44076675382E+03  0.45033970795E+03  0.47000000000E+01 0. -1.
         -5    1    4    4    0  503 -0.10297739806E+02  0.58435695638E+02  0.22214346844E+02  0.63532205813E+02  0.47000000000E+01 0.  1.
          5    1    4    4  503    0 -0.14452543390E+02  0.23013588462E+02 -0.61823101730E+02  0.67695547652E+02  0.47000000000E+01 0. -1.
         -5    1    3    3    0  502 -0.25082509284E+02 -0.38276114005E+01  0.51452495411E+02  0.57560682458E+02  0.47000000000E+01 0.  1.
<mgrwt>
<rscale>  0 0.12520074E+03</rscale>
<asrwt>0</asrwt>
<pdfrwt beam="1">  1        3 0.83979893E-01 0.12523185E+03</pdfrwt>
<pdfrwt beam="2">  1       -3 0.14347512E-01 0.12523185E+03</pdfrwt>
<totfact> 0.12499849E+02</totfact>
</mgrwt>
</event>
<event>
 8    1  0.8174053E-004  0.1600852E+03  0.7546771E-02  0.1193678E+00
         -1   -1    0    0    0  501 -0.00000000000E+00  0.00000000000E+00  0.19417288542E+02  0.19417288542E+02  0.00000000000E+00 0.  1.
          1   -1    0    0  501    0  0.00000000000E+00 -0.00000000000E+00 -0.12223808747E+04  0.12223808747E+04  0.00000000000E+00 0. -1.
         23    2    1    2    0    0 -0.21377740446E+02  0.10924966485E+03 -0.74431389244E+03  0.76133465119E+03  0.11504252933E+03 0.  0.
         23    2    1    2    0    0  0.21377740446E+02 -0.10924966485E+03 -0.45864969369E+03  0.48046351203E+03  0.89961924254E+02 0.  0.
          5    1    4    4  502    0 -0.28515237956E+02 -0.78610114233E+01 -0.89621435094E+02  0.94493417362E+02  0.47000000000E+01 0. -1.
         -5    1    4    4    0  502  0.49892978402E+02 -0.10138865343E+03 -0.36902825859E+03  0.38597009467E+03  0.47000000000E+01 0.  1.
          5    1    3    3  503    0 -0.45262919784E+02  0.88789219858E+02 -0.69836035677E+03  0.70545129908E+03  0.47000000000E+01 0. -1.
         -5    1    3    3    0  503  0.23885179338E+02  0.20460444994E+02 -0.45953535676E+02  0.55883352105E+02  0.47000000000E+01 0.  1.
<mgrwt>
<rscale>  0 0.15566632E+03</rscale>
<asrwt>0</asrwt>
<pdfrwt beam="1">  1        1 0.18805860E+00 0.16008523E+03</pdfrwt>
<pdfrwt beam="2">  1       -1 0.29872751E-02 0.16008523E+03</pdfrwt>
<totfact> 0.41408404E+03</totfact>
</mgrwt>
</event>
<event>
 8    1  0.8174053E-004  0.1282112E+03  0.7546771E-02  0.1236058E+00
          2   -1    0    0  501    0  0.00000000000E+00  0.00000000000E+00  0.35362243314E+03  0.35362243314E+03  0.00000000000E+00 0. -1.
         -2   -1    0    0    0  501 -0.00000000000E+00 -0.00000000000E+00 -0.48555985697E+02  0.48555985697E+02  0.00000000000E+00 0.  1.
         23    2    1    2    0    0  0.30316178597E+02  0.61567268542E+02  0.67093562852E+02  0.13186523631E+03  0.90428397804E+02 0.  0.
         23    2    1    2    0    0 -0.30316178597E+02 -0.61567268542E+02  0.23797288459E+03  0.27031318253E+03  0.10829830843E+03 0.  0.
          5    1    3    3  502    0  0.47693381209E+02  0.45519623221E+02  0.62201038850E+01  0.66388812323E+02  0.47000000000E+01 0.  1.
         -5    1    3    3    0  502 -0.17377202612E+02  0.16047645321E+02  0.60873458967E+02  0.65476423983E+02  0.47000000000E+01 0. -1.
          5    1    4    4  503    0 -0.23693653253E+02 -0.89315674539E+02  0.21254252152E+03  0.23180830955E+03  0.47000000000E+01 0. -1.
         -5    1    4    4    0  503 -0.66225253444E+01  0.27748405998E+02  0.25430363071E+02  0.38504872981E+02  0.47000000000E+01 0.  1.
<mgrwt>
<rscale>  0 0.12436928E+03</rscale>
<asrwt>0</asrwt>
<pdfrwt beam="1">  1        2 0.54403450E-01 0.12821124E+03</pdfrwt>
<pdfrwt beam="2">  1       -2 0.74701519E-02 0.12821124E+03</pdfrwt>
<totfact> 0.90978355E+03</totfact>
</mgrwt>
</event>
<event>
 8    1  0.8174053E-004  0.1124850E+03  0.7546771E-02  0.1258481E+00
         -1   -1    0    0    0  501 -0.00000000000E+00  0.00000000000E+00  0.69347227233E+03  0.69347227233E+03  0.00000000000E+00 0.  1.
          1   -1    0    0  501    0  0.00000000000E+00 -0.00000000000E+00 -0.17905547647E+02  0.17905547647E+02  0.00000000000E+00 0. -1.
         23    2    1    2    0    0  0.34462080499E+02  0.44909533144E+02  0.28572039219E+03  0.30706515602E+03  0.97202707610E+02 0.  0.
         23    2    1    2    0    0 -0.34462080499E+02 -0.44909533144E+02  0.38984633249E+03  0.40431266396E+03  0.91016845262E+02 0.  0.
          5    1    3    3  502    0  0.41969916452E+02  0.65520227309E+02  0.26603184349E+03  0.27721725384E+03  0.47000000000E+01 0. -1.
         -5    1    3    3    0  502 -0.75078359531E+01 -0.20610694165E+02  0.19688548699E+02  0.29847902180E+02  0.47000000000E+01 0.  1.
          5    1    4    4  503    0  0.26165740063E+02 -0.15725543910E+02  0.58319067499E+02  0.65993502092E+02  0.47000000000E+01 0. -1.
         -5    1    4    4    0  503 -0.60627820562E+02 -0.29183989234E+02  0.33152726499E+03  0.33831916187E+03  0.47000000000E+01 0.  1.
<mgrwt>
<rscale>  0 0.11113583E+03</rscale>
<asrwt>0</asrwt>
<pdfrwt beam="1">  1        1 0.27547002E-02 0.11248497E+03</pdfrwt>
<pdfrwt beam="2">  1       -1 0.10668802E+00 0.11248497E+03</pdfrwt>
<totfact> 0.31812903E+03</totfact>
</mgrwt>
</event>
<event>
 8    1  0.8174053E-004  0.9641563E+02  0.7546771E-02  0.1292118E+00
         -2   -1    0    0    0  501 -0.00000000000E+00  0.00000000000E+00  0.20088931955E+03  0.20088931955E+03  0.00000000000E+00 0.  1.
          2   -1    0    0  501    0  0.00000000000E+00 -0.00000000000E+00 -0.52810194779E+02  0.52810194779E+02  0.00000000000E+00 0. -1.
         23    2    1    2    0    0 -0.25977795591E+02  0.72200801497E+01  0.13121535164E+03  0.16282948927E+03  0.92568885961E+02 0.  0.
         23    2    1    2    0    0  0.25977795591E+02 -0.72200801497E+01  0.16863773126E+02  0.90870025058E+02  0.85123435016E+02 0.  0.
          5    1    4    4  502    0  0.27604991464E+02 -0.43164376855E+02  0.15247705073E+01  0.51474400512E+02  0.47000000000E+01 0. -1.
         -5    1    3    3    0  503 -0.35070273686E+02  0.44247932755E+02  0.91144218536E+02  0.10731804239E+03  0.47000000000E+01 0.  1.
          5    1    3    3  503    0  0.90924780944E+01 -0.37027852606E+02  0.40071133108E+02  0.55511446883E+02  0.47000000000E+01 0. -1.
         -5    1    4    4    0  502 -0.16271958726E+01  0.35944296705E+02  0.15339002619E+02  0.39395624546E+02  0.47000000000E+01 0.  1.
<mgrwt>
<rscale>  0 0.94583011E+02</rscale>
<asrwt>0</asrwt>
<pdfrwt beam="1">  1        2 0.81246454E-02 0.96415632E+02</pdfrwt>
<pdfrwt beam="2">  1       -2 0.30906049E-01 0.96415632E+02</pdfrwt>
<totfact> 0.73894125E+03</totfact>
</mgrwt>
</event>
<event>
 7    1  0.8174053E-004  0.1844726E+03  0.7546771E-02  0.1184631E+00
          1   -1    0    0  501    0  0.00000000000E+00  0.00000000000E+00  0.15631377518E+03  0.15631377518E+03  0.00000000000E+00 0. -1.
         -1   -1    0    0    0  501 -0.00000000000E+00 -0.00000000000E+00 -0.29415606219E+03  0.29415606219E+03  0.00000000000E+00 0.  1.
         23    2    1    2    0    0  0.43958669890E+02  0.44735633613E+02  0.98357313937E+02  0.15076934621E+03  0.95517500897E+02 0.  0.
          5    1    1    2  502    0 -0.33997880344E+02  0.65358439833E+02 -0.95812161150E+02  0.12095305597E+03  0.47000000000E+01 0. -1.
         -5    1    3    3    0  503 -0.11389961818E+02  0.39398302858E+02  0.44320817659E+01  0.41517355974E+02  0.47000000000E+01 0.  1.
          5    1    3    3  503    0  0.55348631708E+02  0.53373307557E+01  0.93925232171E+02  0.10925199023E+03  0.47000000000E+01 0. -1.
         -5    1    1    2    0  502 -0.99607895455E+01 -0.11009407345E+03 -0.14038743979E+03  0.17874743519E+03  0.47000000000E+01 0.  1.
<mgrwt>
<rscale>  0 0.16365537E+03</rscale>
<asrwt>0</asrwt>
<pdfrwt beam="1">  1        1 0.24048273E-01 0.18447258E+03</pdfrwt>
<pdfrwt beam="2">  1       -1 0.45254778E-01 0.18447258E+03</pdfrwt>
<totfact> 0.98869348E+02</totfact>
</mgrwt>
</event>
<event>
 8    1  0.8174053E-004  0.1000055E+03  0.7546771E-02  0.1281036E+00
          3   -1    0    0  501    0  0.00000000000E+00  0.00000000000E+00  0.41260608307E+02  0.41260608307E+02  0.00000000000E+00 0. -1.
         -3   -1    0    0    0  501 -0.00000000000E+00 -0.00000000000E+00 -0.32131474457E+03  0.32131474457E+03  0.00000000000E+00 0.  1.
         23    2    1    2    0    0 -0.32521641979E+02  0.21482110403E+02 -0.23105946449E+03  0.25121299939E+03  0.90555820728E+02 0.  0.
         23    2    1    2    0    0  0.32521641979E+02 -0.21482110403E+02 -0.48994671776E+02  0.11136235349E+03  0.92097544201E+02 0.  0.
          5    1    4    4  502    0 -0.18319550523E+02 -0.21273131125E+02  0.12793723218E+02  0.31207713678E+02  0.47000000000E+01 0. -1.
         -5    1    3    3    0  503  0.58334373901E+01  0.45708998209E+02 -0.16168777793E+03  0.16819146542E+03  0.47000000000E+01 0.  1.
          5    1    3    3  503    0 -0.38355079369E+02 -0.24226887806E+02 -0.69371686563E+02  0.83021533970E+02  0.47000000000E+01 0. -1.
         -5    1    4    4    0  502  0.50841192502E+02 -0.20897927758E+00 -0.61788394993E+02  0.80154639811E+02  0.47000000000E+01 0.  1.
<mgrwt>
<rscale>  0 0.99649084E+02</rscale>
<asrwt>0</asrwt>
<pdfrwt beam="1">  1        3 0.63477862E-02 0.10000548E+03</pdfrwt>
<pdfrwt beam="2">  1       -3 0.49433036E-01 0.10000548E+03</pdfrwt>
<totfact> 0.13843079E+03</totfact>
</mgrwt>
</event>
<event>
 8    1  0.8174053E-004  0.1218665E+03  0.7546771E-02  0.1240321E+00
          2   -1    0    0  501    0  0.00000000000E+00  0.00000000000E+00  0.67726352788E+03  0.67726352788E+03  0.00000000000E+00 0. -1.
         -2   -1    0    0    0  501 -0.00000000000E+00 -0.00000000000E+00 -0.23272433592E+02  0.23272433592E+02  0.00000000000E+00 0.  1.
         23    2    1    2    0    0 -0.75125229630E+02  0.31273089660E+02  0.41570172610E+03  0.43319669470E+03  0.90717390602E+02 0.  0.
         23    2    1    2    0    0  0.75125229630E+02 -0.31273089660E+02  0.23828936820E+03  0.26733926677E+03  0.89814555057E+02 0.  0.
          5    1    3    3  502    0 -0.48229190865E+02  0.60068117612E+02  0.21070324912E+03  0.22439292055E+03  0.47000000000E+01 0. -1.
         -5    1    4    4    0  503  0.47429054293E+02  0.18216754182E+02  0.53261702350E+02  0.73758147084E+02  0.47000000000E+01 0.  1.
          5    1    4    4  503    0  0.27696175336E+02 -0.49489843843E+02  0.18502766584E+03  0.19358111969E+03  0.47000000000E+01 0. -1.
         -5    1    3    3    0  502 -0.26896038764E+02 -0.28795027952E+02  0.20499847698E+03  0.20880377415E+03  0.47000000000E+01 0.  1.
<mgrwt>
<rscale>  0 0.12169854E+03</rscale>
<asrwt>0</asrwt>
<pdfrwt beam="1">  1        2 0.10419437E+00 0.12186653E+03</pdfrwt>
<pdfrwt beam="2">  1       -2 0.35803749E-02 0.12186653E+03</pdfrwt>
<totfact> 0.13398902E+04</totfact>
</mgrwt>
</event>
<event>
 8    1  0.8174053E-004  0.9226725E+02  0.7546771E-02  0.1299832E+00
         -1   -1    0    0    0  501 -0.00000000000E+00  0.00000000000E+00  0.23072672704E+02  0.23072672704E+02  0.00000000000E+00 0.  1.
          1   -1    0    0  501    0  0.00000000000E+00 -0.00000000000E+00 -0.72163862925E+03  0.72163862925E+03  0.00000000000E+00 0. -1.
         23    2    1    2    0    0 -0.10706888899E+01  0.99265149865E+01 -0.61904146404E+03  0.62587984433E+03  0.91725477723E+02 0.  0.
         23    2    1    2    0    0  0.10706888899E+01 -0.99265149865E+01 -0.79524492502E+02  0.11883145762E+03  0.87733051570E+02 0.  0.
          5    1    4    4  502    0 -0.15417573285E+01 -0.42317272235E+02 -0.74209127393E+02  0.85569931247E+02  0.47000000000E+01 0. -1.
         -5    1    4    4    0  502  0.26124462184E+01  0.32390757249E+02 -0.53153651088E+01  0.33261526373E+02  0.47000000000E+01 0.  1.
          5    1    3    3  503    0 -0.42061015994E+02  0.12422328796E+02 -0.43620117315E+03  0.43842558864E+03  0.47000000000E+01 0. -1.
         -5    1    3    3    0  503  0.40990327104E+02 -0.24958138094E+01 -0.18284029089E+03  0.18745425569E+03  0.47000000000E+01 0.  1.
<mgrwt>
<rscale>  0 0.91258857E+02</rscale>
<asrwt>0</asrwt>
<pdfrwt beam="1">  1        1 0.11102131E+00 0.92267250E+02</pdfrwt>
<pdfrwt beam="2">  1       -1 0.35496424E-02 0.92267250E+02</pdfrwt>
<totfact> 0.74456419E+03</totfact>
</mgrwt>
</event>
<event>
 8    1  0.8174053E-004  0.9231506E+02  0.7546771E-02  0.1297435E+00
         -2   -1    0    0    0  501 -0.00000000000E+00  0.00000000000E+00  0.43742840885E+02  0.43742840885E+02  0.00000000000E+00 0.  1.
          2   -1    0    0  501    0  0.00000000000E+00 -0.00000000000E+00 -0.37530649341E+03  0.37530649341E+03  0.00000000000E+00 0. -1.
         23    2    1    2    0    0  0.10818325193E+02 -0.11116683707E+02 -0.20420914049E+02  0.94546728822E+02  0.91002491085E+02 0.  0.
         23    2    1    2    0    0 -0.10818325193E+02  0.11116683707E+02 -0.31114273848E+03  0.32450260547E+03  0.90837879961E+02 0.  0.
          5    1    3    3  502    0  0.25724943775E+02  0.32982696865E+02 -0.22471180066E+02  0.47714515174E+02  0.47000000000E+01 0. -1.
         -5    1    4    4    0  503  0.76777827247E+01  0.32072296104E+02 -0.28159582939E+03  0.28355930888E+03  0.47000000000E+01 0. -1.
          5    1    4    4  503    0 -0.18496107917E+02 -0.20955612398E+02 -0.29546909087E+02  0.40943296590E+02  0.47000000000E+01 0.  1.
         -5    1    3    3    0  502 -0.14906618583E+02 -0.44099380572E+02  0.20502660166E+01  0.46832213648E+02  0.47000000000E+01 0.  1.
<mgrwt>
<rscale>  0 0.92274466E+02</rscale>
<asrwt>0</asrwt>
<pdfrwt beam="1">  1        2 0.57739463E-01 0.92315059E+02</pdfrwt>
<pdfrwt beam="2">  1       -2 0.67296675E-02 0.92315059E+02</pdfrwt>
<totfact> 0.97656043E+03</totfact>
</mgrwt>
</event>
<event>
 8    1  0.8174053E-004  0.9589525E+02  0.7546771E-02  0.1289302E+00
         -2   -1    0    0    0  501 -0.00000000000E+00  0.00000000000E+00  0.12307071912E+02  0.12307071912E+02  0.00000000000E+00 0.  1.
          2   -1    0    0  501    0  0.00000000000E+00 -0.00000000000E+00 -0.82978650239E+03  0.82978650239E+03  0.00000000000E+00 0. -1.
         23    2    1    2    0    0  0.60661942031E+01  0.30625877715E+02 -0.54257470524E+03  0.55094325761E+03  0.90423554737E+02 0.  0.
         23    2    1    2    0    0 -0.60661942031E+01 -0.30625877715E+02 -0.27490472524E+03  0.29115031668E+03  0.90670589765E+02 0.  0.
          5    1    4    4  502    0 -0.75747354494E+01 -0.61736445009E+02 -0.20890945228E+03  0.21802296785E+03  0.47000000000E+01 0. -1.
         -5    1    4    4    0  502  0.15085412462E+01  0.31110567294E+02 -0.65995272962E+02  0.73127348833E+02  0.47000000000E+01 0.  1.
          5    1    3    3  503    0  0.41879136493E+01 -0.31832830958E+02 -0.15813426837E+03  0.16142925565E+03  0.47000000000E+01 0. -1.
         -5    1    3    3    0  503  0.18782805538E+01  0.62458708673E+02 -0.38444043687E+03  0.38951400196E+03  0.47000000000E+01 0.  1.
<mgrwt>
<rscale>  0 0.95836811E+02</rscale>
<asrwt>0</asrwt>
<pdfrwt beam="1">  1        2 0.12765950E+00 0.95895250E+02</pdfrwt>
<pdfrwt beam="2">  1       -2 0.18933952E-02 0.95895250E+02</pdfrwt>
<totfact> 0.25977138E+04</totfact>
</mgrwt>
</event>
<event>
 8    1  0.8174053E-004  0.9383197E+02  0.7546771E-02  0.1302575E+00
          1   -1    0    0  501    0  0.00000000000E+00  0.00000000000E+00  0.57589600135E+03  0.57589600135E+03  0.00000000000E+00 0. -1.
         -1   -1    0    0    0  501 -0.00000000000E+00 -0.00000000000E+00 -0.25799960138E+02  0.25799960138E+02  0.00000000000E+00 0.  1.
         23    2    1    2    0    0  0.88201154115E+01  0.20758939190E+02  0.75503918433E+02  0.12043786513E+03  0.91080786477E+02 0.  0.
         23    2    1    2    0    0 -0.88201154115E+01 -0.20758939190E+02  0.47459212278E+03  0.48125809636E+03  0.76569865599E+02 0.  0.
          5    1    3    3  502    0 -0.46126950516E+01  0.42156462309E+02  0.21601059601E+01  0.42722363322E+02  0.47000000000E+01 0. -1.
         -5    1    3    3    0  502  0.13432810463E+02 -0.21397523119E+02  0.73343812473E+02  0.77715501804E+02  0.47000000000E+01 0.  1.
          5    1    4    4  503    0  0.11837506583E+02  0.24953551724E+02  0.21541995632E+03  0.21723409928E+03  0.47000000000E+01 0. -1.
         -5    1    4    4    0  503 -0.20657621995E+02 -0.45712490915E+02  0.25917216646E+03  0.26402399709E+03  0.47000000000E+01 0.  1.
<mgrwt>
<rscale>  0 0.90114523E+02</rscale>
<asrwt>0</asrwt>
<pdfrwt beam="1">  1        1 0.88599375E-01 0.93831965E+02</pdfrwt>
<pdfrwt beam="2">  1       -1 0.39692251E-02 0.93831965E+02</pdfrwt>
<totfact> 0.86381644E+03</totfact>
</mgrwt>
</event>
<event>
 8    1  0.8174053E-004  0.1147394E+03  0.7546771E-02  0.1255613E+00
         -2   -1    0    0    0  501 -0.00000000000E+00  0.00000000000E+00  0.24735664150E+03  0.24735664150E+03  0.00000000000E+00 0.  1.
          2   -1    0    0  501    0  0.00000000000E+00 -0.00000000000E+00 -0.39138422224E+03  0.39138422224E+03  0.00000000000E+00 0. -1.
         23    2    1    2    0    0 -0.47621685712E+02  0.39399799830E+02  0.22606990411E+03  0.25352069249E+03  0.96669389177E+02 0.  0.
         23    2    1    2    0    0  0.47621685712E+02 -0.39399799830E+02 -0.37009748485E+03  0.38522017125E+03  0.87190956316E+02 0.  0.
          5    1    4    4  502    0  0.66075128802E+02 -0.51801340773E+02 -0.29649854546E+03  0.30819276275E+03  0.47000000000E+01 0. -1.
         -5    1    4    4    0  502 -0.18453443090E+02  0.12401540943E+02 -0.73598939397E+02  0.77027408499E+02  0.47000000000E+01 0. -1.
          5    1    3    3  503    0 -0.47180626987E+02 -0.17192393572E+02  0.15223934676E+03  0.16037611624E+03  0.47000000000E+01 0. -1.
         -5    1    3    3    0  503 -0.44105872413E+00  0.56592193402E+02  0.73830557346E+02  0.93144576250E+02  0.47000000000E+01 0.  1.
<mgrwt>
<rscale>  0 0.11272088E+03</rscale>
<asrwt>0</asrwt>
<pdfrwt beam="1">  1        2 0.60212957E-01 0.11473944E+03</pdfrwt>
<pdfrwt beam="2">  1       -2 0.38054868E-01 0.11473944E+03</pdfrwt>
<totfact> 0.53794300E+02</totfact>
</mgrwt>
</event>
<event>
 8    1  0.8174053E-004  0.9782284E+02  0.7546771E-02  0.1285270E+00
         -2   -1    0    0    0  501 -0.00000000000E+00  0.00000000000E+00  0.11675096922E+03  0.11675096922E+03  0.00000000000E+00 0. -1.
          2   -1    0    0  501    0  0.00000000000E+00 -0.00000000000E+00 -0.81594382136E+02  0.81594382136E+02  0.00000000000E+00 0.  1.
         23    2    1    2    0    0 -0.30029446695E+02  0.17441491593E+02  0.13462611992E+02  0.98145866917E+02  0.90804162754E+02 0.  0.
         23    2    1    2    0    0  0.30029446695E+02 -0.17441491593E+02  0.21693975087E+02  0.10019948443E+03  0.91451270238E+02 0.  0.
          5    1    4    4  502    0  0.59379026993E+02  0.54445030464E+01  0.18214975238E+02  0.62525089228E+02  0.47000000000E+01 0. -1.
         -5    1    4    4    0  502 -0.29349580298E+02 -0.22885994639E+02  0.34789998497E+01  0.37674395207E+02  0.47000000000E+01 0.  1.
          5    1    3    3  503    0  0.21081180412E+02 -0.44943894524E+01  0.32405051289E+02  0.39201952159E+02  0.47000000000E+01 0. -1.
         -5    1    3    3    0  503 -0.51110627107E+02  0.21935881045E+02 -0.18942439296E+02  0.58943914758E+02  0.47000000000E+01 0.  1.
<mgrwt>
<rscale>  0 0.97671317E+02</rscale>
<asrwt>0</asrwt>
<pdfrwt beam="1">  1        2 0.12552982E-01 0.97822841E+02</pdfrwt>
<pdfrwt beam="2">  1       -2 0.17961688E-01 0.97822841E+02</pdfrwt>
<totfact> 0.11103194E+04</totfact>
</mgrwt>
</event>
<event>
 8    1  0.8174053E-004  0.1055216E+03  0.7546771E-02  0.1269617E+00
         -2   -1    0    0    0  501 -0.00000000000E+00  0.00000000000E+00  0.52578364119E+02  0.52578364119E+02  0.00000000000E+00 0.  1.
          2   -1    0    0  501    0  0.00000000000E+00 -0.00000000000E+00 -0.36589180531E+03  0.36589180531E+03  0.00000000000E+00 0. -1.
         23    2    1    2    0    0 -0.40810331233E+02  0.34951482306E+02 -0.20384378151E+02  0.10747249655E+03  0.90816988450E+02 0.  0.
         23    2    1    2    0    0  0.40810331233E+02 -0.34951482306E+02 -0.29292906304E+03  0.31099767288E+03  0.89582516782E+02 0.  0.
          5    1    3    3  502    0 -0.17748248359E+02 -0.21458795029E+02 -0.34655284654E+02  0.44705245311E+02  0.47000000000E+01 0. -1.
         -5    1    4    4    0  503 -0.17523323287E+02 -0.11673299104E+02 -0.15641701800E+02  0.26647431513E+02  0.47000000000E+01 0.  1.
          5    1    4    4  503    0  0.58333654520E+02 -0.23278183202E+02 -0.27728736124E+03  0.28435024137E+03  0.47000000000E+01 0. -1.
         -5    1    3    3    0  502 -0.23062082874E+02  0.56410277335E+02  0.14270906502E+02  0.62767251238E+02  0.47000000000E+01 0.  1.
<mgrwt>
<rscale>  0 0.10525549E+03</rscale>
<asrwt>0</asrwt>
<pdfrwt beam="1">  1        2 0.56291045E-01 0.10552163E+03</pdfrwt>
<pdfrwt beam="2">  1       -2 0.80889794E-02 0.10552163E+03</pdfrwt>
<totfact> 0.76574555E+03</totfact>
</mgrwt>
</event>
<event>
 7    1  0.8174053E-004  0.3414888E+03  0.7546771E-02  0.1098964E+00
          3   -1    0    0  501    0  0.00000000000E+00  0.00000000000E+00  0.28680764863E+03  0.28680764863E+03  0.00000000000E+00 0.  1.
         -3   -1    0    0    0  501 -0.00000000000E+00 -0.00000000000E+00 -0.20367577685E+03  0.20367577685E+03  0.00000000000E+00 0. -1.
         23    2    1    2    0    0  0.10000477543E+01 -0.10645300921E+03  0.30527865211E+02  0.14496669260E+03  0.93542226527E+02 0.  0.
          5    1    1    2  502    0 -0.12264170965E+03  0.80457178362E+02  0.13240586745E+03  0.19765563546E+03  0.47000000000E+01 0.  1.
         -5    1    1    2    0  502  0.12164166189E+03  0.25995830846E+02 -0.79801860878E+02  0.14786109742E+03  0.47000000000E+01 0. -1.
          5    1    3    3  503    0  0.37299274229E+02 -0.21632360790E+02 -0.93103405168E+01  0.44361777826E+02  0.47000000000E+01 0. -1.
         -5    1    3    3    0  503 -0.36299226475E+02 -0.84820648418E+02  0.39838205727E+02  0.10060491477E+03  0.47000000000E+01 0.  1.
<mgrwt>
<rscale>  0 0.27408611E+03</rscale>
<asrwt>0</asrwt>
<pdfrwt beam="1">  1        3 0.44124254E-01 0.34148884E+03</pdfrwt>
<pdfrwt beam="2">  1       -3 0.31334735E-01 0.34148884E+03</pdfrwt>
<totfact> 0.12954883E+02</totfact>
</mgrwt>
</event>
<event>
 8    1  0.8174053E-004  0.1056829E+03  0.7546771E-02  0.1269604E+00
         -1   -1    0    0    0  501 -0.00000000000E+00  0.00000000000E+00  0.21467990913E+03  0.21467990913E+03  0.00000000000E+00 0.  1.
          1   -1    0    0  501    0  0.00000000000E+00 -0.00000000000E+00 -0.56765528517E+02  0.56765528517E+02  0.00000000000E+00 0. -1.
         23    2    1    2    0    0 -0.49250984243E+02 -0.21600365857E+02  0.37049080048E+02  0.11198889003E+03  0.90976051260E+02 0.  0.
         23    2    1    2    0    0  0.49250984243E+02  0.21600365857E+02  0.12086530056E+03  0.15945654762E+03  0.89026594027E+02 0.  0.
          5    1    4    4  502    0 -0.23198744337E+02  0.17959560515E+02  0.48545761357E+02  0.56916680318E+02  0.47000000000E+01 0. -1.
         -5    1    3    3    0  503 -0.32166578192E+02  0.49491200080E+01 -0.25602767236E+02  0.41674623352E+02  0.47000000000E+01 0.  1.
          5    1    3    3  503    0 -0.17084406052E+02 -0.26549485865E+02  0.62651847284E+02  0.70314266674E+02  0.47000000000E+01 0. -1.
         -5    1    4    4    0  502  0.72449728580E+02  0.36408053425E+01  0.72319539203E+02  0.10253986730E+03  0.47000000000E+01 0.  1.
<mgrwt>
<rscale>  0 0.10526204E+03</rscale>
<asrwt>0</asrwt>
<pdfrwt beam="1">  1        1 0.87331583E-02 0.10568291E+03</pdfrwt>
<pdfrwt beam="2">  1       -1 0.33027678E-01 0.10568291E+03</pdfrwt>
<totfact> 0.62157358E+03</totfact>
</mgrwt>
</event>
<event>
 8    1  0.8174053E-004  0.1343497E+03  0.7546771E-02  0.1231660E+00
         -2   -1    0    0    0  501 -0.00000000000E+00  0.00000000000E+00  0.30793879036E+02  0.30793879036E+02  0.00000000000E+00 0.  1.
          2   -1    0    0  501    0  0.00000000000E+00 -0.00000000000E+00 -0.49549021050E+03  0.49549021050E+03  0.00000000000E+00 0. -1.
         23    2    1    2    0    0  0.36977161703E+02  0.44064722891E+02 -0.30757768030E+03  0.33563950805E+03  0.12141185960E+03 0.  0.
         23    2    1    2    0    0 -0.36977161703E+02 -0.44064722891E+02 -0.15711865116E+03  0.19064458149E+03  0.91378748170E+02 0.  0.
          5    1    3    3  502    0 -0.22879019794E+02  0.59718513061E+02 -0.21367274093E+03  0.22308715912E+03  0.47000000000E+01 0. -1.
         -5    1    3    3    0  502  0.59856181496E+02 -0.15653790170E+02 -0.93904939378E+02  0.11255234893E+03  0.47000000000E+01 0. -1.
          5    1    4    4  503    0 -0.14309451916E+02 -0.47648509444E+02 -0.15945558569E+03  0.16710270697E+03  0.47000000000E+01 0. -1.
         -5    1    4    4    0  503 -0.22667709786E+02  0.35837865525E+01  0.23369345331E+01  0.23541874522E+02  0.47000000000E+01 0.  1.
<mgrwt>
<rscale>  0 0.12720690E+03</rscale>
<asrwt>0</asrwt>
<pdfrwt beam="1">  1        2 0.76229258E-01 0.13434973E+03</pdfrwt>
<pdfrwt beam="2">  1       -2 0.47375202E-02 0.13434973E+03</pdfrwt>
<totfact> 0.12667969E+04</totfact>
</mgrwt>
</event>
<event>
 8    1  0.8174053E-004  0.1037892E+03  0.7546771E-02  0.1272882E+00
          1   -1    0    0  501    0  0.00000000000E+00  0.00000000000E+00  0.81355687782E+03  0.81355687782E+03  0.00000000000E+00 0. -1.
         -1   -1    0    0    0  501 -0.00000000000E+00 -0.00000000000E+00 -0.13330480940E+02  0.13330480940E+02  0.00000000000E+00 0.  1.
         23    2    1    2    0    0 -0.45991474287E+02 -0.15898500459E+02  0.44685496476E+03  0.45858914990E+03  0.90866225066E+02 0.  0.
         23    2    1    2    0    0  0.45991474287E+02  0.15898500459E+02  0.35337143213E+03  0.36829820886E+03  0.91674552533E+02 0.  0.
          5    1    4    4  502    0  0.25638301834E+02 -0.37913259965E+02  0.16278129761E+03  0.16915844246E+03  0.47000000000E+01 0. -1.
         -5    1    3    3    0  503 -0.12288938131E+02  0.36697247486E+02  0.13559464698E+03  0.14108757657E+03  0.47000000000E+01 0.  1.
          5    1    3    3  503    0 -0.33702536156E+02 -0.52595747945E+02  0.31126031778E+03  0.31750157333E+03  0.47000000000E+01 0. -1.
         -5    1    4    4    0  502  0.20353172453E+02  0.53811760424E+02  0.19059013451E+03  0.19913976640E+03  0.47000000000E+01 0.  1.
<mgrwt>
<rscale>  0 0.10361044E+03</rscale>
<asrwt>0</asrwt>
<pdfrwt beam="1">  1        1 0.12516256E+00 0.10378922E+03</pdfrwt>
<pdfrwt beam="2">  1       -1 0.20508438E-02 0.10378922E+03</pdfrwt>
<totfact> 0.13885314E+04</totfact>
</mgrwt>
</event>
<event>
 8    1  0.8174053E-004  0.9248891E+02  0.7546771E-02  0.1299035E+00
          3   -1    0    0  501    0  0.00000000000E+00  0.00000000000E+00  0.28338620820E+03  0.28338620820E+03  0.00000000000E+00 0. -1.
         -3   -1    0    0    0  501 -0.00000000000E+00 -0.00000000000E+00 -0.36384847751E+02  0.36384847751E+02  0.00000000000E+00 0.  1.
         23    2    1    2    0    0  0.13803584900E+02 -0.12393493508E+02  0.19337944142E+03  0.21286217253E+03  0.87008956408E+02 0.  0.
         23    2    1    2    0    0 -0.13803584900E+02  0.12393493508E+02  0.53621919036E+02  0.10690888342E+03  0.90609389779E+02 0.  0.
          5    1    4    4  502    0  0.18809346497E+02  0.28321904915E+02  0.60606659396E+02  0.69650405432E+02  0.47000000000E+01 0. -1.
         -5    1    4    4    0  502 -0.32612931397E+02 -0.15928411407E+02 -0.69847403600E+01  0.37258477990E+02  0.47000000000E+01 0.  1.
          5    1    3    3  503    0 -0.13002781254E+02 -0.39083603308E+02  0.52379403224E+02  0.66800391091E+02  0.47000000000E+01 0.  1.
         -5    1    3    3    0  503  0.26806366153E+02  0.26690109800E+02  0.14100003819E+03  0.14606178144E+03  0.47000000000E+01 0. -1.
<mgrwt>
<rscale>  0 0.91594952E+02</rscale>
<asrwt>0</asrwt>
<pdfrwt beam="1">  1        3 0.43597877E-01 0.92488914E+02</pdfrwt>
<pdfrwt beam="2">  1       -3 0.55976691E-02 0.92488914E+02</pdfrwt>
<totfact> 0.21287324E+03</totfact>
</mgrwt>
</event>
<event>
 8    1  0.8174053E-004  0.1064661E+03  0.7546771E-02  0.1273640E+00
         -1   -1    0    0    0  501 -0.00000000000E+00  0.00000000000E+00  0.18998980392E+03  0.18998980392E+03  0.00000000000E+00 0.  1.
          1   -1    0    0  501    0  0.00000000000E+00 -0.00000000000E+00 -0.19271888685E+03  0.19271888685E+03  0.00000000000E+00 0. -1.
         23    2    1    2    0    0  0.52973100482E+01  0.25996661976E+02  0.16154000957E+03  0.18695538858E+03  0.90295374757E+02 0.  0.
         23    2    1    2    0    0 -0.52973100482E+01 -0.25996661976E+02 -0.16426909250E+03  0.19575330219E+03  0.10310738404E+03 0.  0.
          5    1    3    3  502    0  0.25253982211E+02 -0.25638477213E+02  0.44691945764E+02  0.57572173378E+02  0.47000000000E+01 0. -1.
         -5    1    4    4    0  503  0.40407024861E+02  0.16481088094E+02 -0.67112191335E+02  0.80190337003E+02  0.47000000000E+01 0.  1.
          5    1    4    4  503    0 -0.45704334909E+02 -0.42477750071E+02 -0.97156901161E+02  0.11556296519E+03  0.47000000000E+01 0. -1.
         -5    1    3    3    0  502 -0.19956672163E+02  0.51635139189E+02  0.11684806380E+03  0.12938321521E+03  0.47000000000E+01 0.  1.
<mgrwt>
<rscale>  0 0.10323336E+03</rscale>
<asrwt>0</asrwt>
<pdfrwt beam="1">  1        1 0.29649060E-01 0.10646605E+03</pdfrwt>
<pdfrwt beam="2">  1       -1 0.29229201E-01 0.10646605E+03</pdfrwt>
<totfact> 0.15977478E+03</totfact>
</mgrwt>
</event>
<event>
 8    1  0.8174053E-004  0.9728488E+02  0.7546771E-02  0.1287860E+00
          1   -1    0    0  501    0  0.00000000000E+00  0.00000000000E+00  0.39739343214E+02  0.39739343214E+02  0.00000000000E+00 0. -1.
         -1   -1    0    0    0  501 -0.00000000000E+00 -0.00000000000E+00 -0.38498406924E+03  0.38498406924E+03  0.00000000000E+00 0.  1.
         23    2    1    2    0    0  0.24176854171E+02 -0.14977447405E+02 -0.39816328213E+02  0.10511749311E+03  0.93034956640E+02 0.  0.
         23    2    1    2    0    0 -0.24176854171E+02  0.14977447405E+02 -0.30542839781E+03  0.31960591934E+03  0.89736242851E+02 0.  0.
          5    1    3    3  502    0  0.59021084680E+02 -0.18277281247E+02 -0.25912359853E+02  0.67164632358E+02  0.47000000000E+01 0. -1.
         -5    1    3    3    0  502 -0.34844230509E+02  0.32998338421E+01 -0.13903968360E+02  0.37952860753E+02  0.47000000000E+01 0.  1.
          5    1    4    4  503    0  0.19578462560E+02  0.24896338391E+02 -0.44589983570E+02  0.54895359515E+02  0.47000000000E+01 0. -1.
         -5    1    4    4    0  503 -0.43755316730E+02 -0.99188909862E+01 -0.26083841424E+03  0.26471055983E+03  0.47000000000E+01 0.  1.
<mgrwt>
<rscale>  0 0.96487716E+02</rscale>
<asrwt>0</asrwt>
<pdfrwt beam="1">  1        1 0.61137453E-02 0.97284877E+02</pdfrwt>
<pdfrwt beam="2">  1       -1 0.59228317E-01 0.97284877E+02</pdfrwt>
<totfact> 0.35272558E+03</totfact>
</mgrwt>
</event>
<event>
 8    1  0.8174053E-004  0.1333422E+03  0.7546771E-02  0.1222582E+00
         -2   -1    0    0    0  501 -0.00000000000E+00  0.00000000000E+00  0.21557541872E+02  0.21557541872E+02  0.00000000000E+00 0.  1.
          2   -1    0    0  501    0  0.00000000000E+00 -0.00000000000E+00 -0.82704433208E+03  0.82704433208E+03  0.00000000000E+00 0. -1.
         23    2    1    2    0    0  0.64164338524E+02 -0.73588138240E+02 -0.42519798673E+03  0.44561583641E+03  0.90817780790E+02 0.  0.
         23    2    1    2    0    0 -0.64164338524E+02  0.73588138240E+02 -0.38028880348E+03  0.40298603755E+03  0.90806915925E+02 0.  0.
          5    1    4    4  502    0 -0.76981929898E+02  0.50479445636E+02 -0.19412839651E+03  0.21490071264E+03  0.47000000000E+01 0. -1.
         -5    1    3    3    0  503  0.14554332590E+02 -0.28656242142E+02 -0.28284859241E+02  0.43071244156E+02  0.47000000000E+01 0.  1.
          5    1    3    3  503    0  0.49610005934E+02 -0.44931896098E+02 -0.39691312749E+03  0.40254459225E+03  0.47000000000E+01 0. -1.
         -5    1    4    4    0  502  0.12817591374E+02  0.23108692604E+02 -0.18616040697E+03  0.18808532490E+03  0.47000000000E+01 0.  1.
<mgrwt>
<rscale>  0 0.13334036E+03</rscale>
<asrwt>0</asrwt>
<pdfrwt beam="1">  1        2 0.12723761E+00 0.13334221E+03</pdfrwt>
<pdfrwt beam="2">  1       -2 0.33165445E-02 0.13334221E+03</pdfrwt>
<totfact> 0.11849005E+04</totfact>
</mgrwt>
</event>
<event>
 8    1  0.8174053E-004  0.1680151E+03  0.7546771E-02  0.1179972E+00
         -2   -1    0    0    0  501 -0.00000000000E+00  0.00000000000E+00  0.10327783996E+03  0.10327783996E+03  0.00000000000E+00 0.  1.
          2   -1    0    0  501    0  0.00000000000E+00 -0.00000000000E+00 -0.38162456800E+03  0.38162456800E+03  0.00000000000E+00 0. -1.
         23    2    1    2    0    0 -0.12547551458E+03  0.62765750355E+02 -0.26850976775E+03  0.31674370580E+03  0.92441525343E+02 0.  0.
         23    2    1    2    0    0  0.12547551458E+03 -0.62765750355E+02 -0.98369602883E+01  0.16815870217E+03  0.92178843296E+02 0.  0.
          5    1    3    3  502    0 -0.92543941180E+02  0.54380362572E+02 -0.10700992066E+03  0.15164042338E+03  0.47000000000E+01 0. -1.
         -5    1    3    3    0  502 -0.32931573400E+02  0.83853877828E+01 -0.16149984709E+03  0.16510328242E+03  0.47000000000E+01 0.  1.
          5    1    4    4  503    0  0.55168929436E+02  0.18387602072E+02  0.90391569497E+01  0.59038216804E+02  0.47000000000E+01 0. -1.
         -5    1    4    4    0  503  0.70306585144E+02 -0.81153352427E+02 -0.18876117238E+02  0.10912048537E+03  0.47000000000E+01 0.  1.
<mgrwt>
<rscale>  0 0.16797901E+03</rscale>
<asrwt>0</asrwt>
<pdfrwt beam="1">  1        2 0.58711472E-01 0.16801512E+03</pdfrwt>
<pdfrwt beam="2">  1       -2 0.15888898E-01 0.16801512E+03</pdfrwt>
<totfact> 0.25659986E+03</totfact>
</mgrwt>
</event>
<event>
 8    1  0.8174053E-004  0.1014021E+03  0.7546771E-02  0.1282412E+00
          2   -1    0    0  501    0  0.00000000000E+00  0.00000000000E+00  0.12165081229E+03  0.12165081229E+03  0.00000000000E+00 0. -1.
         -2   -1    0    0    0  501 -0.00000000000E+00 -0.00000000000E+00 -0.77037971460E+02  0.77037971460E+02  0.00000000000E+00 0.  1.
         23    2    1    2    0    0 -0.12075195285E+01 -0.12117235599E+02  0.18363210280E+02  0.93944219543E+02  0.91323728526E+02 0.  0.
         23    2    1    2    0    0  0.12075195285E+01  0.12117235599E+02  0.26249630551E+02  0.10474456421E+03  0.10066824288E+03 0.  0.
          5    1    4    4  502    0  0.46991314528E+02  0.25265768455E+01 -0.60881303663E+01  0.47683567012E+02  0.47000000000E+01 0. -1.
         -5    1    4    4    0  502 -0.45783794999E+02  0.95906587534E+01  0.32337760917E+02  0.57060997196E+02  0.47000000000E+01 0.  1.
          5    1    3    3  503    0  0.29416576562E+02  0.16635611994E+02  0.34665925869E+02  0.48640466480E+02  0.47000000000E+01 0. -1.
         -5    1    3    3    0  503 -0.30624096090E+02 -0.28752847593E+02 -0.16302715589E+02  0.45303753064E+02  0.47000000000E+01 0.  1.
<mgrwt>
<rscale>  0 0.99000588E+02</rscale>
<asrwt>0</asrwt>
<pdfrwt beam="1">  1        2 0.18715510E-01 0.10140207E+03</pdfrwt>
<pdfrwt beam="2">  1       -2 0.11851996E-01 0.10140207E+03</pdfrwt>
<totfact> 0.13751435E+04</totfact>
</mgrwt>
</event>
<event>
 8    1  0.8174053E-004  0.1707749E+03  0.7546771E-02  0.1177102E+00
         -1   -1    0    0    0  501 -0.00000000000E+00  0.00000000000E+00  0.30233728527E+03  0.30233728527E+03  0.00000000000E+00 0.  1.
          1   -1    0    0  501    0  0.00000000000E+00 -0.00000000000E+00 -0.34498395846E+03  0.34498395846E+03  0.00000000000E+00 0. -1.
         23    2    1    2    0    0 -0.56770191559E+02  0.13264892473E+03  0.25346168148E+03  0.30549639292E+03  0.90921010945E+02 0.  0.
         23    2    1    2    0    0  0.56770191559E+02 -0.13264892473E+03 -0.29610835467E+03  0.34182485081E+03  0.91353593494E+02 0.  0.
          5    1    4    4  502    0  0.72051912121E+02 -0.80517048507E+02 -0.24170781105E+03  0.26480035699E+03  0.47000000000E+01 0. -1.
         -5    1    4    4    0  502 -0.15281720562E+02 -0.52131876219E+02 -0.54400543619E+02  0.77024493815E+02  0.47000000000E+01 0.  1.
          5    1    3    3  503    0  0.19608302479E+02  0.72782035655E+01  0.18062085359E+02  0.28031887214E+02  0.47000000000E+01 0. -1.
         -5    1    3    3    0  503 -0.76378494039E+02  0.12537072116E+03  0.23539959612E+03  0.27746450571E+03  0.47000000000E+01 0.  1.
<mgrwt>
<rscale>  0 0.17071713E+03</rscale>
<asrwt>0</asrwt>
<pdfrwt beam="1">  1        1 0.53074455E-01 0.17077491E+03</pdfrwt>
<pdfrwt beam="2">  1       -1 0.46513428E-01 0.17077491E+03</pdfrwt>
<totfact> 0.34910746E+02</totfact>
</mgrwt>
</event>
<event>
 8    1  0.8174053E-004  0.1613404E+03  0.7546771E-02  0.1187353E+00
         -2   -1    0    0    0  501 -0.00000000000E+00  0.00000000000E+00  0.35564009960E+02  0.35564009960E+02  0.00000000000E+00 0.  1.
          2   -1    0    0  501    0  0.00000000000E+00 -0.00000000000E+00 -0.12551515285E+04  0.12551515285E+04  0.00000000000E+00 0. -1.
         23    2    1    2    0    0  0.21247890143E+02 -0.13203278248E+03 -0.19145616213E+03  0.25000192754E+03  0.89226527847E+02 0.  0.
         23    2    1    2    0    0 -0.21247890143E+02  0.13203278248E+03 -0.10281313564E+04  0.10407136109E+04  0.90258547717E+02 0.  0.
          5    1    3    3  502    0  0.46554343139E+02 -0.30269021623E+02 -0.69904649553E+02  0.89399499798E+02  0.47000000000E+01 0. -1.
         -5    1    3    3    0  502 -0.25306452995E+02 -0.10176376086E+03 -0.12155151258E+03  0.16060242774E+03  0.47000000000E+01 0.  1.
          5    1    4    4  503    0  0.33767988624E+02  0.72122968636E+02 -0.49117068543E+03  0.49760700547E+03  0.47000000000E+01 0. -1.
         -5    1    4    4    0  503 -0.55015878767E+02  0.59909813844E+02 -0.53696067100E+03  0.54310660547E+03  0.47000000000E+01 0.  1.
<mgrwt>
<rscale>  0 0.16119647E+03</rscale>
<asrwt>0</asrwt>
<pdfrwt beam="1">  1        2 0.19310024E+00 0.16134043E+03</pdfrwt>
<pdfrwt beam="2">  1       -2 0.54713860E-02 0.16134043E+03</pdfrwt>
<totfact> 0.31480934E+03</totfact>
</mgrwt>
</event>
<event>
 8    1  0.8174053E-004  0.9515523E+02  0.7546771E-02  0.1292982E+00
          2   -1    0    0  501    0  0.00000000000E+00  0.00000000000E+00  0.46166050912E+03  0.46166050912E+03  0.00000000000E+00 0. -1.
         -2   -1    0    0    0  501 -0.00000000000E+00 -0.00000000000E+00 -0.45514057990E+02  0.45514057990E+02  0.00000000000E+00 0.  1.
         23    2    1    2    0    0  0.99437738379E+00  0.68871276770E+01  0.15715157991E+02  0.96444206051E+02  0.94900460358E+02 0.  0.
         23    2    1    2    0    0 -0.99437738379E+00 -0.68871276770E+01  0.40043129314E+03  0.41073036106E+03  0.91136094147E+02 0.  0.
          5    1    3    3  502    0 -0.37458308538E+02  0.21551745818E+02 -0.13770773938E+02  0.45599636415E+02  0.47000000000E+01 0. -1.
         -5    1    4    4    0  503  0.11724124299E+02  0.37684235166E+02  0.11880892707E+03  0.12528051653E+03  0.47000000000E+01 0.  1.
          5    1    4    4  503    0 -0.12718501683E+02 -0.44571362843E+02  0.28162236608E+03  0.28544984453E+03  0.47000000000E+01 0. -1.
         -5    1    3    3    0  502  0.38452685921E+02 -0.14664618141E+02  0.29485931929E+02  0.50844569636E+02  0.47000000000E+01 0.  1.
<mgrwt>
<rscale>  0 0.94202555E+02</rscale>
<asrwt>0</asrwt>
<pdfrwt beam="1">  1        2 0.71024690E-01 0.95155235E+02</pdfrwt>
<pdfrwt beam="2">  1       -2 0.70021631E-02 0.95155235E+02</pdfrwt>
<totfact> 0.74030607E+03</totfact>
</mgrwt>
</event>
<event>
 8    1  0.8174053E-004  0.9476687E+02  0.7546771E-02  0.1292245E+00
          3   -1    0    0  501    0  0.00000000000E+00  0.00000000000E+00  0.56078754233E+02  0.56078754233E+02  0.00000000000E+00 0. -1.
         -3   -1    0    0    0  501 -0.00000000000E+00 -0.00000000000E+00 -0.17583001364E+03  0.17583001364E+03  0.00000000000E+00 0.  1.
         23    2    1    2    0    0  0.29682351657E+01  0.25402970283E+02 -0.96515651145E+02  0.13526282028E+03  0.91250415426E+02 0.  0.
         23    2    1    2    0    0 -0.29682351657E+01 -0.25402970283E+02 -0.23235608266E+02  0.96645947594E+02  0.90257544703E+02 0.  0.
          5    1    3    3  502    0  0.37383807368E+02 -0.15055021084E+02 -0.32770144156E+02  0.52155297537E+02  0.47000000000E+01 0. -1.
         -5    1    3    3    0  502 -0.34415572202E+02  0.40457991367E+02 -0.63745506989E+02  0.83107522745E+02  0.47000000000E+01 0.  1.
          5    1    4    4  503    0 -0.23723682601E+02 -0.29280589340E+02 -0.49647148130E+02  0.62506762399E+02  0.47000000000E+01 0. -1.
         -5    1    4    4    0  503  0.20755447435E+02  0.38776190569E+01  0.26411539864E+02  0.34139185195E+02  0.47000000000E+01 0.  1.
<mgrwt>
<rscale>  0 0.94527050E+02</rscale>
<asrwt>0</asrwt>
<pdfrwt beam="1">  1        3 0.86275008E-02 0.94766870E+02</pdfrwt>
<pdfrwt beam="2">  1       -3 0.27050771E-01 0.94766870E+02</pdfrwt>
<totfact> 0.26139173E+03</totfact>
</mgrwt>
</event>
<event>
 8    1  0.8174053E-004  0.9344869E+02  0.7546771E-02  0.1295276E+00
          1   -1    0    0  501    0  0.00000000000E+00  0.00000000000E+00  0.28650528644E+02  0.28650528644E+02  0.00000000000E+00 0. -1.
         -1   -1    0    0    0  501 -0.00000000000E+00 -0.00000000000E+00 -0.35570840100E+03  0.35570840100E+03  0.00000000000E+00 0.  1.
         23    2    1    2    0    0 -0.13110378966E+02 -0.97188557531E+01 -0.89315176276E+02  0.12926661782E+03  0.92012605527E+02 0.  0.
         23    2    1    2    0    0  0.13110378966E+02  0.97188557531E+01 -0.23774269608E+03  0.25509231183E+03  0.91017359985E+02 0.  0.
          5    1    4    4  502    0 -0.14328492153E+02  0.16226984048E+02 -0.79612158956E+01  0.23539151582E+02  0.47000000000E+01 0. -1.
         -5    1    4    4    0  502  0.27438871119E+02 -0.65081282948E+01 -0.22978148019E+03  0.23155316025E+03  0.47000000000E+01 0.  1.
          5    1    3    3  503    0  0.17724100040E+02  0.34578971292E+02 -0.40866649478E+02  0.56586411950E+02  0.47000000000E+01 0. -1.
         -5    1    3    3    0  503 -0.30834479005E+02 -0.44297827045E+02 -0.48448526797E+02  0.72680205870E+02  0.47000000000E+01 0.  1.
<mgrwt>
<rscale>  0 0.93202775E+02</rscale>
<asrwt>0</asrwt>
<pdfrwt beam="1">  1        1 0.44077737E-02 0.93448691E+02</pdfrwt>
<pdfrwt beam="2">  1       -1 0.54724369E-01 0.93448691E+02</pdfrwt>
<totfact> 0.63368296E+03</totfact>
</mgrwt>
</event>
<event>
 8    1  0.8174053E-004  0.9720111E+02  0.7546771E-02  0.1286567E+00
          1   -1    0    0  501    0  0.00000000000E+00  0.00000000000E+00  0.62378413528E+03  0.62378413528E+03  0.00000000000E+00 0. -1.
         -1   -1    0    0    0  501 -0.00000000000E+00 -0.00000000000E+00 -0.15810645537E+02  0.15810645537E+02  0.00000000000E+00 0.  1.
         23    2    1    2    0    0  0.31578040352E+02  0.17667343050E+01  0.37399534392E+03  0.38642020335E+03  0.91911709232E+02 0.  0.
         23    2    1    2    0    0 -0.31578040352E+02 -0.17667343050E+01  0.23397814582E+03  0.25317457748E+03  0.91385447278E+02 0.  0.
          5    1    4    4  502    0 -0.22295664629E+02  0.38696043405E+02  0.17645990220E+03  0.18208423193E+03  0.47000000000E+01 0. -1.
         -5    1    3    3    0  503  0.62271463770E+02  0.13698677861E+02  0.24741516920E+03  0.25554206098E+03  0.47000000000E+01 0.  1.
          5    1    3    3  503    0 -0.30693423418E+02 -0.11931943556E+02  0.12658017472E+03  0.13087814237E+03  0.47000000000E+01 0. -1.
         -5    1    4    4    0  502 -0.92823757225E+01 -0.40462777709E+02  0.57518243628E+02  0.71090345541E+02  0.47000000000E+01 0.  1.
<mgrwt>
<rscale>  0 0.97076505E+02</rscale>
<asrwt>0</asrwt>
<pdfrwt beam="1">  1        1 0.95966771E-01 0.97201113E+02</pdfrwt>
<pdfrwt beam="2">  1       -1 0.24324075E-02 0.97201113E+02</pdfrwt>
<totfact> 0.15782288E+04</totfact>
</mgrwt>
</event>
<event>
 8    1  0.8174053E-004  0.9579575E+02  0.7546771E-02  0.1289625E+00
          1   -1    0    0  501    0  0.00000000000E+00  0.00000000000E+00  0.40506810319E+03  0.40506810319E+03  0.00000000000E+00 0. -1.
         -1   -1    0    0    0  501 -0.00000000000E+00 -0.00000000000E+00 -0.29271191240E+02  0.29271191240E+02  0.00000000000E+00 0.  1.
         23    2    1    2    0    0  0.65122719854E+01 -0.24407264691E+02  0.84204227014E+02  0.12754284550E+03  0.92405093660E+02 0.  0.
         23    2    1    2    0    0 -0.65122719854E+01  0.24407264691E+02  0.29159268493E+03  0.30679644893E+03  0.91976317136E+02 0.  0.
          5    1    3    3  502    0 -0.37509168533E+02 -0.34810339053E+01  0.64328411411E+02  0.74694643956E+02  0.47000000000E+01 0. -1.
         -5    1    3    3    0  502  0.44021440518E+02 -0.20926230785E+02  0.19875815604E+02  0.52848201541E+02  0.47000000000E+01 0.  1.
          5    1    4    4  503    0 -0.13038634229E+01  0.58146755358E+02  0.21557145406E+03  0.22332910026E+03  0.47000000000E+01 0. -1.
         -5    1    4    4    0  503 -0.52084085625E+01 -0.33739490668E+02  0.76021230873E+02  0.83467348669E+02  0.47000000000E+01 0.  1.
<mgrwt>
<rscale>  0 0.95692198E+02</rscale>
<asrwt>0</asrwt>
<pdfrwt beam="1">  1        1 0.62318166E-01 0.95795749E+02</pdfrwt>
<pdfrwt beam="2">  1       -1 0.45032605E-02 0.95795749E+02</pdfrwt>
<totfact> 0.11300080E+04</totfact>
</mgrwt>
</event>
<event>
 8    1  0.8174053E-004  0.1859422E+03  0.7546771E-02  0.1163282E+00
         -1   -1    0    0    0  501 -0.00000000000E+00  0.00000000000E+00  0.23946497672E+02  0.23946497672E+02  0.00000000000E+00 0.  1.
          1   -1    0    0  501    0  0.00000000000E+00 -0.00000000000E+00 -0.15073556657E+04  0.15073556657E+04  0.00000000000E+00 0. -1.
         23    2    1    2    0    0  0.81039842393E+02  0.13414897304E+03 -0.55349100626E+03  0.58388937659E+03  0.10005551987E+03 0.  0.
         23    2    1    2    0    0 -0.81039842393E+02 -0.13414897304E+03 -0.92991816180E+03  0.94741278682E+03  0.90993395123E+02 0.  0.
          5    1    3    3  502    0 -0.18195167900E+02  0.31709757723E+02 -0.18697017760E+03  0.19056891190E+03  0.47000000000E+01 0. -1.
         -5    1    4    4    0  503 -0.63182655912E+02 -0.23704045285E+02 -0.41317836068E+03  0.41867932539E+03  0.47000000000E+01 0.  1.
          5    1    4    4  503    0 -0.17857186480E+02 -0.11044492775E+03 -0.51673980112E+03  0.52873346143E+03  0.47000000000E+01 0. -1.
         -5    1    3    3    0  502  0.99235010292E+02  0.10243921532E+03 -0.36652082867E+03  0.39332046470E+03  0.47000000000E+01 0.  1.
<mgrwt>
<rscale>  0 0.18475202E+03</rscale>
<asrwt>0</asrwt>
<pdfrwt beam="1">  1        1 0.23190091E+00 0.18594222E+03</pdfrwt>
<pdfrwt beam="2">  1       -1 0.36840760E-02 0.18594222E+03</pdfrwt>
<totfact> 0.19680348E+03</totfact>
</mgrwt>
</event>
<event>
 8    1  0.8174053E-004  0.1014004E+03  0.7546771E-02  0.1277547E+00
          3   -1    0    0  501    0  0.00000000000E+00  0.00000000000E+00  0.35286512209E+02  0.35286512209E+02  0.00000000000E+00 0. -1.
         -3   -1    0    0    0  501 -0.00000000000E+00 -0.00000000000E+00 -0.35225840735E+03  0.35225840735E+03  0.00000000000E+00 0.  1.
         23    2    1    2    0    0  0.41691655135E+02  0.71860119497E+01 -0.23944326737E+03  0.25990196093E+03  0.91793889389E+02 0.  0.
         23    2    1    2    0    0 -0.41691655135E+02 -0.71860119497E+01 -0.77528627771E+02  0.12764295863E+03  0.92153154524E+02 0.  0.
          5    1    3    3  502    0  0.34694186795E+02  0.45738880662E+02 -0.17600407202E+03  0.18518978150E+03  0.47000000000E+01 0. -1.
         -5    1    4    4    0  503  0.27638618344E+02 -0.86506912285E+01 -0.36870831070E+02  0.47119803337E+02  0.47000000000E+01 0.  1.
          5    1    4    4  503    0 -0.69330273479E+02  0.14646792788E+01 -0.40657796701E+02  0.80523155295E+02  0.47000000000E+01 0. -1.
         -5    1    3    3    0  502  0.69974683397E+01 -0.38552868713E+02 -0.63439195349E+02  0.74712179433E+02  0.47000000000E+01 0.  1.
<mgrwt>
<rscale>  0 0.10131868E+03</rscale>
<asrwt>0</asrwt>
<pdfrwt beam="1">  1        3 0.54286943E-02 0.10140038E+03</pdfrwt>
<pdfrwt beam="2">  1       -3 0.54193600E-01 0.10140038E+03</pdfrwt>
<totfact> 0.14804421E+03</totfact>
</mgrwt>
</event>
<event>
 8    1  0.8174053E-004  0.1242936E+03  0.7546771E-02  0.1250657E+00
          3   -1    0    0  501    0  0.00000000000E+00  0.00000000000E+00  0.40948551442E+03  0.40948551442E+03  0.00000000000E+00 0. -1.
         -3   -1    0    0    0  501 -0.00000000000E+00 -0.00000000000E+00 -0.29103200366E+02  0.29103200366E+02  0.00000000000E+00 0.  1.
         23    2    1    2    0    0 -0.34800812766E+02 -0.30008136846E+01  0.18618050532E+03  0.20801717551E+03  0.85952680546E+02 0.  0.
         23    2    1    2    0    0  0.34800812766E+02  0.30008136846E+01  0.19420180873E+03  0.23057153928E+03  0.11928449504E+03 0.  0.
          5    1    4    4  502    0  0.51716680951E+02 -0.38860146169E+02  0.16316009450E+03  0.17557913454E+03  0.47000000000E+01 0. -1.
         -5    1    3    3    0  503 -0.48576852142E+02  0.14873890049E+02  0.55776159790E+02  0.75591091870E+02  0.47000000000E+01 0.  1.
          5    1    3    3  503    0  0.13776039376E+02 -0.17874703734E+02  0.13040434553E+03  0.13242608364E+03  0.47000000000E+01 0. -1.
         -5    1    4    4    0  502 -0.16915868185E+02  0.41860959853E+02  0.31041714234E+02  0.54992404738E+02  0.47000000000E+01 0.  1.
<mgrwt>
<rscale>  0 0.11553114E+03</rscale>
<asrwt>0</asrwt>
<pdfrwt beam="1">  1        3 0.62997767E-01 0.12429357E+03</pdfrwt>
<pdfrwt beam="2">  1       -3 0.44774157E-02 0.12429357E+03</pdfrwt>
<totfact> 0.15310346E+03</totfact>
</mgrwt>
</event>
<event>
 8    1  0.8174053E-004  0.1025318E+03  0.7546771E-02  0.1275158E+00
          2   -1    0    0  501    0  0.00000000000E+00  0.00000000000E+00  0.16703226518E+03  0.16703226518E+03  0.00000000000E+00 0. -1.
         -2   -1    0    0    0  501 -0.00000000000E+00 -0.00000000000E+00 -0.63336919206E+02  0.63336919206E+02  0.00000000000E+00 0.  1.
         23    2    1    2    0    0 -0.46817487608E+02 -0.20571376391E+01  0.41492904713E+02  0.11060933257E+03  0.91195692606E+02 0.  0.
         23    2    1    2    0    0  0.46817487608E+02  0.20571376391E+01  0.62202441260E+02  0.11975985181E+03  0.90978950564E+02 0.  0.
          5    1    4    4  502    0  0.29586843151E+02 -0.27559160392E+02  0.72954318638E+02  0.83542272037E+02  0.47000000000E+01 0. -1.
         -5    1    4    4    0  502  0.17230644457E+02  0.29616298031E+02 -0.10751877378E+02  0.36217579773E+02  0.47000000000E+01 0.  1.
          5    1    3    3  503    0  0.18664771983E+02 -0.76899066092E+01 -0.13540909071E+02  0.24757919850E+02  0.47000000000E+01 0. -1.
         -5    1    3    3    0  503 -0.65482259591E+02  0.56327689701E+01  0.55033813783E+02  0.85851412725E+02  0.47000000000E+01 0.  1.
<mgrwt>
<rscale>  0 0.10248355E+03</rscale>
<asrwt>0</asrwt>
<pdfrwt beam="1">  1        2 0.25697271E-01 0.10253177E+03</pdfrwt>
<pdfrwt beam="2">  1       -2 0.97441415E-02 0.10253177E+03</pdfrwt>
<totfact> 0.13169724E+04</totfact>
</mgrwt>
</event>
<event>
 8    1  0.1027831E-003  0.1123325E+03  0.7546771E-02  0.1256539E+00
          1   -1    0    0  501    0  0.00000000000E+00  0.00000000000E+00  0.64232816795E+03  0.64232816795E+03  0.00000000000E+00 0. -1.
         -1   -1    0    0    0  501 -0.00000000000E+00 -0.00000000000E+00 -0.82865122390E+02  0.82865122390E+02  0.00000000000E+00 0.  1.
         23    2    1    2    0    0 -0.97374294554E+01  0.63515189361E+02  0.59651627952E+03  0.60690750546E+03  0.91520771633E+02 0.  0.
         23    2    1    2    0    0  0.97374294554E+01 -0.63515189361E+02 -0.37053233956E+02  0.11828578488E+03  0.92138959983E+02 0.  0.
          5    1    3    3  502    0 -0.44279558975E+02  0.65477948683E+01  0.24726012917E+03  0.25132292860E+03  0.47000000000E+01 0. -1.
         -5    1    3    3    0  502  0.34542129520E+02  0.56967394493E+02  0.34925615035E+03  0.35558457686E+03  0.47000000000E+01 0.  1.
          5    1    4    4  503    0 -0.24784433861E+02  0.93054939975E+01  0.48662759898E+01  0.27324549811E+02  0.47000000000E+01 0. -1.
         -5    1    4    4    0  503  0.34521863317E+02 -0.72820683359E+02 -0.41919509946E+02  0.90961235072E+02  0.47000000000E+01 0.  1.
<mgrwt>
<rscale>  0 0.11220563E+03</rscale>
<asrwt>0</asrwt>
<pdfrwt beam="1">  1        1 0.98819715E-01 0.11233247E+03</pdfrwt>
<pdfrwt beam="2">  1       -1 0.12748481E-01 0.11233247E+03</pdfrwt>
<totfact> 0.13177809E+03</totfact>
</mgrwt>
</event>
<event>
 8    1  0.8174053E-004  0.1541205E+03  0.7546771E-02  0.1195533E+00
         -2   -1    0    0    0  501 -0.00000000000E+00  0.00000000000E+00  0.73463825386E+03  0.73463825386E+03  0.00000000000E+00 0.  1.
          2   -1    0    0  501    0  0.00000000000E+00 -0.00000000000E+00 -0.45624339025E+02  0.45624339025E+02  0.00000000000E+00 0. -1.
         23    2    1    2    0    0 -0.11907844049E+03  0.36061834290E+02  0.55517529917E+03  0.57614034299E+03  0.90763159547E+02 0.  0.
         23    2    1    2    0    0  0.11907844049E+03 -0.36061834290E+02  0.13383861566E+03  0.20412224989E+03  0.90955961750E+02 0.  0.
          5    1    3    3  502    0 -0.38072396539E+02  0.20945327406E+02  0.60555452192E+02  0.74681101414E+02  0.47000000000E+01 0. -1.
         -5    1    3    3    0  502 -0.81006043947E+02  0.15116506884E+02  0.49461984698E+03  0.50145924158E+03  0.47000000000E+01 0.  1.
          5    1    4    4  503    0  0.12731365419E+03 -0.17116192076E+02  0.12955866901E+03  0.18250827184E+03  0.47000000000E+01 0. -1.
         -5    1    4    4    0  503 -0.82352137090E+01 -0.18945642214E+02  0.42799466510E+01  0.21613978048E+02  0.47000000000E+01 0.  1.
<mgrwt>
<rscale>  0 0.15409203E+03</rscale>
<asrwt>0</asrwt>
<pdfrwt beam="1">  1        2 0.70191296E-02 0.15412047E+03</pdfrwt>
<pdfrwt beam="2">  1       -2 0.11302126E+00 0.15412047E+03</pdfrwt>
<totfact> 0.63538831E+02</totfact>
</mgrwt>
</event>
<event>
 8    1  0.8174053E-004  0.1051648E+03  0.7546771E-02  0.1270281E+00
         -1   -1    0    0    0  501 -0.00000000000E+00  0.00000000000E+00  0.25860990371E+02  0.25860990371E+02  0.00000000000E+00 0.  1.
          1   -1    0    0  501    0  0.00000000000E+00 -0.00000000000E+00 -0.88467167933E+03  0.88467167933E+03  0.00000000000E+00 0. -1.
         23    2    1    2    0    0 -0.49426682542E+02  0.52073971081E+01 -0.75901394296E+03  0.76626483673E+03  0.92679665855E+02 0.  0.
         23    2    1    2    0    0  0.49426682542E+02 -0.52073971081E+01 -0.99796746003E+02  0.14426783298E+03  0.91562564339E+02 0.  0.
          5    1    4    4  502    0 -0.14394726307E+02  0.26667102623E+02 -0.43736010936E+02  0.53416019697E+02  0.47000000000E+01 0. -1.
         -5    1    4    4    0  502  0.63821408849E+02 -0.31874499731E+02 -0.56060735068E+02  0.90851813283E+02  0.47000000000E+01 0.  1.
          5    1    3    3  503    0  0.99163046686E+01 -0.28799511251E+02 -0.13381506131E+03  0.13731826383E+03  0.47000000000E+01 0.  1.
         -5    1    3    3    0  503 -0.59342987211E+02  0.34006908359E+02 -0.62519888165E+03  0.62894657290E+03  0.47000000000E+01 0. -1.
<mgrwt>
<rscale>  0 0.10491814E+03</rscale>
<asrwt>0</asrwt>
<pdfrwt beam="1">  1        1 0.13610333E+00 0.10516480E+03</pdfrwt>
<pdfrwt beam="2">  1       -1 0.39786139E-02 0.10516480E+03</pdfrwt>
<totfact> 0.46928602E+03</totfact>
</mgrwt>
</event>
<event>
 8    1  0.8174053E-004  0.1054935E+03  0.7546771E-02  0.1273242E+00
          1   -1    0    0  501    0  0.00000000000E+00  0.00000000000E+00  0.45453078156E+03  0.45453078156E+03  0.00000000000E+00 0. -1.
         -1   -1    0    0    0  501 -0.00000000000E+00 -0.00000000000E+00 -0.25559901811E+02  0.25559901811E+02  0.00000000000E+00 0.  1.
         23    2    1    2    0    0  0.27434228537E+02 -0.23182161144E+02  0.30278339832E+03  0.32063478243E+03  0.99190866089E+02 0.  0.
         23    2    1    2    0    0 -0.27434228537E+02  0.23182161144E+02  0.12618748143E+03  0.15945590094E+03  0.90624800053E+02 0.  0.
          5    1    3    3  502    0  0.54146397177E+02  0.10279948162E+02  0.11032017948E+03  0.12341046010E+03  0.47000000000E+01 0. -1.
         -5    1    4    4    0  503 -0.26134034416E+02 -0.10350004112E+02 -0.30779224283E+00  0.28500790797E+02  0.47000000000E+01 0.  1.
          5    1    4    4  503    0 -0.13001941212E+01  0.33532165256E+02  0.12649527367E+03  0.13095511014E+03  0.47000000000E+01 0. -1.
         -5    1    3    3    0  502 -0.26712168640E+02 -0.33462109306E+02  0.19246321884E+03  0.19722432233E+03  0.47000000000E+01 0.  1.
<mgrwt>
<rscale>  0 0.10343114E+03</rscale>
<asrwt>0</asrwt>
<pdfrwt beam="1">  1        1 0.69927806E-01 0.10549349E+03</pdfrwt>
<pdfrwt beam="2">  1       -1 0.39322929E-02 0.10549349E+03</pdfrwt>
<totfact> 0.12010744E+04</totfact>
</mgrwt>
</event>
<event>
 8    1  0.8174053E-004  0.1629353E+03  0.7546771E-02  0.1191282E+00
          1   -1    0    0  501    0  0.00000000000E+00  0.00000000000E+00  0.79571553413E+02  0.79571553413E+02  0.00000000000E+00 0. -1.
         -1   -1    0    0    0  501 -0.00000000000E+00 -0.00000000000E+00 -0.29430120689E+03  0.29430120689E+03  0.00000000000E+00 0.  1.
         23    2    1    2    0    0  0.72863038371E+02  0.82079314283E+02 -0.97906827945E+02  0.17338467419E+03  0.91817547838E+02 0.  0.
         23    2    1    2    0    0 -0.72863038371E+02 -0.82079314283E+02 -0.11682282553E+03  0.20048808611E+03  0.12042368502E+03 0.  0.
          5    1    3    3  502    0  0.18865647136E+02  0.16224497664E+02  0.16840004463E+02  0.30410897991E+02  0.47000000000E+01 0. -1.
         -5    1    4    4    0  503 -0.94137430831E+02 -0.44789478294E+02 -0.11768806587E+03  0.15729120795E+03  0.47000000000E+01 0.  1.
          5    1    4    4  503    0  0.21274392459E+02 -0.37289835989E+02  0.86524033847E+00  0.43196878168E+02  0.47000000000E+01 0. -1.
         -5    1    3    3    0  502  0.53997391235E+02  0.65854816619E+02 -0.11474683241E+03  0.14297377620E+03  0.47000000000E+01 0.  1.
<mgrwt>
<rscale>  0 0.15773144E+03</rscale>
<asrwt>0</asrwt>
<pdfrwt beam="1">  1        1 0.12241777E-01 0.16293526E+03</pdfrwt>
<pdfrwt beam="2">  1       -1 0.45277109E-01 0.16293526E+03</pdfrwt>
<totfact> 0.23559995E+03</totfact>
</mgrwt>
</event>
<event>
 8    1  0.8174053E-004  0.9565170E+02  0.7546771E-02  0.1290904E+00
         -2   -1    0    0    0  501 -0.00000000000E+00  0.00000000000E+00  0.22668490242E+03  0.22668490242E+03  0.00000000000E+00 0.  1.
          2   -1    0    0  501    0  0.00000000000E+00 -0.00000000000E+00 -0.27983015939E+03  0.27983015939E+03  0.00000000000E+00 0. -1.
         23    2    1    2    0    0 -0.26856307003E+02  0.12080889664E+02  0.20809790929E+03  0.22902835590E+03  0.91005707714E+02 0.  0.
         23    2    1    2    0    0  0.26856307003E+02 -0.12080889664E+02 -0.26124316627E+03  0.27748670591E+03  0.88790038363E+02 0.  0.
          5    1    4    4  502    0  0.47772360510E+02  0.20915392737E+02 -0.12135006269E+03  0.13216497190E+03  0.47000000000E+01 0. -1.
         -5    1    4    4    0  502 -0.20916053507E+02 -0.32996282401E+02 -0.13989310358E+03  0.14532173401E+03  0.47000000000E+01 0.  1.
          5    1    3    3  503    0  0.23434676500E+02 -0.23691189860E+02  0.68261689414E+02  0.76106535733E+02  0.47000000000E+01 0. -1.
         -5    1    3    3    0  503 -0.50290983503E+02  0.35772079525E+02  0.13983621988E+03  0.15292182017E+03  0.47000000000E+01 0.  1.
<mgrwt>
<rscale>  0 0.95120909E+02</rscale>
<asrwt>0</asrwt>
<pdfrwt beam="1">  1        2 0.43050794E-01 0.95651701E+02</pdfrwt>
<pdfrwt beam="2">  1       -2 0.34874600E-01 0.95651701E+02</pdfrwt>
<totfact> 0.89718224E+02</totfact>
</mgrwt>
</event>
<event>
 8    1  0.8174053E-004  0.9769828E+02  0.7546771E-02  0.1286720E+00
          2   -1    0    0  501    0  0.00000000000E+00  0.00000000000E+00  0.58608308325E+03  0.58608308325E+03  0.00000000000E+00 0. -1.
         -2   -1    0    0    0  501 -0.00000000000E+00 -0.00000000000E+00 -0.13311520050E+03  0.13311520050E+03  0.00000000000E+00 0.  1.
         23    2    1    2    0    0  0.24673574703E+02 -0.14179625018E+02 -0.11066603355E+03  0.14762088428E+03  0.93461796683E+02 0.  0.
         23    2    1    2    0    0 -0.24673574703E+02  0.14179625018E+02  0.56363391630E+03  0.57157739948E+03  0.90596274396E+02 0.  0.
          5    1    3    3  502    0 -0.30248304238E+02 -0.17790898925E+01 -0.10124005163E+02  0.32291028950E+02  0.47000000000E+01 0. -1.
         -5    1    4    4    0  503  0.15210834248E+02 -0.29847833738E+02  0.15726057877E+03  0.16085783255E+03  0.47000000000E+01 0.  1.
          5    1    4    4  503    0 -0.39884408950E+02  0.44027458756E+02  0.40637333753E+03  0.41071956693E+03  0.47000000000E+01 0. -1.
         -5    1    3    3    0  502  0.54921878941E+02 -0.12400535125E+02 -0.10054202839E+03  0.11532985533E+03  0.47000000000E+01 0.  1.
<mgrwt>
<rscale>  0 0.97006572E+02</rscale>
<asrwt>0</asrwt>
<pdfrwt beam="1">  1        2 0.90166627E-01 0.97698283E+02</pdfrwt>
<pdfrwt beam="2">  1       -2 0.20479262E-01 0.97698283E+02</pdfrwt>
<totfact> 0.10383851E+03</totfact>
</mgrwt>
</event>
<event>
 8    1  0.8174053E-004  0.1095053E+03  0.7546771E-02  0.1262898E+00
         -1   -1    0    0    0  501 -0.00000000000E+00  0.00000000000E+00  0.43060937084E+03  0.43060937084E+03  0.00000000000E+00 0.  1.
          1   -1    0    0  501    0  0.00000000000E+00 -0.00000000000E+00 -0.45676635492E+02  0.45676635492E+02  0.00000000000E+00 0. -1.
         23    2    1    2    0    0  0.17751665120E+02  0.53313414905E+02  0.34277571602E+03  0.35894622183E+03  0.90497275351E+02 0.  0.
         23    2    1    2    0    0 -0.17751665120E+02 -0.53313414905E+02  0.42157019326E+02  0.11733978451E+03  0.93989195794E+02 0.  0.
          5    1    4    4  502    0  0.11030917765E+02 -0.71499286572E+02  0.40240736324E+02  0.82917042802E+02  0.47000000000E+01 0. -1.
         -5    1    4    4    0  502 -0.28782582885E+02  0.18185871668E+02  0.19162830025E+01  0.34422741704E+02  0.47000000000E+01 0.  1.
          5    1    3    3  503    0 -0.28816297859E+02  0.33697332961E+02  0.82583100642E+02  0.93850667460E+02  0.47000000000E+01 0. -1.
         -5    1    3    3    0  503  0.46567962979E+02  0.19616081943E+02  0.26019261538E+03  0.26509555437E+03  0.47000000000E+01 0.  1.
<mgrwt>
<rscale>  0 0.10875205E+03</rscale>
<asrwt>0</asrwt>
<pdfrwt beam="1">  1        1 0.70271750E-02 0.10950530E+03</pdfrwt>
<pdfrwt beam="2">  1       -1 0.66247593E-01 0.10950530E+03</pdfrwt>
<totfact> 0.23808701E+03</totfact>
</mgrwt>
</event>
<event>
 8    1  0.8174053E-004  0.1053446E+03  0.7546771E-02  0.1271306E+00
         -4   -1    0    0    0  501 -0.00000000000E+00  0.00000000000E+00  0.13180425820E+03  0.13180425820E+03  0.00000000000E+00 0.  1.
          4   -1    0    0  501    0  0.00000000000E+00 -0.00000000000E+00 -0.31979105330E+03  0.31979105330E+03  0.00000000000E+00 0. -1.
         23    2    1    2    0    0 -0.80050963353E+01 -0.44528804443E+02  0.10144571669E+03  0.14358774071E+03  0.90990713009E+02 0.  0.
         23    2    1    2    0    0  0.80050963353E+01  0.44528804443E+02 -0.28943251179E+03  0.30800757079E+03  0.95134582526E+02 0.  0.
          5    1    3    3  502    0 -0.33875343921E+02 -0.40351348934E+01  0.37854113836E+01  0.34644488432E+02  0.47000000000E+01 0. -1.
         -5    1    3    3    0  502  0.25870247585E+02 -0.40493669549E+02  0.97660305306E+02  0.10894325227E+03  0.47000000000E+01 0.  1.
          5    1    4    4  503    0 -0.30418814298E+02  0.27820934300E+02 -0.50378765719E+02  0.65264222082E+02  0.47000000000E+01 0. -1.
         -5    1    4    4    0  503  0.38423910633E+02  0.16707870143E+02 -0.23905374607E+03  0.24274334871E+03  0.47000000000E+01 0.  1.
<mgrwt>
<rscale>  0 0.10440031E+03</rscale>
<asrwt>0</asrwt>
<pdfrwt beam="1">  1        4 0.49198623E-01 0.10534460E+03</pdfrwt>
<pdfrwt beam="2">  1       -4 0.20277579E-01 0.10534460E+03</pdfrwt>
<totfact> 0.14108701E+02</totfact>
</mgrwt>
</event>
<event>
 8    1  0.8174053E-004  0.1305370E+03  0.7546771E-02  0.1227001E+00
         -4   -1    0    0    0  501 -0.00000000000E+00  0.00000000000E+00  0.42301932130E+03  0.42301932130E+03  0.00000000000E+00 0.  1.
          4   -1    0    0  501    0  0.00000000000E+00 -0.00000000000E+00 -0.44226692353E+02  0.44226692353E+02  0.00000000000E+00 0. -1.
         23    2    1    2    0    0  0.64648975035E+01  0.93112436700E+02  0.11655631168E+03  0.17431632516E+03  0.89939349890E+02 0.  0.
         23    2    1    2    0    0 -0.64648975035E+01 -0.93112436700E+02  0.26223631727E+03  0.29292968849E+03  0.91258947703E+02 0.  0.
          5    1    3    3  502    0 -0.30068686758E+02  0.82204989061E+02  0.61087148122E+02  0.10684341728E+03  0.47000000000E+01 0. -1.
         -5    1    4    4    0  503  0.39255943440E+02 -0.33349796689E+02  0.14072486216E+03  0.14992936625E+03  0.47000000000E+01 0.  1.
          5    1    4    4  503    0 -0.45720840944E+02 -0.59762640011E+02  0.12151145512E+03  0.14300032224E+03  0.47000000000E+01 0. -1.
         -5    1    3    3    0  502  0.36533584262E+02  0.10907447638E+02  0.55469163556E+02  0.67472907886E+02  0.47000000000E+01 0.  1.
<mgrwt>
<rscale>  0 0.13030665E+03</rscale>
<asrwt>0</asrwt>
<pdfrwt beam="1">  1        4 0.68041068E-02 0.13053703E+03</pdfrwt>
<pdfrwt beam="2">  1       -4 0.65079893E-01 0.13053703E+03</pdfrwt>
<totfact> 0.53074494E+02</totfact>
</mgrwt>
</event>
<event>
 8    1  0.8174053E-004  0.9751190E+02  0.7546771E-02  0.1287230E+00
         -2   -1    0    0    0  501 -0.00000000000E+00  0.00000000000E+00  0.29390154138E+03  0.29390154138E+03  0.00000000000E+00 0.  1.
          2   -1    0    0  501    0  0.00000000000E+00 -0.00000000000E+00 -0.42786414189E+02  0.42786414189E+02  0.00000000000E+00 0. -1.
         23    2    1    2    0    0  0.55498363971E+01 -0.23434894812E+02  0.21382404273E+03  0.23500913025E+03  0.94491137536E+02 0.  0.
         23    2    1    2    0    0 -0.55498363971E+01  0.23434894812E+02  0.37291084455E+02  0.10167882531E+03  0.91476573823E+02 0.  0.
          5    1    4    4  502    0 -0.39084356290E+02  0.79762094526E+01  0.48340213332E+02  0.62849606593E+02  0.47000000000E+01 0. -1.
         -5    1    3    3    0  503  0.15018049407E+02  0.33347402596E+02  0.11238141295E+03  0.11827621504E+03  0.47000000000E+01 0.  1.
          5    1    3    3  503    0 -0.94682130101E+01 -0.56782297409E+02  0.10144262979E+03  0.11673291522E+03  0.47000000000E+01 0. -1.
         -5    1    4    4    0  502  0.33534519893E+02  0.15458685360E+02 -0.11049128877E+02  0.38829218721E+02  0.47000000000E+01 0.  1.
<mgrwt>
<rscale>  0 0.96774002E+02</rscale>
<asrwt>0</asrwt>
<pdfrwt beam="1">  1        2 0.65825255E-02 0.97511897E+02</pdfrwt>
<pdfrwt beam="2">  1       -2 0.45215620E-01 0.97511897E+02</pdfrwt>
<totfact> 0.47508584E+03</totfact>
</mgrwt>
</event>
<event>
 8    1  0.8174053E-004  0.9901512E+02  0.7546771E-02  0.1283701E+00
         -1   -1    0    0    0  501 -0.00000000000E+00  0.00000000000E+00  0.48514451468E+02  0.48514451468E+02  0.00000000000E+00 0.  1.
          1   -1    0    0  501    0  0.00000000000E+00 -0.00000000000E+00 -0.19721112641E+03  0.19721112641E+03  0.00000000000E+00 0. -1.
         23    2    1    2    0    0  0.36122258325E+02 -0.61496318857E+01 -0.77840117633E+02  0.12594871395E+03  0.91985646240E+02 0.  0.
         23    2    1    2    0    0 -0.36122258325E+02  0.61496318857E+01 -0.70856557306E+02  0.11977686392E+03  0.89348810284E+02 0.  0.
          5    1    4    4  502    0 -0.63062296225E+02 -0.10962003385E+02 -0.50064067625E+02  0.81397294737E+02  0.47000000000E+01 0. -1.
         -5    1    4    4    0  502  0.26940037901E+02  0.17111635270E+02 -0.20792489681E+02  0.38379569185E+02  0.47000000000E+01 0.  1.
          5    1    3    3  503    0 -0.58279579705E+01 -0.19264081885E+02 -0.79072157944E+02  0.81728612535E+02  0.47000000000E+01 0. -1.
         -5    1    3    3    0  503  0.41950216295E+02  0.13114449999E+02  0.12320403109E+01  0.44220101417E+02  0.47000000000E+01 0.  1.
<mgrwt>
<rscale>  0 0.98398205E+02</rscale>
<asrwt>0</asrwt>
<pdfrwt beam="1">  1        1 0.30340174E-01 0.99015123E+02</pdfrwt>
<pdfrwt beam="2">  1       -1 0.74637616E-02 0.99015123E+02</pdfrwt>
<totfact> 0.13024249E+04</totfact>
</mgrwt>
</event>
<event>
 8    1  0.8174053E-004  0.1085224E+03  0.7546771E-02  0.1263620E+00
         -1   -1    0    0    0  501 -0.00000000000E+00  0.00000000000E+00  0.22961666662E+03  0.22961666662E+03  0.00000000000E+00 0.  1.
          1   -1    0    0  501    0  0.00000000000E+00 -0.00000000000E+00 -0.58780832876E+02  0.58780832876E+02  0.00000000000E+00 0. -1.
         23    2    1    2    0    0  0.42862596478E+02 -0.37476926695E+02  0.13766470490E+03  0.17491870473E+03  0.91669297348E+02 0.  0.
         23    2    1    2    0    0 -0.42862596478E+02  0.37476926695E+02  0.33171128838E+02  0.11347879477E+03  0.92387179098E+02 0.  0.
          5    1    3    3  502    0 -0.28747880280E+02 -0.71665892897E+01  0.37169826349E+02  0.47764909855E+02  0.47000000000E+01 0. -1.
         -5    1    3    3    0  502  0.71610476758E+02 -0.30310337405E+02  0.10049487855E+03  0.12715379487E+03  0.47000000000E+01 0.  1.
          5    1    4    4  503    0 -0.68041078430E+02  0.70079912526E+01  0.23902604625E+02  0.72609398862E+02  0.47000000000E+01 0. -1.
         -5    1    4    4    0  503  0.25178481952E+02  0.30468935442E+02  0.92685242133E+01  0.40869395903E+02  0.47000000000E+01 0.  1.
<mgrwt>
<rscale>  0 0.10836946E+03</rscale>
<asrwt>0</asrwt>
<pdfrwt beam="1">  1        1 0.90432052E-02 0.10852241E+03</pdfrwt>
<pdfrwt beam="2">  1       -1 0.35325641E-01 0.10852241E+03</pdfrwt>
<totfact> 0.53048951E+03</totfact>
</mgrwt>
</event>
<event>
 8    1  0.8174053E-004  0.1432623E+03  0.7546771E-02  0.1209454E+00
          2   -1    0    0  501    0  0.00000000000E+00  0.00000000000E+00  0.41221789262E+03  0.41221789262E+03  0.00000000000E+00 0. -1.
         -2   -1    0    0    0  501 -0.00000000000E+00 -0.00000000000E+00 -0.16795056999E+03  0.16795056999E+03  0.00000000000E+00 0.  1.
         23    2    1    2    0    0  0.89410005168E+02  0.63777343127E+02  0.36610853508E+03  0.39314062873E+03  0.91991282085E+02 0.  0.
         23    2    1    2    0    0 -0.89410005168E+02 -0.63777343127E+02 -0.12184121244E+03  0.18702783389E+03  0.89846708776E+02 0.  0.
          5    1    4    4  502    0  0.95403413221E+01 -0.37627145434E+02 -0.39558766107E+02  0.55621993509E+02  0.47000000000E+01 0. -1.
         -5    1    4    4    0  502 -0.98950346490E+02 -0.26150197694E+02 -0.82282446337E+02  0.13140584038E+03  0.47000000000E+01 0.  1.
          5    1    3    3  503    0  0.43762691989E+02 -0.13951762806E+01  0.23962021763E+03  0.24363304050E+03  0.47000000000E+01 0. -1.
         -5    1    3    3    0  503  0.45647313179E+02  0.65172519408E+02  0.12648831744E+03  0.14950758822E+03  0.47000000000E+01 0.  1.
<mgrwt>
<rscale>  0 0.14291921E+03</rscale>
<asrwt>0</asrwt>
<pdfrwt beam="1">  1        2 0.63418137E-01 0.14326233E+03</pdfrwt>
<pdfrwt beam="2">  1       -2 0.25838549E-01 0.14326233E+03</pdfrwt>
<totfact> 0.10284666E+03</totfact>
</mgrwt>
</event>
<event>
 8    1  0.8174053E-004  0.1266504E+03  0.7546771E-02  0.1232793E+00
          3   -1    0    0  501    0  0.00000000000E+00  0.00000000000E+00  0.70492022715E+02  0.70492022715E+02  0.00000000000E+00 0. -1.
         -3   -1    0    0    0  501 -0.00000000000E+00 -0.00000000000E+00 -0.10694890599E+04  0.10694890599E+04  0.00000000000E+00 0.  1.
         23    2    1    2    0    0 -0.79658269737E+01  0.85132041599E+02 -0.10059262481E+04  0.10138678162E+04  0.93431329100E+02 0.  0.
         23    2    1    2    0    0  0.79658269737E+01 -0.85132041599E+02  0.69292109242E+01  0.12611326638E+03  0.92442539379E+02 0.  0.
          5    1    3    3  502    0  0.19584005798E+02 -0.11265686688E+02 -0.11400159143E+03  0.11631380756E+03  0.47000000000E+01 0. -1.
         -5    1    3    3    0  502 -0.27549832772E+02  0.96397728286E+02 -0.89192465667E+03  0.89755400867E+03  0.47000000000E+01 0.  1.
          5    1    4    4  503    0 -0.59051186538E+01 -0.58817261284E+02  0.47225387093E+02  0.75806779626E+02  0.47000000000E+01 0. -1.
         -5    1    4    4    0  503  0.13870945628E+02 -0.26314780315E+02 -0.40296176169E+02  0.50306486753E+02  0.47000000000E+01 0.  1.
<mgrwt>
<rscale>  0 0.12646812E+03</rscale>
<asrwt>0</asrwt>
<pdfrwt beam="1">  1        3 0.10844926E-01 0.12665043E+03</pdfrwt>
<pdfrwt beam="2">  1       -3 0.16453679E+00 0.12665043E+03</pdfrwt>
<totfact> 0.41098938E+01</totfact>
</mgrwt>
</event>
<event>
 8    1  0.8174053E-004  0.9398235E+02  0.7546771E-02  0.1295187E+00
          1   -1    0    0  501    0  0.00000000000E+00  0.00000000000E+00  0.65425828105E+02  0.65425828105E+02  0.00000000000E+00 0. -1.
         -1   -1    0    0    0  501 -0.00000000000E+00 -0.00000000000E+00 -0.16218385539E+03  0.16218385539E+03  0.00000000000E+00 0.  1.
         23    2    1    2    0    0  0.62665354164E+01  0.62080079931E+01 -0.99032747896E+02  0.13652899605E+03  0.93567477135E+02 0.  0.
         23    2    1    2    0    0 -0.62665354164E+01 -0.62080079931E+01  0.22747206071E+01  0.91080687448E+02  0.90623994851E+02 0.  0.
          5    1    3    3  502    0 -0.22141762379E+02  0.35856020805E+02 -0.19021472946E+02  0.46473845357E+02  0.47000000000E+01 0. -1.
         -5    1    4    4    0  503  0.21748107992E+02  0.34452112657E+02 -0.34206222070E+01  0.41154816535E+02  0.47000000000E+01 0.  1.
          5    1    4    4  503    0 -0.28014643408E+02 -0.40660120650E+02  0.56953428141E+01  0.49925870912E+02  0.47000000000E+01 0. -1.
         -5    1    3    3    0  502  0.28408297795E+02 -0.29648012812E+02 -0.80011274950E+02  0.90055150693E+02  0.47000000000E+01 0.  1.
<mgrwt>
<rscale>  0 0.93241107E+02</rscale>
<asrwt>0</asrwt>
<pdfrwt beam="1">  1        1 0.10065512E-01 0.93982347E+02</pdfrwt>
<pdfrwt beam="2">  1       -1 0.24951362E-01 0.93982347E+02</pdfrwt>
<totfact> 0.81240243E+03</totfact>
</mgrwt>
</event>
<event>
 8    1  0.8174053E-004  0.1087875E+03  0.7546771E-02  0.1263350E+00
          1   -1    0    0  501    0  0.00000000000E+00  0.00000000000E+00  0.49465611249E+02  0.49465611249E+02  0.00000000000E+00 0. -1.
         -1   -1    0    0    0  501 -0.00000000000E+00 -0.00000000000E+00 -0.45948461261E+03  0.45948461261E+03  0.00000000000E+00 0.  1.
         23    2    1    2    0    0 -0.42929698085E+02 -0.37736278549E+02 -0.27337106738E+02  0.11110584447E+03  0.91269959864E+02 0.  0.
         23    2    1    2    0    0  0.42929698085E+02  0.37736278549E+02 -0.38268189463E+03  0.39784437939E+03  0.92562044301E+02 0.  0.
          5    1    3    3  502    0 -0.31623575363E+02 -0.66316747802E+02 -0.70008436287E+01  0.73953116021E+02  0.47000000000E+01 0. -1.
         -5    1    4    4    0  503  0.28619467175E+02  0.59677893630E+02 -0.15490025269E+03  0.16851321364E+03  0.47000000000E+01 0.  1.
          5    1    4    4  503    0  0.14310230910E+02 -0.21941615081E+02 -0.22778164194E+03  0.22933116575E+03  0.47000000000E+01 0. -1.
         -5    1    3    3    0  502 -0.11306122722E+02  0.28580469253E+02 -0.20336263110E+02  0.37152728446E+02  0.47000000000E+01 0.  1.
<mgrwt>
<rscale>  0 0.10851214E+03</rscale>
<asrwt>0</asrwt>
<pdfrwt beam="1">  1        1 0.76100941E-02 0.10878749E+03</pdfrwt>
<pdfrwt beam="2">  1       -1 0.70689940E-01 0.10878749E+03</pdfrwt>
<totfact> 0.18849185E+03</totfact>
</mgrwt>
</event>
<event>
 8    1  0.8174053E-004  0.9040799E+02  0.7546771E-02  0.1303513E+00
          1   -1    0    0  501    0  0.00000000000E+00  0.00000000000E+00  0.49056462197E+03  0.49056462197E+03  0.00000000000E+00 0. -1.
         -1   -1    0    0    0  501 -0.00000000000E+00 -0.00000000000E+00 -0.17733408645E+02  0.17733408645E+02  0.00000000000E+00 0.  1.
         23    2    1    2    0    0 -0.83347278883E+01 -0.88782831867E+01  0.30862943839E+03  0.32085249915E+03  0.86867165073E+02 0.  0.
         23    2    1    2    0    0  0.83347278883E+01  0.88782831867E+01  0.16420177494E+03  0.18744553147E+03  0.89584110053E+02 0.  0.
          5    1    3    3  502    0  0.32641280973E+02 -0.43525842480E+01  0.22553329009E+03  0.22797314129E+03  0.47000000000E+01 0. -1.
         -5    1    4    4    0  503 -0.23082131942E+02 -0.14862425069E+02  0.12291693913E+02  0.30444247949E+02  0.47000000000E+01 0.  1.
          5    1    4    4  503    0  0.31416859830E+02  0.23740708256E+02  0.15191008103E+03  0.15700128352E+03  0.47000000000E+01 0. -1.
         -5    1    3    3    0  502 -0.40976008861E+02 -0.45256989387E+01  0.83096148302E+02  0.92879357856E+02  0.47000000000E+01 0.  1.
<mgrwt>
<rscale>  0 0.89727488E+02</rscale>
<asrwt>0</asrwt>
<pdfrwt beam="1">  1        1 0.75471470E-01 0.90407988E+02</pdfrwt>
<pdfrwt beam="2">  1       -1 0.27282171E-02 0.90407988E+02</pdfrwt>
<totfact> 0.18236935E+04</totfact>
</mgrwt>
</event>
<event>
 8    1  0.8174053E-004  0.1290858E+03  0.7546771E-02  0.1228933E+00
          1   -1    0    0  501    0  0.00000000000E+00  0.00000000000E+00  0.31411668405E+03  0.31411668405E+03  0.00000000000E+00 0. -1.
         -1   -1    0    0    0  501 -0.00000000000E+00 -0.00000000000E+00 -0.61830882359E+02  0.61830882359E+02  0.00000000000E+00 0.  1.
         23    2    1    2    0    0 -0.20196108524E+02 -0.89052762120E+02  0.19761957316E+03  0.23604370985E+03  0.91240670870E+02 0.  0.
         23    2    1    2    0    0  0.20196108524E+02  0.89052762120E+02  0.54666228528E+02  0.13990385656E+03  0.90809775347E+02 0.  0.
          5    1    4    4  502    0 -0.13523024635E+02  0.19598652138E+02  0.57593867327E+02  0.62498983309E+02  0.47000000000E+01 0. -1.
         -5    1    3    3    0  503  0.33490642330E+02 -0.16857598487E+02  0.73866403381E+02  0.82970701448E+02  0.47000000000E+01 0.  1.
          5    1    3    3  503    0 -0.53686750854E+02 -0.72195163632E+02  0.12375316978E+03  0.15307300840E+03  0.47000000000E+01 0. -1.
         -5    1    4    4    0  502  0.33719133159E+02  0.69454109982E+02 -0.29276387988E+01  0.77404873253E+02  0.47000000000E+01 0.  1.
<mgrwt>
<rscale>  0 0.12900966E+03</rscale>
<asrwt>0</asrwt>
<pdfrwt beam="1">  1        1 0.48325643E-01 0.12908577E+03</pdfrwt>
<pdfrwt beam="2">  1       -1 0.95124436E-02 0.12908577E+03</pdfrwt>
<totfact> 0.52029372E+03</totfact>
</mgrwt>
</event>
<event>
 8    1  0.8174053E-004  0.1011437E+03  0.7546771E-02  0.1278482E+00
          1   -1    0    0  501    0  0.00000000000E+00  0.00000000000E+00  0.10502914769E+03  0.10502914769E+03  0.00000000000E+00 0. -1.
         -1   -1    0    0    0  501 -0.00000000000E+00 -0.00000000000E+00 -0.18614599259E+03  0.18614599259E+03  0.00000000000E+00 0.  1.
         23    2    1    2    0    0 -0.32157699870E+02 -0.22427073042E+02  0.60446290158E+02  0.11782958597E+03  0.93236077088E+02 0.  0.
         23    2    1    2    0    0  0.32157699870E+02  0.22427073042E+02 -0.14156313505E+03  0.17334555431E+03  0.92040581954E+02 0.  0.
          5    1    4    4  502    0 -0.11338965466E+02 -0.29608821981E+02 -0.46309273992E+02  0.56319564404E+02  0.47000000000E+01 0. -1.
         -5    1    3    3    0  503  0.22591348334E+02 -0.69394584119E+01  0.55523282377E+02  0.60526440408E+02  0.47000000000E+01 0.  1.
          5    1    3    3  503    0 -0.54749048203E+02 -0.15487614630E+02  0.49230077811E+01  0.57303145566E+02  0.47000000000E+01 0. -1.
         -5    1    4    4    0  502  0.43496665335E+02  0.52035895023E+02 -0.95253861058E+02  0.11702598990E+03  0.47000000000E+01 0.  1.
<mgrwt>
<rscale>  0 0.10086738E+03</rscale>
<asrwt>0</asrwt>
<pdfrwt beam="1">  1        1 0.16158331E-01 0.10114375E+03</pdfrwt>
<pdfrwt beam="2">  1       -1 0.28637844E-01 0.10114375E+03</pdfrwt>
<totfact> 0.35310201E+03</totfact>
</mgrwt>
</event>
<event>
 8    1  0.8174053E-004  0.9738546E+02  0.7546771E-02  0.1286342E+00
         -1   -1    0    0    0  501 -0.00000000000E+00  0.00000000000E+00  0.42218610623E+02  0.42218610623E+02  0.00000000000E+00 0.  1.
          1   -1    0    0  501    0  0.00000000000E+00 -0.00000000000E+00 -0.23838878208E+03  0.23838878208E+03  0.00000000000E+00 0. -1.
         23    2    1    2    0    0  0.33780592366E+02  0.57545016760E+01 -0.13441652598E+03  0.16598714072E+03  0.91157477587E+02 0.  0.
         23    2    1    2    0    0 -0.33780592366E+02 -0.57545016760E+01 -0.61753645483E+02  0.11462025198E+03  0.90277609204E+02 0.  0.
          5    1    4    4  502    0 -0.57040136412E+02  0.60311041938E+01 -0.12800200802E+02  0.58956649500E+02  0.47000000000E+01 0. -1.
         -5    1    3    3    0  503  0.57925228857E+02 -0.75720687002E+01 -0.49939029845E+02  0.76997825063E+02  0.47000000000E+01 0.  1.
          5    1    3    3  503    0 -0.24144636491E+02  0.13326570376E+02 -0.84477496131E+02  0.88989315661E+02  0.47000000000E+01 0. -1.
         -5    1    4    4    0  502  0.23259544046E+02 -0.11785605870E+02 -0.48953444681E+02  0.55663602481E+02  0.47000000000E+01 0.  1.
<mgrwt>
<rscale>  0 0.97179032E+02</rscale>
<asrwt>0</asrwt>
<pdfrwt beam="1">  1        1 0.36675196E-01 0.97385463E+02</pdfrwt>
<pdfrwt beam="2">  1       -1 0.64951710E-02 0.97385463E+02</pdfrwt>
<totfact> 0.12668516E+04</totfact>
</mgrwt>
</event>
<event>
 8    1  0.8174053E-004  0.9560122E+02  0.7546771E-02  0.1290252E+00
          2   -1    0    0  501    0  0.00000000000E+00  0.00000000000E+00  0.15910153268E+03  0.15910153268E+03  0.00000000000E+00 0. -1.
         -2   -1    0    0    0  501 -0.00000000000E+00 -0.00000000000E+00 -0.83998006964E+02  0.83998006964E+02  0.00000000000E+00 0.  1.
         23    2    1    2    0    0 -0.27764504271E+02 -0.22596945931E+01 -0.31470119816E+02  0.99929933441E+02  0.90662281237E+02 0.  0.
         23    2    1    2    0    0  0.27764504271E+02  0.22596945931E+01  0.10657364553E+03  0.14316960620E+03  0.91452831019E+02 0.  0.
          5    1    3    3  502    0  0.22924480212E+02 -0.23285309646E+01  0.17484139356E+02  0.29304248471E+02  0.47000000000E+01 0. -1.
         -5    1    4    4    0  503 -0.49453854586E+01  0.30892972355E+02  0.42836749637E+01  0.31926046568E+02  0.47000000000E+01 0.  1.
          5    1    4    4  503    0  0.32709889730E+02 -0.28633277762E+02  0.10228997057E+03  0.11124355964E+03  0.47000000000E+01 0. -1.
         -5    1    3    3    0  502 -0.50688984483E+02  0.68836371495E-01 -0.48954259172E+02  0.70625684970E+02  0.47000000000E+01 0.  1.
<mgrwt>
<rscale>  0 0.95411670E+02</rscale>
<asrwt>0</asrwt>
<pdfrwt beam="1">  1        2 0.24477159E-01 0.95601225E+02</pdfrwt>
<pdfrwt beam="2">  1       -2 0.12922770E-01 0.95601225E+02</pdfrwt>
<totfact> 0.88478067E+03</totfact>
</mgrwt>
</event>
<event>
 8    1  0.8174053E-004  0.8925071E+02  0.7546771E-02  0.1305049E+00
         -3   -1    0    0    0  501 -0.00000000000E+00  0.00000000000E+00  0.14006478804E+02  0.14006478804E+02  0.00000000000E+00 0.  1.
          3   -1    0    0  501    0  0.00000000000E+00 -0.00000000000E+00 -0.59775601449E+03  0.59775601449E+03  0.00000000000E+00 0. -1.
         23    2    1    2    0    0 -0.91106930076E+00 -0.12503597990E+02 -0.22105371093E+03  0.23839134159E+03  0.88365822709E+02 0.  0.
         23    2    1    2    0    0  0.91106930076E+00  0.12503597990E+02 -0.36269582476E+03  0.37337115170E+03  0.87752980648E+02 0.  0.
          5    1    4    4  502    0  0.39945191961E+02  0.14082078908E+02 -0.11647145906E+03  0.12402263536E+03  0.47000000000E+01 0. -1.
         -5    1    4    4    0  502 -0.39034122660E+02 -0.15784809178E+01 -0.24622436571E+03  0.24934851634E+03  0.47000000000E+01 0.  1.
          5    1    3    3  503    0  0.31458927996E+02  0.45027182995E+01 -0.30477727048E+02  0.44282281657E+02  0.47000000000E+01 0. -1.
         -5    1    3    3    0  503 -0.32369997296E+02 -0.17006316290E+02 -0.19057598388E+03  0.19410905994E+03  0.47000000000E+01 0.  1.
<mgrwt>
<rscale>  0 0.89098637E+02</rscale>
<asrwt>0</asrwt>
<pdfrwt beam="1">  1        3 0.91962469E-01 0.89250707E+02</pdfrwt>
<pdfrwt beam="2">  1       -3 0.21548428E-02 0.89250707E+02</pdfrwt>
<totfact> 0.19765563E+03</totfact>
</mgrwt>
</event>
<event>
 8    1  0.8174053E-004  0.9689599E+02  0.7546771E-02  0.1287228E+00
          1   -1    0    0  501    0  0.00000000000E+00  0.00000000000E+00  0.33118816866E+03  0.33118816866E+03  0.00000000000E+00 0. -1.
         -1   -1    0    0    0  501 -0.00000000000E+00 -0.00000000000E+00 -0.28672663527E+02  0.28672663527E+02  0.00000000000E+00 0.  1.
         23    2    1    2    0    0  0.49126326735E+01 -0.29669980649E+02  0.12871240878E+03  0.16110777793E+03  0.92110749781E+02 0.  0.
         23    2    1    2    0    0 -0.49126326735E+01  0.29669980649E+02  0.17380309636E+03  0.19875305426E+03  0.91601411352E+02 0.  0.
          5    1    4    4  502    0  0.59570817011E+01  0.61435927402E+02  0.12264083217E+03  0.13737803214E+03  0.47000000000E+01 0. -1.
         -5    1    3    3    0  503 -0.35117279020E+02  0.13122100407E+02  0.43980019690E+02  0.57980556541E+02  0.47000000000E+01 0.  1.
          5    1    3    3  503    0  0.40029911693E+02 -0.42792081056E+02  0.84732389086E+02  0.10312722139E+03  0.47000000000E+01 0. -1.
         -5    1    4    4    0  502 -0.10869714375E+02 -0.31765946752E+02  0.51162264186E+02  0.61375022120E+02  0.47000000000E+01 0.  1.
<mgrwt>
<rscale>  0 0.96774744E+02</rscale>
<asrwt>0</asrwt>
<pdfrwt beam="1">  1        1 0.50952023E-01 0.96895985E+02</pdfrwt>
<pdfrwt beam="2">  1       -1 0.44111792E-02 0.96895985E+02</pdfrwt>
<totfact> 0.14954883E+04</totfact>
</mgrwt>
</event>
<event>
 8    1  0.8174053E-004  0.9234634E+02  0.7546771E-02  0.1302621E+00
          1   -1    0    0  501    0  0.00000000000E+00  0.00000000000E+00  0.25626426708E+03  0.25626426708E+03  0.00000000000E+00 0. -1.
         -1   -1    0    0    0  501 -0.00000000000E+00 -0.00000000000E+00 -0.40327264640E+02  0.40327264640E+02  0.00000000000E+00 0.  1.
         23    2    1    2    0    0 -0.64326715593E+01  0.12154110247E+02  0.29815815875E+02  0.88820162871E+02  0.82528399941E+02 0.  0.
         23    2    1    2    0    0  0.64326715593E+01 -0.12154110247E+02  0.18612118657E+03  0.20777136885E+03  0.91316723364E+02 0.  0.
          5    1    4    4  502    0  0.35744338454E+02  0.12838080799E+02  0.14982989920E+03  0.15464010717E+03  0.47000000000E+01 0. -1.
         -5    1    4    4    0  502 -0.29311666895E+02 -0.24992191047E+02  0.36291287368E+02  0.53131261685E+02  0.47000000000E+01 0.  1.
          5    1    3    3  503    0  0.34032285804E+02  0.12659201719E+02  0.31130518537E+02  0.48058829050E+02  0.47000000000E+01 0. -1.
         -5    1    3    3    0  503 -0.40464957364E+02 -0.50509147163E+00 -0.13147026619E+01  0.40761333822E+02  0.47000000000E+01 0.  1.
<mgrwt>
<rscale>  0 0.90095334E+02</rscale>
<asrwt>0</asrwt>
<pdfrwt beam="1">  1        1 0.39425271E-01 0.92346335E+02</pdfrwt>
<pdfrwt beam="2">  1       -1 0.62041947E-02 0.92346335E+02</pdfrwt>
<totfact> 0.12349104E+04</totfact>
</mgrwt>
</event>
<event>
 8    1  0.8174053E-004  0.8772012E+02  0.7546771E-02  0.1309557E+00
          1   -1    0    0  501    0  0.00000000000E+00  0.00000000000E+00  0.72225478846E+02  0.72225478846E+02  0.00000000000E+00 0. -1.
         -1   -1    0    0    0  501 -0.00000000000E+00 -0.00000000000E+00 -0.14886945369E+03  0.14886945369E+03  0.00000000000E+00 0.  1.
         23    2    1    2    0    0 -0.33085835092E+02 -0.16724449802E+02 -0.98430982631E+02  0.13070968768E+03  0.77601445902E+02 0.  0.
         23    2    1    2    0    0  0.33085835092E+02  0.16724449802E+02  0.21787007787E+02  0.90385244860E+02  0.79501189143E+02 0.  0.
          5    1    3    3  502    0  0.10690246435E+02  0.17378554626E+02 -0.58635691220E+02  0.62261784544E+02  0.47000000000E+01 0. -1.
         -5    1    4    4    0  503  0.42911154649E+02 -0.20159303623E+02  0.20607755769E+02  0.51908903993E+02  0.47000000000E+01 0.  1.
          5    1    4    4  503    0 -0.98253195570E+01  0.36883753425E+02  0.11792520173E+01  0.38476340866E+02  0.47000000000E+01 0. -1.
         -5    1    3    3    0  502 -0.43776081527E+02 -0.34103004428E+02 -0.39795291411E+02  0.68447903133E+02  0.47000000000E+01 0.  1.
<mgrwt>
<rscale>  0 0.87287425E+02</rscale>
<asrwt>0</asrwt>
<pdfrwt beam="1">  1        1 0.11111612E-01 0.87720116E+02</pdfrwt>
<pdfrwt beam="2">  1       -1 0.22902993E-01 0.87720116E+02</pdfrwt>
<totfact> 0.81501703E+03</totfact>
</mgrwt>
</event>
<event>
 8    1  0.8174053E-004  0.1233925E+03  0.7546771E-02  0.1237843E+00
          2   -1    0    0  501    0  0.00000000000E+00  0.00000000000E+00  0.57559397732E+03  0.57559397732E+03  0.00000000000E+00 0. -1.
         -2   -1    0    0    0  501 -0.00000000000E+00 -0.00000000000E+00 -0.51071053142E+02  0.51071053142E+02  0.00000000000E+00 0.  1.
         23    2    1    2    0    0  0.79821747241E+02  0.18859192598E+02  0.44476593763E+02  0.13116350366E+03  0.92187400563E+02 0.  0.
         23    2    1    2    0    0 -0.79821747241E+02 -0.18859192598E+02  0.48004633041E+03  0.49550152679E+03  0.91378899293E+02 0.  0.
          5    1    4    4  502    0  0.19875428465E+02  0.23819383819E+01  0.91141911337E+02  0.93432565464E+02  0.47000000000E+01 0. -1.
         -5    1    4    4    0  502 -0.99697175707E+02 -0.21241130980E+02  0.38890441907E+03  0.40206896133E+03  0.47000000000E+01 0.  1.
          5    1    3    3  503    0  0.64498378474E+02 -0.28723937600E+02  0.13123069673E+02  0.71968120544E+02  0.47000000000E+01 0. -1.
         -5    1    3    3    0  503  0.15323368768E+02  0.47583130198E+02  0.31353524090E+02  0.59195383120E+02  0.47000000000E+01 0.  1.
<mgrwt>
<rscale>  0 0.12324146E+03</rscale>
<asrwt>0</asrwt>
<pdfrwt beam="1">  1        2 0.88552915E-01 0.12339245E+03</pdfrwt>
<pdfrwt beam="2">  1       -2 0.78570855E-02 0.12339245E+03</pdfrwt>
<totfact> 0.49548730E+03</totfact>
</mgrwt>
</event>
<event>
 8    1  0.8174053E-004  0.9346744E+02  0.7546771E-02  0.1295445E+00
          3   -1    0    0  501    0  0.00000000000E+00  0.00000000000E+00  0.27811509373E+02  0.27811509373E+02  0.00000000000E+00 0. -1.
         -3   -1    0    0    0  501 -0.00000000000E+00 -0.00000000000E+00 -0.31147844965E+03  0.31147844965E+03  0.00000000000E+00 0.  1.
         23    2    1    2    0    0  0.18303480243E+02 -0.17893052820E+01 -0.15391576007E+03  0.17937895111E+03  0.90269196854E+02 0.  0.
         23    2    1    2    0    0 -0.18303480243E+02  0.17893052820E+01 -0.12975118021E+03  0.15991100791E+03  0.91640289635E+02 0.  0.
          5    1    4    4  502    0  0.26979456929E+01 -0.23142950194E+02  0.22384262654E+01  0.23874161907E+02  0.47000000000E+01 0. -1.
         -5    1    4    4    0  502 -0.21001425936E+02  0.24932255476E+02 -0.13198960647E+03  0.13603684601E+03  0.47000000000E+01 0.  1.
          5    1    3    3  503    0  0.30466116445E+01 -0.30752125493E+02 -0.11711853933E+02  0.33380122639E+02  0.47000000000E+01 0. -1.
         -5    1    3    3    0  503  0.15256868598E+02  0.28962820211E+02 -0.14220390614E+03  0.14599882847E+03  0.47000000000E+01 0.  1.
<mgrwt>
<rscale>  0 0.93129636E+02</rscale>
<asrwt>0</asrwt>
<pdfrwt beam="1">  1        3 0.42786936E-02 0.93467437E+02</pdfrwt>
<pdfrwt beam="2">  1       -3 0.47919763E-01 0.93467437E+02</pdfrwt>
<totfact> 0.27017848E+03</totfact>
</mgrwt>
</event>
<event>
 8    1  0.8174053E-004  0.9510445E+02  0.7546771E-02  0.1294774E+00
          2   -1    0    0  501    0  0.00000000000E+00  0.00000000000E+00  0.34897916257E+03  0.34897916257E+03  0.00000000000E+00 0. -1.
         -2   -1    0    0    0  501 -0.00000000000E+00 -0.00000000000E+00 -0.44269788811E+02  0.44269788811E+02  0.00000000000E+00 0.  1.
         23    2    1    2    0    0  0.18174683995E+02 -0.98747246853E+01  0.28779689751E+03  0.30310379452E+03  0.92827941431E+02 0.  0.
         23    2    1    2    0    0 -0.18174683995E+02  0.98747246853E+01  0.16912476252E+02  0.90145156863E+02  0.86094646331E+02 0.  0.
          5    1    3    3  502    0  0.46668023948E+02  0.10684120537E+02  0.23246650761E+03  0.23739170594E+03  0.47000000000E+01 0. -1.
         -5    1    4    4    0  503 -0.23320222807E+02 -0.34666050248E+02  0.16200726074E+02  0.45056868032E+02  0.47000000000E+01 0.  1.
          5    1    4    4  503    0  0.51455388115E+01  0.44540774934E+02  0.71175017815E+00  0.45088288830E+02  0.47000000000E+01 0. -1.
         -5    1    3    3    0  502 -0.28493339953E+02 -0.20558845222E+02  0.55330389900E+02  0.65712088576E+02  0.47000000000E+01 0.  1.
<mgrwt>
<rscale>  0 0.93420232E+02</rscale>
<asrwt>0</asrwt>
<pdfrwt beam="1">  1        2 0.53689100E-01 0.95104448E+02</pdfrwt>
<pdfrwt beam="2">  1       -2 0.68107370E-02 0.95104448E+02</pdfrwt>
<totfact> 0.10376450E+04</totfact>
</mgrwt>
</event>
<event>
 8    1  0.8174053E-004  0.1114118E+03  0.7546771E-02  0.1258485E+00
          1   -1    0    0  501    0  0.00000000000E+00  0.00000000000E+00  0.14582820042E+03  0.14582820042E+03  0.00000000000E+00 0. -1.
         -1   -1    0    0    0  501 -0.00000000000E+00 -0.00000000000E+00 -0.14480695317E+03  0.14480695317E+03  0.00000000000E+00 0.  1.
         23    2    1    2    0    0  0.50626631912E+02 -0.37038218669E+02 -0.93446253131E+02  0.14456425521E+03  0.90728915790E+02 0.  0.
         23    2    1    2    0    0 -0.50626631912E+02  0.37038218669E+02  0.94467500388E+02  0.14607089838E+03  0.92074498221E+02 0.  0.
          5    1    3    3  502    0 -0.46417542201E+01  0.25566630219E+02 -0.18345080380E+02  0.32153233697E+02  0.47000000000E+01 0. -1.
         -5    1    4    4    0  503  0.23557412131E+02  0.12609785543E+02  0.56646811375E+01  0.27715284053E+02  0.47000000000E+01 0.  1.
          5    1    4    4  503    0 -0.74184044043E+02  0.24428433127E+02  0.88802819250E+02  0.11835561433E+03  0.47000000000E+01 0. -1.
         -5    1    3    3    0  502  0.55268386132E+02 -0.62604848889E+02 -0.75101172751E+02  0.11241102152E+03  0.47000000000E+01 0.  1.
<mgrwt>
<rscale>  0 0.11113344E+03</rscale>
<asrwt>0</asrwt>
<pdfrwt beam="1">  1        1 0.22435108E-01 0.11141184E+03</pdfrwt>
<pdfrwt beam="2">  1       -1 0.22277993E-01 0.11141184E+03</pdfrwt>
<totfact> 0.35343207E+03</totfact>
</mgrwt>
</event>
<event>
 8    1  0.8174053E-004  0.1016151E+03  0.7546771E-02  0.1278536E+00
         -3   -1    0    0    0  501 -0.00000000000E+00  0.00000000000E+00  0.69306539401E+03  0.69306539401E+03  0.00000000000E+00 0.  1.
          3   -1    0    0  501    0  0.00000000000E+00 -0.00000000000E+00 -0.19693977452E+02  0.19693977452E+02  0.00000000000E+00 0. -1.
         23    2    1    2    0    0 -0.26757184231E+02 -0.35365152346E+02  0.15664027173E+03  0.18671314304E+03  0.91427469312E+02 0.  0.
         23    2    1    2    0    0  0.26757184231E+02  0.35365152346E+02  0.51673114483E+03  0.52604622843E+03  0.88016575154E+02 0.  0.
          5    1    3    3  502    0  0.26025958505E+02 -0.38832900131E+02  0.89763699978E+02  0.10131612153E+03  0.47000000000E+01 0. -1.
         -5    1    4    4    0  503 -0.25523729154E+02  0.30950093046E+02  0.31382930589E+03  0.31641790759E+03  0.47000000000E+01 0.  1.
          5    1    4    4  503    0  0.52280913385E+02  0.44150592996E+01  0.20290183894E+03  0.20962832084E+03  0.47000000000E+01 0. -1.
         -5    1    3    3    0  502 -0.52783142735E+02  0.34677477855E+01  0.66876571757E+02  0.85397021504E+02  0.47000000000E+01 0.  1.
<mgrwt>
<rscale>  0 0.10084187E+03</rscale>
<asrwt>0</asrwt>
<pdfrwt beam="1">  1        3 0.30298432E-02 0.10161507E+03</pdfrwt>
<pdfrwt beam="2">  1       -3 0.10662543E+00 0.10161507E+03</pdfrwt>
<totfact> 0.86258859E+02</totfact>
</mgrwt>
</event>
<event>
 8    1  0.4655844E-003  0.1119340E+03  0.7546771E-02  0.1257724E+00
          1   -1    0    0  501    0  0.00000000000E+00  0.00000000000E+00  0.43005710024E+03  0.43005710024E+03  0.00000000000E+00 0. -1.
         -1   -1    0    0    0  501 -0.00000000000E+00 -0.00000000000E+00 -0.50118024203E+03  0.50118024203E+03  0.00000000000E+00 0.  1.
         23    2    1    2    0    0  0.63917122598E+02  0.82970991609E+00  0.41649565401E+03  0.43127469077E+03  0.91886571993E+02 0.  0.
         23    2    1    2    0    0 -0.63917122598E+02 -0.82970991609E+00 -0.48761879579E+03  0.49996265149E+03  0.90024862676E+02 0.  0.
          5    1    3    3  502    0  0.78045909726E+02  0.24738501113E+02  0.27344765879E+03  0.28548006859E+03  0.47000000000E+01 0. -1.
         -5    1    3    3    0  502 -0.14128787128E+02 -0.23908791197E+02  0.14304799522E+03  0.14579462218E+03  0.47000000000E+01 0.  1.
          5    1    4    4  503    0 -0.19424113574E+02  0.42553230294E+02 -0.24485340818E+03  0.24932580110E+03  0.47000000000E+01 0. -1.
         -5    1    4    4    0  503 -0.44493009024E+02 -0.43382940210E+02 -0.24276538761E+03  0.25063685039E+03  0.47000000000E+01 0.  1.
<mgrwt>
<rscale>  0 0.11155129E+03</rscale>
<asrwt>0</asrwt>
<pdfrwt beam="1">  1        1 0.66162631E-01 0.11193404E+03</pdfrwt>
<pdfrwt beam="2">  1       -1 0.77104652E-01 0.11193404E+03</pdfrwt>
<totfact> 0.10231089E+02</totfact>
</mgrwt>
</event>
<event>
 8    1  0.8174053E-004  0.9100264E+02  0.7546771E-02  0.1301397E+00
          2   -1    0    0  501    0  0.00000000000E+00  0.00000000000E+00  0.89054600147E+02  0.89054600147E+02  0.00000000000E+00 0. -1.
         -2   -1    0    0    0  501 -0.00000000000E+00 -0.00000000000E+00 -0.10045315478E+03  0.10045315478E+03  0.00000000000E+00 0.  1.
         23    2    1    2    0    0  0.13289102034E+02 -0.58925916122E+01 -0.34221247231E+02  0.97224353660E+02  0.89834059875E+02 0.  0.
         23    2    1    2    0    0 -0.13289102034E+02  0.58925916122E+01  0.22822692593E+02  0.92283401272E+02  0.88227138593E+02 0.  0.
          5    1    4    4  502    0  0.14687802976E+02 -0.21903147625E+02 -0.20335330820E+02  0.33631757488E+02  0.47000000000E+01 0. -1.
         -5    1    3    3    0  503  0.18447366308E+02  0.26828553701E+02 -0.50301781356E+02  0.60103542533E+02  0.47000000000E+01 0.  1.
          5    1    3    3  503    0 -0.51582642737E+01 -0.32721145313E+02  0.16080534125E+02  0.37120811127E+02  0.47000000000E+01 0. -1.
         -5    1    4    4    0  502 -0.27976905011E+02  0.27795739237E+02  0.43158023413E+02  0.58651643784E+02  0.47000000000E+01 0.  1.
<mgrwt>
<rscale>  0 0.90603547E+02</rscale>
<asrwt>0</asrwt>
<pdfrwt beam="1">  1        2 0.13700708E-01 0.91002644E+02</pdfrwt>
<pdfrwt beam="2">  1       -2 0.15454331E-01 0.91002644E+02</pdfrwt>
<totfact> 0.12726636E+04</totfact>
</mgrwt>
</event>
<event>
 8    1  0.8812082E-004  0.1391295E+03  0.7546771E-02  0.1224114E+00
         -2   -1    0    0    0  501 -0.00000000000E+00  0.00000000000E+00  0.11560375394E+03  0.11560375394E+03  0.00000000000E+00 0.  1.
          2   -1    0    0  501    0  0.00000000000E+00 -0.00000000000E+00 -0.44048675368E+03  0.44048675368E+03  0.00000000000E+00 0. -1.
         23    2    1    2    0    0  0.55756456712E+02  0.28358841805E+02 -0.39753277052E+03  0.42117612251E+03  0.12427395607E+03 0.  0.
         23    2    1    2    0    0 -0.55756456712E+02 -0.28358841805E+02  0.72649770784E+02  0.13491438512E+03  0.94925738042E+02 0.  0.
          5    1    4    4  502    0 -0.21878463703E+02 -0.46020703045E+01 -0.21870648720E+02  0.31626911018E+02  0.47000000000E+01 0. -1.
         -5    1    3    3    0  503 -0.14895661607E+02  0.31107296092E+02 -0.29195397784E+03  0.29402169950E+03  0.47000000000E+01 0.  1.
          5    1    3    3  503    0  0.70652118319E+02 -0.27484542873E+01 -0.10557879269E+03  0.12715442300E+03  0.47000000000E+01 0. -1.
         -5    1    4    4    0  502 -0.33877993009E+02 -0.23756771500E+02  0.94520419504E+02  0.10328747410E+03  0.47000000000E+01 0.  1.
<mgrwt>
<rscale>  0 0.13227832E+03</rscale>
<asrwt>0</asrwt>
<pdfrwt beam="1">  1        2 0.67767192E-01 0.13912952E+03</pdfrwt>
<pdfrwt beam="2">  1       -2 0.17785193E-01 0.13912952E+03</pdfrwt>
<totfact> 0.18128302E+03</totfact>
</mgrwt>
</event>
<event>
 8    1  0.8174053E-004  0.9397735E+02  0.7546771E-02  0.1294316E+00
         -2   -1    0    0    0  501 -0.00000000000E+00  0.00000000000E+00  0.70243035059E+02  0.70243035059E+02  0.00000000000E+00 0.  1.
          2   -1    0    0  501    0  0.00000000000E+00 -0.00000000000E+00 -0.13972220050E+03  0.13972220050E+03  0.00000000000E+00 0. -1.
         23    2    1    2    0    0 -0.92617443543E+00  0.17302998566E+02  0.89463892023E+00  0.92559042323E+02  0.90918229077E+02 0.  0.
         23    2    1    2    0    0  0.92617443543E+00 -0.17302998566E+02 -0.70373804356E+02  0.11740619323E+03  0.92366066881E+02 0.  0.
          5    1    4    4  502    0 -0.36781812135E+02 -0.48823110292E+01 -0.67693235367E+02  0.77338236206E+02  0.47000000000E+01 0. -1.
         -5    1    4    4    0  502  0.37707986571E+02 -0.12420687537E+02 -0.26805689892E+01  0.40067957026E+02  0.47000000000E+01 0.  1.
          5    1    3    3  503    0 -0.45562498590E+01 -0.29027812061E+02 -0.25253594570E+02  0.39028288773E+02  0.47000000000E+01 0. -1.
         -5    1    3    3    0  503  0.36300754236E+01  0.46330810627E+02  0.26148233490E+02  0.53530753550E+02  0.47000000000E+01 0.  1.
<mgrwt>
<rscale>  0 0.93619653E+02</rscale>
<asrwt>0</asrwt>
<pdfrwt beam="1">  1        2 0.21495723E-01 0.93977348E+02</pdfrwt>
<pdfrwt beam="2">  1       -2 0.10806621E-01 0.93977348E+02</pdfrwt>
<totfact> 0.13520315E+04</totfact>
</mgrwt>
</event>
<event>
 8    1  0.8174053E-004  0.1008021E+03  0.7546771E-02  0.1279089E+00
          1   -1    0    0  501    0  0.00000000000E+00  0.00000000000E+00  0.47783664681E+02  0.47783664681E+02  0.00000000000E+00 0. -1.
         -1   -1    0    0    0  501 -0.00000000000E+00 -0.00000000000E+00 -0.26041070836E+03  0.26041070836E+03  0.00000000000E+00 0.  1.
         23    2    1    2    0    0 -0.39563571987E+02  0.10982273966E+02 -0.17398962648E+03  0.20108068927E+03  0.92060669695E+02 0.  0.
         23    2    1    2    0    0  0.39563571987E+02 -0.10982273966E+02 -0.38637417191E+02  0.10711368376E+03  0.91074720271E+02 0.  0.
          5    1    4    4  502    0  0.66433841582E+02  0.33340793374E+00 -0.12683634475E+02  0.67797721582E+02  0.47000000000E+01 0. -1.
         -5    1    3    3    0  503 -0.58166066558E+02  0.35800410739E+02 -0.10576066654E+03  0.12598559162E+03  0.47000000000E+01 0.  1.
          5    1    3    3  503    0  0.18602494571E+02 -0.24818136773E+02 -0.68228959940E+02  0.75095097653E+02  0.47000000000E+01 0. -1.
         -5    1    4    4    0  502 -0.26870269595E+02 -0.11315681900E+02 -0.25953782717E+02  0.39315962182E+02  0.47000000000E+01 0.  1.
<mgrwt>
<rscale>  0 0.10057638E+03</rscale>
<asrwt>0</asrwt>
<pdfrwt beam="1">  1        1 0.73513330E-02 0.10080205E+03</pdfrwt>
<pdfrwt beam="2">  1       -1 0.40063186E-01 0.10080205E+03</pdfrwt>
<totfact> 0.55923700E+03</totfact>
</mgrwt>
</event>
<event>
 8    1  0.8174053E-004  0.1084521E+03  0.7546771E-02  0.1264050E+00
         -1   -1    0    0    0  501 -0.00000000000E+00  0.00000000000E+00  0.21321924072E+03  0.21321924072E+03  0.00000000000E+00 0.  1.
          1   -1    0    0  501    0  0.00000000000E+00 -0.00000000000E+00 -0.54686181003E+02  0.54686181003E+02  0.00000000000E+00 0. -1.
         23    2    1    2    0    0  0.87153652302E+01  0.58798319149E+02  0.71800176019E+02  0.12903696517E+03  0.89230449831E+02 0.  0.
         23    2    1    2    0    0 -0.87153652302E+01 -0.58798319149E+02  0.86732883698E+02  0.13886845656E+03  0.90711935191E+02 0.  0.
          5    1    3    3  502    0  0.48144202783E+02  0.24953208062E+02  0.29772932876E+02  0.62040667197E+02  0.47000000000E+01 0. -1.
         -5    1    4    4    0  503  0.12796905607E+02 -0.26587704114E+02  0.94477329530E+02  0.99089467646E+02  0.47000000000E+01 0.  1.
          5    1    4    4  503    0 -0.21512270837E+02 -0.32210615036E+02 -0.77444458326E+01  0.39778988911E+02  0.47000000000E+01 0. -1.
         -5    1    3    3    0  502 -0.39428837553E+02  0.33845111087E+02  0.42027243143E+02  0.66996297968E+02  0.47000000000E+01 0.  1.
<mgrwt>
<rscale>  0 0.10814174E+03</rscale>
<asrwt>0</asrwt>
<pdfrwt beam="1">  1        1 0.84132587E-02 0.10845209E+03</pdfrwt>
<pdfrwt beam="2">  1       -1 0.32802960E-01 0.10845209E+03</pdfrwt>
<totfact> 0.66210157E+03</totfact>
</mgrwt>
</event>
<event>
 8    1  0.8174053E-004  0.1046422E+03  0.7546771E-02  0.1272189E+00
         -1   -1    0    0    0  501 -0.00000000000E+00  0.00000000000E+00  0.54880556863E+02  0.54880556863E+02  0.00000000000E+00 0.  1.
          1   -1    0    0  501    0  0.00000000000E+00 -0.00000000000E+00 -0.36517380076E+03  0.36517380076E+03  0.00000000000E+00 0. -1.
         23    2    1    2    0    0 -0.22418521239E+02  0.39855217928E+02 -0.12603515414E+02  0.10539843289E+03  0.94122008922E+02 0.  0.
         23    2    1    2    0    0  0.22418521239E+02 -0.39855217928E+02 -0.29768972848E+03  0.31465592474E+03  0.91094171259E+02 0.  0.
          5    1    3    3  502    0  0.37889464069E+01 -0.28842772721E+02  0.43733543347E+01  0.29790566985E+02  0.47000000000E+01 0. -1.
         -5    1    3    3    0  502 -0.26207467646E+02  0.68697990650E+02 -0.16976869749E+02  0.75607865902E+02  0.47000000000E+01 0.  1.
          5    1    4    4  503    0  0.27325281714E+02 -0.19783579132E+02 -0.29018289198E+03  0.29217505339E+03  0.47000000000E+01 0. -1.
         -5    1    4    4    0  503 -0.49067604749E+01 -0.20071638796E+02 -0.75068365012E+01  0.22480871348E+02  0.47000000000E+01 0.  1.
<mgrwt>
<rscale>  0 0.10395674E+03</rscale>
<asrwt>0</asrwt>
<pdfrwt beam="1">  1        1 0.56180585E-01 0.10464216E+03</pdfrwt>
<pdfrwt beam="2">  1       -1 0.84431626E-02 0.10464216E+03</pdfrwt>
<totfact> 0.51042328E+03</totfact>
</mgrwt>
</event>
<event>
 8    1  0.8174053E-004  0.9588109E+02  0.7546771E-02  0.1291175E+00
          3   -1    0    0  501    0  0.00000000000E+00  0.00000000000E+00  0.58861481371E+02  0.58861481371E+02  0.00000000000E+00 0. -1.
         -3   -1    0    0    0  501 -0.00000000000E+00 -0.00000000000E+00 -0.21426813719E+03  0.21426813719E+03  0.00000000000E+00 0.  1.
         23    2    1    2    0    0 -0.20390370373E+02 -0.15286520037E+02 -0.15114389323E+03  0.17715381669E+03  0.88823158056E+02 0.  0.
         23    2    1    2    0    0  0.20390370373E+02  0.15286520037E+02 -0.42627625859E+01  0.95975801871E+02  0.92432345535E+02 0.  0.
          5    1    3    3  502    0 -0.50661457993E+02 -0.10771507532E+02 -0.12899157236E+03  0.13908099956E+03  0.47000000000E+01 0. -1.
         -5    1    3    3    0  502  0.30271087621E+02 -0.45150125049E+01 -0.22152320875E+02  0.38072817124E+02  0.47000000000E+01 0.  1.
          5    1    4    4  503    0 -0.84911145487E+01  0.45013887415E+02  0.17087796666E+02  0.49116513327E+02  0.47000000000E+01 0. -1.
         -5    1    4    4    0  503  0.28881484921E+02 -0.29727367378E+02 -0.21350559251E+02  0.46859288544E+02  0.47000000000E+01 0.  1.
<mgrwt>
<rscale>  0 0.95000434E+02</rscale>
<asrwt>0</asrwt>
<pdfrwt beam="1">  1        3 0.90556127E-02 0.95881090E+02</pdfrwt>
<pdfrwt beam="2">  1       -3 0.32964328E-01 0.95881090E+02</pdfrwt>
<totfact> 0.16853855E+03</totfact>
</mgrwt>
</event>
<event>
 8    1  0.8174053E-004  0.1157964E+03  0.7546771E-02  0.1250911E+00
          1   -1    0    0  501    0  0.00000000000E+00  0.00000000000E+00  0.32492193395E+03  0.32492193395E+03  0.00000000000E+00 0. -1.
         -1   -1    0    0    0  501 -0.00000000000E+00 -0.00000000000E+00 -0.56313304735E+03  0.56313304735E+03  0.00000000000E+00 0.  1.
         23    2    1    2    0    0  0.48356523803E+02  0.47864991609E+02 -0.54685264777E+03  0.55897819264E+03  0.93698402678E+02 0.  0.
         23    2    1    2    0    0 -0.48356523803E+02 -0.47864991609E+02  0.30864153436E+03  0.32907678866E+03  0.91665289406E+02 0.  0.
          5    1    3    3  502    0  0.29114692863E+02 -0.10576889147E+01 -0.41757103775E+02  0.51132472677E+02  0.47000000000E+01 0.  1.
         -5    1    4    4    0  503  0.10343072852E+02 -0.22921982174E+02  0.17503960172E+02  0.30997984523E+02  0.47000000000E+01 0.  1.
          5    1    4    4  503    0 -0.58699596655E+02 -0.24943009435E+02  0.29113757419E+03  0.29807880413E+03  0.47000000000E+01 0. -1.
         -5    1    3    3    0  502  0.19241830940E+02  0.48922680524E+02 -0.50509554399E+03  0.50784571997E+03  0.47000000000E+01 0.  1.
<mgrwt>
<rscale>  0 0.11538447E+03</rscale>
<asrwt>0</asrwt>
<pdfrwt beam="1">  1        1 0.49987990E-01 0.11579638E+03</pdfrwt>
<pdfrwt beam="2">  1       -1 0.86635853E-01 0.11579638E+03</pdfrwt>
<totfact> 0.11409962E+02</totfact>
</mgrwt>
</event>
<event>
 8    1  0.8174053E-004  0.1042263E+03  0.7546771E-02  0.1272352E+00
          3   -1    0    0  501    0  0.00000000000E+00  0.00000000000E+00  0.20246397626E+03  0.20246397626E+03  0.00000000000E+00 0. -1.
         -3   -1    0    0    0  501 -0.00000000000E+00 -0.00000000000E+00 -0.53567686302E+02  0.53567686302E+02  0.00000000000E+00 0.  1.
         23    2    1    2    0    0 -0.47494054633E+02 -0.12231841956E+02  0.87835959612E+02  0.13523640265E+03  0.90379342873E+02 0.  0.
         23    2    1    2    0    0  0.47494054633E+02  0.12231841956E+02  0.61060330341E+02  0.12079525991E+03  0.91966448725E+02 0.  0.
          5    1    4    4  502    0  0.20540969341E+02 -0.93728140880E+01  0.78498133180E+02  0.81815817408E+02  0.47000000000E+01 0. -1.
         -5    1    4    4    0  502  0.26953085292E+02  0.21604656044E+02 -0.17437802839E+02  0.38979442497E+02  0.47000000000E+01 0.  1.
          5    1    3    3  503    0 -0.13344976586E+01  0.31722032785E+02  0.54258863262E+02  0.63041117459E+02  0.47000000000E+01 0. -1.
         -5    1    3    3    0  503 -0.46159556975E+02 -0.43953874741E+02  0.33577096351E+02  0.72195285193E+02  0.47000000000E+01 0.  1.
<mgrwt>
<rscale>  0 0.10387515E+03</rscale>
<asrwt>0</asrwt>
<pdfrwt beam="1">  1        3 0.31148304E-01 0.10422634E+03</pdfrwt>
<pdfrwt beam="2">  1       -3 0.82411826E-02 0.10422634E+03</pdfrwt>
<totfact> 0.22173821E+03</totfact>
</mgrwt>
</event>
<event>
 8    1  0.8174053E-004  0.1286698E+03  0.7546771E-02  0.1230139E+00
          1   -1    0    0  501    0  0.00000000000E+00  0.00000000000E+00  0.71181918669E+03  0.71181918669E+03  0.00000000000E+00 0. -1.
         -1   -1    0    0    0  501 -0.00000000000E+00 -0.00000000000E+00 -0.22928584721E+02  0.22928584721E+02  0.00000000000E+00 0.  1.
         23    2    1    2    0    0 -0.75757188668E+02  0.42193892211E+02  0.34888555571E+03  0.37185623120E+03  0.95060241537E+02 0.  0.
         23    2    1    2    0    0  0.75757188668E+02 -0.42193892211E+02  0.34000504626E+03  0.36289154022E+03  0.92560047015E+02 0.  0.
          5    1    3    3  502    0 -0.49887691629E+01  0.36559107891E+02  0.38943586099E+02  0.53853032281E+02  0.47000000000E+01 0.  1.
         -5    1    3    3    0  502 -0.70768419506E+02  0.56347843200E+01  0.30994196961E+03  0.31800319892E+03  0.47000000000E+01 0. -1.
          5    1    4    4  503    0  0.50930199280E+02  0.23561733591E+02  0.15738541821E+03  0.16715651454E+03  0.47000000000E+01 0. -1.
         -5    1    4    4    0  503  0.24826989388E+02 -0.65755625802E+02  0.18261962805E+03  0.19573502567E+03  0.47000000000E+01 0.  1.
<mgrwt>
<rscale>  0 0.12820837E+03</rscale>
<asrwt>0</asrwt>
<pdfrwt beam="1">  1        1 0.10951063E+00 0.12866983E+03</pdfrwt>
<pdfrwt beam="2">  1       -1 0.35274751E-02 0.12866983E+03</pdfrwt>
<totfact> 0.78241644E+03</totfact>
</mgrwt>
</event>
<event>
 8    1  0.8174053E-004  0.9710323E+02  0.7546771E-02  0.1287428E+00
          2   -1    0    0  501    0  0.00000000000E+00  0.00000000000E+00  0.48410157953E+02  0.48410157953E+02  0.00000000000E+00 0. -1.
         -2   -1    0    0    0  501 -0.00000000000E+00 -0.00000000000E+00 -0.19157500688E+03  0.19157500688E+03  0.00000000000E+00 0.  1.
         23    2    1    2    0    0 -0.10386503478E+02 -0.28873344363E+02 -0.67831714739E+02  0.11708634780E+03  0.90368810150E+02 0.  0.
         23    2    1    2    0    0  0.10386503478E+02  0.28873344363E+02 -0.75333134183E+02  0.12289881703E+03  0.92127567273E+02 0.  0.
          5    1    4    4  502    0  0.40031856438E+01  0.61685113060E+02 -0.58252075515E+02  0.85067461290E+02  0.47000000000E+01 0. -1.
         -5    1    4    4    0  502  0.63833178342E+01 -0.32811768698E+02 -0.17081058668E+02  0.37831355737E+02  0.47000000000E+01 0.  1.
          5    1    3    3  503    0  0.30095791087E+02 -0.26351177736E+02 -0.28976035921E+01  0.40381026681E+02  0.47000000000E+01 0. -1.
         -5    1    3    3    0  503 -0.40482294565E+02 -0.25221666264E+01 -0.64934111147E+02  0.76705321121E+02  0.47000000000E+01 0.  1.
<mgrwt>
<rscale>  0 0.96683770E+02</rscale>
<asrwt>0</asrwt>
<pdfrwt beam="1">  1        2 0.74477166E-02 0.97103234E+02</pdfrwt>
<pdfrwt beam="2">  1       -2 0.29473078E-01 0.97103234E+02</pdfrwt>
<totfact> 0.89701082E+03</totfact>
</mgrwt>
</event>
<event>
 8    1  0.8174053E-004  0.9347234E+02  0.7546771E-02  0.1295321E+00
         -2   -1    0    0    0  501 -0.00000000000E+00  0.00000000000E+00  0.40974732552E+02  0.40974732552E+02  0.00000000000E+00 0.  1.
          2   -1    0    0  501    0  0.00000000000E+00 -0.00000000000E+00 -0.21289605769E+03  0.21289605769E+03  0.00000000000E+00 0. -1.
         23    2    1    2    0    0  0.35635000893E+00 -0.16842968004E+02 -0.73342542626E+02  0.11881164209E+03  0.91941640080E+02 0.  0.
         23    2    1    2    0    0 -0.35635000893E+00  0.16842968004E+02 -0.98578782509E+02  0.13505914815E+03  0.90771055857E+02 0.  0.
          5    1    4    4  502    0  0.27311375113E+02  0.40176235093E+02 -0.80955384210E+02  0.94529917536E+02  0.47000000000E+01 0. -1.
         -5    1    4    4    0  502 -0.27667725122E+02 -0.23333267090E+02 -0.17623398299E+02  0.40529230613E+02  0.47000000000E+01 0.  1.
          5    1    3    3  503    0 -0.36714701254E+02  0.48819493007E+01 -0.64748722643E+02  0.74741486479E+02  0.47000000000E+01 0. -1.
         -5    1    3    3    0  503  0.37071051263E+02 -0.21724917304E+02 -0.85938199825E+01  0.44070155610E+02  0.47000000000E+01 0.  1.
<mgrwt>
<rscale>  0 0.93183205E+02</rscale>
<asrwt>0</asrwt>
<pdfrwt beam="1">  1        2 0.32753240E-01 0.93472337E+02</pdfrwt>
<pdfrwt beam="2">  1       -2 0.63038050E-02 0.93472337E+02</pdfrwt>
<totfact> 0.19570710E+04</totfact>
</mgrwt>
</event>
<event>
 8    1  0.8174053E-004  0.1237845E+03  0.7546771E-02  0.1237822E+00
         -1   -1    0    0    0  501 -0.00000000000E+00  0.00000000000E+00  0.43517376979E+02  0.43517376979E+02  0.00000000000E+00 0.  1.
          1   -1    0    0  501    0  0.00000000000E+00 -0.00000000000E+00 -0.54554548347E+03  0.54554548347E+03  0.00000000000E+00 0. -1.
         23    2    1    2    0    0 -0.31644431619E+02 -0.73779112372E+02 -0.71586217488E+02  0.14117579145E+03  0.91440090123E+02 0.  0.
         23    2    1    2    0    0  0.31644431619E+02  0.73779112372E+02 -0.43044188900E+03  0.44788706900E+03  0.94222498888E+02 0.  0.
          5    1    4    4  502    0  0.36255786078E+02 -0.10320930371E+02 -0.10396819568E+03  0.11069091806E+03  0.47000000000E+01 0. -1.
         -5    1    4    4    0  502 -0.46113544588E+01  0.84100042743E+02 -0.32647369333E+03  0.33719615095E+03  0.47000000000E+01 0.  1.
          5    1    3    3  503    0  0.20167521162E+02  0.45559867182E+01 -0.33654134503E+02  0.39776584744E+02  0.47000000000E+01 0. -1.
         -5    1    3    3    0  503 -0.51811952780E+02 -0.78335099090E+02 -0.37932082985E+02  0.10139920670E+03  0.47000000000E+01 0.  1.
<mgrwt>
<rscale>  0 0.12325500E+03</rscale>
<asrwt>0</asrwt>
<pdfrwt beam="1">  1        1 0.83930080E-01 0.12378452E+03</pdfrwt>
<pdfrwt beam="2">  1       -1 0.66949806E-02 0.12378452E+03</pdfrwt>
<totfact> 0.43724265E+03</totfact>
</mgrwt>
</event>
<event>
 8    1  0.8174053E-004  0.1144634E+03  0.7546771E-02  0.1256268E+00
         -1   -1    0    0    0  501 -0.00000000000E+00  0.00000000000E+00  0.16462558596E+03  0.16462558596E+03  0.00000000000E+00 0.  1.
          1   -1    0    0  501    0  0.00000000000E+00 -0.00000000000E+00 -0.74249564458E+02  0.74249564458E+02  0.00000000000E+00 0. -1.
         23    2    1    2    0    0  0.40043942787E+02 -0.42289036877E+02  0.36422457169E+02  0.11233326114E+03  0.88883554031E+02 0.  0.
         23    2    1    2    0    0 -0.40043942787E+02  0.42289036877E+02  0.53953564333E+02  0.12654188928E+03  0.98539244187E+02 0.  0.
          5    1    3    3  502    0 -0.13713475550E+02  0.18837852674E+02  0.20891088817E+01  0.23861652938E+02  0.47000000000E+01 0. -1.
         -5    1    4    4    0  503  0.13465040322E+02  0.56019648876E+02  0.36719202121E+02  0.68482831246E+02  0.47000000000E+01 0.  1.
          5    1    4    4  503    0 -0.53508983109E+02 -0.13730611998E+02  0.17234362212E+02  0.58059058036E+02  0.47000000000E+01 0. -1.
         -5    1    3    3    0  502  0.53757418337E+02 -0.61126889551E+02  0.34333348287E+02  0.88471608198E+02  0.47000000000E+01 0.  1.
<mgrwt>
<rscale>  0 0.11235620E+03</rscale>
<asrwt>0</asrwt>
<pdfrwt beam="1">  1        1 0.11423010E-01 0.11446337E+03</pdfrwt>
<pdfrwt beam="2">  1       -1 0.25327013E-01 0.11446337E+03</pdfrwt>
<totfact> 0.68286868E+03</totfact>
</mgrwt>
</event>
<event>
 8    1  0.8174053E-004  0.1112125E+03  0.7546771E-02  0.1258776E+00
          2   -1    0    0  501    0  0.00000000000E+00  0.00000000000E+00  0.84669071742E+03  0.84669071742E+03  0.00000000000E+00 0. -1.
         -2   -1    0    0    0  501 -0.00000000000E+00 -0.00000000000E+00 -0.22502683469E+02  0.22502683469E+02  0.00000000000E+00 0.  1.
         23    2    1    2    0    0  0.38451848708E+02  0.48836965956E+02  0.67039694158E+03  0.67940428076E+03  0.91074274769E+02 0.  0.
         23    2    1    2    0    0 -0.38451848708E+02 -0.48836965956E+02  0.15379109237E+03  0.18978912013E+03  0.92220475564E+02 0.  0.
          5    1    3    3  502    0  0.56822618354E+02  0.14504317735E+02  0.54111408557E+03  0.54430297518E+03  0.47000000000E+01 0. -1.
         -5    1    4    4    0  503 -0.59477860555E+01  0.25880920451E+02  0.57859517878E+02  0.63835820755E+02  0.47000000000E+01 0.  1.
          5    1    4    4  503    0 -0.32504062652E+02 -0.74717886408E+02  0.95931574494E+02  0.12595329937E+03  0.47000000000E+01 0. -1.
         -5    1    3    3    0  502 -0.18370769647E+02  0.34332648221E+02  0.12928285601E+03  0.13510130558E+03  0.47000000000E+01 0.  1.
<mgrwt>
<rscale>  0 0.11097454E+03</rscale>
<asrwt>0</asrwt>
<pdfrwt beam="1">  1        2 0.13026009E+00 0.11121245E+03</pdfrwt>
<pdfrwt beam="2">  1       -2 0.34619520E-02 0.11121245E+03</pdfrwt>
<totfact> 0.10672248E+04</totfact>
</mgrwt>
</event>
<event>
 8    1  0.8174053E-004  0.1181656E+03  0.7546771E-02  0.1246280E+00
          1   -1    0    0  501    0  0.00000000000E+00  0.00000000000E+00  0.17132236496E+03  0.17132236496E+03  0.00000000000E+00 0. -1.
         -1   -1    0    0    0  501 -0.00000000000E+00 -0.00000000000E+00 -0.11644715864E+03  0.11644715864E+03  0.00000000000E+00 0.  1.
         23    2    1    2    0    0  0.48104373276E+01  0.74332597261E+02  0.10651452645E+03  0.15908630945E+03  0.91731315189E+02 0.  0.
         23    2    1    2    0    0 -0.48104373276E+01 -0.74332597261E+02 -0.51639320123E+02  0.12868321415E+03  0.91347002675E+02 0.  0.
          5    1    4    4  502    0  0.25459529542E+02 -0.17144072786E+02  0.16024645521E+02  0.34942612098E+02  0.47000000000E+01 0. -1.
         -5    1    3    3    0  503 -0.33189237750E+02  0.47201385027E+01  0.54396234541E+02  0.64069068529E+02  0.47000000000E+01 0.  1.
          5    1    3    3  503    0  0.37999675078E+02  0.69612458759E+02  0.52118291904E+02  0.95017240917E+02  0.47000000000E+01 0. -1.
         -5    1    4    4    0  502 -0.30269966870E+02 -0.57188524476E+02 -0.67663965644E+02  0.93740602049E+02  0.47000000000E+01 0.  1.
<mgrwt>
<rscale>  0 0.11809101E+03</rscale>
<asrwt>0</asrwt>
<pdfrwt beam="1">  1        1 0.26357287E-01 0.11816560E+03</pdfrwt>
<pdfrwt beam="2">  1       -1 0.17914948E-01 0.11816560E+03</pdfrwt>
<totfact> 0.41076134E+03</totfact>
</mgrwt>
</event>
<event>
 8    1  0.8174053E-004  0.1564391E+03  0.7546771E-02  0.1194036E+00
         -1   -1    0    0    0  501 -0.00000000000E+00  0.00000000000E+00  0.53741600158E+03  0.53741600158E+03  0.00000000000E+00 0.  1.
          1   -1    0    0  501    0  0.00000000000E+00 -0.00000000000E+00 -0.52309191981E+02  0.52309191981E+02  0.00000000000E+00 0. -1.
         23    2    1    2    0    0  0.12066910550E+03 -0.37875087911E+02  0.13006136297E+03  0.20344320258E+03  0.92074009514E+02 0.  0.
         23    2    1    2    0    0 -0.12066910550E+03  0.37875087911E+02  0.35504544663E+03  0.38628199099E+03  0.84622408873E+02 0.  0.
          5    1    3    3  502    0  0.43422322272E+01  0.21489195137E+02  0.36064893813E+02  0.42466540406E+02  0.47000000000E+01 0. -1.
         -5    1    4    4    0  503 -0.18815357350E+02  0.13739895829E+02  0.10189744663E+02  0.25859684953E+02  0.47000000000E+01 0.  1.
          5    1    4    4  503    0 -0.10185374815E+03  0.24135192082E+02  0.34485570196E+03  0.36042230603E+03  0.47000000000E+01 0. -1.
         -5    1    3    3    0  502  0.11632687328E+03 -0.59364283048E+02  0.93996469162E+02  0.16097666217E+03  0.47000000000E+01 0.  1.
<mgrwt>
<rscale>  0 0.15536136E+03</rscale>
<asrwt>0</asrwt>
<pdfrwt beam="1">  1        1 0.80475684E-02 0.15643906E+03</pdfrwt>
<pdfrwt beam="2">  1       -1 0.82679381E-01 0.15643906E+03</pdfrwt>
<totfact> 0.12926961E+03</totfact>
</mgrwt>
</event>
<event>
 8    1  0.8174053E-004  0.9668187E+02  0.7546771E-02  0.1289587E+00
         -3   -1    0    0    0  501 -0.00000000000E+00  0.00000000000E+00  0.12626497797E+03  0.12626497797E+03  0.00000000000E+00 0.  1.
          3   -1    0    0  501    0  0.00000000000E+00 -0.00000000000E+00 -0.19368576654E+03  0.19368576654E+03  0.00000000000E+00 0. -1.
         23    2    1    2    0    0  0.20956680470E+02  0.29922563416E+01 -0.16120778353E+03  0.18797694775E+03  0.94335822259E+02 0.  0.
         23    2    1    2    0    0 -0.20956680470E+02 -0.29922563416E+01  0.93786994952E+02  0.13197379676E+03  0.90404350309E+02 0.  0.
          5    1    4    4  502    0 -0.17170698908E+02 -0.45492672026E+02  0.39877663857E+02  0.63061352537E+02  0.47000000000E+01 0. -1.
         -5    1    4    4    0  502 -0.37859815620E+01  0.42500415685E+02  0.53909331095E+02  0.68912444223E+02  0.47000000000E+01 0.  1.
          5    1    3    3  503    0 -0.22471114407E+02 -0.31954444461E+02 -0.51295523528E+02  0.64647956174E+02  0.47000000000E+01 0. -1.
         -5    1    3    3    0  503  0.43427794877E+02  0.34946700803E+02 -0.10991226000E+03  0.12332899158E+03  0.47000000000E+01 0.  1.
<mgrwt>
<rscale>  0 0.95709269E+02</rscale>
<asrwt>0</asrwt>
<pdfrwt beam="1">  1        3 0.29797810E-01 0.96681867E+02</pdfrwt>
<pdfrwt beam="2">  1       -3 0.19425381E-01 0.96681867E+02</pdfrwt>
<totfact> 0.56437373E+02</totfact>
</mgrwt>
</event>
<event>
 8    1  0.8174053E-004  0.9616220E+02  0.7546771E-02  0.1290288E+00
          1   -1    0    0  501    0  0.00000000000E+00  0.00000000000E+00  0.52866899109E+03  0.52866899109E+03  0.00000000000E+00 0. -1.
         -1   -1    0    0    0  501 -0.00000000000E+00 -0.00000000000E+00 -0.40200852940E+02  0.40200852940E+02  0.00000000000E+00 0.  1.
         23    2    1    2    0    0 -0.26947518959E+02  0.16068248071E+02  0.29554075404E+02  0.10060124882E+03  0.90900002848E+02 0.  0.
         23    2    1    2    0    0  0.26947518959E+02 -0.16068248071E+02  0.45891406275E+03  0.46826859521E+03  0.87686959667E+02 0.  0.
          5    1    3    3  502    0 -0.12053945399E+02  0.35618409088E+02  0.53768592674E+02  0.65780849978E+02  0.47000000000E+01 0. -1.
         -5    1    3    3    0  502 -0.14893573560E+02 -0.19550161017E+02 -0.24214517270E+02  0.34820398846E+02  0.47000000000E+01 0.  1.
          5    1    4    4  503    0  0.49616239590E+02  0.14679158837E+02  0.31693012860E+03  0.32116046667E+03  0.47000000000E+01 0. -1.
         -5    1    4    4    0  503 -0.22668720631E+02 -0.30747406909E+02  0.14198393415E+03  0.14710812854E+03  0.47000000000E+01 0.  1.
<mgrwt>
<rscale>  0 0.95395239E+02</rscale>
<asrwt>0</asrwt>
<pdfrwt beam="1">  1        1 0.81333686E-01 0.96162196E+02</pdfrwt>
<pdfrwt beam="2">  1       -1 0.61847470E-02 0.96162196E+02</pdfrwt>
<totfact> 0.50559429E+03</totfact>
</mgrwt>
</event>
<event>
 8    1  0.8174053E-004  0.1049476E+03  0.7546771E-02  0.1271246E+00
         -2   -1    0    0    0  501 -0.00000000000E+00  0.00000000000E+00  0.32823415594E+02  0.32823415594E+02  0.00000000000E+00 0.  1.
          2   -1    0    0  501    0  0.00000000000E+00 -0.00000000000E+00 -0.37799761093E+03  0.37799761093E+03  0.00000000000E+00 0. -1.
         23    2    1    2    0    0 -0.50116897304E+02 -0.34949294537E+01 -0.10013447389E+03  0.14505483486E+03  0.92141599330E+02 0.  0.
         23    2    1    2    0    0  0.50116897304E+02  0.34949294537E+01 -0.24503972144E+03  0.26576619166E+03  0.89795799560E+02 0.  0.
          5    1    4    4  502    0  0.43556052296E+02 -0.31292391444E+02 -0.20572888347E+03  0.21265654692E+03  0.47000000000E+01 0. -1.
         -5    1    3    3    0  503 -0.70342531664E+02 -0.40716686260E+01 -0.39396643851E+02  0.80863068165E+02  0.47000000000E+01 0.  1.
          5    1    3    3  503    0  0.20225634361E+02  0.57673917226E+00 -0.60737830038E+02  0.64191766692E+02  0.47000000000E+01 0. -1.
         -5    1    4    4    0  502  0.65608450071E+01  0.34787320898E+02 -0.39310837969E+02  0.53109644739E+02  0.47000000000E+01 0.  1.
<mgrwt>
<rscale>  0 0.10443040E+03</rscale>
<asrwt>0</asrwt>
<pdfrwt beam="1">  1        2 0.58153479E-01 0.10494757E+03</pdfrwt>
<pdfrwt beam="2">  1       -2 0.50497562E-02 0.10494757E+03</pdfrwt>
<totfact> 0.15082830E+04</totfact>
</mgrwt>
</event>
<event>
 8    1  0.8174053E-004  0.1417513E+03  0.7546771E-02  0.1220352E+00
         -1   -1    0    0    0  501 -0.00000000000E+00  0.00000000000E+00  0.36937644430E+03  0.36937644430E+03  0.00000000000E+00 0.  1.
          1   -1    0    0  501    0  0.00000000000E+00 -0.00000000000E+00 -0.48964756392E+02  0.48964756392E+02  0.00000000000E+00 0. -1.
         23    2    1    2    0    0  0.68526595194E+02  0.23665407002E+02  0.11600126013E+03  0.18316583237E+03  0.12180921171E+03 0.  0.
         23    2    1    2    0    0 -0.68526595194E+02 -0.23665407002E+02  0.20441042778E+03  0.23517536833E+03  0.90927911807E+02 0.  0.
          5    1    3    3  502    0  0.29532905684E+02  0.59896504324E+02  0.11083120376E+03  0.12948138659E+03  0.47000000000E+01 0. -1.
         -5    1    4    4    0  503 -0.38245184084E+02 -0.25645957384E+02  0.19859985881E+03  0.20392254205E+03  0.47000000000E+01 0.  1.
          5    1    4    4  503    0 -0.30281411110E+02  0.19805503814E+01  0.58105689670E+01  0.31252826278E+02  0.47000000000E+01 0. -1.
         -5    1    3    3    0  502  0.38993689511E+02 -0.36231097322E+02  0.51700563740E+01  0.53684445771E+02  0.47000000000E+01 0.  1.
<mgrwt>
<rscale>  0 0.13490646E+03</rscale>
<asrwt>0</asrwt>
<pdfrwt beam="1">  1        1 0.75330397E-02 0.14175130E+03</pdfrwt>
<pdfrwt beam="2">  1       -1 0.56827143E-01 0.14175130E+03</pdfrwt>
<totfact> 0.29450095E+03</totfact>
</mgrwt>
</event>
<event>
 8    1  0.8174053E-004  0.3276246E+03  0.7546771E-02  0.1072228E+00
         -2   -1    0    0    0  501 -0.00000000000E+00  0.00000000000E+00  0.42014096644E+03  0.42014096644E+03  0.00000000000E+00 0.  1.
          2   -1    0    0  501    0  0.00000000000E+00 -0.00000000000E+00 -0.25810682794E+03  0.25810682794E+03  0.00000000000E+00 0. -1.
         23    2    1    2    0    0 -0.24794800946E+03  0.19300095728E+03  0.11682205868E+03  0.34782939435E+03  0.92791752219E+02 0.  0.
         23    2    1    2    0    0  0.24794800946E+03 -0.19300095728E+03  0.45212079827E+02  0.33041840003E+03  0.91676616497E+02 0.  0.
          5    1    3    3  502    0 -0.21634984558E+03  0.18276637469E+03  0.72757540225E+02  0.29244923159E+03  0.47000000000E+01 0. -1.
         -5    1    4    4    0  503  0.17185423747E+03 -0.83363194272E+02  0.47420765256E+02  0.19686066157E+03  0.47000000000E+01 0.  1.
          5    1    4    4  503    0  0.76093771992E+02 -0.10963776301E+03 -0.22086854291E+01  0.13355773847E+03  0.47000000000E+01 0. -1.
         -5    1    3    3    0  502 -0.31598163879E+02  0.10234582586E+02  0.44064518450E+02  0.55380162761E+02  0.47000000000E+01 0.  1.
<mgrwt>
<rscale>  0 0.32754607E+03</rscale>
<asrwt>0</asrwt>
<pdfrwt beam="1">  1        2 0.39708743E-01 0.32762462E+03</pdfrwt>
<pdfrwt beam="2">  1       -2 0.64637072E-01 0.32762462E+03</pdfrwt>
<totfact> 0.29246064E+02</totfact>
</mgrwt>
</event>
<event>
 8    1  0.8174053E-004  0.1854138E+03  0.7546771E-02  0.1164341E+00
         -2   -1    0    0    0  501 -0.00000000000E+00  0.00000000000E+00  0.35031116758E+02  0.35031116758E+02  0.00000000000E+00 0.  1.
          2   -1    0    0  501    0  0.00000000000E+00 -0.00000000000E+00 -0.11475478660E+04  0.11475478660E+04  0.00000000000E+00 0. -1.
         23    2    1    2    0    0 -0.47494942314E+02 -0.15418129462E+03 -0.79613905496E+03  0.81587320208E+03  0.76052915062E+02 0.  0.
         23    2    1    2    0    0  0.47494942314E+02  0.15418129462E+03 -0.31637769426E+03  0.36670578065E+03  0.91381852585E+02 0.  0.
          5    1    3    3  502    0  0.11595998842E+02 -0.85866007695E+02 -0.43591131584E+03  0.44446395101E+03  0.47000000000E+01 0. -1.
         -5    1    3    3    0  502 -0.59090941157E+02 -0.68315286925E+02 -0.36022773912E+03  0.37140925108E+03  0.47000000000E+01 0.  1.
          5    1    4    4  503    0  0.45087901120E+02  0.21412290688E+02 -0.11485713027E+03  0.12532220630E+03  0.47000000000E+01 0. -1.
         -5    1    4    4    0  503  0.24070411943E+01  0.13276900393E+03 -0.20152056399E+03  0.24138357435E+03  0.47000000000E+01 0.  1.
<mgrwt>
<rscale>  0 0.18362420E+03</rscale>
<asrwt>0</asrwt>
<pdfrwt beam="1">  1        2 0.17654583E+00 0.18541382E+03</pdfrwt>
<pdfrwt beam="2">  1       -2 0.53894025E-02 0.18541382E+03</pdfrwt>
<totfact> 0.37094233E+03</totfact>
</mgrwt>
</event>
<event>
 8    1  0.8174053E-004  0.9096312E+02  0.7546771E-02  0.1301890E+00
          2   -1    0    0  501    0  0.00000000000E+00  0.00000000000E+00  0.11325551034E+03  0.11325551034E+03  0.00000000000E+00 0. -1.
         -2   -1    0    0    0  501 -0.00000000000E+00 -0.00000000000E+00 -0.72770728788E+02  0.72770728788E+02  0.00000000000E+00 0.  1.
         23    2    1    2    0    0 -0.95033493578E+01  0.98958976488E-01  0.71414271538E+01  0.91243019508E+02  0.90465270603E+02 0.  0.
         23    2    1    2    0    0  0.95033493578E+01 -0.98958976488E-01  0.33343354401E+02  0.94783219622E+02  0.88214261870E+02 0.  0.
          5    1    3    3  502    0 -0.27197328834E+02 -0.27153054490E+02  0.31865099931E+02  0.50144368153E+02  0.47000000000E+01 0. -1.
         -5    1    4    4    0  503 -0.32711054625E+02  0.88974034509E+01 -0.76530518847E+01  0.35069018891E+02  0.47000000000E+01 0.  1.
          5    1    4    4  503    0  0.42214403983E+02 -0.89963624274E+01  0.40996406285E+02  0.59714200730E+02  0.47000000000E+01 0. -1.
         -5    1    3    3    0  502  0.17693979476E+02  0.27252013466E+02 -0.24723672777E+02  0.41098651356E+02  0.47000000000E+01 0.  1.
<mgrwt>
<rscale>  0 0.90398283E+02</rscale>
<asrwt>0</asrwt>
<pdfrwt beam="1">  1        2 0.17423925E-01 0.90963117E+02</pdfrwt>
<pdfrwt beam="2">  1       -2 0.11195497E-01 0.90963117E+02</pdfrwt>
<totfact> 0.16136346E+04</totfact>
</mgrwt>
</event>
<event>
 8    1  0.8174053E-004  0.1240861E+03  0.7546771E-02  0.1242477E+00
         -2   -1    0    0    0  501 -0.00000000000E+00  0.00000000000E+00  0.17068467647E+02  0.17068467647E+02  0.00000000000E+00 0. -1.
          2   -1    0    0  501    0  0.00000000000E+00 -0.00000000000E+00 -0.80393293323E+03  0.80393293323E+03  0.00000000000E+00 0.  1.
         23    2    1    2    0    0 -0.49473757927E+02  0.39042294587E+02 -0.39667069941E+03  0.41562603405E+03  0.10688967641E+03 0.  0.
         23    2    1    2    0    0  0.49473757927E+02 -0.39042294587E+02 -0.39019376617E+03  0.40537536682E+03  0.90033656913E+02 0.  0.
          5    1    4    4  502    0  0.65547944186E+02  0.18152547488E+01 -0.23219197387E+03  0.24131935452E+03  0.47000000000E+01 0. -1.
         -5    1    3    3    0  503 -0.71956317622E+02  0.59337994034E+02 -0.30366094109E+03  0.31769602819E+03  0.47000000000E+01 0.  1.
          5    1    3    3  503    0  0.22482559695E+02 -0.20295699447E+02 -0.93009758321E+02  0.97930005868E+02  0.47000000000E+01 0. -1.
         -5    1    4    4    0  502 -0.16074186259E+02 -0.40857549336E+02 -0.15800179230E+03  0.16405601230E+03  0.47000000000E+01 0.  1.
<mgrwt>
<rscale>  0 0.12037651E+03</rscale>
<asrwt>0</asrwt>
<pdfrwt beam="1">  1        2 0.12368200E+00 0.12408608E+03</pdfrwt>
<pdfrwt beam="2">  1       -2 0.26259180E-02 0.12408608E+03</pdfrwt>
<totfact> 0.17202779E+04</totfact>
</mgrwt>
</event>
<event>
 8    1  0.8174053E-004  0.1051359E+03  0.7546771E-02  0.1270059E+00
          1   -1    0    0  501    0  0.00000000000E+00  0.00000000000E+00  0.10225713742E+04  0.10225713742E+04  0.00000000000E+00 0. -1.
         -1   -1    0    0    0  501 -0.00000000000E+00 -0.00000000000E+00 -0.10814467752E+02  0.10814467752E+02  0.00000000000E+00 0.  1.
         23    2    1    2    0    0 -0.12783309325E+02  0.63902191905E+02  0.47044607541E+03  0.48195953524E+03  0.81966948343E+02 0.  0.
         23    2    1    2    0    0  0.12783309325E+02 -0.63902191905E+02  0.54131083100E+03  0.55142630667E+03  0.82502441164E+02 0.  0.
          5    1    4    4  502    0  0.47517348631E+02 -0.36783735099E+02  0.28381870768E+03  0.29014839379E+03  0.47000000000E+01 0. -1.
         -5    1    3    3    0  503 -0.19006253021E+02  0.62963170557E+01  0.23414897799E+02  0.31164542373E+02  0.47000000000E+01 0.  1.
          5    1    3    3  503    0  0.62229436963E+01  0.57605874849E+02  0.44703117761E+03  0.45079499287E+03  0.47000000000E+01 0. -1.
         -5    1    4    4    0  502 -0.34734039306E+02 -0.27118456806E+02  0.25749212332E+03  0.26127791288E+03  0.47000000000E+01 0.  1.
<mgrwt>
<rscale>  0 0.10503081E+03</rscale>
<asrwt>0</asrwt>
<pdfrwt beam="1">  1        1 0.15731860E+00 0.10513589E+03</pdfrwt>
<pdfrwt beam="2">  1       -1 0.16637651E-02 0.10513589E+03</pdfrwt>
<totfact> 0.13033202E+04</totfact>
</mgrwt>
</event>
<event>
 8    1  0.8174053E-004  0.1011704E+03  0.7546771E-02  0.1280085E+00
         -1   -1    0    0    0  501 -0.00000000000E+00  0.00000000000E+00  0.41801658783E+02  0.41801658783E+02  0.00000000000E+00 0.  1.
          1   -1    0    0  501    0  0.00000000000E+00 -0.00000000000E+00 -0.50760573028E+03  0.50760573028E+03  0.00000000000E+00 0. -1.
         23    2    1    2    0    0  0.17260015878E+02  0.34264555257E+02 -0.29235109156E+02  0.10126911258E+03  0.89043661535E+02 0.  0.
         23    2    1    2    0    0 -0.17260015878E+02 -0.34264555257E+02 -0.43656896234E+03  0.44813827649E+03  0.93613503715E+02 0.  0.
          5    1    3    3  502    0  0.18223371581E+02  0.13669744251E+02 -0.59764503351E+02  0.64131420072E+02  0.47000000000E+01 0. -1.
         -5    1    4    4    0  503  0.31229448886E+02  0.10897462405E+02 -0.11371875546E+03  0.11852459031E+03  0.47000000000E+01 0.  1.
          5    1    4    4  503    0 -0.48489464764E+02 -0.45162017662E+02 -0.32285020688E+03  0.32961368617E+03  0.47000000000E+01 0. -1.
         -5    1    3    3    0  502 -0.96335570343E+00  0.20594811006E+02  0.30529394195E+02  0.37137692504E+02  0.47000000000E+01 0.  1.
<mgrwt>
<rscale>  0 0.10010032E+03</rscale>
<asrwt>0</asrwt>
<pdfrwt beam="1">  1        1 0.78093180E-01 0.10117043E+03</pdfrwt>
<pdfrwt beam="2">  1       -1 0.64310252E-02 0.10117043E+03</pdfrwt>
<totfact> 0.50457599E+03</totfact>
</mgrwt>
</event>
<event>
 8    1  0.8174053E-004  0.1197634E+03  0.7546771E-02  0.1244411E+00
         -2   -1    0    0    0  501 -0.00000000000E+00  0.00000000000E+00  0.41586371164E+03  0.41586371164E+03  0.00000000000E+00 0.  1.
          2   -1    0    0  501    0  0.00000000000E+00 -0.00000000000E+00 -0.44291883757E+02  0.44291883757E+02  0.00000000000E+00 0. -1.
         23    2    1    2    0    0 -0.33998876806E+02  0.65840670065E+02  0.75436415361E+02  0.14154121308E+03  0.94086900138E+02 0.  0.
         23    2    1    2    0    0  0.33998876806E+02 -0.65840670065E+02  0.29613541252E+03  0.31861438232E+03  0.91258011231E+02 0.  0.
          5    1    4    4  502    0 -0.60960291361E+01  0.20519912347E+02  0.64835307960E+02  0.68439283546E+02  0.47000000000E+01 0. -1.
         -5    1    4    4    0  502  0.40094905942E+02 -0.86360582413E+02  0.23130010456E+03  0.25017509878E+03  0.47000000000E+01 0.  1.
          5    1    3    3  503    0 -0.61120199023E+02  0.62427499422E+02  0.72541853270E+02  0.11365422072E+03  0.47000000000E+01 0. -1.
         -5    1    3    3    0  503  0.27121322217E+02  0.34131706430E+01  0.28945620909E+01  0.27886992350E+02  0.47000000000E+01 0.  1.
<mgrwt>
<rscale>  0 0.11920716E+03</rscale>
<asrwt>0</asrwt>
<pdfrwt beam="1">  1        2 0.68141362E-02 0.11976336E+03</pdfrwt>
<pdfrwt beam="2">  1       -2 0.63979030E-01 0.11976336E+03</pdfrwt>
<totfact> 0.23059446E+03</totfact>
</mgrwt>
</event>
<event>
 8    1  0.8174053E-004  0.1420452E+03  0.7546771E-02  0.1210978E+00
          1   -1    0    0  501    0  0.00000000000E+00  0.00000000000E+00  0.17805007985E+03  0.17805007985E+03  0.00000000000E+00 0. -1.
         -1   -1    0    0    0  501 -0.00000000000E+00 -0.00000000000E+00 -0.29392167997E+03  0.29392167997E+03  0.00000000000E+00 0.  1.
         23    2    1    2    0    0  0.71266298084E+01  0.10913113104E+03 -0.24328893844E+03  0.28115240262E+03  0.88863790800E+02 0.  0.
         23    2    1    2    0    0 -0.71266298084E+01 -0.10913113104E+03  0.12741733833E+03  0.19081935720E+03  0.90644670889E+02 0.  0.
          5    1    3    3  502    0  0.21112771278E+02  0.58991837287E+01 -0.80246156880E+01  0.23812474391E+02  0.47000000000E+01 0. -1.
         -5    1    3    3    0  502 -0.13986141470E+02  0.10323194731E+03 -0.23526432276E+03  0.25733992823E+03  0.47000000000E+01 0.  1.
          5    1    4    4  503    0  0.27277769718E+02 -0.48355693179E+02  0.10223383658E+03  0.11643108316E+03  0.47000000000E+01 0. -1.
         -5    1    4    4    0  503 -0.34404399527E+02 -0.60775437863E+02  0.25183501744E+02  0.74388274038E+02  0.47000000000E+01 0.  1.
<mgrwt>
<rscale>  0 0.14176194E+03</rscale>
<asrwt>0</asrwt>
<pdfrwt beam="1">  1        1 0.27392320E-01 0.14204524E+03</pdfrwt>
<pdfrwt beam="2">  1       -1 0.45218720E-01 0.14204524E+03</pdfrwt>
<totfact> 0.83695756E+02</totfact>
</mgrwt>
</event>
<event>
 8    1  0.8174053E-004  0.9930972E+02  0.7546771E-02  0.1284459E+00
          2   -1    0    0  501    0  0.00000000000E+00  0.00000000000E+00  0.47080357634E+03  0.47080357634E+03  0.00000000000E+00 0. -1.
         -2   -1    0    0    0  501 -0.00000000000E+00 -0.00000000000E+00 -0.15207892772E+03  0.15207892772E+03  0.00000000000E+00 0.  1.
         23    2    1    2    0    0  0.25266748254E+02 -0.79022660816E+01 -0.13042485643E+03  0.16393005700E+03  0.95716069885E+02 0.  0.
         23    2    1    2    0    0 -0.25266748254E+02  0.79022660816E+01  0.44914950505E+03  0.45895244707E+03  0.90560567612E+02 0.  0.
          5    1    3    3  502    0 -0.10253817579E+02 -0.43169321181E+02 -0.37531883336E+02  0.58304916885E+02  0.47000000000E+01 0. -1.
         -5    1    4    4    0  503  0.13613882109E+02  0.22644557180E+02  0.43236370091E+02  0.50887989296E+02  0.47000000000E+01 0.  1.
          5    1    4    4  503    0 -0.38880630363E+02 -0.14742291099E+02  0.40591313496E+03  0.40806445777E+03  0.47000000000E+01 0. -1.
         -5    1    3    3    0  502  0.35520565833E+02  0.35267055099E+02 -0.92892973099E+02  0.10562514011E+03  0.47000000000E+01 0.  1.
<mgrwt>
<rscale>  0 0.98046072E+02</rscale>
<asrwt>0</asrwt>
<pdfrwt beam="1">  1        2 0.72431319E-01 0.99309720E+02</pdfrwt>
<pdfrwt beam="2">  1       -2 0.23396758E-01 0.99309720E+02</pdfrwt>
<totfact> 0.10524067E+03</totfact>
</mgrwt>
</event>
<event>
 8    1  0.8174053E-004  0.4307019E+03  0.7546771E-02  0.1033673E+00
          2   -1    0    0  501    0  0.00000000000E+00  0.00000000000E+00  0.30022764239E+04  0.30022764239E+04  0.00000000000E+00 0. -1.
         -2   -1    0    0    0  501 -0.00000000000E+00 -0.00000000000E+00 -0.62016928427E+02  0.62016928427E+02  0.00000000000E+00 0.  1.
         23    2    1    2    0    0  0.39957194007E+03 -0.13149657057E+03  0.15745790722E+04  0.16323062241E+04  0.90417207248E+02 0.  0.
         23    2    1    2    0    0 -0.39957194007E+03  0.13149657057E+03  0.13656804233E+04  0.14319871282E+04  0.92493423765E+02 0.  0.
          5    1    4    4  502    0 -0.22186251679E+03  0.10555868705E+03  0.67557610766E+03  0.71888161752E+03  0.47000000000E+01 0. -1.
         -5    1    4    4    0  502 -0.17770942329E+03  0.25937883511E+02  0.69010431564E+03  0.71310551070E+03  0.47000000000E+01 0.  1.
          5    1    3    3  503    0  0.18604442752E+03 -0.76053115679E+02  0.91392067939E+03  0.93577224987E+03  0.47000000000E+01 0. -1.
         -5    1    3    3    0  503  0.21352751255E+03 -0.55443454887E+02  0.66065839278E+03  0.69653397423E+03  0.47000000000E+01 0.  1.
<mgrwt>
<rscale>  0 0.43059157E+03</rscale>
<asrwt>0</asrwt>
<pdfrwt beam="1">  1        2 0.46188857E+00 0.43070189E+03</pdfrwt>
<pdfrwt beam="2">  1       -2 0.95410682E-02 0.43070189E+03</pdfrwt>
<totfact> 0.14270585E+02</totfact>
</mgrwt>
</event>
<event>
 8    1  0.8174053E-004  0.1148506E+03  0.7546771E-02  0.1259916E+00
         -1   -1    0    0    0  501 -0.00000000000E+00  0.00000000000E+00  0.98638680780E+02  0.98638680780E+02  0.00000000000E+00 0.  1.
          1   -1    0    0  501    0  0.00000000000E+00 -0.00000000000E+00 -0.28993114132E+03  0.28993114132E+03  0.00000000000E+00 0. -1.
         23    2    1    2    0    0 -0.36893630168E+02  0.10199268945E+02  0.52184393152E+02  0.12615018818E+03  0.10828432045E+03 0.  0.
         23    2    1    2    0    0  0.36893630168E+02 -0.10199268945E+02 -0.24347685369E+03  0.26241963392E+03  0.90099505820E+02 0.  0.
          5    1    3    3  502    0 -0.73888966080E+02  0.19198927120E+02  0.34616797112E+02  0.83955885757E+02  0.47000000000E+01 0. -1.
         -5    1    4    4    0  503 -0.24284383559E+02  0.13976159804E+02 -0.10900536689E+03  0.11264690115E+03  0.47000000000E+01 0. -1.
          5    1    4    4  503    0  0.61178013727E+02 -0.24175428749E+02 -0.13447148680E+03  0.14977273277E+03  0.47000000000E+01 0.  1.
         -5    1    3    3    0  502  0.36995335911E+02 -0.89996581750E+01  0.17567596039E+02  0.42194302424E+02  0.47000000000E+01 0.  1.
<mgrwt>
<rscale>  0 0.11035401E+03</rscale>
<asrwt>0</asrwt>
<pdfrwt beam="1">  1        1 0.44604790E-01 0.11485059E+03</pdfrwt>
<pdfrwt beam="2">  1       -1 0.15175182E-01 0.11485059E+03</pdfrwt>
<totfact> 0.27812601E+03</totfact>
</mgrwt>
</event>
<event>
 8    1  0.8174053E-004  0.1242203E+03  0.7546771E-02  0.1237687E+00
          1   -1    0    0  501    0  0.00000000000E+00  0.00000000000E+00  0.40562639706E+03  0.40562639706E+03  0.00000000000E+00 0. -1.
         -1   -1    0    0    0  501 -0.00000000000E+00 -0.00000000000E+00 -0.43543603949E+02  0.43543603949E+02  0.00000000000E+00 0.  1.
         23    2    1    2    0    0 -0.67990902129E+02  0.40216751100E+02  0.91677680684E+02  0.15159714154E+03  0.91305784844E+02 0.  0.
         23    2    1    2    0    0  0.67990902129E+02 -0.40216751100E+02  0.27040511243E+03  0.29757285947E+03  0.95867262528E+02 0.  0.
          5    1    3    3  502    0 -0.78038384929E+02  0.95651236912E+01  0.89065127839E+02  0.11889561855E+03  0.47000000000E+01 0. -1.
         -5    1    3    3    0  502  0.10047482800E+02  0.30651627409E+02  0.26125528457E+01  0.32701522989E+02  0.47000000000E+01 0.  1.
          5    1    4    4  503    0  0.17696592905E+02 -0.65202179073E+02  0.15462130997E+03  0.16880264528E+03  0.47000000000E+01 0. -1.
         -5    1    4    4    0  503  0.50294309224E+02  0.24985427972E+02  0.11578380246E+03  0.12877021419E+03  0.47000000000E+01 0.  1.
<mgrwt>
<rscale>  0 0.12333960E+03</rscale>
<asrwt>0</asrwt>
<pdfrwt beam="1">  1        1 0.62404059E-01 0.12422030E+03</pdfrwt>
<pdfrwt beam="2">  1       -1 0.66990163E-02 0.12422030E+03</pdfrwt>
<totfact> 0.63990129E+03</totfact>
</mgrwt>
</event>
<event>
 8    1  0.8174053E-004  0.9446378E+02  0.7546771E-02  0.1297087E+00
         -2   -1    0    0    0  501 -0.00000000000E+00  0.00000000000E+00  0.13734453829E+03  0.13734453829E+03  0.00000000000E+00 0.  1.
          2   -1    0    0  501    0  0.00000000000E+00 -0.00000000000E+00 -0.62540720268E+02  0.62540720268E+02  0.00000000000E+00 0. -1.
         23    2    1    2    0    0  0.19953569544E+02 -0.18389301889E+02  0.60425801497E+02  0.11213689219E+03  0.90482560432E+02 0.  0.
         23    2    1    2    0    0 -0.19953569544E+02  0.18389301889E+02  0.14378016523E+02  0.87748366363E+02  0.82199373956E+02 0.  0.
          5    1    4    4  502    0 -0.34124450074E+02  0.41087712278E+02 -0.57670195520E+01  0.53926122683E+02  0.47000000000E+01 0. -1.
         -5    1    3    3    0  503  0.54607451021E+02 -0.54049773594E+01  0.24266147345E+02  0.60184079242E+02  0.47000000000E+01 0.  1.
          5    1    3    3  503    0 -0.34653881477E+02 -0.12984324530E+02  0.36159654152E+02  0.51952812949E+02  0.47000000000E+01 0. -1.
         -5    1    4    4    0  502  0.14170880530E+02 -0.22698410388E+02  0.20145036075E+02  0.33822243681E+02  0.47000000000E+01 0.  1.
<mgrwt>
<rscale>  0 0.92423263E+02</rscale>
<asrwt>0</asrwt>
<pdfrwt beam="1">  1        2 0.96216493E-02 0.94463777E+02</pdfrwt>
<pdfrwt beam="2">  1       -2 0.21129929E-01 0.94463777E+02</pdfrwt>
<totfact> 0.11607221E+04</totfact>
</mgrwt>
</event>
<event>
 8    1  0.8174053E-004  0.1109871E+03  0.7546771E-02  0.1258945E+00
         -1   -1    0    0    0  501 -0.00000000000E+00  0.00000000000E+00  0.27361295266E+02  0.27361295266E+02  0.00000000000E+00 0.  1.
          1   -1    0    0  501    0  0.00000000000E+00 -0.00000000000E+00 -0.52132255525E+03  0.52132255525E+03  0.00000000000E+00 0. -1.
         23    2    1    2    0    0 -0.62644180602E+02  0.15336604581E+02 -0.14484925471E+03  0.18248137102E+03  0.90325186828E+02 0.  0.
         23    2    1    2    0    0  0.62644180602E+02 -0.15336604581E+02 -0.34911200528E+03  0.36620247950E+03  0.89808457065E+02 0.  0.
          5    1    4    4  502    0  0.13669533384E+02 -0.48059144529E+02 -0.18849904075E+03  0.19506541436E+03  0.47000000000E+01 0. -1.
         -5    1    3    3    0  503 -0.27096150628E+02  0.22798080744E+02 -0.28505163237E+01  0.35835308116E+02  0.47000000000E+01 0.  1.
          5    1    3    3  503    0 -0.35548029974E+02 -0.74614761630E+01 -0.14199873839E+03  0.14664606290E+03  0.47000000000E+01 0. -1.
         -5    1    4    4    0  502  0.48974647218E+02  0.32722539948E+02 -0.16061296453E+03  0.17113706514E+03  0.47000000000E+01 0.  1.
<mgrwt>
<rscale>  0 0.11088195E+03</rscale>
<asrwt>0</asrwt>
<pdfrwt beam="1">  1        1 0.80203462E-01 0.11098714E+03</pdfrwt>
<pdfrwt beam="2">  1       -1 0.42094305E-02 0.11098714E+03</pdfrwt>
<totfact> 0.91511236E+03</totfact>
</mgrwt>
</event>
<event>
 8    1  0.8174053E-004  0.1162123E+03  0.7546771E-02  0.1249656E+00
         -2   -1    0    0    0  501 -0.00000000000E+00  0.00000000000E+00  0.20609206771E+03  0.20609206771E+03  0.00000000000E+00 0.  1.
          2   -1    0    0  501    0  0.00000000000E+00 -0.00000000000E+00 -0.76949776695E+02  0.76949776695E+02  0.00000000000E+00 0. -1.
         23    2    1    2    0    0  0.70406424229E+02  0.17048827783E+02  0.11953994103E+03  0.16643353141E+03  0.90347085046E+02 0.  0.
         23    2    1    2    0    0 -0.70406424229E+02 -0.17048827783E+02  0.96023499891E+01  0.11660831299E+03  0.90871152917E+02 0.  0.
          5    1    3    3  502    0  0.42274750195E+02  0.50463317218E+02  0.44896972159E+02  0.79821857894E+02  0.47000000000E+01 0. -1.
         -5    1    4    4    0  503 -0.61998075846E+02 -0.44945647613E+02 -0.15015661146E+02  0.78175653036E+02  0.47000000000E+01 0.  1.
          5    1    4    4  503    0 -0.84083483823E+01  0.27896819830E+02  0.24618011135E+02  0.38432659957E+02  0.47000000000E+01 0. -1.
         -5    1    3    3    0  502  0.28131674033E+02 -0.33414489435E+02  0.74642968869E+02  0.86611673519E+02  0.47000000000E+01 0.  1.
<mgrwt>
<rscale>  0 0.11610981E+03</rscale>
<asrwt>0</asrwt>
<pdfrwt beam="1">  1        2 0.11838427E-01 0.11621228E+03</pdfrwt>
<pdfrwt beam="2">  1       -2 0.31706472E-01 0.11621228E+03</pdfrwt>
<totfact> 0.45257742E+03</totfact>
</mgrwt>
</event>
<event>
 8    1  0.8174053E-004  0.9945529E+02  0.7546771E-02  0.1282119E+00
          1   -1    0    0  501    0  0.00000000000E+00  0.00000000000E+00  0.85410365224E+02  0.85410365224E+02  0.00000000000E+00 0. -1.
         -1   -1    0    0    0  501 -0.00000000000E+00 -0.00000000000E+00 -0.13724315357E+03  0.13724315357E+03  0.00000000000E+00 0.  1.
         23    2    1    2    0    0 -0.19471869913E+02 -0.35542481003E+02 -0.71252249824E+02  0.12132006019E+03  0.89438538819E+02 0.  0.
         23    2    1    2    0    0  0.19471869913E+02  0.35542481003E+02  0.19419461483E+02  0.10133345860E+03  0.90823634993E+02 0.  0.
          5    1    4    4  502    0  0.37940565858E+02 -0.90033882041E+01  0.32686844079E+02  0.51098603823E+02  0.47000000000E+01 0. -1.
         -5    1    4    4    0  502 -0.18468695945E+02  0.44545869207E+02 -0.13267382596E+02  0.50234854775E+02  0.47000000000E+01 0.  1.
          5    1    3    3  503    0  0.30840296365E+02  0.69858925771E+01 -0.19869428627E+02  0.37640546874E+02  0.47000000000E+01 0. -1.
         -5    1    3    3    0  503 -0.50312166278E+02 -0.42528373580E+02 -0.51382821197E+02  0.83679513317E+02  0.47000000000E+01 0.  1.
<mgrwt>
<rscale>  0 0.99137957E+02</rscale>
<asrwt>0</asrwt>
<pdfrwt beam="1">  1        1 0.13140056E-01 0.99455288E+02</pdfrwt>
<pdfrwt beam="2">  1       -1 0.21114331E-01 0.99455288E+02</pdfrwt>
<totfact> 0.75535367E+03</totfact>
</mgrwt>
</event>
<event>
 8    1  0.8174053E-004  0.1143616E+03  0.7546771E-02  0.1254591E+00
         -2   -1    0    0    0  501 -0.00000000000E+00  0.00000000000E+00  0.22136791577E+02  0.22136791577E+02  0.00000000000E+00 0.  1.
          2   -1    0    0  501    0  0.00000000000E+00 -0.00000000000E+00 -0.57435313705E+03  0.57435313705E+03  0.00000000000E+00 0. -1.
         23    2    1    2    0    0  0.31998614254E+02  0.45249335223E+02 -0.25306776570E+03  0.27770826403E+03  0.10003585468E+03 0.  0.
         23    2    1    2    0    0 -0.31998614254E+02 -0.45249335223E+02 -0.29914857978E+03  0.31878166460E+03  0.95186465695E+02 0.  0.
          5    1    3    3  502    0 -0.33046819590E+02  0.30390335128E+02 -0.75566258213E+02  0.88022804628E+02  0.47000000000E+01 0. -1.
         -5    1    4    4    0  503  0.22796345918E+02 -0.49788909348E+02 -0.14984720060E+03  0.15960852863E+03  0.47000000000E+01 0.  1.
          5    1    4    4  503    0 -0.54794960173E+02  0.45395741246E+01 -0.14930137918E+03  0.15917313598E+03  0.47000000000E+01 0. -1.
         -5    1    3    3    0  502  0.65045433845E+02  0.14859000095E+02 -0.17750150748E+03  0.18968545940E+03  0.47000000000E+01 0.  1.
<mgrwt>
<rscale>  0 0.11329254E+03</rscale>
<asrwt>0</asrwt>
<pdfrwt beam="1">  1        2 0.88362026E-01 0.11436165E+03</pdfrwt>
<pdfrwt beam="2">  1       -2 0.34056601E-02 0.11436165E+03</pdfrwt>
<totfact> 0.17325241E+04</totfact>
</mgrwt>
</event>
<event>
 8    1  0.8174053E-004  0.1276993E+03  0.7546771E-02  0.1233294E+00
          1   -1    0    0  501    0  0.00000000000E+00  0.00000000000E+00  0.94605169828E+02  0.94605169828E+02  0.00000000000E+00 0. -1.
         -1   -1    0    0    0  501 -0.00000000000E+00 -0.00000000000E+00 -0.28655104753E+03  0.28655104753E+03  0.00000000000E+00 0.  1.
         23    2    1    2    0    0  0.35842484077E+02 -0.68890838640E+02  0.27178270144E+02  0.13055941851E+03  0.10137293564E+03 0.  0.
         23    2    1    2    0    0 -0.35842484077E+02  0.68890838640E+02 -0.21912414785E+03  0.25059679885E+03  0.93556037270E+02 0.  0.
          5    1    4    4  502    0  0.24777909024E+01  0.58182659620E+02 -0.50333254800E+02  0.77116067502E+02  0.47000000000E+01 0. -1.
         -5    1    4    4    0  502 -0.38320274980E+02  0.10708179020E+02 -0.16879089305E+03  0.17348073135E+03  0.47000000000E+01 0.  1.
          5    1    3    3  503    0  0.54345360547E+02 -0.48061092088E+01  0.32162460789E+02  0.63506147598E+02  0.47000000000E+01 0. -1.
         -5    1    3    3    0  503 -0.18502876470E+02 -0.64084729431E+02 -0.49841906458E+01  0.67053270914E+02  0.47000000000E+01 0.  1.
<mgrwt>
<rscale>  0 0.12614294E+03</rscale>
<asrwt>0</asrwt>
<pdfrwt beam="1">  1        1 0.14554642E-01 0.12769927E+03</pdfrwt>
<pdfrwt beam="2">  1       -1 0.44084776E-01 0.12769927E+03</pdfrwt>
<totfact> 0.19513986E+03</totfact>
</mgrwt>
</event>
<event>
 8    1  0.8174053E-004  0.1107203E+03  0.7546771E-02  0.1260216E+00
          2   -1    0    0  501    0  0.00000000000E+00  0.00000000000E+00  0.70766735259E+03  0.70766735259E+03  0.00000000000E+00 0. -1.
         -2   -1    0    0    0  501 -0.00000000000E+00 -0.00000000000E+00 -0.20049882635E+02  0.20049882635E+02  0.00000000000E+00 0.  1.
         23    2    1    2    0    0  0.48116671837E+02 -0.33533109903E+02  0.19901419265E+03  0.22672606254E+03  0.91424148826E+02 0.  0.
         23    2    1    2    0    0 -0.48116671837E+02  0.33533109903E+02  0.48860327730E+03  0.50099117269E+03  0.93911175856E+02 0.  0.
          5    1    3    3  502    0  0.58172046709E+01  0.25932437494E+02  0.20743206333E+02  0.34039709070E+02  0.47000000000E+01 0. -1.
         -5    1    4    4    0  503  0.21079303103E+02  0.35057228492E+02  0.19570046561E+03  0.19998527078E+03  0.47000000000E+01 0.  1.
          5    1    4    4  503    0 -0.69195974940E+02 -0.15241185888E+01  0.29290281169E+03  0.30100590190E+03  0.47000000000E+01 0. -1.
         -5    1    3    3    0  502  0.42299467166E+02 -0.59465547397E+02  0.17827098632E+03  0.19268635347E+03  0.47000000000E+01 0.  1.
<mgrwt>
<rscale>  0 0.11019119E+03</rscale>
<asrwt>0</asrwt>
<pdfrwt beam="1">  1        2 0.10887188E+00 0.11072033E+03</pdfrwt>
<pdfrwt beam="2">  1       -2 0.30845979E-02 0.11072033E+03</pdfrwt>
<totfact> 0.15723897E+04</totfact>
</mgrwt>
</event>
<event>
 8    1  0.8174053E-004  0.9650300E+02  0.7546771E-02  0.1288623E+00
          2   -1    0    0  501    0  0.00000000000E+00  0.00000000000E+00  0.77328027269E+03  0.77328027269E+03  0.00000000000E+00 0. -1.
         -2   -1    0    0    0  501 -0.00000000000E+00 -0.00000000000E+00 -0.23726030367E+02  0.23726030367E+02  0.00000000000E+00 0.  1.
         23    2    1    2    0    0 -0.26865483259E+02 -0.85767804796E+01  0.91619989286E+02  0.13203238579E+03  0.90791040887E+02 0.  0.
         23    2    1    2    0    0  0.26865483259E+02  0.85767804796E+01  0.65793425304E+03  0.66497391727E+03  0.92290378585E+02 0.  0.
          5    1    3    3  502    0 -0.33695370509E+02  0.10379602202E+02 -0.25072999605E+01  0.35657968095E+02  0.47000000000E+01 0.  1.
         -5    1    4    4    0  503 -0.29135810711E+02  0.24000575825E+02  0.28034849290E+03  0.28291746248E+03  0.47000000000E+01 0.  1.
          5    1    4    4  503    0  0.56001293970E+02 -0.15423795345E+02  0.37758576014E+03  0.38205645479E+03  0.47000000000E+01 0. -1.
         -5    1    3    3    0  502  0.68298872498E+01 -0.18956382681E+02  0.94127289247E+02  0.96374417690E+02  0.47000000000E+01 0. -1.
<mgrwt>
<rscale>  0 0.96142770E+02</rscale>
<asrwt>0</asrwt>
<pdfrwt beam="1">  1        2 0.11896618E+00 0.96503002E+02</pdfrwt>
<pdfrwt beam="2">  1       -2 0.36501591E-02 0.96503002E+02</pdfrwt>
<totfact> 0.10935553E+04</totfact>
</mgrwt>
</event>
<event>
 8    1  0.8174053E-004  0.9600065E+02  0.7546771E-02  0.1289666E+00
          1   -1    0    0  501    0  0.00000000000E+00  0.00000000000E+00  0.40547397931E+03  0.40547397931E+03  0.00000000000E+00 0. -1.
         -1   -1    0    0    0  501 -0.00000000000E+00 -0.00000000000E+00 -0.37677484128E+02  0.37677484128E+02  0.00000000000E+00 0.  1.
         23    2    1    2    0    0 -0.15081445538E+02  0.25612612014E+02  0.32414058519E+03  0.33769074555E+03  0.89913651749E+02 0.  0.
         23    2    1    2    0    0  0.15081445538E+02 -0.25612612014E+02  0.43655909997E+02  0.10546071789E+03  0.91283452205E+02 0.  0.
          5    1    4    4  502    0 -0.21679213460E+01  0.26752234586E+02 -0.93777296490E+01  0.28816900452E+02  0.47000000000E+01 0. -1.
         -5    1    4    4    0  502  0.17249366884E+02 -0.52364846600E+02  0.53033639646E+02  0.76643817438E+02  0.47000000000E+01 0.  1.
          5    1    3    3  503    0 -0.36231819609E+02  0.36876039269E+02  0.29562656948E+03  0.30014953874E+03  0.47000000000E+01 0. -1.
         -5    1    3    3    0  503  0.21150374070E+02 -0.11263427255E+02  0.28514015706E+02  0.37541206807E+02  0.47000000000E+01 0.  1.
<mgrwt>
<rscale>  0 0.95673595E+02</rscale>
<asrwt>0</asrwt>
<pdfrwt beam="1">  1        1 0.62380609E-01 0.96000649E+02</pdfrwt>
<pdfrwt beam="2">  1       -1 0.57965363E-02 0.96000649E+02</pdfrwt>
<totfact> 0.77946487E+03</totfact>
</mgrwt>
</event>
<event>
 8    1  0.8174053E-004  0.9429998E+02  0.7546771E-02  0.1294668E+00
         -1   -1    0    0    0  501 -0.00000000000E+00  0.00000000000E+00  0.45745605562E+03  0.45745605562E+03  0.00000000000E+00 0.  1.
          1   -1    0    0  501    0  0.00000000000E+00 -0.00000000000E+00 -0.24656884887E+02  0.24656884887E+02  0.00000000000E+00 0. -1.
         23    2    1    2    0    0  0.15521491865E+02  0.42857517016E+01  0.33128007629E+03  0.34355388196E+03  0.89573972159E+02 0.  0.
         23    2    1    2    0    0 -0.15521491865E+02 -0.42857517016E+01  0.10151909445E+03  0.13855905855E+03  0.92915024569E+02 0.  0.
          5    1    3    3  502    0  0.51609821109E+02  0.37483658201E+01  0.15256267489E+03  0.16116787413E+03  0.47000000000E+01 0. -1.
         -5    1    3    3    0  502 -0.36088329244E+02  0.53738588148E+00  0.17871740140E+03  0.18238600783E+03  0.47000000000E+01 0.  1.
          5    1    4    4  503    0  0.36720729934E+02  0.32575888285E+01  0.62636447992E+02  0.72831576318E+02  0.47000000000E+01 0. -1.
         -5    1    4    4    0  503 -0.52242221799E+02 -0.75433405301E+01  0.38882646457E+02  0.65727482231E+02  0.47000000000E+01 0.  1.
<mgrwt>
<rscale>  0 0.93466444E+02</rscale>
<asrwt>0</asrwt>
<pdfrwt beam="1">  1        1 0.37933672E-02 0.94299980E+02</pdfrwt>
<pdfrwt beam="2">  1       -1 0.70377849E-01 0.94299980E+02</pdfrwt>
<totfact> 0.48256147E+03</totfact>
</mgrwt>
</event>
<event>
 8    1  0.8174053E-004  0.9483174E+02  0.7546771E-02  0.1292473E+00
          1   -1    0    0  501    0  0.00000000000E+00  0.00000000000E+00  0.44451243940E+03  0.44451243940E+03  0.00000000000E+00 0. -1.
         -1   -1    0    0    0  501 -0.00000000000E+00 -0.00000000000E+00 -0.21049347441E+02  0.21049347441E+02  0.00000000000E+00 0.  1.
         23    2    1    2    0    0  0.11954469208E+01 -0.77767327907E+01  0.26466504965E+03  0.28060266357E+03  0.92888964009E+02 0.  0.
         23    2    1    2    0    0 -0.11954469208E+01  0.77767327907E+01  0.15879804231E+03  0.18495912326E+03  0.94504774327E+02 0.  0.
          5    1    3    3  502    0 -0.53711013320E+01 -0.49830527988E+02  0.13796067036E+03  0.14685764133E+03  0.47000000000E+01 0. -1.
         -5    1    4    4    0  503  0.37443480448E+02  0.31324604852E+02  0.75078394040E+02  0.89677758384E+02  0.47000000000E+01 0. -1.
          5    1    4    4  503    0 -0.38638927368E+02 -0.23547872061E+02  0.83719648270E+02  0.95281364879E+02  0.47000000000E+01 0.  1.
         -5    1    3    3    0  502  0.65665482527E+01  0.42053795197E+02  0.12670437928E+03  0.13374502225E+03  0.47000000000E+01 0.  1.
<mgrwt>
<rscale>  0 0.94426616E+02</rscale>
<asrwt>0</asrwt>
<pdfrwt beam="1">  1        1 0.68386522E-01 0.94831741E+02</pdfrwt>
<pdfrwt beam="2">  1       -1 0.32383615E-02 0.94831741E+02</pdfrwt>
<totfact> 0.16220534E+04</totfact>
</mgrwt>
</event>
<event>
 8    1  0.8174053E-004  0.1455605E+03  0.7546771E-02  0.1206539E+00
         -3   -1    0    0    0  501 -0.00000000000E+00  0.00000000000E+00  0.20711735306E+03  0.20711735306E+03  0.00000000000E+00 0.  1.
          3   -1    0    0  501    0  0.00000000000E+00 -0.00000000000E+00 -0.11035919548E+03  0.11035919548E+03  0.00000000000E+00 0. -1.
         23    2    1    2    0    0  0.10750447353E+03 -0.33662833459E+02  0.94338958231E+02  0.17345803067E+03  0.92181620615E+02 0.  0.
         23    2    1    2    0    0 -0.10750447353E+03  0.33662833459E+02  0.24191993539E+01  0.14401851787E+03  0.89694385436E+02 0.  0.
          5    1    4    4  502    0 -0.49587555135E+02  0.22998180932E+02 -0.42831307849E+02  0.69602104009E+02  0.47000000000E+01 0. -1.
         -5    1    3    3    0  503  0.80806779349E+02 -0.53464419045E+02  0.10010510350E+03  0.13939620310E+03  0.47000000000E+01 0.  1.
          5    1    3    3  503    0  0.26697694180E+02  0.19801585586E+02 -0.57661452666E+01  0.34061827571E+02  0.47000000000E+01 0. -1.
         -5    1    4    4    0  502 -0.57916918394E+02  0.10664652527E+02  0.45250507203E+02  0.74416413860E+02  0.47000000000E+01 0.  1.
<mgrwt>
<rscale>  0 0.14516832E+03</rscale>
<asrwt>0</asrwt>
<pdfrwt beam="1">  1        3 0.16978338E-01 0.14556047E+03</pdfrwt>
<pdfrwt beam="2">  1       -3 0.31864208E-01 0.14556047E+03</pdfrwt>
<totfact> 0.67116297E+02</totfact>
</mgrwt>
</event>
<event>
 8    1  0.8174053E-004  0.1568479E+03  0.7546771E-02  0.1193499E+00
          1   -1    0    0  501    0  0.00000000000E+00  0.00000000000E+00  0.52214910875E+02  0.52214910875E+02  0.00000000000E+00 0. -1.
         -1   -1    0    0    0  501 -0.00000000000E+00 -0.00000000000E+00 -0.76906968511E+03  0.76906968511E+03  0.00000000000E+00 0.  1.
         23    2    1    2    0    0 -0.12376177430E+03 -0.43134397033E+01 -0.61634162419E+03  0.63499411511E+03  0.89470363599E+02 0.  0.
         23    2    1    2    0    0  0.12376177430E+03  0.43134397033E+01 -0.10051315004E+03  0.18629048088E+03  0.96258336754E+02 0.  0.
          5    1    4    4  502    0  0.76774910299E+02  0.46221720009E+02 -0.38032441529E+02  0.97464818579E+02  0.47000000000E+01 0. -1.
         -5    1    3    3    0  503 -0.17479683353E+02 -0.35552873234E+02 -0.21224336681E+03  0.21596037341E+03  0.47000000000E+01 0. -1.
          5    1    3    3  503    0 -0.10628209095E+03  0.31239433530E+02 -0.40409825738E+03  0.41903374170E+03  0.47000000000E+01 0.  1.
         -5    1    4    4    0  502  0.46986864004E+02 -0.41908280305E+02 -0.62480708512E+02  0.88825662301E+02  0.47000000000E+01 0.  1.
<mgrwt>
<rscale>  0 0.15581985E+03</rscale>
<asrwt>0</asrwt>
<pdfrwt beam="1">  1        1 0.80330633E-02 0.15684786E+03</pdfrwt>
<pdfrwt beam="2">  1       -1 0.11831841E+00 0.15684786E+03</pdfrwt>
<totfact> 0.58883990E+02</totfact>
</mgrwt>
</event>
<event>
 8    1  0.8174053E-004  0.1893218E+03  0.7546771E-02  0.1159431E+00
         -2   -1    0    0    0  501 -0.00000000000E+00  0.00000000000E+00  0.12184490321E+04  0.12184490321E+04  0.00000000000E+00 0.  1.
          2   -1    0    0  501    0  0.00000000000E+00 -0.00000000000E+00 -0.33670064525E+02  0.33670064525E+02  0.00000000000E+00 0. -1.
         23    2    1    2    0    0  0.14998438417E+03 -0.66118951202E+02  0.36146512804E+03  0.40731828164E+03  0.91564799815E+02 0.  0.
         23    2    1    2    0    0 -0.14998438417E+03  0.66118951202E+02  0.82331383950E+03  0.84480081495E+03  0.94740210184E+02 0.  0.
          5    1    3    3  502    0  0.47208825713E+02 -0.41092006029E+02  0.56332640923E+02  0.84336721647E+02  0.47000000000E+01 0. -1.
         -5    1    4    4    0  503 -0.10191471599E+03  0.76597853918E+02  0.43400433429E+03  0.45236676794E+03  0.47000000000E+01 0.  1.
          5    1    4    4  503    0 -0.48069668186E+02 -0.10478902716E+02  0.38930950521E+03  0.39243404701E+03  0.47000000000E+01 0. -1.
         -5    1    3    3    0  502  0.10277555846E+03 -0.25026945173E+02  0.30513248712E+03  0.32298155999E+03  0.47000000000E+01 0.  1.
<mgrwt>
<rscale>  0 0.18892833E+03</rscale>
<asrwt>0</asrwt>
<pdfrwt beam="1">  1        2 0.51800109E-02 0.18932179E+03</pdfrwt>
<pdfrwt beam="2">  1       -2 0.18745366E+00 0.18932179E+03</pdfrwt>
<totfact> 0.25934027E+02</totfact>
</mgrwt>
</event>
<event>
 8    1  0.8174053E-004  0.9463371E+02  0.7546771E-02  0.1292342E+00
          2   -1    0    0  501    0  0.00000000000E+00  0.00000000000E+00  0.81530986645E+02  0.81530986645E+02  0.00000000000E+00 0. -1.
         -2   -1    0    0    0  501 -0.00000000000E+00 -0.00000000000E+00 -0.11025197209E+03  0.11025197209E+03  0.00000000000E+00 0.  1.
         23    2    1    2    0    0 -0.18127314407E+02 -0.16652146970E+02 -0.47316199446E+01  0.94155969835E+02  0.90758277319E+02 0.  0.
         23    2    1    2    0    0  0.18127314407E+02  0.16652146970E+02 -0.23989365499E+02  0.97626988900E+02  0.91376396177E+02 0.  0.
          5    1    3    3  502    0 -0.96890845835E+01  0.21812576013E+02  0.31934636279E+02  0.40144461967E+02  0.47000000000E+01 0. -1.
         -5    1    4    4    0  503  0.44935380445E+02  0.12404406199E+02 -0.43450850564E+02  0.63899328037E+02  0.47000000000E+01 0.  1.
          5    1    4    4  503    0 -0.26808066038E+02  0.42477407711E+01  0.19461485065E+02  0.33727660863E+02  0.47000000000E+01 0. -1.
         -5    1    3    3    0  502 -0.84382298235E+01 -0.38464722983E+02 -0.36666256223E+02  0.54011507868E+02  0.47000000000E+01 0.  1.
<mgrwt>
<rscale>  0 0.94484181E+02</rscale>
<asrwt>0</asrwt>
<pdfrwt beam="1">  1        2 0.12543229E-01 0.94633711E+02</pdfrwt>
<pdfrwt beam="2">  1       -2 0.16961842E-01 0.94633711E+02</pdfrwt>
<totfact> 0.12174915E+04</totfact>
</mgrwt>
</event>
<event>
 8    1  0.8174053E-004  0.9514955E+02  0.7546771E-02  0.1293775E+00
         -1   -1    0    0    0  501 -0.00000000000E+00  0.00000000000E+00  0.22717543403E+02  0.22717543403E+02  0.00000000000E+00 0.  1.
          1   -1    0    0  501    0  0.00000000000E+00 -0.00000000000E+00 -0.66149016093E+03  0.66149016093E+03  0.00000000000E+00 0. -1.
         23    2    1    2    0    0  0.60121814006E+01 -0.26299982728E+02 -0.10029563257E+03  0.13824851140E+03  0.91244734504E+02 0.  0.
         23    2    1    2    0    0 -0.60121814006E+01  0.26299982728E+02 -0.53847698496E+03  0.54595919293E+03  0.85942664626E+02 0.  0.
          5    1    3    3  502    0 -0.18137124914E+02 -0.28348310777E+02 -0.10732813613E+03  0.11257886493E+03  0.47000000000E+01 0.  1.
         -5    1    3    3    0  502  0.24149306314E+02  0.20483280493E+01  0.70325035636E+01  0.25669646465E+02  0.47000000000E+01 0.  1.
          5    1    4    4  503    0  0.10748611410E+02  0.53472933733E+02 -0.26578604105E+03  0.27136543056E+03  0.47000000000E+01 0. -1.
         -5    1    4    4    0  503 -0.16760792810E+02 -0.27172951005E+02 -0.27269094391E+03  0.27459376237E+03  0.47000000000E+01 0.  1.
<mgrwt>
<rscale>  0 0.93855403E+02</rscale>
<asrwt>0</asrwt>
<pdfrwt beam="1">  1        1 0.10176772E+00 0.95149551E+02</pdfrwt>
<pdfrwt beam="2">  1       -1 0.34950066E-02 0.95149551E+02</pdfrwt>
<totfact> 0.86211608E+03</totfact>
</mgrwt>
</event>
<event>
 8    1  0.8174053E-004  0.1501907E+03  0.7546771E-02  0.1200972E+00
         -2   -1    0    0    0  501 -0.00000000000E+00  0.00000000000E+00  0.53145266422E+02  0.53145266422E+02  0.00000000000E+00 0.  1.
          2   -1    0    0  501    0  0.00000000000E+00 -0.00000000000E+00 -0.47193144692E+03  0.47193144692E+03  0.00000000000E+00 0. -1.
         23    2    1    2    0    0 -0.11303621040E+03 -0.26356349194E+02 -0.12193218927E+03  0.19345464394E+03  0.95317356638E+02 0.  0.
         23    2    1    2    0    0  0.11303621040E+03  0.26356349194E+02 -0.29685399123E+03  0.33162206940E+03  0.91537220853E+02 0.  0.
          5    1    4    4  502    0  0.71890403567E+02  0.23494148806E+02 -0.27389409410E+03  0.28418351454E+03  0.47000000000E+01 0. -1.
         -5    1    4    4    0  502  0.41145806837E+02  0.28622003874E+01 -0.22959897127E+02  0.47438554862E+02  0.47000000000E+01 0.  1.
          5    1    3    3  503    0 -0.32897488442E+02  0.19529941049E+02 -0.86017954821E+02  0.94259439288E+02  0.47000000000E+01 0. -1.
         -5    1    3    3    0  503 -0.80138721961E+02 -0.45886290243E+02 -0.35914234447E+02  0.99195204651E+02  0.47000000000E+01 0.  1.
<mgrwt>
<rscale>  0 0.14959460E+03</rscale>
<asrwt>0</asrwt>
<pdfrwt beam="1">  1        2 0.72604838E-01 0.15019068E+03</pdfrwt>
<pdfrwt beam="2">  1       -2 0.81761948E-02 0.15019068E+03</pdfrwt>
<totfact> 0.58645106E+03</totfact>
</mgrwt>
</event>
<event>
 8    1  0.8174053E-004  0.1081594E+03  0.7546771E-02  0.1264680E+00
          1   -1    0    0  501    0  0.00000000000E+00  0.00000000000E+00  0.44929546809E+03  0.44929546809E+03  0.00000000000E+00 0. -1.
         -1   -1    0    0    0  501 -0.00000000000E+00 -0.00000000000E+00 -0.33702708624E+02  0.33702708624E+02  0.00000000000E+00 0.  1.
         23    2    1    2    0    0 -0.37820404398E+02  0.44169542450E+02  0.32647360592E+03  0.34392364571E+03  0.91198285340E+02 0.  0.
         23    2    1    2    0    0  0.37820404398E+02 -0.44169542450E+02  0.89119153541E+02  0.13907453100E+03  0.89544235856E+02 0.  0.
          5    1    4    4  502    0  0.43049309833E+02  0.12265572681E+02  0.60506762803E+02  0.75411177522E+02  0.47000000000E+01 0. -1.
         -5    1    3    3    0  503 -0.38342040007E+02 -0.14066354770E+02  0.72774460799E+02  0.83583410513E+02  0.47000000000E+01 0.  1.
          5    1    3    3  503    0  0.52163560895E+00  0.58235897221E+02  0.25369914512E+03  0.26034023520E+03  0.47000000000E+01 0. -1.
         -5    1    4    4    0  502 -0.52289054359E+01 -0.56435115132E+02  0.28612390739E+02  0.63663353476E+02  0.47000000000E+01 0.  1.
<mgrwt>
<rscale>  0 0.10780998E+03</rscale>
<asrwt>0</asrwt>
<pdfrwt beam="1">  1        1 0.69122376E-01 0.10815941E+03</pdfrwt>
<pdfrwt beam="2">  1       -1 0.51850324E-02 0.10815941E+03</pdfrwt>
<totfact> 0.81448843E+03</totfact>
</mgrwt>
</event>
<event>
 8    1  0.8174053E-004  0.1446615E+03  0.7546771E-02  0.1208208E+00
          2   -1    0    0  501    0  0.00000000000E+00  0.00000000000E+00  0.31973204918E+03  0.31973204918E+03  0.00000000000E+00 0. -1.
         -2   -1    0    0    0  501 -0.00000000000E+00 -0.00000000000E+00 -0.80228639359E+02  0.80228639359E+02  0.00000000000E+00 0.  1.
         23    2    1    2    0    0  0.69965904841E+02  0.84467486602E+02  0.30985837548E+02  0.14794278346E+03  0.94323702842E+02 0.  0.
         23    2    1    2    0    0 -0.69965904841E+02 -0.84467486602E+02  0.20851757227E+03  0.25201790507E+03  0.89462072399E+02 0.  0.
          5    1    3    3  502    0  0.41575011240E+02 -0.32841480277E+01 -0.15265188539E+02  0.44658517317E+02  0.47000000000E+01 0. -1.
         -5    1    3    3    0  502  0.28390893601E+02  0.87751634630E+02  0.46251026087E+02  0.10328426615E+03  0.47000000000E+01 0.  1.
          5    1    4    4  503    0 -0.42299199597E+02  0.66637874256E+01  0.90998736305E+02  0.10068012892E+03  0.47000000000E+01 0. -1.
         -5    1    4    4    0  503 -0.27666705244E+02 -0.91131274028E+02  0.11751883596E+03  0.15133777615E+03  0.47000000000E+01 0.  1.
<mgrwt>
<rscale>  0 0.14387461E+03</rscale>
<asrwt>0</asrwt>
<pdfrwt beam="1">  1        2 0.49189545E-01 0.14466148E+03</pdfrwt>
<pdfrwt beam="2">  1       -2 0.12342868E-01 0.14466148E+03</pdfrwt>
<totfact> 0.46440602E+03</totfact>
</mgrwt>
</event>
<event>
 8    1  0.8174053E-004  0.1139043E+03  0.7546771E-02  0.1253935E+00
          1   -1    0    0  501    0  0.00000000000E+00  0.00000000000E+00  0.10584255993E+04  0.10584255993E+04  0.00000000000E+00 0. -1.
         -1   -1    0    0    0  501 -0.00000000000E+00 -0.00000000000E+00 -0.12885044466E+02  0.12885044466E+02  0.00000000000E+00 0.  1.
         23    2    1    2    0    0  0.26509620583E+02  0.61329659752E+02  0.39310872053E+03  0.40901049892E+03  0.91055120212E+02 0.  0.
         23    2    1    2    0    0 -0.26509620583E+02 -0.61329659752E+02  0.65243183430E+03  0.66230014485E+03  0.92250183242E+02 0.  0.
          5    1    4    4  502    0  0.12147368979E+02  0.19208143278E+02  0.17815061925E+03  0.17965590577E+03  0.47000000000E+01 0. -1.
         -5    1    4    4    0  502 -0.38656989562E+02 -0.80537803031E+02  0.47428121506E+03  0.48264423908E+03  0.47000000000E+01 0.  1.
          5    1    3    3  503    0  0.55986676568E+02  0.52017024416E+02  0.21614483176E+03  0.22930537952E+03  0.47000000000E+01 0. -1.
         -5    1    3    3    0  503 -0.29477055985E+02  0.93126353359E+01  0.17696388877E+03  0.17970511939E+03  0.47000000000E+01 0.  1.
<mgrwt>
<rscale>  0 0.11366208E+03</rscale>
<asrwt>0</asrwt>
<pdfrwt beam="1">  1        1 0.16283464E+00 0.11390427E+03</pdfrwt>
<pdfrwt beam="2">  1       -1 0.19823154E-02 0.11390427E+03</pdfrwt>
<totfact> 0.96123093E+03</totfact>
</mgrwt>
</event>
<event>
 8    1  0.8174053E-004  0.9387107E+02  0.7546771E-02  0.1293877E+00
         -3   -1    0    0    0  501 -0.00000000000E+00  0.00000000000E+00  0.46295847313E+02  0.46295847313E+02  0.00000000000E+00 0.  1.
          3   -1    0    0  501    0  0.00000000000E+00 -0.00000000000E+00 -0.19004792290E+03  0.19004792290E+03  0.00000000000E+00 0. -1.
         23    2    1    2    0    0 -0.16042791689E+02  0.13545587457E+02 -0.75613241728E+02  0.12034946773E+03  0.91245701013E+02 0.  0.
         23    2    1    2    0    0  0.16042791689E+02 -0.13545587457E+02 -0.68138833860E+02  0.11599430248E+03  0.91492750666E+02 0.  0.
          5    1    4    4  502    0 -0.14709267205E+02  0.22510932138E+02  0.59322192546E+01  0.27935386747E+02  0.47000000000E+01 0. -1.
         -5    1    4    4    0  502  0.30752058893E+02 -0.36056519595E+02 -0.74071053115E+02  0.88058915738E+02  0.47000000000E+01 0.  1.
          5    1    3    3  503    0 -0.45453217265E+02  0.34295511120E+02 -0.50009705883E+02  0.75929162548E+02  0.47000000000E+01 0. -1.
         -5    1    3    3    0  503  0.29410425576E+02 -0.20749923663E+02 -0.25603535844E+02  0.44420305181E+02  0.47000000000E+01 0.  1.
<mgrwt>
<rscale>  0 0.93810817E+02</rscale>
<asrwt>0</asrwt>
<pdfrwt beam="1">  1        3 0.29238142E-01 0.93871069E+02</pdfrwt>
<pdfrwt beam="2">  1       -3 0.71224382E-02 0.93871069E+02</pdfrwt>
<totfact> 0.30844510E+03</totfact>
</mgrwt>
</event>
<event>
 8    1  0.8174053E-004  0.9392245E+02  0.7546771E-02  0.1293972E+00
         -1   -1    0    0    0  501 -0.00000000000E+00  0.00000000000E+00  0.10474863511E+02  0.10474863511E+02  0.00000000000E+00 0.  1.
          1   -1    0    0  501    0  0.00000000000E+00 -0.00000000000E+00 -0.89069185764E+03  0.89069185764E+03  0.00000000000E+00 0. -1.
         23    2    1    2    0    0  0.91492226116E+01 -0.17083604516E+02 -0.54971234241E+03  0.55757575696E+03  0.91277092071E+02 0.  0.
         23    2    1    2    0    0 -0.91492226116E+01  0.17083604516E+02 -0.33050465173E+03  0.34359096419E+03  0.91901403938E+02 0.  0.
          5    1    4    4  502    0 -0.38387229189E+02 -0.20520590207E+01 -0.64306557483E+02  0.75068060094E+02  0.47000000000E+01 0.  1.
         -5    1    3    3    0  503 -0.35225645486E+01  0.29842515970E+02 -0.84495595461E+02  0.89803005923E+02  0.47000000000E+01 0.  1.
          5    1    3    3  503    0  0.12671787160E+02 -0.46926120487E+02 -0.46521674695E+03  0.46777275104E+03  0.47000000000E+01 0. -1.
         -5    1    4    4    0  502  0.29238006577E+02  0.19135663537E+02 -0.26619809424E+03  0.26852290410E+03  0.47000000000E+01 0. -1.
<mgrwt>
<rscale>  0 0.93769375E+02</rscale>
<asrwt>0</asrwt>
<pdfrwt beam="1">  1        1 0.13702951E+00 0.93922446E+02</pdfrwt>
<pdfrwt beam="2">  1       -1 0.16115176E-02 0.93922446E+02</pdfrwt>
<totfact> 0.16915353E+04</totfact>
</mgrwt>
</event>
<event>
 8    1  0.8174053E-004  0.1440574E+03  0.7546771E-02  0.1208092E+00
          2   -1    0    0  501    0  0.00000000000E+00  0.00000000000E+00  0.50560957060E+03  0.50560957060E+03  0.00000000000E+00 0. -1.
         -2   -1    0    0    0  501 -0.00000000000E+00 -0.00000000000E+00 -0.54692484957E+02  0.54692484957E+02  0.00000000000E+00 0.  1.
         23    2    1    2    0    0  0.98994715884E+02 -0.48749765297E+02  0.85189639596E+02  0.16736130856E+03  0.92606908591E+02 0.  0.
         23    2    1    2    0    0 -0.98994715884E+02  0.48749765297E+02  0.36572744605E+03  0.39294074700E+03  0.92029193577E+02 0.  0.
          5    1    4    4  502    0 -0.44549785121E+02  0.11216684912E+02  0.28388336333E+03  0.28761493589E+03  0.47000000000E+01 0. -1.
         -5    1    4    4    0  502 -0.54444930762E+02  0.37533080384E+02  0.81844082722E+02  0.10532581111E+03  0.47000000000E+01 0.  1.
          5    1    3    3  503    0  0.31422064164E+02 -0.61598502019E+02  0.66212198677E+02  0.95853361032E+02  0.47000000000E+01 0. -1.
         -5    1    3    3    0  503  0.67572651720E+02  0.12848736722E+02  0.18977440918E+02  0.71507947527E+02  0.47000000000E+01 0.  1.
<mgrwt>
<rscale>  0 0.14396463E+03</rscale>
<asrwt>0</asrwt>
<pdfrwt beam="1">  1        2 0.77786084E-01 0.14405739E+03</pdfrwt>
<pdfrwt beam="2">  1       -2 0.84142288E-02 0.14405739E+03</pdfrwt>
<totfact> 0.51890981E+03</totfact>
</mgrwt>
</event>
<event>
 8    1  0.8174053E-004  0.1174709E+03  0.7546771E-02  0.1249173E+00
         -3   -1    0    0    0  501 -0.00000000000E+00  0.00000000000E+00  0.15793278447E+03  0.15793278447E+03  0.00000000000E+00 0.  1.
          3   -1    0    0  501    0  0.00000000000E+00 -0.00000000000E+00 -0.25299878293E+03  0.25299878293E+03  0.00000000000E+00 0. -1.
         23    2    1    2    0    0  0.65322810521E+02  0.21695845907E+02 -0.21504241539E+03  0.24302158293E+03  0.89880309581E+02 0.  0.
         23    2    1    2    0    0 -0.65322810521E+02 -0.21695845907E+02  0.11997641692E+03  0.16790998447E+03  0.95192662343E+02 0.  0.
          5    1    4    4  502    0  0.91159764817E+01  0.24372973102E+02  0.12601821156E+02  0.29292298331E+02  0.47000000000E+01 0. -1.
         -5    1    4    4    0  502 -0.74438787003E+02 -0.46068819009E+02  0.10737459577E+03  0.13861768614E+03  0.47000000000E+01 0.  1.
          5    1    3    3  503    0  0.66192731808E+02 -0.20896758333E+02 -0.11890574207E+03  0.13776363000E+03  0.47000000000E+01 0. -1.
         -5    1    3    3    0  503 -0.86992128706E+00  0.42592604239E+02 -0.96136673319E+02  0.10525795293E+03  0.47000000000E+01 0.  1.
<mgrwt>
<rscale>  0 0.11639061E+03</rscale>
<asrwt>0</asrwt>
<pdfrwt beam="1">  1        3 0.38922889E-01 0.11747094E+03</pdfrwt>
<pdfrwt beam="2">  1       -3 0.24297352E-01 0.11747094E+03</pdfrwt>
<totfact> 0.23734421E+02</totfact>
</mgrwt>
</event>
<event>
 8    1  0.8174053E-004  0.9676845E+02  0.7546771E-02  0.1287258E+00
          2   -1    0    0  501    0  0.00000000000E+00  0.00000000000E+00  0.16772918541E+03  0.16772918541E+03  0.00000000000E+00 0. -1.
         -2   -1    0    0    0  501 -0.00000000000E+00 -0.00000000000E+00 -0.79874428115E+02  0.79874428115E+02  0.00000000000E+00 0.  1.
         23    2    1    2    0    0 -0.32257406720E+02 -0.86749168511E+01 -0.24028178454E+02  0.99678210192E+02  0.90788753469E+02 0.  0.
         23    2    1    2    0    0  0.32257406720E+02  0.86749168511E+01  0.11188293574E+03  0.14792540333E+03  0.90820367587E+02 0.  0.
          5    1    3    3  502    0  0.17199968196E+02 -0.10975056003E+02  0.23089629879E+02  0.31169083531E+02  0.47000000000E+01 0. -1.
         -5    1    4    4    0  503 -0.14402732498E+02 -0.31205827295E+02  0.47836372929E+02  0.59090193226E+02  0.47000000000E+01 0.  1.
          5    1    4    4  503    0  0.46660139218E+02  0.39880744146E+02  0.64046562815E+02  0.88835210103E+02  0.47000000000E+01 0. -1.
         -5    1    3    3    0  502 -0.49457374916E+02  0.23001391523E+01 -0.47117808333E+02  0.68509126660E+02  0.47000000000E+01 0.  1.
<mgrwt>
<rscale>  0 0.96761035E+02</rscale>
<asrwt>0</asrwt>
<pdfrwt beam="1">  1        2 0.25804490E-01 0.96768454E+02</pdfrwt>
<pdfrwt beam="2">  1       -2 0.12288374E-01 0.96768454E+02</pdfrwt>
<totfact> 0.90580860E+03</totfact>
</mgrwt>
</event>
<event>
 8    1  0.8174053E-004  0.9731751E+02  0.7546771E-02  0.1286709E+00
         -1   -1    0    0    0  501 -0.00000000000E+00  0.00000000000E+00  0.19649975004E+03  0.19649975004E+03  0.00000000000E+00 0.  1.
          1   -1    0    0  501    0  0.00000000000E+00 -0.00000000000E+00 -0.51812751148E+02  0.51812751148E+02  0.00000000000E+00 0. -1.
         23    2    1    2    0    0  0.18794001772E+02  0.25270385683E+02  0.10734487979E+03  0.14407655545E+03  0.90792751468E+02 0.  0.
         23    2    1    2    0    0 -0.18794001772E+02 -0.25270385683E+02  0.37342119107E+02  0.10423594574E+03  0.92080897201E+02 0.  0.
          5    1    3    3  502    0  0.19847976598E+02 -0.30288450097E+02  0.23655489964E+02  0.43508672581E+02  0.47000000000E+01 0. -1.
         -5    1    3    3    0  502 -0.10539748256E+01  0.55558835780E+02  0.83689389821E+02  0.10056788287E+03  0.47000000000E+01 0.  1.
          5    1    4    4  503    0  0.36652435263E+02 -0.14516492192E+02  0.83267815418E+01  0.40565439072E+02  0.47000000000E+01 0. -1.
         -5    1    4    4    0  503 -0.55446437035E+02 -0.10753893491E+02  0.29015337565E+02  0.63670506666E+02  0.47000000000E+01 0.  1.
<mgrwt>
<rscale>  0 0.97011593E+02</rscale>
<asrwt>0</asrwt>
<pdfrwt beam="1">  1        1 0.79711926E-02 0.97317514E+02</pdfrwt>
<pdfrwt beam="2">  1       -1 0.30230730E-01 0.97317514E+02</pdfrwt>
<totfact> 0.80831050E+03</totfact>
</mgrwt>
</event>
<event>
 8    1  0.8174053E-004  0.1249656E+03  0.7546771E-02  0.1236490E+00
         -1   -1    0    0    0  501 -0.00000000000E+00  0.00000000000E+00  0.71322671613E+02  0.71322671613E+02  0.00000000000E+00 0.  1.
          1   -1    0    0  501    0  0.00000000000E+00 -0.00000000000E+00 -0.22337859554E+03  0.22337859554E+03  0.00000000000E+00 0. -1.
         23    2    1    2    0    0  0.47907581942E+02 -0.63659000841E+02 -0.43192625352E+02  0.12896767549E+03  0.91757580832E+02 0.  0.
         23    2    1    2    0    0 -0.47907581942E+02  0.63659000841E+02 -0.10886329857E+03  0.16573359166E+03  0.96274611575E+02 0.  0.
          5    1    4    4  502    0 -0.51999684159E+02  0.31294354099E+02 -0.11690859078E+03  0.13180672346E+03  0.47000000000E+01 0. -1.
         -5    1    4    4    0  502  0.40921022168E+01  0.32364646742E+02  0.80452922083E+01  0.33926868202E+02  0.47000000000E+01 0.  1.
          5    1    3    3  503    0  0.23691019774E+02  0.21290047150E+02 -0.18475805028E+02  0.37121097735E+02  0.47000000000E+01 0. -1.
         -5    1    3    3    0  503  0.24216562168E+02 -0.84949047991E+02 -0.24716820324E+02  0.91846577752E+02  0.47000000000E+01 0.  1.
<mgrwt>
<rscale>  0 0.12409511E+03</rscale>
<asrwt>0</asrwt>
<pdfrwt beam="1">  1        1 0.34365937E-01 0.12496562E+03</pdfrwt>
<pdfrwt beam="2">  1       -1 0.10972719E-01 0.12496562E+03</pdfrwt>
<totfact> 0.63601720E+03</totfact>
</mgrwt>
</event>
<event>
 8    1  0.8174053E-004  0.1040717E+03  0.7546771E-02  0.1272357E+00
         -1   -1    0    0    0  501 -0.00000000000E+00  0.00000000000E+00  0.80173515959E+02  0.80173515959E+02  0.00000000000E+00 0.  1.
          1   -1    0    0  501    0  0.00000000000E+00 -0.00000000000E+00 -0.58302815984E+03  0.58302815984E+03  0.00000000000E+00 0. -1.
         23    2    1    2    0    0  0.43954562945E+01  0.47981094885E+02 -0.54263668141E+03  0.55252645463E+03  0.92246460878E+02 0.  0.
         23    2    1    2    0    0 -0.43954562945E+01 -0.47981094885E+02  0.39782037530E+02  0.11067522117E+03  0.91350361628E+02 0.  0.
          5    1    3    3  502    0  0.21736875819E+02  0.69752659783E+02 -0.32995945629E+03  0.33798410926E+03  0.47000000000E+01 0. -1.
         -5    1    4    4    0  503  0.33213732096E+02  0.49683713468E+01  0.29106731422E+02  0.44689243981E+02  0.47000000000E+01 0.  1.
          5    1    4    4  503    0 -0.37609188390E+02 -0.52949466232E+02  0.10675306108E+02  0.65985977193E+02  0.47000000000E+01 0. -1.
         -5    1    3    3    0  502 -0.17341419524E+02 -0.21771564898E+02 -0.21267722512E+03  0.21454234536E+03  0.47000000000E+01 0.  1.
<mgrwt>
<rscale>  0 0.10387275E+03</rscale>
<asrwt>0</asrwt>
<pdfrwt beam="1">  1        1 0.89696642E-01 0.10407168E+03</pdfrwt>
<pdfrwt beam="2">  1       -1 0.12334387E-01 0.10407168E+03</pdfrwt>
<totfact> 0.15786899E+03</totfact>
</mgrwt>
</event>
<event>
 8    1  0.8174053E-004  0.9848817E+02  0.7546771E-02  0.1284425E+00
          1   -1    0    0  501    0  0.00000000000E+00  0.00000000000E+00  0.37884242758E+02  0.37884242758E+02  0.00000000000E+00 0. -1.
         -1   -1    0    0    0  501 -0.00000000000E+00 -0.00000000000E+00 -0.51860842759E+03  0.51860842759E+03  0.00000000000E+00 0.  1.
         23    2    1    2    0    0  0.32756235883E+02 -0.14239192799E+01 -0.41747531975E+02  0.10697091116E+03  0.92870452100E+02 0.  0.
         23    2    1    2    0    0 -0.32756235883E+02  0.14239192799E+01 -0.43897665286E+03  0.44952175919E+03  0.91073111802E+02 0.  0.
          5    1    3    3  502    0  0.54511246872E+02  0.22389241248E+02 -0.73325859074E+01  0.59570218863E+02  0.47000000000E+01 0. -1.
         -5    1    3    3    0  502 -0.21755010990E+02 -0.23813160528E+02 -0.34414946067E+02  0.47400692298E+02  0.47000000000E+01 0.  1.
          5    1    4    4  503    0 -0.17717358327E+02  0.45403889176E+02 -0.25851240648E+03  0.26310867003E+03  0.47000000000E+01 0. -1.
         -5    1    4    4    0  503 -0.15038877556E+02 -0.43979969896E+02 -0.18046424638E+03  0.18641308916E+03  0.47000000000E+01 0.  1.
<mgrwt>
<rscale>  0 0.98062170E+02</rscale>
<asrwt>0</asrwt>
<pdfrwt beam="1">  1        1 0.58283454E-02 0.98488169E+02</pdfrwt>
<pdfrwt beam="2">  1       -1 0.79785907E-01 0.98488169E+02</pdfrwt>
<totfact> 0.21059682E+03</totfact>
</mgrwt>
</event>
<event>
 8    1  0.8174053E-004  0.1102246E+03  0.7546771E-02  0.1262144E+00
         -1   -1    0    0    0  501 -0.00000000000E+00  0.00000000000E+00  0.27522562964E+02  0.27522562964E+02  0.00000000000E+00 0.  1.
          1   -1    0    0  501    0  0.00000000000E+00 -0.00000000000E+00 -0.53864869077E+03  0.53864869077E+03  0.00000000000E+00 0. -1.
         23    2    1    2    0    0 -0.27000591316E+02 -0.43796334076E+02 -0.12145018465E+03  0.16120605294E+03  0.92682756453E+02 0.  0.
         23    2    1    2    0    0  0.27000591316E+02  0.43796334076E+02 -0.38967594316E+03  0.40496520079E+03  0.97479856217E+02 0.  0.
          5    1    4    4  502    0  0.46238875457E+02  0.13506959324E+02 -0.82382015104E+02  0.95547673788E+02  0.47000000000E+01 0. -1.
         -5    1    4    4    0  502 -0.19238284140E+02  0.30289374752E+02 -0.30729392806E+03  0.30941752701E+03  0.47000000000E+01 0.  1.
          5    1    3    3  503    0 -0.18399038306E+02  0.10375282476E+02 -0.99687814832E+02  0.10200941880E+03  0.47000000000E+01 0. -1.
         -5    1    3    3    0  503 -0.86015530103E+01 -0.54171616553E+02 -0.21762369816E+02  0.59196634146E+02  0.47000000000E+01 0.  1.
<mgrwt>
<rscale>  0 0.10915447E+03</rscale>
<asrwt>0</asrwt>
<pdfrwt beam="1">  1        1 0.82869033E-01 0.11022465E+03</pdfrwt>
<pdfrwt beam="2">  1       -1 0.42342403E-02 0.11022465E+03</pdfrwt>
<totfact> 0.86882284E+03</totfact>
</mgrwt>
</event>
<event>
 8    1  0.8174053E-004  0.9467412E+02  0.7546771E-02  0.1293015E+00
          2   -1    0    0  501    0  0.00000000000E+00  0.00000000000E+00  0.29878092802E+03  0.29878092802E+03  0.00000000000E+00 0. -1.
         -2   -1    0    0    0  501 -0.00000000000E+00 -0.00000000000E+00 -0.18487689850E+03  0.18487689850E+03  0.00000000000E+00 0.  1.
         23    2    1    2    0    0  0.14503351742E+02  0.13394688045E+02  0.27863172776E+03  0.29366202719E+03  0.90619984651E+02 0.  0.
         23    2    1    2    0    0 -0.14503351742E+02 -0.13394688045E+02 -0.16472769824E+03  0.18999579933E+03  0.92592787609E+02 0.  0.
          5    1    3    3  502    0  0.24120662364E+02 -0.13511073086E+02  0.25429424775E+03  0.25583590422E+03  0.47000000000E+01 0. -1.
         -5    1    4    4    0  503  0.34535537778E+02  0.12562151232E+02 -0.85252159956E+02  0.92954460842E+02  0.47000000000E+01 0.  1.
          5    1    4    4  503    0 -0.49038889520E+02 -0.25956839278E+02 -0.79475538280E+02  0.97041338488E+02  0.47000000000E+01 0. -1.
         -5    1    3    3    0  502 -0.96173106216E+01  0.26905761131E+02  0.24337480009E+02  0.37826122968E+02  0.47000000000E+01 0.  1.
<mgrwt>
<rscale>  0 0.94188264E+02</rscale>
<asrwt>0</asrwt>
<pdfrwt beam="1">  1        2 0.45966297E-01 0.94674121E+02</pdfrwt>
<pdfrwt beam="2">  1       -2 0.28442600E-01 0.94674121E+02</pdfrwt>
<totfact> 0.12085479E+03</totfact>
</mgrwt>
</event>
<event>
 8    1  0.8174053E-004  0.1263665E+03  0.7546771E-02  0.1234625E+00
          3   -1    0    0  501    0  0.00000000000E+00  0.00000000000E+00  0.74680485222E+03  0.74680485222E+03  0.00000000000E+00 0. -1.
         -3   -1    0    0    0  501 -0.00000000000E+00 -0.00000000000E+00 -0.21752593072E+02  0.21752593072E+02  0.00000000000E+00 0.  1.
         23    2    1    2    0    0 -0.28110266967E+02 -0.76204758420E+02  0.28255798942E+03  0.30952786333E+03  0.96804589151E+02 0.  0.
         23    2    1    2    0    0  0.28110266967E+02  0.76204758420E+02  0.44249426973E+03  0.45902958196E+03  0.91157150324E+02 0.  0.
          5    1    4    4  502    0  0.44014429483E+02  0.29159865425E+02  0.34954421623E+03  0.35354040342E+03  0.47000000000E+01 0. -1.
         -5    1    4    4    0  502 -0.15904162516E+02  0.47044892995E+02  0.92950053505E+02  0.10548917854E+03  0.47000000000E+01 0.  1.
          5    1    3    3  503    0 -0.62729571694E+02 -0.35447162509E+02  0.14859025240E+03  0.16520488371E+03  0.47000000000E+01 0.  1.
         -5    1    3    3    0  503  0.34619304727E+02 -0.40757595911E+02  0.13396773702E+03  0.14432297962E+03  0.47000000000E+01 0.  1.
<mgrwt>
<rscale>  0 0.12528456E+03</rscale>
<asrwt>0</asrwt>
<pdfrwt beam="1">  1        3 0.11489303E+00 0.12636645E+03</pdfrwt>
<pdfrwt beam="2">  1       -3 0.33465534E-02 0.12636645E+03</pdfrwt>
<totfact> 0.64712910E+02</totfact>
</mgrwt>
</event>
<event>
 8    1  0.8174053E-004  0.9474274E+02  0.7546771E-02  0.1292088E+00
         -1   -1    0    0    0  501 -0.00000000000E+00  0.00000000000E+00  0.49819918838E+02  0.49819918838E+02  0.00000000000E+00 0.  1.
          1   -1    0    0  501    0  0.00000000000E+00 -0.00000000000E+00 -0.35536987558E+03  0.35536987558E+03  0.00000000000E+00 0. -1.
         23    2    1    2    0    0  0.27004888417E+01  0.25296681084E+02 -0.10313835987E+02  0.95302479807E+02  0.91263205789E+02 0.  0.
         23    2    1    2    0    0 -0.27004888417E+01 -0.25296681084E+02 -0.29523612076E+03  0.30988731461E+03  0.90656307249E+02 0.  0.
          5    1    3    3  502    0  0.30566383060E+02  0.44078245641E+02 -0.23694711959E+02  0.58827926081E+02  0.47000000000E+01 0. -1.
         -5    1    3    3    0  502 -0.27865894218E+02 -0.18781564557E+02  0.13380875972E+02  0.36474553727E+02  0.47000000000E+01 0.  1.
          5    1    4    4  503    0  0.34369000843E+02 -0.40760990901E+02 -0.15822262135E+03  0.16703045981E+03  0.47000000000E+01 0. -1.
         -5    1    4    4    0  503 -0.37069489684E+02  0.15464309817E+02 -0.13701349940E+03  0.14285685480E+03  0.47000000000E+01 0.  1.
<mgrwt>
<rscale>  0 0.94596287E+02</rscale>
<asrwt>0</asrwt>
<pdfrwt beam="1">  1        1 0.54672290E-01 0.94742743E+02</pdfrwt>
<pdfrwt beam="2">  1       -1 0.76646027E-02 0.94742743E+02</pdfrwt>
<totfact> 0.60612835E+03</totfact>
</mgrwt>
</event>
<event>
 8    1  0.8174053E-004  0.1144469E+03  0.7546771E-02  0.1253418E+00
         -1   -1    0    0    0  501 -0.00000000000E+00  0.00000000000E+00  0.59269774906E+02  0.59269774906E+02  0.00000000000E+00 0.  1.
          1   -1    0    0  501    0  0.00000000000E+00 -0.00000000000E+00 -0.23488574211E+03  0.23488574211E+03  0.00000000000E+00 0. -1.
         23    2    1    2    0    0 -0.64718997005E+02  0.13792809265E+02 -0.12743389209E+03  0.16997977614E+03  0.90966682264E+02 0.  0.
         23    2    1    2    0    0  0.64718997005E+02 -0.13792809265E+02 -0.48182075113E+02  0.12417574088E+03  0.93377256864E+02 0.  0.
          5    1    3    3  502    0 -0.65063420231E+01  0.36648820331E+02 -0.13401550424E+02  0.39839177601E+02  0.47000000000E+01 0. -1.
         -5    1    4    4    0  503 -0.94793856925E+00  0.29536346026E+02  0.31974000834E+01  0.30093316390E+02  0.47000000000E+01 0.  1.
          5    1    4    4  503    0  0.65666935575E+02 -0.43329155290E+02 -0.51379475197E+02  0.94082424487E+02  0.47000000000E+01 0. -1.
         -5    1    3    3    0  502 -0.58212654982E+02 -0.22856011066E+02 -0.11403234167E+03  0.13014059854E+03  0.47000000000E+01 0.  1.
<mgrwt>
<rscale>  0 0.11395423E+03</rscale>
<asrwt>0</asrwt>
<pdfrwt beam="1">  1        1 0.36136268E-01 0.11444694E+03</pdfrwt>
<pdfrwt beam="2">  1       -1 0.91184268E-02 0.11444694E+03</pdfrwt>
<totfact> 0.78729653E+03</totfact>
</mgrwt>
</event>
<event>
 8    1  0.8174053E-004  0.9339648E+02  0.7546771E-02  0.1296626E+00
          4   -1    0    0  501    0  0.00000000000E+00  0.00000000000E+00  0.28930604769E+03  0.28930604769E+03  0.00000000000E+00 0. -1.
         -4   -1    0    0    0  501 -0.00000000000E+00 -0.00000000000E+00 -0.44406117258E+02  0.44406117258E+02  0.00000000000E+00 0.  1.
         23    2    1    2    0    0  0.11693482345E+02  0.16020549652E+02  0.23381672167E+02  0.93309917229E+02  0.88128556776E+02 0.  0.
         23    2    1    2    0    0 -0.11693482345E+02 -0.16020549652E+02  0.22151825826E+03  0.24040224772E+03  0.91266129662E+02 0.  0.
          5    1    4    4  502    0  0.48064209941E+01 -0.37958731081E+02  0.20375503082E+03  0.20736964468E+03  0.47000000000E+01 0. -1.
         -5    1    4    4    0  502 -0.16499903339E+02  0.21938181428E+02  0.17763227441E+02  0.33032603041E+02  0.47000000000E+01 0.  1.
          5    1    3    3  503    0  0.17114906890E+01 -0.29839473244E+02  0.33424088439E+02  0.45084177400E+02  0.47000000000E+01 0. -1.
         -5    1    3    3    0  503  0.99819916558E+01  0.45860022896E+02 -0.10042416272E+02  0.48225739829E+02  0.47000000000E+01 0.  1.
<mgrwt>
<rscale>  0 0.92620985E+02</rscale>
<asrwt>0</asrwt>
<pdfrwt beam="1">  1        4 0.44508622E-01 0.93396477E+02</pdfrwt>
<pdfrwt beam="2">  1       -4 0.68317105E-02 0.93396477E+02</pdfrwt>
<totfact> 0.10680438E+03</totfact>
</mgrwt>
</event>
<event>
 8    1  0.8174053E-004  0.1286632E+03  0.7546771E-02  0.1229489E+00
         -2   -1    0    0    0  501 -0.00000000000E+00  0.00000000000E+00  0.61109392185E+03  0.61109392185E+03  0.00000000000E+00 0.  1.
          2   -1    0    0  501    0  0.00000000000E+00 -0.00000000000E+00 -0.57453537245E+03  0.57453537245E+03  0.00000000000E+00 0. -1.
         23    2    1    2    0    0  0.36452417245E+02  0.83083260634E+02  0.59695986667E+03  0.61064767803E+03  0.91092795252E+02 0.  0.
         23    2    1    2    0    0 -0.36452417245E+02 -0.83083260634E+02 -0.56040131727E+03  0.57498161626E+03  0.91228371237E+02 0.  0.
          5    1    3    3  502    0  0.12393234020E+02 -0.18799735538E+02  0.13555573300E+03  0.13749352369E+03  0.47000000000E+01 0. -1.
         -5    1    4    4    0  503  0.20903620955E+02 -0.64628557936E+02 -0.31027129465E+03  0.31765418013E+03  0.47000000000E+01 0.  1.
          5    1    4    4  503    0 -0.57356038200E+02 -0.18454702698E+02 -0.25013002262E+03  0.25732743614E+03  0.47000000000E+01 0. -1.
         -5    1    3    3    0  502  0.24059183225E+02  0.10188299617E+03  0.46140413367E+03  0.47315415434E+03  0.47000000000E+01 0.  1.
<mgrwt>
<rscale>  0 0.12863918E+03</rscale>
<asrwt>0</asrwt>
<pdfrwt beam="1">  1        2 0.88390057E-01 0.12866321E+03</pdfrwt>
<pdfrwt beam="2">  1       -2 0.94014450E-01 0.12866321E+03</pdfrwt>
<totfact> 0.55142697E+01</totfact>
</mgrwt>
</event>
<event>
 8    1  0.8174053E-004  0.9630839E+02  0.7546771E-02  0.1288345E+00
          1   -1    0    0  501    0  0.00000000000E+00  0.00000000000E+00  0.44819091679E+03  0.44819091679E+03  0.00000000000E+00 0. -1.
         -1   -1    0    0    0  501 -0.00000000000E+00 -0.00000000000E+00 -0.20661264359E+02  0.20661264359E+02  0.00000000000E+00 0.  1.
         23    2    1    2    0    0  0.21195716814E+01  0.31793960962E+02  0.21550066335E+03  0.23604203246E+03  0.90884303621E+02 0.  0.
         23    2    1    2    0    0 -0.21195716814E+01 -0.31793960962E+02  0.21202898908E+03  0.23281014869E+03  0.90713420095E+02 0.  0.
          5    1    3    3  502    0 -0.45316251380E+01  0.62828700821E+02  0.12564796755E+03  0.14063243944E+03  0.47000000000E+01 0. -1.
         -5    1    4    4    0  503  0.90807923176E+01 -0.49947115822E+02  0.57924620794E+02  0.77165580813E+02  0.47000000000E+01 0.  1.
          5    1    4    4  503    0 -0.11200363999E+02  0.18153154860E+02  0.15410436828E+03  0.15564456788E+03  0.47000000000E+01 0. -1.
         -5    1    3    3    0  502  0.66511968193E+01 -0.31034739859E+02  0.89852695808E+02  0.95409593025E+02  0.47000000000E+01 0.  1.
<mgrwt>
<rscale>  0 0.96268050E+02</rscale>
<asrwt>0</asrwt>
<pdfrwt beam="1">  1        1 0.68952441E-01 0.96308386E+02</pdfrwt>
<pdfrwt beam="2">  1       -1 0.31786564E-02 0.96308386E+02</pdfrwt>
<totfact> 0.16514237E+04</totfact>
</mgrwt>
</event>
<event>
 8    1  0.8174053E-004  0.9362794E+02  0.7546771E-02  0.1294495E+00
         -1   -1    0    0    0  501 -0.00000000000E+00  0.00000000000E+00  0.11928429216E+03  0.11928429216E+03  0.00000000000E+00 0.  1.
          1   -1    0    0  501    0  0.00000000000E+00 -0.00000000000E+00 -0.97599696456E+02  0.97599696456E+02  0.00000000000E+00 0. -1.
         23    2    1    2    0    0  0.19308616041E+02  0.66160014495E+01  0.65056954657E+02  0.11401139988E+03  0.91376133778E+02 0.  0.
         23    2    1    2    0    0 -0.19308616041E+02 -0.66160014495E+01 -0.43372358951E+02  0.10287258874E+03  0.91022051530E+02 0.  0.
          5    1    3    3  502    0  0.38981539395E+02 -0.35150622639E+01  0.78396212230E+02  0.87749485288E+02  0.47000000000E+01 0. -1.
         -5    1    3    3    0  502 -0.19672923355E+02  0.10131063713E+02 -0.13339257573E+02  0.26261914589E+02  0.47000000000E+01 0.  1.
          5    1    4    4  503    0  0.29320124069E+02  0.61184106076E+01 -0.42714530941E+02  0.52380585881E+02  0.47000000000E+01 0. -1.
         -5    1    4    4    0  503 -0.48628740110E+02 -0.12734412057E+02 -0.65782800987E+00  0.50492002860E+02  0.47000000000E+01 0.  1.
<mgrwt>
<rscale>  0 0.93541441E+02</rscale>
<asrwt>0</asrwt>
<pdfrwt beam="1">  1        1 0.15015338E-01 0.93627944E+02</pdfrwt>
<pdfrwt beam="2">  1       -1 0.18351430E-01 0.93627944E+02</pdfrwt>
<totfact> 0.79102336E+03</totfact>
</mgrwt>
</event>
<event>
 8    1  0.8174053E-004  0.9578072E+02  0.7546771E-02  0.1290792E+00
         -2   -1    0    0    0  501 -0.00000000000E+00  0.00000000000E+00  0.14744632767E+03  0.14744632767E+03  0.00000000000E+00 0.  1.
          2   -1    0    0  501    0  0.00000000000E+00 -0.00000000000E+00 -0.58789138748E+03  0.58789138748E+03  0.00000000000E+00 0. -1.
         23    2    1    2    0    0 -0.12845269131E+02  0.13000483748E+02  0.12766859199E+03  0.15960330464E+03  0.94020912323E+02 0.  0.
         23    2    1    2    0    0  0.12845269131E+02 -0.13000483748E+02 -0.56811365180E+03  0.57573441051E+03  0.91558596412E+02 0.  0.
          5    1    4    4  502    0 -0.35289245933E+02  0.45456996613E+01 -0.34010702823E+03  0.34199543114E+03  0.47000000000E+01 0. -1.
         -5    1    3    3    0  503 -0.18796616199E+02  0.49655736966E+02  0.48643891572E+02  0.72161784772E+02  0.47000000000E+01 0.  1.
          5    1    3    3  503    0  0.59513470684E+01 -0.36655253218E+02  0.79024700416E+02  0.87441519865E+02  0.47000000000E+01 0. -1.
         -5    1    4    4    0  502  0.48134515064E+02 -0.17546183409E+02 -0.22800662356E+03  0.23373897938E+03  0.47000000000E+01 0.  1.
<mgrwt>
<rscale>  0 0.95170944E+02</rscale>
<asrwt>0</asrwt>
<pdfrwt beam="1">  1        2 0.90444827E-01 0.95780716E+02</pdfrwt>
<pdfrwt beam="2">  1       -2 0.22684051E-01 0.95780716E+02</pdfrwt>
<totfact> 0.86983257E+02</totfact>
</mgrwt>
</event>
<event>
 8    1  0.8174053E-004  0.9546281E+02  0.7546771E-02  0.1290209E+00
          3   -1    0    0  501    0  0.00000000000E+00  0.00000000000E+00  0.33244851473E+02  0.33244851473E+02  0.00000000000E+00 0. -1.
         -3   -1    0    0    0  501 -0.00000000000E+00 -0.00000000000E+00 -0.34024403851E+03  0.34024403851E+03  0.00000000000E+00 0.  1.
         23    2    1    2    0    0 -0.27129739648E+02 -0.50253432631E+01 -0.23596951467E+03  0.25449997312E+03  0.91254301886E+02 0.  0.
         23    2    1    2    0    0  0.27129739648E+02  0.50253432631E+01 -0.71029672367E+02  0.11898891687E+03  0.91388572223E+02 0.  0.
          5    1    4    4  502    0  0.59733456426E+02  0.13409385170E+02 -0.47911618352E+02  0.77881388023E+02  0.47000000000E+01 0. -1.
         -5    1    4    4    0  502 -0.32603716778E+02 -0.83840419065E+01 -0.23118054015E+02  0.41107528847E+02  0.47000000000E+01 0.  1.
          5    1    3    3  503    0  0.32324955660E+01 -0.43034458738E+02 -0.79564819765E+02  0.90636991404E+02  0.47000000000E+01 0. -1.
         -5    1    3    3    0  503 -0.30362235214E+02  0.38009115475E+02 -0.15640469491E+03  0.16386298171E+03  0.47000000000E+01 0.  1.
<mgrwt>
<rscale>  0 0.95430660E+02</rscale>
<asrwt>0</asrwt>
<pdfrwt beam="1">  1        3 0.51145926E-02 0.95462809E+02</pdfrwt>
<pdfrwt beam="2">  1       -3 0.52345236E-01 0.95462809E+02</pdfrwt>
<totfact> 0.17231937E+03</totfact>
</mgrwt>
</event>
<event>
 8    1  0.8174053E-004  0.1150778E+03  0.7546771E-02  0.1252464E+00
          1   -1    0    0  501    0  0.00000000000E+00  0.00000000000E+00  0.29426699945E+03  0.29426699945E+03  0.00000000000E+00 0. -1.
         -1   -1    0    0    0  501 -0.00000000000E+00 -0.00000000000E+00 -0.44252644062E+02  0.44252644062E+02  0.00000000000E+00 0.  1.
         23    2    1    2    0    0  0.59509977891E+02  0.31638904019E+02  0.11645435248E+03  0.16372084097E+03  0.93276148300E+02 0.  0.
         23    2    1    2    0    0 -0.59509977891E+02 -0.31638904019E+02  0.13356000291E+03  0.17479880254E+03  0.90409564074E+02 0.  0.
          5    1    4    4  502    0 -0.71563862940E+02 -0.51933109204E+02  0.10864191850E+03  0.14015559484E+03  0.47000000000E+01 0. -1.
         -5    1    3    3    0  503  0.25578373402E+02  0.20419991161E+02 -0.81104066560E+01  0.34045527180E+02  0.47000000000E+01 0.  1.
          5    1    3    3  503    0  0.33931604490E+02  0.11218912858E+02  0.12456475914E+03  0.12967531379E+03  0.47000000000E+01 0. -1.
         -5    1    4    4    0  502  0.12053885049E+02  0.20294205185E+02  0.24918084416E+02  0.34643207701E+02  0.47000000000E+01 0.  1.
<mgrwt>
<rscale>  0 0.11449563E+03</rscale>
<asrwt>0</asrwt>
<pdfrwt beam="1">  1        1 0.45271845E-01 0.11507779E+03</pdfrwt>
<pdfrwt beam="2">  1       -1 0.68080993E-02 0.11507779E+03</pdfrwt>
<totfact> 0.92560486E+03</totfact>
</mgrwt>
</event>
<event>
 8    1  0.8174053E-004  0.9914143E+02  0.7546771E-02  0.1282231E+00
         -2   -1    0    0    0  501 -0.00000000000E+00  0.00000000000E+00  0.31763686017E+02  0.31763686017E+02  0.00000000000E+00 0.  1.
          2   -1    0    0  501    0  0.00000000000E+00 -0.00000000000E+00 -0.40510721945E+03  0.40510721945E+03  0.00000000000E+00 0. -1.
         23    2    1    2    0    0  0.35277107638E+02 -0.95661421823E+01 -0.79973882418E+02  0.12720209121E+03  0.91916074440E+02 0.  0.
         23    2    1    2    0    0 -0.35277107638E+02  0.95661421823E+01 -0.29336965102E+03  0.30966881426E+03  0.92157674585E+02 0.  0.
          5    1    4    4  502    0 -0.46435994209E+01  0.48544069994E+02 -0.13245403886E+03  0.14122412031E+03  0.47000000000E+01 0. -1.
         -5    1    4    4    0  502 -0.30633508217E+02 -0.38977927812E+02 -0.16091561216E+03  0.16844469395E+03  0.47000000000E+01 0.  1.
          5    1    3    3  503    0 -0.28775014246E+01  0.25021899197E+02  0.65109410338E+01  0.26435918880E+02  0.47000000000E+01 0. -1.
         -5    1    3    3    0  503  0.38154609063E+02 -0.34588041379E+02 -0.86484823452E+02  0.10076617233E+03  0.47000000000E+01 0.  1.
<mgrwt>
<rscale>  0 0.99085243E+02</rscale>
<asrwt>0</asrwt>
<pdfrwt beam="1">  1        2 0.62324178E-01 0.99141426E+02</pdfrwt>
<pdfrwt beam="2">  1       -2 0.48867217E-02 0.99141426E+02</pdfrwt>
<totfact> 0.14645740E+04</totfact>
</mgrwt>
</event>
<event>
 8    1  0.8174053E-004  0.1295212E+03  0.7546771E-02  0.1228207E+00
          1   -1    0    0  501    0  0.00000000000E+00  0.00000000000E+00  0.34477026189E+03  0.34477026189E+03  0.00000000000E+00 0. -1.
         -1   -1    0    0    0  501 -0.00000000000E+00 -0.00000000000E+00 -0.69584112872E+02  0.69584112872E+02  0.00000000000E+00 0.  1.
         23    2    1    2    0    0  0.89310667985E+02 -0.25142921912E+02  0.23834514936E+02  0.13159406097E+03  0.90223892860E+02 0.  0.
         23    2    1    2    0    0 -0.89310667985E+02  0.25142921912E+02  0.25135163408E+03  0.28276031379E+03  0.90372502238E+02 0.  0.
          5    1    4    4  502    0 -0.80833451840E+02  0.43592331082E+02  0.24384566319E+03  0.26060916277E+03  0.47000000000E+01 0. -1.
         -5    1    3    3    0  503  0.89315610590E+02 -0.22970486918E+01 -0.10503948295E+02  0.90083170778E+02  0.47000000000E+01 0.  1.
          5    1    3    3  503    0 -0.49426051107E-02 -0.22845873220E+02  0.34338463231E+02  0.41510890194E+02  0.47000000000E+01 0. -1.
         -5    1    4    4    0  502 -0.84772161445E+01 -0.18449409170E+02  0.75059708926E+01  0.22151151016E+02  0.47000000000E+01 0.  1.
<mgrwt>
<rscale>  0 0.12949532E+03</rscale>
<asrwt>0</asrwt>
<pdfrwt beam="1">  1        1 0.53041578E-01 0.12952124E+03</pdfrwt>
<pdfrwt beam="2">  1       -1 0.10705248E-01 0.12952124E+03</pdfrwt>
<totfact> 0.38717645E+03</totfact>
</mgrwt>
</event>
<event>
 8    1  0.8174053E-004  0.1011715E+03  0.7546771E-02  0.1278618E+00
         -1   -1    0    0    0  501 -0.00000000000E+00  0.00000000000E+00  0.86598558817E+02  0.86598558817E+02  0.00000000000E+00 0.  1.
          1   -1    0    0  501    0  0.00000000000E+00 -0.00000000000E+00 -0.17267549608E+03  0.17267549608E+03  0.00000000000E+00 0. -1.
         23    2    1    2    0    0  0.42288873738E+02 -0.16900255193E+01  0.31123336250E+02  0.10444645312E+03  0.90272888959E+02 0.  0.
         23    2    1    2    0    0 -0.42288873738E+02  0.16900255193E+01 -0.11720027351E+03  0.15482760178E+03  0.91893836208E+02 0.  0.
          5    1    3    3  502    0 -0.25802484250E+02  0.70900465736E+01  0.22139177474E+02  0.35046685051E+02  0.47000000000E+01 0. -1.
         -5    1    3    3    0  502  0.68091357988E+02 -0.87800720929E+01  0.89841587763E+01  0.69399768065E+02  0.47000000000E+01 0.  1.
          5    1    4    4  503    0 -0.50625772237E+02  0.26052928708E+02 -0.11518546264E+03  0.12857489923E+03  0.47000000000E+01 0. -1.
         -5    1    4    4    0  503  0.83368984996E+01 -0.24362903189E+02 -0.20148108765E+01  0.26252702551E+02  0.47000000000E+01 0.  1.
<mgrwt>
<rscale>  0 0.10080203E+03</rscale>
<asrwt>0</asrwt>
<pdfrwt beam="1">  1        1 0.26565461E-01 0.10117155E+03</pdfrwt>
<pdfrwt beam="2">  1       -1 0.13322855E-01 0.10117155E+03</pdfrwt>
<totfact> 0.63930002E+03</totfact>
</mgrwt>
</event>
<event>
 8    1  0.8174053E-004  0.1032908E+03  0.7546771E-02  0.1275285E+00
          1   -1    0    0  501    0  0.00000000000E+00  0.00000000000E+00  0.66680731724E+03  0.66680731724E+03  0.00000000000E+00 0. -1.
         -1   -1    0    0    0  501 -0.00000000000E+00 -0.00000000000E+00 -0.99392048239E+02  0.99392048239E+02  0.00000000000E+00 0.  1.
         23    2    1    2    0    0  0.21603212300E+02 -0.31856926804E+02 -0.69051053330E+02  0.12140609441E+03  0.92140269302E+02 0.  0.
         23    2    1    2    0    0 -0.21603212300E+02  0.31856926804E+02  0.63646632233E+03  0.64479327106E+03  0.95851032262E+02 0.  0.
          5    1    3    3  502    0  0.40056479658E+02 -0.13379484315E+02  0.49613381926E+01  0.42781269731E+02  0.47000000000E+01 0. -1.
         -5    1    3    3    0  502 -0.18453267358E+02 -0.18477442489E+02 -0.74012391522E+02  0.78624824680E+02  0.47000000000E+01 0.  1.
          5    1    4    4  503    0 -0.50382909863E+02 -0.43072773303E+01  0.22216883292E+03  0.22789925530E+03  0.47000000000E+01 0. -1.
         -5    1    4    4    0  503  0.28779697563E+02  0.36164204134E+02  0.41429748941E+03  0.41689401577E+03  0.47000000000E+01 0.  1.
<mgrwt>
<rscale>  0 0.10242138E+03</rscale>
<asrwt>0</asrwt>
<pdfrwt beam="1">  1        1 0.10258574E+00 0.10329077E+03</pdfrwt>
<pdfrwt beam="2">  1       -1 0.15291085E-01 0.10329077E+03</pdfrwt>
<totfact> 0.94297932E+02</totfact>
</mgrwt>
</event>
<event>
 8    1  0.8174053E-004  0.1049171E+03  0.7546771E-02  0.1272346E+00
          2   -1    0    0  501    0  0.00000000000E+00  0.00000000000E+00  0.82086151836E+02  0.82086151836E+02  0.00000000000E+00 0. -1.
         -2   -1    0    0    0  501 -0.00000000000E+00 -0.00000000000E+00 -0.25691682774E+03  0.25691682774E+03  0.00000000000E+00 0.  1.
         23    2    1    2    0    0 -0.47075745569E+02 -0.21376048482E+02  0.33088616063E+02  0.10611237353E+03  0.86555866543E+02 0.  0.
         23    2    1    2    0    0  0.47075745569E+02  0.21376048482E+02 -0.20791929196E+03  0.23289060604E+03  0.91293708129E+02 0.  0.
          5    1    3    3  502    0 -0.41964931143E+02 -0.46013401680E+02 -0.22307045359E+01  0.62492836571E+02  0.47000000000E+01 0. -1.
         -5    1    3    3    0  502 -0.51108144253E+01  0.24637353198E+02  0.35319320599E+02  0.43619536956E+02  0.47000000000E+01 0.  1.
          5    1    4    4  503    0  0.29019883358E+02 -0.28201473081E+02 -0.41123699351E+02  0.57885450351E+02  0.47000000000E+01 0. -1.
         -5    1    4    4    0  503  0.18055862210E+02  0.49577521563E+02 -0.16679559261E+03  0.17500515569E+03  0.47000000000E+01 0.  1.
<mgrwt>
<rscale>  0 0.10387788E+03</rscale>
<asrwt>0</asrwt>
<pdfrwt beam="1">  1        2 0.12628639E-01 0.10491712E+03</pdfrwt>
<pdfrwt beam="2">  1       -2 0.39525665E-01 0.10491712E+03</pdfrwt>
<totfact> 0.27727562E+03</totfact>
</mgrwt>
</event>
<event>
 8    1  0.8174053E-004  0.1651786E+03  0.7546771E-02  0.1183205E+00
          1   -1    0    0  501    0  0.00000000000E+00  0.00000000000E+00  0.74336271714E+02  0.74336271714E+02  0.00000000000E+00 0. -1.
         -1   -1    0    0    0  501 -0.00000000000E+00 -0.00000000000E+00 -0.44318594030E+03  0.44318594030E+03  0.00000000000E+00 0.  1.
         23    2    1    2    0    0 -0.17390289339E+02  0.13651133779E+03 -0.29262657103E+03  0.33560482841E+03  0.89791554576E+02 0.  0.
         23    2    1    2    0    0  0.17390289339E+02 -0.13651133779E+03 -0.76223097560E+02  0.18191738360E+03  0.91357574105E+02 0.  0.
          5    1    3    3  502    0 -0.18663777988E+02  0.11007945267E+03 -0.13292568561E+03  0.17365814235E+03  0.47000000000E+01 0. -1.
         -5    1    3    3    0  502  0.12734886482E+01  0.26431885124E+02 -0.15970088542E+03  0.16194668606E+03  0.47000000000E+01 0.  1.
          5    1    4    4  503    0 -0.97505978586E+00 -0.25079511236E+02 -0.63167098730E+02  0.68132994851E+02  0.47000000000E+01 0. -1.
         -5    1    4    4    0  503  0.18365349125E+02 -0.11143182656E+03 -0.13055998830E+02  0.11378438875E+03  0.47000000000E+01 0.  1.
<mgrwt>
<rscale>  0 0.16496295E+03</rscale>
<asrwt>0</asrwt>
<pdfrwt beam="1">  1        1 0.11436349E-01 0.16517861E+03</pdfrwt>
<pdfrwt beam="2">  1       -1 0.68182453E-01 0.16517861E+03</pdfrwt>
<totfact> 0.11953189E+03</totfact>
</mgrwt>
</event>
<event>
 8    1  0.8174053E-004  0.1069948E+03  0.7546771E-02  0.1267024E+00
         -1   -1    0    0    0  501 -0.00000000000E+00  0.00000000000E+00  0.26581765448E+03  0.26581765448E+03  0.00000000000E+00 0.  1.
          1   -1    0    0  501    0  0.00000000000E+00 -0.00000000000E+00 -0.54166013510E+02  0.54166013510E+02  0.00000000000E+00 0. -1.
         23    2    1    2    0    0 -0.39573937166E+02 -0.32381714434E+02  0.18097403107E+03  0.21023673783E+03  0.93985180097E+02 0.  0.
         23    2    1    2    0    0  0.39573937166E+02  0.32381714434E+02  0.30677609897E+02  0.10974693016E+03  0.92133604066E+02 0.  0.
          5    1    3    3  502    0 -0.28656791683E+02  0.30788245770E+02  0.63170868302E+02  0.76037993064E+02  0.47000000000E+01 0. -1.
         -5    1    4    4    0  503  0.10654907070E+02 -0.25151283353E+02  0.35459657712E+02  0.45006570898E+02  0.47000000000E+01 0.  1.
          5    1    4    4  503    0  0.28919030096E+02  0.57532997788E+02 -0.47820478144E+01  0.64740359263E+02  0.47000000000E+01 0. -1.
         -5    1    3    3    0  502 -0.10917145483E+02 -0.63169960205E+02  0.11780316277E+03  0.13419874476E+03  0.47000000000E+01 0.  1.
<mgrwt>
<rscale>  0 0.10658679E+03</rscale>
<asrwt>0</asrwt>
<pdfrwt beam="1">  1        1 0.83332330E-02 0.10699479E+03</pdfrwt>
<pdfrwt beam="2">  1       -1 0.40895023E-01 0.10699479E+03</pdfrwt>
<totfact> 0.45863839E+03</totfact>
</mgrwt>
</event>
<event>
 8    1  0.8174053E-004  0.1081061E+03  0.7546771E-02  0.1264283E+00
          1   -1    0    0  501    0  0.00000000000E+00  0.00000000000E+00  0.87526238515E+02  0.87526238515E+02  0.00000000000E+00 0. -1.
         -1   -1    0    0    0  501 -0.00000000000E+00 -0.00000000000E+00 -0.15261212493E+03  0.15261212493E+03  0.00000000000E+00 0.  1.
         23    2    1    2    0    0 -0.38793903510E+02  0.39395262335E+02  0.10441997706E+02  0.10826193649E+03  0.92491393824E+02 0.  0.
         23    2    1    2    0    0  0.38793903510E+02 -0.39395262335E+02 -0.75527884122E+02  0.13187642696E+03  0.92897669853E+02 0.  0.
          5    1    4    4  502    0  0.20453417783E+02  0.20934467093E+02 -0.59762031389E+02  0.66709703996E+02  0.47000000000E+01 0. -1.
         -5    1    3    3    0  503  0.22385272335E+02  0.39605252059E+02  0.10394315987E+02  0.46902113097E+02  0.47000000000E+01 0.  1.
          5    1    3    3  503    0 -0.61179175845E+02 -0.20998972377E+00  0.47681719471E-01  0.61359823389E+02  0.47000000000E+01 0. -1.
         -5    1    4    4    0  502  0.18340485727E+02 -0.60329729428E+02 -0.15765852733E+02  0.65166722965E+02  0.47000000000E+01 0.  1.
<mgrwt>
<rscale>  0 0.10801877E+03</rscale>
<asrwt>0</asrwt>
<pdfrwt beam="1">  1        1 0.13465575E-01 0.10810611E+03</pdfrwt>
<pdfrwt beam="2">  1       -1 0.23478788E-01 0.10810611E+03</pdfrwt>
<totfact> 0.62096376E+03</totfact>
</mgrwt>
</event>
<event>
 8    1  0.8174053E-004  0.1225413E+03  0.7546771E-02  0.1247492E+00
         -3   -1    0    0    0  501 -0.00000000000E+00  0.00000000000E+00  0.35388170733E+03  0.35388170733E+03  0.00000000000E+00 0.  1.
          3   -1    0    0  501    0  0.00000000000E+00 -0.00000000000E+00 -0.46969539341E+02  0.46969539341E+02  0.00000000000E+00 0. -1.
         23    2    1    2    0    0  0.48171779656E+02 -0.15702963491E+01  0.66898119714E+02  0.13961281543E+03  0.11266496184E+03 0.  0.
         23    2    1    2    0    0 -0.48171779656E+02  0.15702963491E+01  0.24001404828E+03  0.26123843124E+03  0.91190944729E+02 0.  0.
          5    1    3    3  502    0  0.46888960162E+02  0.50653710669E+02  0.29587990200E+02  0.75245678638E+02  0.47000000000E+01 0. -1.
         -5    1    3    3    0  502  0.12828194941E+01 -0.52224007018E+02  0.37310129514E+02  0.64367136795E+02  0.47000000000E+01 0.  1.
          5    1    4    4  503    0  0.19387289200E+02  0.15147187578E+02  0.12159663685E+03  0.12414965311E+03  0.47000000000E+01 0. -1.
         -5    1    4    4    0  503 -0.67559068857E+02 -0.13576891229E+02  0.11841741143E+03  0.13708877813E+03  0.47000000000E+01 0.  1.
<mgrwt>
<rscale>  0 0.11737441E+03</rscale>
<asrwt>0</asrwt>
<pdfrwt beam="1">  1        3 0.72260832E-02 0.12254134E+03</pdfrwt>
<pdfrwt beam="2">  1       -3 0.54443338E-01 0.12254134E+03</pdfrwt>
<totfact> 0.96100011E+02</totfact>
</mgrwt>
</event>
<event>
 8    1  0.8174053E-004  0.9766166E+02  0.7546771E-02  0.1288612E+00
         -1   -1    0    0    0  501 -0.00000000000E+00  0.00000000000E+00  0.18819788991E+02  0.18819788991E+02  0.00000000000E+00 0.  1.
          1   -1    0    0  501    0  0.00000000000E+00 -0.00000000000E+00 -0.68297853583E+03  0.68297853583E+03  0.00000000000E+00 0. -1.
         23    2    1    2    0    0  0.20397218993E+02 -0.57247275960E+01 -0.53216343974E+03  0.54105057617E+03  0.95336143875E+02 0.  0.
         23    2    1    2    0    0 -0.20397218993E+02  0.57247275960E+01 -0.13199530709E+03  0.16074774865E+03  0.89265102650E+02 0.  0.
          5    1    4    4  502    0 -0.41101323356E+02 -0.14025970204E+02 -0.12278363504E+03  0.13032251400E+03  0.47000000000E+01 0. -1.
         -5    1    3    3    0  503 -0.35394263003E+02 -0.56174955837E+01 -0.30292874770E+03  0.30507741033E+03  0.47000000000E+01 0.  1.
          5    1    3    3  503    0  0.55791481996E+02 -0.10723201228E+00 -0.22923469204E+03  0.23597316584E+03  0.47000000000E+01 0. -1.
         -5    1    4    4    0  502  0.20704104363E+02  0.19750697800E+02 -0.92116720513E+01  0.30425234642E+02  0.47000000000E+01 0.  1.
<mgrwt>
<rscale>  0 0.96147553E+02</rscale>
<asrwt>0</asrwt>
<pdfrwt beam="1">  1        1 0.10507363E+00 0.97661658E+02</pdfrwt>
<pdfrwt beam="2">  1       -1 0.28953520E-02 0.97661658E+02</pdfrwt>
<totfact> 0.10844781E+04</totfact>
</mgrwt>
</event>
<event>
 8    1  0.8174053E-004  0.1039592E+03  0.7546771E-02  0.1275470E+00
          2   -1    0    0  501    0  0.00000000000E+00  0.00000000000E+00  0.31740068727E+03  0.31740068727E+03  0.00000000000E+00 0. -1.
         -2   -1    0    0    0  501 -0.00000000000E+00 -0.00000000000E+00 -0.32041444786E+02  0.32041444786E+02  0.00000000000E+00 0.  1.
         23    2    1    2    0    0  0.52585866260E+02  0.32000752225E+01  0.15361334529E+03  0.18548471919E+03  0.89621467237E+02 0.  0.
         23    2    1    2    0    0 -0.52585866260E+02 -0.32000752225E+01  0.13174589718E+03  0.16395741286E+03  0.82155571904E+02 0.  0.
          5    1    3    3  502    0  0.10250768923E+02 -0.37977910651E+02  0.91184506851E+02  0.99418832474E+02  0.47000000000E+01 0. -1.
         -5    1    3    3    0  502  0.42335097337E+02  0.41177985874E+02  0.62428838443E+02  0.86065886718E+02  0.47000000000E+01 0.  1.
          5    1    4    4  503    0  0.15809780700E+02 -0.14907129847E+02  0.60218252502E+02  0.64191117925E+02  0.47000000000E+01 0. -1.
         -5    1    4    4    0  503 -0.68395646960E+02  0.11707054625E+02  0.71527644682E+02  0.99766294934E+02  0.47000000000E+01 0.  1.
<mgrwt>
<rscale>  0 0.10233064E+03</rscale>
<asrwt>0</asrwt>
<pdfrwt beam="1">  1        2 0.48830873E-01 0.10395923E+03</pdfrwt>
<pdfrwt beam="2">  1       -2 0.49294533E-02 0.10395923E+03</pdfrwt>
<totfact> 0.18774337E+04</totfact>
</mgrwt>
</event>
<event>
 8    1  0.8174053E-004  0.3220142E+03  0.7546771E-02  0.1074798E+00
         -1   -1    0    0    0  501 -0.00000000000E+00  0.00000000000E+00  0.87454443240E+02  0.87454443240E+02  0.00000000000E+00 0.  1.
          1   -1    0    0  501    0  0.00000000000E+00 -0.00000000000E+00 -0.16004543131E+04  0.16004543131E+04  0.00000000000E+00 0. -1.
         23    2    1    2    0    0  0.14036576007E+03 -0.27513095708E+03 -0.11867870048E+04  0.12295333960E+04  0.88822221245E+02 0.  0.
         23    2    1    2    0    0 -0.14036576007E+03  0.27513095708E+03 -0.32621286509E+03  0.45837536036E+03  0.91068916205E+02 0.  0.
          5    1    4    4  502    0  0.58907256954E+01  0.63587249189E+02 -0.52902530578E+02  0.83059055197E+02  0.47000000000E+01 0. -1.
         -5    1    3    3    0  503  0.14403204897E+02 -0.73629205368E+02 -0.17989666022E+03  0.19497079410E+03  0.47000000000E+01 0.  1.
          5    1    3    3  503    0  0.12596255517E+03 -0.20150175171E+03 -0.10068903446E+04  0.10345626019E+04  0.47000000000E+01 0. -1.
         -5    1    4    4    0  502 -0.14625648576E+03  0.21154370789E+03 -0.27331033451E+03  0.37531630516E+03  0.47000000000E+01 0.  1.
<mgrwt>
<rscale>  0 0.32185703E+03</rscale>
<asrwt>0</asrwt>
<pdfrwt beam="1">  1        1 0.24622374E+00 0.32201419E+03</pdfrwt>
<pdfrwt beam="2">  1       -1 0.13454530E-01 0.32201419E+03</pdfrwt>
<totfact> 0.23376015E+02</totfact>
</mgrwt>
</event>
<event>
 8    1  0.8174053E-004  0.9696513E+02  0.7546771E-02  0.1287888E+00
          1   -1    0    0  501    0  0.00000000000E+00  0.00000000000E+00  0.77872995560E+02  0.77872995560E+02  0.00000000000E+00 0. -1.
         -1   -1    0    0    0  501 -0.00000000000E+00 -0.00000000000E+00 -0.19994609417E+03  0.19994609417E+03  0.00000000000E+00 0.  1.
         23    2    1    2    0    0 -0.26009882642E+02 -0.18451584138E+02 -0.15014958154E+03  0.17873761207E+03  0.91571077199E+02 0.  0.
         23    2    1    2    0    0  0.26009882642E+02  0.18451584138E+02  0.28076482936E+02  0.99081477655E+02  0.89509079808E+02 0.  0.
          5    1    4    4  502    0  0.19400383296E+02  0.46478827367E+02  0.42926011555E+02  0.66342962953E+02  0.47000000000E+01 0. -1.
         -5    1    3    3    0  503 -0.46001688929E+02 -0.36129947030E+02 -0.13610461055E+03  0.14821634009E+03  0.47000000000E+01 0.  1.
          5    1    3    3  503    0  0.19991806286E+02  0.17678362893E+02 -0.14044970991E+02  0.30521271980E+02  0.47000000000E+01 0. -1.
         -5    1    4    4    0  502  0.66094993461E+01 -0.28027243229E+02 -0.14849528619E+02  0.32738514702E+02  0.47000000000E+01 0.  1.
<mgrwt>
<rscale>  0 0.96475215E+02</rscale>
<asrwt>0</asrwt>
<pdfrwt beam="1">  1        1 0.11980461E-01 0.96965134E+02</pdfrwt>
<pdfrwt beam="2">  1       -1 0.30760938E-01 0.96965134E+02</pdfrwt>
<totfact> 0.45957380E+03</totfact>
</mgrwt>
</event>
<event>
 8    1  0.8174053E-004  0.1155024E+03  0.7546771E-02  0.1251421E+00
         -3   -1    0    0    0  501 -0.00000000000E+00  0.00000000000E+00  0.52927782267E+02  0.52927782267E+02  0.00000000000E+00 0.  1.
          3   -1    0    0  501    0  0.00000000000E+00 -0.00000000000E+00 -0.39727187350E+03  0.39727187350E+03  0.00000000000E+00 0. -1.
         23    2    1    2    0    0  0.14863195538E+02 -0.69199496181E+02 -0.35192751579E+02  0.12074493204E+03  0.91276086665E+02 0.  0.
         23    2    1    2    0    0 -0.14863195538E+02  0.69199496181E+02 -0.30915133965E+03  0.32945472372E+03  0.89198538782E+02 0.  0.
          5    1    4    4  502    0  0.70330057097E+01  0.63032780599E+02 -0.29601340100E+03  0.30276825820E+03  0.47000000000E+01 0. -1.
         -5    1    4    4    0  502 -0.21896201248E+02  0.61667155822E+01 -0.13137938647E+02  0.26686465522E+02  0.47000000000E+01 0.  1.
          5    1    3    3  503    0  0.22173458827E+02  0.17005690949E+02 -0.13712399799E+02  0.31479766664E+02  0.47000000000E+01 0. -1.
         -5    1    3    3    0  503 -0.73102632889E+01 -0.86205187129E+02 -0.21480351780E+02  0.89265165378E+02  0.47000000000E+01 0.  1.
<mgrwt>
<rscale>  0 0.11509156E+03</rscale>
<asrwt>0</asrwt>
<pdfrwt beam="1">  1        3 0.61118747E-01 0.11550242E+03</pdfrwt>
<pdfrwt beam="2">  1       -3 0.81427361E-02 0.11550242E+03</pdfrwt>
<totfact> 0.62039027E+02</totfact>
</mgrwt>
</event>
<event>
 8    1  0.8174053E-004  0.1677587E+03  0.7546771E-02  0.1185854E+00
         -1   -1    0    0    0  501 -0.00000000000E+00  0.00000000000E+00  0.45976742568E+02  0.45976742568E+02  0.00000000000E+00 0.  1.
          1   -1    0    0  501    0  0.00000000000E+00 -0.00000000000E+00 -0.70913797394E+03  0.70913797394E+03  0.00000000000E+00 0. -1.
         23    2    1    2    0    0 -0.56008370449E+02 -0.11132143739E+03 -0.16433536072E+03  0.23483844189E+03  0.11231020890E+03 0.  0.
         23    2    1    2    0    0  0.56008370449E+02  0.11132143739E+03 -0.49882587066E+03  0.52027627462E+03  0.79566027362E+02 0.  0.
          5    1    3    3  502    0 -0.24579800495E+02  0.18541397228E+02 -0.50072509858E+02  0.58968603909E+02  0.47000000000E+01 0. -1.
         -5    1    4    4    0  503 -0.18414125632E+02  0.91451127509E+01 -0.82889029655E+02  0.85530078611E+02  0.47000000000E+01 0.  1.
          5    1    4    4  503    0  0.74422496081E+02  0.10217632464E+03 -0.41593684100E+03  0.43474619601E+03  0.47000000000E+01 0. -1.
         -5    1    3    3    0  502 -0.31428569954E+02 -0.12986283462E+03 -0.11426285086E+03  0.17586983798E+03  0.47000000000E+01 0.  1.
<mgrwt>
<rscale>  0 0.16254381E+03</rscale>
<asrwt>0</asrwt>
<pdfrwt beam="1">  1        1 0.10909814E+00 0.16775870E+03</pdfrwt>
<pdfrwt beam="2">  1       -1 0.70733453E-02 0.16775870E+03</pdfrwt>
<totfact> 0.28361295E+03</totfact>
</mgrwt>
</event>
<event>
 8    1  0.8174053E-004  0.9701706E+02  0.7546771E-02  0.1292443E+00
          2   -1    0    0  501    0  0.00000000000E+00  0.00000000000E+00  0.17261200418E+03  0.17261200418E+03  0.00000000000E+00 0. -1.
         -2   -1    0    0    0  501 -0.00000000000E+00 -0.00000000000E+00 -0.49992543821E+02  0.49992543821E+02  0.00000000000E+00 0.  1.
         23    2    1    2    0    0  0.13931230539E+02  0.26353623914E+02  0.72896752240E+02  0.11358776715E+03  0.81851399999E+02 0.  0.
         23    2    1    2    0    0 -0.13931230539E+02 -0.26353623914E+02  0.49722708120E+02  0.10901678085E+03  0.92323984566E+02 0.  0.
          5    1    4    4  502    0 -0.26893606944E+02  0.14261456219E+02  0.57683904025E+02  0.65392492012E+02  0.47000000000E+01 0. -1.
         -5    1    3    3    0  503  0.32196843447E+02 -0.18907550860E+02  0.26023647665E+02  0.45754261499E+02  0.47000000000E+01 0.  1.
          5    1    3    3  503    0 -0.18265612908E+02  0.45261174773E+02  0.46873104575E+02  0.67833505654E+02  0.47000000000E+01 0. -1.
         -5    1    4    4    0  502  0.12962376405E+02 -0.40615080133E+02 -0.79611959052E+01  0.43624288837E+02  0.47000000000E+01 0.  1.
<mgrwt>
<rscale>  0 0.94439518E+02</rscale>
<asrwt>0</asrwt>
<pdfrwt beam="1">  1        2 0.26555693E-01 0.97017064E+02</pdfrwt>
<pdfrwt beam="2">  1       -2 0.76911607E-02 0.97017064E+02</pdfrwt>
<totfact> 0.18198849E+04</totfact>
</mgrwt>
</event>
<event>
 8    1  0.8174053E-004  0.1108105E+03  0.7546771E-02  0.1259399E+00
         -1   -1    0    0    0  501 -0.00000000000E+00  0.00000000000E+00  0.35315347812E+03  0.35315347812E+03  0.00000000000E+00 0.  1.
          1   -1    0    0  501    0  0.00000000000E+00 -0.00000000000E+00 -0.19759860161E+03  0.19759860161E+03  0.00000000000E+00 0. -1.
         23    2    1    2    0    0 -0.58421309155E+02 -0.14875606453E+02  0.32796608659E+03  0.34618018706E+03  0.92976528902E+02 0.  0.
         23    2    1    2    0    0  0.58421309155E+02  0.14875606453E+02 -0.17241121009E+03  0.20457189267E+03  0.92139572797E+02 0.  0.
          5    1    3    3  502    0 -0.26786624997E+02 -0.32108847635E+02  0.47857234460E+02  0.63725240410E+02  0.47000000000E+01 0. -1.
         -5    1    3    3    0  502 -0.31634684159E+02  0.17233241182E+02  0.28010885213E+03  0.28245494665E+03  0.47000000000E+01 0.  1.
          5    1    4    4  503    0  0.79991577086E+02  0.27054657446E+02 -0.12595411025E+03  0.15171399007E+03  0.47000000000E+01 0. -1.
         -5    1    4    4    0  503 -0.21570267931E+02 -0.12179050993E+02 -0.46457099836E+02  0.52857902596E+02  0.47000000000E+01 0.  1.
<mgrwt>
<rscale>  0 0.11063476E+03</rscale>
<asrwt>0</asrwt>
<pdfrwt beam="1">  1        1 0.30399785E-01 0.11081050E+03</pdfrwt>
<pdfrwt beam="2">  1       -1 0.54331304E-01 0.11081050E+03</pdfrwt>
<totfact> 0.52524567E+02</totfact>
</mgrwt>
</event>
<event>
 8    1  0.8174053E-004  0.1264478E+03  0.7546771E-02  0.1232929E+00
          1   -1    0    0  501    0  0.00000000000E+00  0.00000000000E+00  0.30606683182E+03  0.30606683182E+03  0.00000000000E+00 0. -1.
         -1   -1    0    0    0  501 -0.00000000000E+00 -0.00000000000E+00 -0.57941254559E+02  0.57941254559E+02  0.00000000000E+00 0.  1.
         23    2    1    2    0    0 -0.23778975186E+02 -0.84086250659E+02  0.66290428993E+02  0.14252882821E+03  0.91017079085E+02 0.  0.
         23    2    1    2    0    0  0.23778975186E+02  0.84086250659E+02  0.18183514827E+03  0.22147925817E+03  0.91395314111E+02 0.  0.
          5    1    4    4  502    0  0.42246023172E+02  0.72584751321E+02  0.18055232033E+03  0.19918459522E+03  0.47000000000E+01 0. -1.
         -5    1    3    3    0  503 -0.53174765433E+02 -0.52026557748E+02  0.16682596830E+02  0.76385322065E+02  0.47000000000E+01 0.  1.
          5    1    3    3  503    0  0.29395790247E+02 -0.32059692910E+02  0.49607832163E+02  0.66143506149E+02  0.47000000000E+01 0. -1.
         -5    1    4    4    0  502 -0.18467047986E+02  0.11501499338E+02  0.12828279431E+01  0.22294662946E+02  0.47000000000E+01 0.  1.
<mgrwt>
<rscale>  0 0.12637944E+03</rscale>
<asrwt>0</asrwt>
<pdfrwt beam="1">  1        1 0.47087204E-01 0.12644778E+03</pdfrwt>
<pdfrwt beam="2">  1       -1 0.89140394E-02 0.12644778E+03</pdfrwt>
<totfact> 0.59216276E+03</totfact>
</mgrwt>
</event>
<event>
 8    1  0.8174053E-004  0.9301579E+02  0.7546771E-02  0.1296149E+00
         -1   -1    0    0    0  501 -0.00000000000E+00  0.00000000000E+00  0.15358411386E+03  0.15358411386E+03  0.00000000000E+00 0.  1.
          1   -1    0    0  501    0  0.00000000000E+00 -0.00000000000E+00 -0.21596577943E+03  0.21596577943E+03  0.00000000000E+00 0. -1.
         23    2    1    2    0    0  0.21763201221E+02 -0.31290982875E+00  0.12792820719E+03  0.15772500137E+03  0.89653862278E+02 0.  0.
         23    2    1    2    0    0 -0.21763201221E+02  0.31290982875E+00 -0.19030987276E+03  0.21182489192E+03  0.90433413784E+02 0.  0.
          5    1    3    3  502    0  0.10507234071E+01 -0.39244724425E+02  0.28153898428E+02  0.48538483820E+02  0.47000000000E+01 0. -1.
         -5    1    4    4    0  503  0.79824454045E+00 -0.33578149476E+02 -0.26711157084E+02  0.43170652408E+02  0.47000000000E+01 0.  1.
          5    1    4    4  503    0 -0.22561445761E+02  0.33891059305E+02 -0.16359871567E+03  0.16865423951E+03  0.47000000000E+01 0. -1.
         -5    1    3    3    0  502  0.20712477814E+02  0.38931814596E+02  0.99774308762E+02  0.10918651755E+03  0.47000000000E+01 0.  1.
<mgrwt>
<rscale>  0 0.92825776E+02</rscale>
<asrwt>0</asrwt>
<pdfrwt beam="1">  1        1 0.33225504E-01 0.93015790E+02</pdfrwt>
<pdfrwt beam="2">  1       -1 0.23628325E-01 0.93015790E+02</pdfrwt>
<totfact> 0.19579178E+03</totfact>
</mgrwt>
</event>
<event>
 8    1  0.8174053E-004  0.9893518E+02  0.7546771E-02  0.1284074E+00
          4   -1    0    0  501    0  0.00000000000E+00  0.00000000000E+00  0.84483781984E+02  0.84483781984E+02  0.00000000000E+00 0. -1.
         -4   -1    0    0    0  501 -0.00000000000E+00 -0.00000000000E+00 -0.19061819708E+03  0.19061819708E+03  0.00000000000E+00 0.  1.
         23    2    1    2    0    0 -0.20424757473E+02  0.29486090386E+02  0.35383951011E+02  0.10242998648E+03  0.89181152140E+02 0.  0.
         23    2    1    2    0    0  0.20424757473E+02 -0.29486090386E+02 -0.14151836611E+03  0.17267199259E+03  0.92203952375E+02 0.  0.
          5    1    3    3  502    0 -0.22535077404E+02  0.60224748654E+02  0.18983781298E+02  0.67211040882E+02  0.47000000000E+01 0. -1.
         -5    1    4    4    0  503  0.38377407088E+02 -0.51267465741E+02 -0.12251167251E+03  0.13831984066E+03  0.47000000000E+01 0.  1.
          5    1    4    4  503    0 -0.17952649615E+02  0.21781375356E+02 -0.19006693599E+02  0.34352151929E+02  0.47000000000E+01 0. -1.
         -5    1    3    3    0  502  0.21103199314E+01 -0.30738658269E+02  0.16400169713E+02  0.35218945598E+02  0.47000000000E+01 0.  1.
<mgrwt>
<rscale>  0 0.98224840E+02</rscale>
<asrwt>0</asrwt>
<pdfrwt beam="1">  1        4 0.12997505E-01 0.98935176E+02</pdfrwt>
<pdfrwt beam="2">  1       -4 0.29325876E-01 0.98935176E+02</pdfrwt>
<totfact> 0.82818976E+02</totfact>
</mgrwt>
</event>
<event>
 8    1  0.8174053E-004  0.9491768E+02  0.7546771E-02  0.1292366E+00
         -2   -1    0    0    0  501 -0.00000000000E+00  0.00000000000E+00  0.76398270056E+01  0.76398270056E+01  0.00000000000E+00 0. -1.
          2   -1    0    0  501    0  0.00000000000E+00 -0.00000000000E+00 -0.11587771893E+04  0.11587771893E+04  0.00000000000E+00 0.  1.
         23    2    1    2    0    0  0.90847882836E+01 -0.13511549348E+02 -0.56120004160E+03  0.56917031956E+03  0.93510804898E+02 0.  0.
         23    2    1    2    0    0 -0.90847882836E+01  0.13511549348E+02 -0.58993732072E+03  0.59724669677E+03  0.91719567604E+02 0.  0.
          5    1    4    4  502    0 -0.31329793435E+02  0.40720999641E+02 -0.44741029806E+03  0.45037519978E+03  0.47000000000E+01 0. -1.
         -5    1    3    3    0  503  0.19952308596E+01  0.37381805467E+02 -0.33719426789E+03  0.33929845951E+03  0.47000000000E+01 0.  1.
          5    1    3    3  503    0  0.70895574240E+01 -0.50893354815E+02 -0.22400577371E+03  0.22987186005E+03  0.47000000000E+01 0. -1.
         -5    1    4    4    0  502  0.22245005151E+02 -0.27209450293E+02 -0.14252702265E+03  0.14687149698E+03  0.47000000000E+01 0.  1.
<mgrwt>
<rscale>  0 0.94473527E+02</rscale>
<asrwt>0</asrwt>
<pdfrwt beam="1">  1        2 0.17827327E+00 0.94917680E+02</pdfrwt>
<pdfrwt beam="2">  1       -2 0.11753589E-02 0.94917680E+02</pdfrwt>
<totfact> 0.32723874E+04</totfact>
</mgrwt>
</event>
<event>
 8    1  0.8174053E-004  0.9662876E+02  0.7546771E-02  0.1289850E+00
         -2   -1    0    0    0  501 -0.00000000000E+00  0.00000000000E+00  0.16606769271E+02  0.16606769271E+02  0.00000000000E+00 0.  1.
          2   -1    0    0  501    0  0.00000000000E+00 -0.00000000000E+00 -0.60430674660E+03  0.60430674660E+03  0.00000000000E+00 0. -1.
         23    2    1    2    0    0 -0.25552943741E+02  0.66827642980E+01 -0.40175210505E+03  0.41320923515E+03  0.92948942027E+02 0.  0.
         23    2    1    2    0    0  0.25552943741E+02 -0.66827642980E+01 -0.18594787228E+03  0.20770428072E+03  0.88695235243E+02 0.  0.
          5    1    3    3  502    0 -0.89925789720E+01 -0.42905795258E+02 -0.17693363687E+03  0.18234411315E+03  0.47000000000E+01 0. -1.
         -5    1    4    4    0  503  0.50255429045E+02  0.10431066361E+02 -0.64810026796E+02  0.82806067816E+02  0.47000000000E+01 0.  1.
          5    1    4    4  503    0 -0.24702485304E+02 -0.17113830659E+02 -0.12113784548E+03  0.12489821291E+03  0.47000000000E+01 0. -1.
         -5    1    3    3    0  502 -0.16560364769E+02  0.49588559556E+02 -0.22481846818E+03  0.23086512200E+03  0.47000000000E+01 0.  1.
<mgrwt>
<rscale>  0 0.95591065E+02</rscale>
<asrwt>0</asrwt>
<pdfrwt beam="1">  1        2 0.92970277E-01 0.96628764E+02</pdfrwt>
<pdfrwt beam="2">  1       -2 0.25548874E-02 0.96628764E+02</pdfrwt>
<totfact> 0.24506577E+04</totfact>
</mgrwt>
</event>
<event>
 8    1  0.8174053E-004  0.1689870E+03  0.7546771E-02  0.1178964E+00
         -2   -1    0    0    0  501 -0.00000000000E+00  0.00000000000E+00  0.32798962592E+02  0.32798962592E+02  0.00000000000E+00 0.  1.
          2   -1    0    0  501    0  0.00000000000E+00 -0.00000000000E+00 -0.12553341161E+04  0.12553341161E+04  0.00000000000E+00 0. -1.
         23    2    1    2    0    0  0.65560695257E+02 -0.12542954871E+03 -0.96857742191E+03  0.98320843967E+03  0.92335459913E+02 0.  0.
         23    2    1    2    0    0 -0.65560695257E+02  0.12542954871E+03 -0.25395773164E+03  0.30492463906E+03  0.91944165635E+02 0.  0.
          5    1    4    4  502    0 -0.59511389614E+02  0.19841320281E+02 -0.94481986385E+02  0.11350867472E+03  0.47000000000E+01 0. -1.
         -5    1    3    3    0  503  0.59189896932E+02 -0.10205460819E+03 -0.92964533374E+03  0.93711318607E+03  0.47000000000E+01 0. -1.
          5    1    3    3  503    0  0.63707983258E+01 -0.23374940527E+02 -0.38932088166E+02  0.46095253605E+02  0.47000000000E+01 0.  1.
         -5    1    4    4    0  502 -0.60493056430E+01  0.10558822843E+03 -0.15947574525E+03  0.19141596434E+03  0.47000000000E+01 0.  1.
<mgrwt>
<rscale>  0 0.16893362E+03</rscale>
<asrwt>0</asrwt>
<pdfrwt beam="1">  1        2 0.19312830E+00 0.16898702E+03</pdfrwt>
<pdfrwt beam="2">  1       -2 0.50459950E-02 0.16898702E+03</pdfrwt>
<totfact> 0.35600953E+03</totfact>
</mgrwt>
</event>
<event>
 8    1  0.8174053E-004  0.9822937E+02  0.7546771E-02  0.1285238E+00
         -2   -1    0    0    0  501 -0.00000000000E+00  0.00000000000E+00  0.12540433303E+02  0.12540433303E+02  0.00000000000E+00 0.  1.
          2   -1    0    0  501    0  0.00000000000E+00 -0.00000000000E+00 -0.79753264965E+03  0.79753264965E+03  0.00000000000E+00 0. -1.
         23    2    1    2    0    0 -0.13661711104E+02  0.33185090409E+02 -0.30051864360E+03  0.31616524690E+03  0.91439136156E+02 0.  0.
         23    2    1    2    0    0  0.13661711104E+02 -0.33185090409E+02 -0.48447357274E+03  0.49390783605E+03  0.89120229174E+02 0.  0.
          5    1    4    4  502    0 -0.21656933731E+02  0.20046121246E+02 -0.20640068371E+03  0.20855263603E+03  0.47000000000E+01 0. -1.
         -5    1    3    3    0  503  0.21375429126E+02  0.52343767686E+02 -0.15008057488E+03  0.16044640209E+03  0.47000000000E+01 0.  1.
          5    1    3    3  503    0 -0.35037140229E+02 -0.19158677277E+02 -0.15043806872E+03  0.15571884482E+03  0.47000000000E+01 0. -1.
         -5    1    4    4    0  502  0.35318644834E+02 -0.53231211655E+02 -0.27807288903E+03  0.28535520002E+03  0.47000000000E+01 0.  1.
<mgrwt>
<rscale>  0 0.97686157E+02</rscale>
<asrwt>0</asrwt>
<pdfrwt beam="1">  1        2 0.12269733E+00 0.98229365E+02</pdfrwt>
<pdfrwt beam="2">  1       -2 0.19292975E-02 0.98229365E+02</pdfrwt>
<totfact> 0.26613092E+04</totfact>
</mgrwt>
</event>
<event>
 8    1  0.8174053E-004  0.9655718E+02  0.7546771E-02  0.1287803E+00
          1   -1    0    0  501    0  0.00000000000E+00  0.00000000000E+00  0.67131662207E+02  0.67131662207E+02  0.00000000000E+00 0. -1.
         -1   -1    0    0    0  501 -0.00000000000E+00 -0.00000000000E+00 -0.30760284072E+03  0.30760284072E+03  0.00000000000E+00 0.  1.
         23    2    1    2    0    0  0.26363775852E+01  0.25172976233E+02  0.18683456015E+02  0.98176348692E+02  0.92999433841E+02 0.  0.
         23    2    1    2    0    0 -0.26363775852E+01 -0.25172976233E+02 -0.25915463453E+03  0.27655815424E+03  0.93180785880E+02 0.  0.
          5    1    3    3  502    0  0.19548145572E+02 -0.14884460550E+02  0.41796190775E+02  0.48710252766E+02  0.47000000000E+01 0. -1.
         -5    1    4    4    0  503 -0.39227239923E+02 -0.40024494450E+02 -0.16606943774E+03  0.17533363813E+03  0.47000000000E+01 0.  1.
          5    1    4    4  503    0  0.36590862338E+02  0.14851518217E+02 -0.93085196789E+02  0.10122451611E+03  0.47000000000E+01 0. -1.
         -5    1    3    3    0  502 -0.16911767986E+02  0.40057436783E+02 -0.23112734761E+02  0.49466095926E+02  0.47000000000E+01 0.  1.
<mgrwt>
<rscale>  0 0.96513396E+02</rscale>
<asrwt>0</asrwt>
<pdfrwt beam="1">  1        1 0.10327948E-01 0.96557175E+02</pdfrwt>
<pdfrwt beam="2">  1       -1 0.47323514E-01 0.96557175E+02</pdfrwt>
<totfact> 0.26512060E+03</totfact>
</mgrwt>
</event>
<event>
 8    1  0.8174053E-004  0.9695765E+02  0.7546771E-02  0.1286894E+00
         -1   -1    0    0    0  501 -0.00000000000E+00  0.00000000000E+00  0.16141787081E+03  0.16141787081E+03  0.00000000000E+00 0.  1.
          1   -1    0    0  501    0  0.00000000000E+00 -0.00000000000E+00 -0.84717903007E+02  0.84717903007E+02  0.00000000000E+00 0. -1.
         23    2    1    2    0    0  0.56914964002E+01  0.33441203274E+02  0.10726597229E+03  0.14459175083E+03  0.90829942142E+02 0.  0.
         23    2    1    2    0    0 -0.56914964002E+01 -0.33441203274E+02 -0.30566004481E+02  0.10154402299E+03  0.90698405540E+02 0.  0.
          5    1    3    3  502    0 -0.30875615984E+02  0.30340182687E+02  0.96799463781E+02  0.10614168143E+03  0.47000000000E+01 0. -1.
         -5    1    4    4    0  503  0.30590523460E+02 -0.45949275120E+02 -0.59739339474E+01  0.55721574784E+02  0.47000000000E+01 0.  1.
          5    1    4    4  503    0 -0.36282019861E+02  0.12508071846E+02 -0.24592070534E+02  0.45822448206E+02  0.47000000000E+01 0. -1.
         -5    1    3    3    0  502  0.36567112384E+02  0.31010205868E+01  0.10466508508E+02  0.38450069404E+02  0.47000000000E+01 0.  1.
<mgrwt>
<rscale>  0 0.96926831E+02</rscale>
<asrwt>0</asrwt>
<pdfrwt beam="1">  1        1 0.13033524E-01 0.96957648E+02</pdfrwt>
<pdfrwt beam="2">  1       -1 0.24833518E-01 0.96957648E+02</pdfrwt>
<totfact> 0.58632976E+03</totfact>
</mgrwt>
</event>
<event>
 8    1  0.8174053E-004  0.9378742E+02  0.7546771E-02  0.1295796E+00
          2   -1    0    0  501    0  0.00000000000E+00  0.00000000000E+00  0.59264603524E+03  0.59264603524E+03  0.00000000000E+00 0. -1.
         -2   -1    0    0    0  501 -0.00000000000E+00 -0.00000000000E+00 -0.40026331007E+02  0.40026331007E+02  0.00000000000E+00 0.  1.
         23    2    1    2    0    0  0.25936203624E+01  0.10167120937E+01  0.21198030249E+02  0.93038160924E+02  0.90548232074E+02 0.  0.
         23    2    1    2    0    0 -0.25936203624E+01 -0.10167120937E+01  0.53142167398E+03  0.53963420532E+03  0.93746036738E+02 0.  0.
          5    1    3    3  502    0  0.20970570010E+02 -0.35049069129E+02  0.30559763082E+02  0.51226859878E+02  0.47000000000E+01 0. -1.
         -5    1    4    4    0  503 -0.42020073029E+02  0.21873603623E+02  0.24739174013E+03  0.25193035577E+03  0.47000000000E+01 0.  1.
          5    1    4    4  503    0  0.39426452666E+02 -0.22890315716E+02  0.28402993385E+03  0.28770384955E+03  0.47000000000E+01 0. -1.
         -5    1    3    3    0  502 -0.18376949648E+02  0.36065781223E+02 -0.93617328326E+01  0.41811301046E+02  0.47000000000E+01 0.  1.
<mgrwt>
<rscale>  0 0.92977913E+02</rscale>
<asrwt>0</asrwt>
<pdfrwt beam="1">  1        2 0.91176307E-01 0.93787419E+02</pdfrwt>
<pdfrwt beam="2">  1       -2 0.61578975E-02 0.93787419E+02</pdfrwt>
<totfact> 0.68368473E+03</totfact>
</mgrwt>
</event>
<event>
 8    1  0.8174053E-004  0.1178852E+03  0.7546771E-02  0.1251689E+00
         -1   -1    0    0    0  501 -0.00000000000E+00  0.00000000000E+00  0.75497382023E+02  0.75497382023E+02  0.00000000000E+00 0.  1.
          1   -1    0    0  501    0  0.00000000000E+00 -0.00000000000E+00 -0.16723117085E+03  0.16723117085E+03  0.00000000000E+00 0. -1.
         23    2    1    2    0    0 -0.54138396194E+02  0.36166774100E+02 -0.41823422701E+02  0.12508446557E+03  0.98274734029E+02 0.  0.
         23    2    1    2    0    0  0.54138396194E+02 -0.36166774100E+02 -0.49910366126E+02  0.11764408731E+03  0.84321320793E+02 0.  0.
          5    1    3    3  502    0 -0.54440216922E+02  0.61993819036E+02 -0.91089847111E+01  0.83138645765E+02  0.47000000000E+01 0.  1.
         -5    1    4    4    0  503  0.38107621533E+02  0.23117959709E+02 -0.23784928956E+02  0.50738976393E+02  0.47000000000E+01 0.  1.
          5    1    4    4  503    0  0.16030774661E+02 -0.59284733809E+02 -0.26125437170E+02  0.66905110914E+02  0.47000000000E+01 0. -1.
         -5    1    3    3    0  502  0.30182072787E+00 -0.25827044936E+02 -0.32714437990E+02  0.41945819802E+02  0.47000000000E+01 0. -1.
<mgrwt>
<rscale>  0 0.11493826E+03</rscale>
<asrwt>0</asrwt>
<pdfrwt beam="1">  1        1 0.25727872E-01 0.11788522E+03</pdfrwt>
<pdfrwt beam="2">  1       -1 0.11614982E-01 0.11788522E+03</pdfrwt>
<totfact> 0.83123983E+03</totfact>
</mgrwt>
</event>
<event>
 8    1  0.8174053E-004  0.9624556E+02  0.7546771E-02  0.1301521E+00
          2   -1    0    0  501    0  0.00000000000E+00  0.00000000000E+00  0.67412496549E+03  0.67412496549E+03  0.00000000000E+00 0.  1.
         -2   -1    0    0    0  501 -0.00000000000E+00 -0.00000000000E+00 -0.12514946403E+02  0.12514946403E+02  0.00000000000E+00 0. -1.
         23    2    1    2    0    0  0.15357521789E+02 -0.78688269107E+01  0.24438322937E+03  0.26265256800E+03  0.94685990349E+02 0.  0.
         23    2    1    2    0    0 -0.15357521789E+02  0.78688269107E+01  0.41722678972E+03  0.42398734390E+03  0.73411864230E+02 0.  0.
          5    1    4    4  502    0 -0.44522216930E+02  0.16761005577E+01  0.22667878376E+03  0.23106362353E+03  0.47000000000E+01 0. -1.
         -5    1    4    4    0  502  0.29164695141E+02  0.61927263530E+01  0.19054800597E+03  0.19292372037E+03  0.47000000000E+01 0.  1.
          5    1    3    3  503    0  0.17967363512E+02 -0.35400573864E+02  0.40708732463E+02  0.57055391333E+02  0.47000000000E+01 0. -1.
         -5    1    3    3    0  503 -0.26098417231E+01  0.27531746953E+02  0.20367449690E+03  0.20559717666E+03  0.47000000000E+01 0.  1.
<mgrwt>
<rscale>  0 0.90551709E+02</rscale>
<asrwt>0</asrwt>
<pdfrwt beam="1">  1        2 0.10371150E+00 0.96245564E+02</pdfrwt>
<pdfrwt beam="2">  1       -2 0.19253769E-02 0.96245564E+02</pdfrwt>
<totfact> 0.32527964E+04</totfact>
</mgrwt>
</event>
<event>
 8    1  0.8174053E-004  0.9337405E+02  0.7546771E-02  0.1295186E+00
         -1   -1    0    0    0  501 -0.00000000000E+00  0.00000000000E+00  0.22672715405E+02  0.22672715405E+02  0.00000000000E+00 0.  1.
          1   -1    0    0  501    0  0.00000000000E+00 -0.00000000000E+00 -0.50196091969E+03  0.50196091969E+03  0.00000000000E+00 0. -1.
         23    2    1    2    0    0 -0.80642348347E+01  0.11999600074E+02 -0.11212583103E+03  0.14591406532E+03  0.92247982026E+02 0.  0.
         23    2    1    2    0    0  0.80642348347E+01 -0.11999600074E+02 -0.36716237326E+03  0.37871956978E+03  0.91713041129E+02 0.  0.
          5    1    4    4  502    0 -0.35650275602E+02 -0.27806626796E+02 -0.20376918612E+03  0.20877768524E+03  0.47000000000E+01 0. -1.
         -5    1    4    4    0  502  0.43714510437E+02  0.15807026721E+02 -0.16339318714E+03  0.16994188454E+03  0.47000000000E+01 0.  1.
          5    1    3    3  503    0 -0.39076873471E+02  0.36011491203E+02 -0.56692655682E+02  0.77845852473E+02  0.47000000000E+01 0. -1.
         -5    1    3    3    0  503  0.31012638636E+02 -0.24011891128E+02 -0.55433175350E+02  0.68068212846E+02  0.47000000000E+01 0.  1.
<mgrwt>
<rscale>  0 0.93241652E+02</rscale>
<asrwt>0</asrwt>
<pdfrwt beam="1">  1        1 0.77224761E-01 0.93374046E+02</pdfrwt>
<pdfrwt beam="2">  1       -1 0.34881099E-02 0.93374046E+02</pdfrwt>
<totfact> 0.12461629E+04</totfact>
</mgrwt>
</event>
<event>
 8    1  0.8174053E-004  0.9318572E+02  0.7546771E-02  0.1295492E+00
         -2   -1    0    0    0  501 -0.00000000000E+00  0.00000000000E+00  0.26737596033E+02  0.26737596033E+02  0.00000000000E+00 0.  1.
          2   -1    0    0  501    0  0.00000000000E+00 -0.00000000000E+00 -0.62985910004E+03  0.62985910004E+03  0.00000000000E+00 0. -1.
         23    2    1    2    0    0  0.21009480575E+02  0.21072617200E+01 -0.72931428954E+02  0.11833245889E+03  0.90761989133E+02 0.  0.
         23    2    1    2    0    0 -0.21009480575E+02 -0.21072617200E+01 -0.53019007505E+03  0.53826423718E+03  0.90449071424E+02 0.  0.
          5    1    3    3  502    0  0.46538117983E+01 -0.31062374917E+02 -0.74533564888E+02  0.81017722720E+02  0.47000000000E+01 0. -1.
         -5    1    4    4    0  503 -0.19537858059E+02  0.37292949991E+02 -0.14582329359E+03  0.15185195082E+03  0.47000000000E+01 0.  1.
          5    1    4    4  503    0 -0.14716225151E+01 -0.39400211711E+02 -0.38436678146E+03  0.38641228636E+03  0.47000000000E+01 0. -1.
         -5    1    3    3    0  502  0.16355668776E+02  0.33169636638E+02  0.16021359339E+01  0.37314736169E+02  0.47000000000E+01 0.  1.
<mgrwt>
<rscale>  0 0.93109434E+02</rscale>
<asrwt>0</asrwt>
<pdfrwt beam="1">  1        2 0.96901399E-01 0.93185715E+02</pdfrwt>
<pdfrwt beam="2">  1       -2 0.41134764E-02 0.93185715E+02</pdfrwt>
<totfact> 0.11629583E+04</totfact>
</mgrwt>
</event>
<event>
 8    1  0.8174053E-004  0.2212187E+03  0.7546771E-02  0.1132987E+00
         -1   -1    0    0    0  501 -0.00000000000E+00  0.00000000000E+00  0.43072410609E+02  0.43072410609E+02  0.00000000000E+00 0.  1.
          1   -1    0    0  501    0  0.00000000000E+00 -0.00000000000E+00 -0.12991067197E+04  0.12991067197E+04  0.00000000000E+00 0. -1.
         23    2    1    2    0    0 -0.12751218671E+03 -0.15510498817E+03 -0.39022480494E+03  0.44856784100E+03  0.92848233572E+02 0.  0.
         23    2    1    2    0    0  0.12751218671E+03  0.15510498817E+03 -0.86580950418E+03  0.89361128933E+03  0.92726068488E+02 0.  0.
          5    1    3    3  502    0 -0.62034738860E+02 -0.33143527281E+02 -0.20839399361E+03  0.21999306535E+03  0.47000000000E+01 0. -1.
         -5    1    4    4    0  503  0.22554910328E+02  0.57012645796E+02 -0.12892170308E+03  0.14283578433E+03  0.47000000000E+01 0.  1.
          5    1    4    4  503    0  0.10495727638E+03  0.98092342376E+02 -0.73688780110E+03  0.75077550500E+03  0.47000000000E+01 0. -1.
         -5    1    3    3    0  502 -0.65477447852E+02 -0.12196146089E+03 -0.18183081132E+03  0.22857477566E+03  0.47000000000E+01 0.  1.
<mgrwt>
<rscale>  0 0.22120588E+03</rscale>
<asrwt>0</asrwt>
<pdfrwt beam="1">  1        1 0.19986254E+00 0.22121869E+03</pdfrwt>
<pdfrwt beam="2">  1       -1 0.66265257E-02 0.22121869E+03</pdfrwt>
<totfact> 0.11261530E+03</totfact>
</mgrwt>
</event>
<event>
 8    1  0.8174053E-004  0.1256122E+03  0.7546771E-02  0.1234810E+00
         -3   -1    0    0    0  501 -0.00000000000E+00  0.00000000000E+00  0.20003578382E+03  0.20003578382E+03  0.00000000000E+00 0.  1.
          3   -1    0    0  501    0  0.00000000000E+00 -0.00000000000E+00 -0.86227272717E+02  0.86227272717E+02  0.00000000000E+00 0. -1.
         23    2    1    2    0    0  0.59253506613E+02  0.63530638477E+02  0.10210229907E+03  0.16187438119E+03  0.90726598861E+02 0.  0.
         23    2    1    2    0    0 -0.59253506613E+02 -0.63530638477E+02  0.11706212038E+02  0.12438867534E+03  0.88251838975E+02 0.  0.
          5    1    3    3  502    0  0.63612623385E+02  0.34948330591E+02  0.21089538229E+02  0.75728530210E+02  0.47000000000E+01 0. -1.
         -5    1    4    4    0  503  0.22822699103E+02 -0.11622087744E+02  0.73829513536E+01  0.27065596032E+02  0.47000000000E+01 0.  1.
          5    1    4    4  503    0 -0.82076205716E+02 -0.51908550733E+02  0.43232606844E+01  0.97323079313E+02  0.47000000000E+01 0. -1.
         -5    1    3    3    0  502 -0.43591167725E+01  0.28582307887E+02  0.81012760838E+02  0.86145850984E+02  0.47000000000E+01 0.  1.
<mgrwt>
<rscale>  0 0.12516596E+03</rscale>
<asrwt>0</asrwt>
<pdfrwt beam="1">  1        3 0.13265734E-01 0.12561224E+03</pdfrwt>
<pdfrwt beam="2">  1       -3 0.30774736E-01 0.12561224E+03</pdfrwt>
<totfact> 0.10674449E+03</totfact>
</mgrwt>
</event>
<event>
 8    1  0.8174053E-004  0.9526369E+02  0.7546771E-02  0.1290771E+00
          1   -1    0    0  501    0  0.00000000000E+00  0.00000000000E+00  0.21739487391E+02  0.21739487391E+02  0.00000000000E+00 0. -1.
         -1   -1    0    0    0  501 -0.00000000000E+00 -0.00000000000E+00 -0.42088767183E+03  0.42088767183E+03  0.00000000000E+00 0.  1.
         23    2    1    2    0    0 -0.26054386457E+02  0.67425443930E+01 -0.22380252023E+03  0.24323391731E+03  0.91383135791E+02 0.  0.
         23    2    1    2    0    0  0.26054386457E+02 -0.67425443930E+01 -0.17534566421E+03  0.19939324192E+03  0.91034444071E+02 0.  0.
          5    1    3    3  502    0  0.21181712958E+02 -0.23229995799E+02 -0.13074659914E+03  0.13455504768E+03  0.47000000000E+01 0. -1.
         -5    1    4    4    0  503  0.13697993259E+02 -0.48180115891E+02 -0.10915129287E+03  0.12018757557E+03  0.47000000000E+01 0.  1.
          5    1    4    4  503    0  0.12356393197E+02  0.41437571498E+02 -0.66194371341E+02  0.79205666348E+02  0.47000000000E+01 0. -1.
         -5    1    3    3    0  502 -0.47236099414E+02  0.29972540192E+02 -0.93055921093E+02  0.10867886963E+03  0.47000000000E+01 0.  1.
<mgrwt>
<rscale>  0 0.95179970E+02</rscale>
<asrwt>0</asrwt>
<pdfrwt beam="1">  1        1 0.33445368E-02 0.95263689E+02</pdfrwt>
<pdfrwt beam="2">  1       -1 0.64751944E-01 0.95263689E+02</pdfrwt>
<totfact> 0.67404461E+03</totfact>
</mgrwt>
</event>
<event>
 8    1  0.8174053E-004  0.1076779E+03  0.7546771E-02  0.1267326E+00
         -1   -1    0    0    0  501 -0.00000000000E+00  0.00000000000E+00  0.51588664420E+03  0.51588664420E+03  0.00000000000E+00 0.  1.
          1   -1    0    0  501    0  0.00000000000E+00 -0.00000000000E+00 -0.21566895213E+02  0.21566895213E+02  0.00000000000E+00 0. -1.
         23    2    1    2    0    0  0.46558346310E+02 -0.13924406074E+02  0.22283119266E+03  0.24539093758E+03  0.90561598540E+02 0.  0.
         23    2    1    2    0    0 -0.46558346310E+02  0.13924406074E+02  0.27148855633E+03  0.29206260183E+03  0.96088284797E+02 0.  0.
          5    1    4    4  502    0  0.57488785639E+01  0.39360453939E+02  0.17307516305E+03  0.17764964679E+03  0.47000000000E+01 0. -1.
         -5    1    3    3    0  503  0.21197042076E+02 -0.23263670474E+02  0.21431934357E+03  0.21666883482E+03  0.47000000000E+01 0.  1.
          5    1    3    3  503    0  0.25361304234E+02  0.93392644003E+01  0.85118490937E+01  0.28722102761E+02  0.47000000000E+01 0. -1.
         -5    1    4    4    0  502 -0.52307224874E+02 -0.25436047865E+02  0.98413393276E+02  0.11441295504E+03  0.47000000000E+01 0.  1.
<mgrwt>
<rscale>  0 0.10643100E+03</rscale>
<asrwt>0</asrwt>
<pdfrwt beam="1">  1        1 0.33179843E-02 0.10767789E+03</pdfrwt>
<pdfrwt beam="2">  1       -1 0.79367167E-01 0.10767789E+03</pdfrwt>
<totfact> 0.46086726E+03</totfact>
</mgrwt>
</event>
<event>
 8    1  0.8174053E-004  0.1034232E+03  0.7546771E-02  0.1273583E+00
          2   -1    0    0  501    0  0.00000000000E+00  0.00000000000E+00  0.74998944102E+02  0.74998944102E+02  0.00000000000E+00 0. -1.
         -2   -1    0    0    0  501 -0.00000000000E+00 -0.00000000000E+00 -0.18708818121E+03  0.18708818121E+03  0.00000000000E+00 0.  1.
         23    2    1    2    0    0 -0.45650471600E+02  0.20815311388E+02 -0.12069986811E+03  0.15894909390E+03  0.90438451681E+02 0.  0.
         23    2    1    2    0    0  0.45650471600E+02 -0.20815311388E+02  0.86106310056E+01  0.10313803142E+03  0.89699876324E+02 0.  0.
          5    1    4    4  502    0 -0.37344013605E+01  0.25569018391E+02  0.21583552783E+02  0.33995002658E+02  0.47000000000E+01 0. -1.
         -5    1    3    3    0  503 -0.70702346576E+02  0.18498216129E+02 -0.10770818967E+03  0.13024649682E+03  0.47000000000E+01 0.  1.
          5    1    3    3  503    0  0.25051874976E+02  0.23170952590E+01 -0.12991678441E+02  0.28702597077E+02  0.47000000000E+01 0. -1.
         -5    1    4    4    0  502  0.49384872960E+02 -0.46384329779E+02 -0.12972921777E+02  0.69143028758E+02  0.47000000000E+01 0.  1.
<mgrwt>
<rscale>  0 0.10326151E+03</rscale>
<asrwt>0</asrwt>
<pdfrwt beam="1">  1        2 0.11538299E-01 0.10342319E+03</pdfrwt>
<pdfrwt beam="2">  1       -2 0.28782797E-01 0.10342319E+03</pdfrwt>
<totfact> 0.55026077E+03</totfact>
</mgrwt>
</event>
<event>
 8    1  0.8174053E-004  0.1043670E+03  0.7546771E-02  0.1274374E+00
          1   -1    0    0  501    0  0.00000000000E+00  0.00000000000E+00  0.13737636498E+03  0.13737636498E+03  0.00000000000E+00 0. -1.
         -1   -1    0    0    0  501 -0.00000000000E+00 -0.00000000000E+00 -0.97518765877E+02  0.97518765877E+02  0.00000000000E+00 0.  1.
         23    2    1    2    0    0 -0.13543800379E+02 -0.33726108233E+02  0.76916917241E+02  0.12964831199E+03  0.97834491556E+02 0.  0.
         23    2    1    2    0    0  0.13543800379E+02  0.33726108233E+02 -0.37059318139E+02  0.10524681887E+03  0.91556621366E+02 0.  0.
          5    1    4    4  502    0  0.36233807341E+02  0.10386843107E+02 -0.55718059246E+02  0.67434171088E+02  0.47000000000E+01 0. -1.
         -5    1    4    4    0  502 -0.22690006963E+02  0.23339265125E+02  0.18658741107E+02  0.37812647781E+02  0.47000000000E+01 0.  1.
          5    1    3    3  503    0  0.26632326370E+02 -0.29731906940E+02  0.79329550583E+02  0.88929942617E+02  0.47000000000E+01 0. -1.
         -5    1    3    3    0  503 -0.40176126749E+02 -0.39942012929E+01 -0.24126333418E+01  0.40718369370E+02  0.47000000000E+01 0.  1.
<mgrwt>
<rscale>  0 0.10286994E+03</rscale>
<asrwt>0</asrwt>
<pdfrwt beam="1">  1        1 0.21134825E-01 0.10436701E+03</pdfrwt>
<pdfrwt beam="2">  1       -1 0.15002887E-01 0.10436701E+03</pdfrwt>
<totfact> 0.70929779E+03</totfact>
</mgrwt>
</event>
<event>
 8    1  0.8174053E-004  0.9784650E+02  0.7546771E-02  0.1286487E+00
          1   -1    0    0  501    0  0.00000000000E+00  0.00000000000E+00  0.47793449574E+03  0.47793449574E+03  0.00000000000E+00 0. -1.
         -1   -1    0    0    0  501 -0.00000000000E+00 -0.00000000000E+00 -0.23037825950E+03  0.23037825950E+03  0.00000000000E+00 0.  1.
         23    2    1    2    0    0  0.16688177199E+01  0.16538818397E+02 -0.21525890955E+03  0.23526751812E+03  0.93477748555E+02 0.  0.
         23    2    1    2    0    0 -0.16688177199E+01 -0.16538818397E+02  0.46281514580E+03  0.47304523712E+03  0.96424165609E+02 0.  0.
          5    1    3    3  502    0 -0.18254447839E+02 -0.82151147440E+01 -0.32240363223E+01  0.20813394398E+02  0.47000000000E+01 0. -1.
         -5    1    3    3    0  502  0.19923265559E+02  0.24753933141E+02 -0.21203487323E+03  0.21445412372E+03  0.47000000000E+01 0.  1.
          5    1    4    4  503    0 -0.36455447926E+02  0.94914154639E+01  0.35014312288E+03  0.35219509246E+03  0.47000000000E+01 0. -1.
         -5    1    4    4    0  503  0.34786630207E+02 -0.26030233861E+02  0.11267202292E+03  0.12085014466E+03  0.47000000000E+01 0.  1.
<mgrwt>
<rscale>  0 0.97112718E+02</rscale>
<asrwt>0</asrwt>
<pdfrwt beam="1">  1        1 0.73528384E-01 0.97846498E+02</pdfrwt>
<pdfrwt beam="2">  1       -1 0.35442809E-01 0.97846498E+02</pdfrwt>
<totfact> 0.37531490E+02</totfact>
</mgrwt>
</event>
<event>
 8    1  0.1096925E-003  0.1756429E+03  0.7546771E-02  0.1173004E+00
         -1   -1    0    0    0  501 -0.00000000000E+00  0.00000000000E+00  0.26789358837E+03  0.26789358837E+03  0.00000000000E+00 0.  1.
          1   -1    0    0  501    0  0.00000000000E+00 -0.00000000000E+00 -0.50354305618E+03  0.50354305618E+03  0.00000000000E+00 0. -1.
         23    2    1    2    0    0  0.11470193741E+03 -0.86723305493E+02 -0.45732764328E+03  0.48860872276E+03  0.94405743932E+02 0.  0.
         23    2    1    2    0    0 -0.11470193741E+03  0.86723305493E+02  0.22167817547E+03  0.28282792180E+03  0.10086106142E+03 0.  0.
          5    1    4    4  502    0 -0.48679746319E+01  0.45064330075E+02  0.20834323067E+02  0.50106387215E+02  0.47000000000E+01 0. -1.
         -5    1    3    3    0  503 -0.99138398923E+01 -0.33292911793E+02 -0.12018556570E+03  0.12519330014E+03  0.47000000000E+01 0.  1.
          5    1    3    3  503    0  0.12461577730E+03 -0.53430393700E+02 -0.33714207758E+03  0.36341542262E+03  0.47000000000E+01 0. -1.
         -5    1    4    4    0  502 -0.10983396278E+03  0.41658975419E+02  0.20084385240E+03  0.23272153458E+03  0.47000000000E+01 0.  1.
<mgrwt>
<rscale>  0 0.17472935E+03</rscale>
<asrwt>0</asrwt>
<pdfrwt beam="1">  1        1 0.77468162E-01 0.17564288E+03</pdfrwt>
<pdfrwt beam="2">  1       -1 0.41214398E-01 0.17564288E+03</pdfrwt>
<totfact> 0.26701052E+02</totfact>
</mgrwt>
</event>
<event>
 8    1  0.8174053E-004  0.1064089E+03  0.7546771E-02  0.1268614E+00
          2   -1    0    0  501    0  0.00000000000E+00  0.00000000000E+00  0.26079638533E+03  0.26079638533E+03  0.00000000000E+00 0. -1.
         -2   -1    0    0    0  501 -0.00000000000E+00 -0.00000000000E+00 -0.50193900128E+02  0.50193900128E+02  0.00000000000E+00 0.  1.
         23    2    1    2    0    0  0.37133000519E+02  0.35861830175E+02  0.45050412642E+02  0.11555255102E+03  0.93047954181E+02 0.  0.
         23    2    1    2    0    0 -0.37133000519E+02 -0.35861830175E+02  0.16555207256E+03  0.19543773444E+03  0.90130398432E+02 0.  0.
          5    1    4    4  502    0  0.29570831448E+02 -0.10584459523E+02  0.41435525927E+02  0.52205915994E+02  0.47000000000E+01 0. -1.
         -5    1    4    4    0  502 -0.66703831966E+02 -0.25277370652E+02  0.12411654663E+03  0.14323181844E+03  0.47000000000E+01 0.  1.
          5    1    3    3  503    0  0.42353095764E+02 -0.21090020078E+02  0.10913260229E+02  0.48782813741E+02  0.47000000000E+01 0. -1.
         -5    1    3    3    0  503 -0.52200952452E+01  0.56951850253E+02  0.34137152412E+02  0.66769737280E+02  0.47000000000E+01 0.  1.
<mgrwt>
<rscale>  0 0.10576773E+03</rscale>
<asrwt>0</asrwt>
<pdfrwt beam="1">  1        2 0.40122520E-01 0.10640889E+03</pdfrwt>
<pdfrwt beam="2">  1       -2 0.77221387E-02 0.10640889E+03</pdfrwt>
<totfact> 0.11747372E+04</totfact>
</mgrwt>
</event>
<event>
 8    1  0.8174053E-004  0.9354044E+02  0.7546771E-02  0.1294628E+00
          1   -1    0    0  501    0  0.00000000000E+00  0.00000000000E+00  0.67379191647E+03  0.67379191647E+03  0.00000000000E+00 0. -1.
         -1   -1    0    0    0  501 -0.00000000000E+00 -0.00000000000E+00 -0.14654553792E+02  0.14654553792E+02  0.00000000000E+00 0.  1.
         23    2    1    2    0    0 -0.27633907904E+01  0.13505349771E+02  0.21197258548E+03  0.23160278502E+03  0.92289989893E+02 0.  0.
         23    2    1    2    0    0  0.27633907904E+01 -0.13505349771E+02  0.44716477720E+03  0.45684368524E+03  0.92519100597E+02 0.  0.
          5    1    3    3  502    0 -0.46337359304E+02  0.63937880474E+00  0.89611595444E+02  0.10099449347E+03  0.47000000000E+01 0. -1.
         -5    1    4    4    0  503 -0.31788204261E+02  0.25154721170E+02  0.16979597304E+03  0.17463107509E+03  0.47000000000E+01 0.  1.
          5    1    4    4  503    0  0.34551595052E+02 -0.38660070941E+02  0.27736880416E+03  0.28221261015E+03  0.47000000000E+01 0. -1.
         -5    1    3    3    0  502  0.43573968513E+02  0.12865970967E+02  0.12236099003E+03  0.13060829156E+03  0.47000000000E+01 0.  1.
<mgrwt>
<rscale>  0 0.93483742E+02</rscale>
<asrwt>0</asrwt>
<pdfrwt beam="1">  1        1 0.10366027E+00 0.93540445E+02</pdfrwt>
<pdfrwt beam="2">  1       -1 0.22545473E-02 0.93540445E+02</pdfrwt>
<totfact> 0.15774762E+04</totfact>
</mgrwt>
</event>
<event>
 8    1  0.8174053E-004  0.1001815E+03  0.7546771E-02  0.1280985E+00
          2   -1    0    0  501    0  0.00000000000E+00  0.00000000000E+00  0.11178849340E+04  0.11178849340E+04  0.00000000000E+00 0. -1.
         -2   -1    0    0    0  501 -0.00000000000E+00 -0.00000000000E+00 -0.91121120679E+01  0.91121120679E+01  0.00000000000E+00 0.  1.
         23    2    1    2    0    0  0.11877999047E+02  0.34569589785E+02  0.45521206263E+03  0.46610551726E+03  0.93274797540E+02 0.  0.
         23    2    1    2    0    0 -0.11877999047E+02 -0.34569589785E+02  0.65356075929E+03  0.66089152879E+03  0.91103256543E+02 0.  0.
          5    1    3    3  502    0  0.45578422656E+02 -0.42363730670E+01  0.26743157775E+03  0.27136152683E+03  0.47000000000E+01 0. -1.
         -5    1    4    4    0  503 -0.20524124098E+02  0.27038289637E+02  0.28982285687E+03  0.29184188723E+03  0.47000000000E+01 0.  1.
          5    1    4    4  503    0  0.86461250513E+01 -0.61607879422E+02  0.36373790241E+03  0.36904964156E+03  0.47000000000E+01 0. -1.
         -5    1    3    3    0  502 -0.33700423609E+02  0.38805962852E+02  0.18778048489E+03  0.19474399043E+03  0.47000000000E+01 0.  1.
<mgrwt>
<rscale>  0 0.99672975E+02</rscale>
<asrwt>0</asrwt>
<pdfrwt beam="1">  1        2 0.17198219E+00 0.10018149E+03</pdfrwt>
<pdfrwt beam="2">  1       -2 0.14018643E-02 0.10018149E+03</pdfrwt>
<totfact> 0.26955840E+04</totfact>
</mgrwt>
</event>
<event>
 8    1  0.8174053E-004  0.1145143E+03  0.7546771E-02  0.1253279E+00
          1   -1    0    0  501    0  0.00000000000E+00  0.00000000000E+00  0.82279328535E+03  0.82279328535E+03  0.00000000000E+00 0. -1.
         -1   -1    0    0    0  501 -0.00000000000E+00 -0.00000000000E+00 -0.16053189552E+02  0.16053189552E+02  0.00000000000E+00 0.  1.
         23    2    1    2    0    0 -0.24947529109E+02  0.62008311503E+02  0.47126588088E+03  0.48497944657E+03  0.92984532105E+02 0.  0.
         23    2    1    2    0    0  0.24947529109E+02 -0.62008311503E+02  0.33547421492E+03  0.35386702833E+03  0.90617409808E+02 0.  0.
          5    1    3    3  502    0  0.28212925079E+02  0.48995037576E+02  0.18548690153E+03  0.19396897558E+03  0.47000000000E+01 0. -1.
         -5    1    4    4    0  503  0.54478870884E+02 -0.57289007302E+02  0.20126966788E+03  0.21629042267E+03  0.47000000000E+01 0.  1.
          5    1    4    4  503    0 -0.29531341775E+02 -0.47193042011E+01  0.13420454704E+03  0.13757660567E+03  0.47000000000E+01 0. -1.
         -5    1    3    3    0  502 -0.53160454188E+02  0.13013273928E+02  0.28577897936E+03  0.29101047100E+03  0.47000000000E+01 0.  1.
<mgrwt>
<rscale>  0 0.11403291E+03</rscale>
<asrwt>0</asrwt>
<pdfrwt beam="1">  1        1 0.12658355E+00 0.11451434E+03</pdfrwt>
<pdfrwt beam="2">  1       -1 0.24697221E-02 0.11451434E+03</pdfrwt>
<totfact> 0.10525099E+04</totfact>
</mgrwt>
</event>
<event>
 8    1  0.8174053E-004  0.2187234E+03  0.7546771E-02  0.1135031E+00
          3   -1    0    0  501    0  0.00000000000E+00  0.00000000000E+00  0.19019482698E+03  0.19019482698E+03  0.00000000000E+00 0. -1.
         -3   -1    0    0    0  501 -0.00000000000E+00 -0.00000000000E+00 -0.25128607845E+03  0.25128607845E+03  0.00000000000E+00 0.  1.
         23    2    1    2    0    0 -0.17833561001E+03  0.86278382254E+02 -0.44037252151E+02  0.22311252112E+03  0.92695029326E+02 0.  0.
         23    2    1    2    0    0  0.17833561001E+03 -0.86278382254E+02 -0.17053999314E+02  0.21836838430E+03  0.90257206518E+02 0.  0.
          5    1    4    4  502    0  0.50898390074E+02 -0.80466739971E+01 -0.42063455017E+02  0.66684475873E+02  0.47000000000E+01 0. -1.
         -5    1    3    3    0  503 -0.54858979757E+02  0.50759308126E+02 -0.56685652053E+02  0.93922138871E+02  0.47000000000E+01 0.  1.
          5    1    3    3  503    0 -0.12347663026E+03  0.35519074127E+02  0.12648399902E+02  0.12919038225E+03  0.47000000000E+01 0. -1.
         -5    1    4    4    0  502  0.12743721994E+03 -0.78231708256E+02  0.25009455704E+02  0.15168390843E+03  0.47000000000E+01 0.  1.
<mgrwt>
<rscale>  0 0.21846744E+03</rscale>
<asrwt>0</asrwt>
<pdfrwt beam="1">  1        3 0.29260743E-01 0.21872338E+03</pdfrwt>
<pdfrwt beam="2">  1       -3 0.38659397E-01 0.21872338E+03</pdfrwt>
<totfact> 0.18384551E+02</totfact>
</mgrwt>
</event>
<event>
 8    1  0.8174053E-004  0.9305101E+02  0.7546771E-02  0.1295810E+00
          1   -1    0    0  501    0  0.00000000000E+00  0.00000000000E+00  0.16546092962E+03  0.16546092962E+03  0.00000000000E+00 0. -1.
         -1   -1    0    0    0  501 -0.00000000000E+00 -0.00000000000E+00 -0.87852538085E+02  0.87852538085E+02  0.00000000000E+00 0.  1.
         23    2    1    2    0    0 -0.14134890913E+01 -0.15888026786E+02 -0.41896417685E+02  0.10204803070E+03  0.91673678933E+02 0.  0.
         23    2    1    2    0    0  0.14134890913E+01  0.15888026786E+02  0.11950480922E+03  0.15126543700E+03  0.91353191831E+02 0.  0.
          5    1    3    3  502    0  0.36786630934E+02 -0.30551094815E+02 -0.80084119515E+01  0.48711910985E+02  0.47000000000E+01 0. -1.
         -5    1    3    3    0  502 -0.38200120025E+02  0.14663068029E+02 -0.33888005734E+02  0.53336119718E+02  0.47000000000E+01 0.  1.
          5    1    4    4  503    0  0.20916179800E+02  0.38504731799E+02  0.11164548950E+03  0.12002877269E+03  0.47000000000E+01 0. -1.
         -5    1    4    4    0  503 -0.19502690708E+02 -0.22616705013E+02  0.78593197166E+01  0.31236664305E+02  0.47000000000E+01 0.  1.
<mgrwt>
<rscale>  0 0.92971979E+02</rscale>
<asrwt>0</asrwt>
<pdfrwt beam="1">  1        1 0.25455528E-01 0.93051012E+02</pdfrwt>
<pdfrwt beam="2">  1       -1 0.13515775E-01 0.93051012E+02</pdfrwt>
<totfact> 0.65507756E+03</totfact>
</mgrwt>
</event>
<event>
 8    1  0.8174053E-004  0.1828750E+03  0.7546771E-02  0.1168898E+00
         -2   -1    0    0    0  501 -0.00000000000E+00  0.00000000000E+00  0.36133949183E+02  0.36133949183E+02  0.00000000000E+00 0.  1.
          2   -1    0    0  501    0  0.00000000000E+00 -0.00000000000E+00 -0.86684321263E+03  0.86684321263E+03  0.00000000000E+00 0. -1.
         23    2    1    2    0    0 -0.13317682148E+03  0.45898347667E+02 -0.49841462518E+03  0.53090526185E+03  0.11662132897E+03 0.  0.
         23    2    1    2    0    0  0.13317682148E+03 -0.45898347667E+02 -0.33229463828E+03  0.37207189997E+03  0.90415972167E+02 0.  0.
          5    1    4    4  502    0  0.16195268547E+02  0.13952499664E+02 -0.12277801189E+03  0.12471362866E+03  0.47000000000E+01 0. -1.
         -5    1    3    3    0  503 -0.67275121984E+01 -0.20672982024E+02 -0.18601944534E+03  0.18734448391E+03  0.47000000000E+01 0.  1.
          5    1    3    3  503    0 -0.12644930928E+03  0.66571329691E+02 -0.31239517983E+03  0.34356077794E+03  0.47000000000E+01 0. -1.
         -5    1    4    4    0  502  0.11698155293E+03 -0.59850847331E+02 -0.20951662638E+03  0.24735827130E+03  0.47000000000E+01 0.  1.
<mgrwt>
<rscale>  0 0.17887305E+03</rscale>
<asrwt>0</asrwt>
<pdfrwt beam="1">  1        2 0.13336049E+00 0.18287498E+03</pdfrwt>
<pdfrwt beam="2">  1       -2 0.55590695E-02 0.18287498E+03</pdfrwt>
<totfact> 0.52329843E+03</totfact>
</mgrwt>
</event>
<event>
 8    1  0.8174053E-004  0.1283539E+03  0.7546771E-02  0.1230116E+00
          1   -1    0    0  501    0  0.00000000000E+00  0.00000000000E+00  0.13996541845E+03  0.13996541845E+03  0.00000000000E+00 0. -1.
         -1   -1    0    0    0  501 -0.00000000000E+00 -0.00000000000E+00 -0.12280586121E+03  0.12280586121E+03  0.00000000000E+00 0.  1.
         23    2    1    2    0    0 -0.77865970712E+02  0.45531797977E+02 -0.19405272645E+02  0.12981252625E+03  0.91315241567E+02 0.  0.
         23    2    1    2    0    0  0.77865970712E+02 -0.45531797977E+02  0.36564829894E+02  0.13295875341E+03  0.90580292017E+02 0.  0.
          5    1    3    3  502    0  0.16320032671E+02  0.16159437124E+02  0.11778329936E+02  0.26235280266E+02  0.47000000000E+01 0. -1.
         -5    1    3    3    0  502 -0.94186003383E+02  0.29372360853E+02 -0.31183602581E+02  0.10357724598E+03  0.47000000000E+01 0.  1.
          5    1    4    4  503    0  0.85289799114E+02 -0.19572495027E+02  0.51603445623E+02  0.10169777773E+03  0.47000000000E+01 0. -1.
         -5    1    4    4    0  503 -0.74238284019E+01 -0.25959302949E+02 -0.15038615729E+02  0.31260975685E+02  0.47000000000E+01 0.  1.
<mgrwt>
<rscale>  0 0.12822326E+03</rscale>
<asrwt>0</asrwt>
<pdfrwt beam="1">  1        1 0.21533141E-01 0.12835391E+03</pdfrwt>
<pdfrwt beam="2">  1       -1 0.18893210E-01 0.12835391E+03</pdfrwt>
<totfact> 0.48895257E+03</totfact>
</mgrwt>
</event>
<event>
 8    1  0.8174053E-004  0.9218061E+02  0.7546771E-02  0.1298642E+00
         -1   -1    0    0    0  501 -0.00000000000E+00  0.00000000000E+00  0.50762608636E+03  0.50762608636E+03  0.00000000000E+00 0.  1.
          1   -1    0    0  501    0  0.00000000000E+00 -0.00000000000E+00 -0.16522901642E+02  0.16522901642E+02  0.00000000000E+00 0. -1.
         23    2    1    2    0    0  0.72107328763E+01 -0.13151595844E+02  0.26656471449E+03  0.28205320665E+03  0.90952213988E+02 0.  0.
         23    2    1    2    0    0 -0.72107328763E+01  0.13151595844E+02  0.22453847023E+03  0.24209578136E+03  0.89263002380E+02 0.  0.
          5    1    3    3  502    0 -0.33885018600E+02  0.13252391864E+02  0.16786662112E+03  0.17182873119E+03  0.47000000000E+01 0. -1.
         -5    1    4    4    0  503 -0.13419256816E+02 -0.36632603640E+02  0.82406634742E+02  0.91296043465E+02  0.47000000000E+01 0.  1.
          5    1    4    4  503    0  0.62085239401E+01  0.49784199484E+02  0.14213183549E+03  0.15079973789E+03  0.47000000000E+01 0. -1.
         -5    1    3    3    0  502  0.41095751476E+02 -0.26403987707E+02  0.98698093369E+02  0.11022447546E+03  0.47000000000E+01 0.  1.
<mgrwt>
<rscale>  0 0.91761182E+02</rscale>
<asrwt>0</asrwt>
<pdfrwt beam="1">  1        1 0.25419853E-02 0.92180607E+02</pdfrwt>
<pdfrwt beam="2">  1       -1 0.78096309E-01 0.92180607E+02</pdfrwt>
<totfact> 0.67768775E+03</totfact>
</mgrwt>
</event>
<event>
 8    1  0.8174053E-004  0.9981659E+02  0.7546771E-02  0.1292147E+00
         -2   -1    0    0    0  501 -0.00000000000E+00  0.00000000000E+00  0.19506705417E+02  0.19506705417E+02  0.00000000000E+00 0.  1.
          2   -1    0    0  501    0  0.00000000000E+00 -0.00000000000E+00 -0.62695995179E+03  0.62695995179E+03  0.00000000000E+00 0. -1.
         23    2    1    2    0    0  0.30181736791E+02 -0.10713694458E+02 -0.51203293807E+03  0.52167142992E+03  0.94539042981E+02 0.  0.
         23    2    1    2    0    0 -0.30181736791E+02  0.10713694458E+02 -0.95420308310E+02  0.12479522729E+03  0.73777320574E+02 0.  0.
          5    1    4    4  502    0 -0.35717506299E+02 -0.18868366857E+02 -0.81957238036E+02  0.91492264102E+02  0.47000000000E+01 0. -1.
         -5    1    3    3    0  503  0.53189704371E+02 -0.35696149934E+02 -0.29178540458E+03  0.29877110319E+03  0.47000000000E+01 0.  1.
          5    1    3    3  503    0 -0.23007967580E+02  0.24982455475E+02 -0.22024753349E+03  0.22290032674E+03  0.47000000000E+01 0. -1.
         -5    1    4    4    0  502  0.55357695082E+01  0.29582061315E+02 -0.13463070274E+02  0.33302963185E+02  0.47000000000E+01 0.  1.
<mgrwt>
<rscale>  0 0.94570376E+02</rscale>
<asrwt>0</asrwt>
<pdfrwt beam="1">  1        2 0.96455372E-01 0.99816587E+02</pdfrwt>
<pdfrwt beam="2">  1       -2 0.30010318E-02 0.99816587E+02</pdfrwt>
<totfact> 0.18663174E+04</totfact>
</mgrwt>
</event>
<event>
 8    1  0.8174053E-004  0.1060813E+03  0.7546771E-02  0.1268481E+00
         -2   -1    0    0    0  501 -0.00000000000E+00  0.00000000000E+00  0.80640333749E+02  0.80640333749E+02  0.00000000000E+00 0.  1.
          2   -1    0    0  501    0  0.00000000000E+00 -0.00000000000E+00 -0.38159388307E+03  0.38159388307E+03  0.00000000000E+00 0. -1.
         23    2    1    2    0    0 -0.37136717617E+02  0.41086954571E+02  0.34330880761E+02  0.11056832757E+03  0.89327890700E+02 0.  0.
         23    2    1    2    0    0  0.37136717617E+02 -0.41086954571E+02 -0.33528443008E+03  0.35166588924E+03  0.90476377985E+02 0.  0.
          5    1    4    4  502    0  0.36999698337E+02 -0.68526930222E+02 -0.23675533877E+03  0.24927915733E+03  0.47000000000E+01 0. -1.
         -5    1    3    3    0  503  0.25784814783E+02  0.30322967354E+02  0.20757981245E+02  0.45136712418E+02  0.47000000000E+01 0.  1.
          5    1    3    3  503    0 -0.62921532400E+02  0.10763987217E+02  0.13572899516E+02  0.65431615154E+02  0.47000000000E+01 0. -1.
         -5    1    4    4    0  502  0.13701927972E+00  0.27439975652E+02 -0.98529091308E+02  0.10238673191E+03  0.47000000000E+01 0.  1.
<mgrwt>
<rscale>  0 0.10583602E+03</rscale>
<asrwt>0</asrwt>
<pdfrwt beam="1">  1        2 0.58706750E-01 0.10608133E+03</pdfrwt>
<pdfrwt beam="2">  1       -2 0.12406206E-01 0.10608133E+03</pdfrwt>
<totfact> 0.37565349E+03</totfact>
</mgrwt>
</event>
<event>
 8    1  0.8174053E-004  0.1152862E+03  0.7546771E-02  0.1258423E+00
         -2   -1    0    0    0  501 -0.00000000000E+00  0.00000000000E+00  0.14665925961E+02  0.14665925961E+02  0.00000000000E+00 0.  1.
          2   -1    0    0  501    0  0.00000000000E+00 -0.00000000000E+00 -0.79818542365E+03  0.79818542365E+03  0.00000000000E+00 0. -1.
         23    2    1    2    0    0 -0.41602265379E+02 -0.24989164416E+02 -0.37331134809E+03  0.39070740366E+03  0.10457392525E+03 0.  0.
         23    2    1    2    0    0  0.41602265379E+02  0.24989164416E+02 -0.41020814960E+03  0.42214394595E+03  0.87060773485E+02 0.  0.
          5    1    3    3  502    0  0.34367074568E+02 -0.73039076741E+00 -0.13377377829E+03  0.13819964921E+03  0.47000000000E+01 0. -1.
         -5    1    4    4    0  503 -0.69237153034E+01  0.28979203535E+02 -0.48298901816E+02  0.56943884551E+02  0.47000000000E+01 0.  1.
          5    1    4    4  503    0  0.48525980683E+02 -0.39900391185E+01 -0.36190924778E+03  0.36520006140E+03  0.47000000000E+01 0. -1.
         -5    1    3    3    0  502 -0.75969339947E+02 -0.24258773649E+02 -0.23953756980E+03  0.25250775445E+03  0.47000000000E+01 0.  1.
<mgrwt>
<rscale>  0 0.11116751E+03</rscale>
<asrwt>0</asrwt>
<pdfrwt beam="1">  1        2 0.12279776E+00 0.11528622E+03</pdfrwt>
<pdfrwt beam="2">  1       -2 0.22562963E-02 0.11528622E+03</pdfrwt>
<totfact> 0.21515122E+04</totfact>
</mgrwt>
</event>
<event>
 8    1  0.8174053E-004  0.9332693E+02  0.7546771E-02  0.1295449E+00
         -1   -1    0    0    0  501 -0.00000000000E+00  0.00000000000E+00  0.34539559838E+02  0.34539559838E+02  0.00000000000E+00 0.  1.
          1   -1    0    0  501    0  0.00000000000E+00 -0.00000000000E+00 -0.25008840213E+03  0.25008840213E+03  0.00000000000E+00 0. -1.
         23    2    1    2    0    0  0.14419643342E+02  0.11599793481E+02 -0.10523060933E+03  0.14012872585E+03  0.90664752497E+02 0.  0.
         23    2    1    2    0    0 -0.14419643342E+02 -0.11599793481E+02 -0.11031823297E+03  0.14449923612E+03  0.91473686885E+02 0.  0.
          5    1    3    3  502    0  0.40529648817E+02 -0.21234068188E+02 -0.33511804681E+02  0.56909306251E+02  0.47000000000E+01 0. -1.
         -5    1    3    3    0  502 -0.26110005475E+02  0.32833861669E+02 -0.71718804646E+02  0.83219419596E+02  0.47000000000E+01 0.  1.
          5    1    4    4  503    0  0.38173194522E+02 -0.58577459223E+01 -0.58793424047E+02  0.70500089918E+02  0.47000000000E+01 0. -1.
         -5    1    4    4    0  503 -0.52592837864E+02 -0.57420475591E+01 -0.51524808919E+02  0.73999146204E+02  0.47000000000E+01 0.  1.
<mgrwt>
<rscale>  0 0.93128117E+02</rscale>
<asrwt>0</asrwt>
<pdfrwt beam="1">  1        1 0.38475139E-01 0.93326935E+02</pdfrwt>
<pdfrwt beam="2">  1       -1 0.53137784E-02 0.93326935E+02</pdfrwt>
<totfact> 0.15997065E+04</totfact>
</mgrwt>
</event>
<event>
 8    1  0.8174053E-004  0.9327576E+02  0.7546771E-02  0.1296021E+00
         -4   -1    0    0    0  501 -0.00000000000E+00  0.00000000000E+00  0.32328723893E+02  0.32328723893E+02  0.00000000000E+00 0.  1.
          4   -1    0    0  501    0  0.00000000000E+00 -0.00000000000E+00 -0.27387860570E+03  0.27387860570E+03  0.00000000000E+00 0. -1.
         23    2    1    2    0    0 -0.29045277808E+01  0.20725033177E+02 -0.91631444560E+02  0.12964032965E+03  0.89287906005E+02 0.  0.
         23    2    1    2    0    0  0.29045277808E+01 -0.20725033177E+02 -0.14991843724E+03  0.17656699994E+03  0.90897768723E+02 0.  0.
          5    1    4    4  502    0 -0.38569384325E+02 -0.24530157357E+02 -0.10762540673E+03  0.11702411803E+03  0.47000000000E+01 0. -1.
         -5    1    4    4    0  502  0.41473912105E+02  0.38051241807E+01 -0.42293030510E+02  0.59542881901E+02  0.47000000000E+01 0.  1.
          5    1    3    3  503    0 -0.16355568414E+02 -0.31806795612E+02 -0.47025416986E+02  0.59267670006E+02  0.47000000000E+01 0. -1.
         -5    1    3    3    0  503  0.13451040633E+02  0.52531828788E+02 -0.44606027573E+02  0.70372659647E+02  0.47000000000E+01 0.  1.
<mgrwt>
<rscale>  0 0.92881238E+02</rscale>
<asrwt>0</asrwt>
<pdfrwt beam="1">  1        4 0.42135169E-01 0.93275761E+02</pdfrwt>
<pdfrwt beam="2">  1       -4 0.49736499E-02 0.93275761E+02</pdfrwt>
<totfact> 0.19829061E+03</totfact>
</mgrwt>
</event>
<event>
 8    1  0.8174053E-004  0.9887735E+02  0.7546771E-02  0.1282935E+00
         -4   -1    0    0    0  501 -0.00000000000E+00  0.00000000000E+00  0.51111052937E+03  0.51111052937E+03  0.00000000000E+00 0. -1.
          4   -1    0    0  501    0  0.00000000000E+00 -0.00000000000E+00 -0.46011558629E+02  0.46011558629E+02  0.00000000000E+00 0.  1.
         23    2    1    2    0    0  0.19977963124E+02  0.31546723075E+02  0.19015726425E+02  0.10021182220E+03  0.91030196690E+02 0.  0.
         23    2    1    2    0    0 -0.19977963124E+02 -0.31546723075E+02  0.44608324432E+03  0.45691026581E+03  0.91555531713E+02 0.  0.
          5    1    3    3  502    0  0.89094610368E+00 -0.29283783972E+02  0.20838126604E+02  0.36258120595E+02  0.47000000000E+01 0. -1.
         -5    1    3    3    0  502  0.19087017020E+02  0.60830507047E+02 -0.18224001795E+01  0.63953701603E+02  0.47000000000E+01 0.  1.
          5    1    4    4  503    0 -0.67815900114E+01 -0.61127672924E+02  0.35030257605E+03  0.35569167428E+03  0.47000000000E+01 0. -1.
         -5    1    4    4    0  503 -0.13196373112E+02  0.29580949849E+02  0.95780668269E+02  0.10121859153E+03  0.47000000000E+01 0.  1.
<mgrwt>
<rscale>  0 0.98755566E+02</rscale>
<asrwt>0</asrwt>
<pdfrwt beam="1">  1        4 0.70787017E-02 0.98877349E+02</pdfrwt>
<pdfrwt beam="2">  1       -4 0.78632385E-01 0.98877349E+02</pdfrwt>
<totfact> 0.31240596E+02</totfact>
</mgrwt>
</event>
<event>
 8    1  0.8174053E-004  0.1025836E+03  0.7546771E-02  0.1275709E+00
         -2   -1    0    0    0  501 -0.00000000000E+00  0.00000000000E+00  0.24516176782E+02  0.24516176782E+02  0.00000000000E+00 0.  1.
          2   -1    0    0  501    0  0.00000000000E+00 -0.00000000000E+00 -0.42310620506E+03  0.42310620506E+03  0.00000000000E+00 0. -1.
         23    2    1    2    0    0  0.16454481769E+02 -0.12082969253E+02 -0.20094331313E+03  0.22561386693E+03  0.10053185438E+03 0.  0.
         23    2    1    2    0    0 -0.16454481769E+02  0.12082969253E+02 -0.19764671515E+03  0.22200851491E+03  0.99029331853E+02 0.  0.
          5    1    4    4  502    0  0.76375932406E+01  0.52420258809E+02 -0.11772828620E+03  0.12918303192E+03  0.47000000000E+01 0. -1.
         -5    1    3    3    0  503 -0.70116525340E+00 -0.48799938539E+02 -0.53232131112E+02  0.72371786055E+02  0.47000000000E+01 0.  1.
          5    1    3    3  503    0  0.17155647023E+02  0.36716969287E+02 -0.14771118202E+03  0.15324208088E+03  0.47000000000E+01 0. -1.
         -5    1    4    4    0  502 -0.24092075010E+02 -0.40337289556E+02 -0.79918428954E+02  0.92825482996E+02  0.47000000000E+01 0.  1.
<mgrwt>
<rscale>  0 0.10221363E+03</rscale>
<asrwt>0</asrwt>
<pdfrwt beam="1">  1        2 0.65093259E-01 0.10258363E+03</pdfrwt>
<pdfrwt beam="2">  1       -2 0.37717197E-02 0.10258363E+03</pdfrwt>
<totfact> 0.20581409E+04</totfact>
</mgrwt>
</event>
<event>
 8    1  0.8174053E-004  0.9569255E+02  0.7546771E-02  0.1289760E+00
          1   -1    0    0  501    0  0.00000000000E+00  0.00000000000E+00  0.93099635927E+02  0.93099635927E+02  0.00000000000E+00 0. -1.
         -1   -1    0    0    0  501 -0.00000000000E+00 -0.00000000000E+00 -0.98329842945E+02  0.98329842945E+02  0.00000000000E+00 0.  1.
         23    2    1    2    0    0 -0.12003840453E+02  0.29398490928E+02 -0.71726534279E+01  0.95717220311E+02  0.90010976289E+02 0.  0.
         23    2    1    2    0    0  0.12003840453E+02 -0.29398490928E+02  0.19424464096E+01  0.95712258561E+02  0.90270149475E+02 0.  0.
          5    1    3    3  502    0  0.36026209200E+02  0.27554569787E+02  0.51130168338E+01  0.45884365601E+02  0.47000000000E+01 0. -1.
         -5    1    3    3    0  502 -0.48030049653E+02  0.18439211413E+01 -0.12285670262E+02  0.49832854711E+02  0.47000000000E+01 0.  1.
          5    1    4    4  503    0 -0.50313709463E+01 -0.54573569133E+02  0.21725548843E+02  0.59141175285E+02  0.47000000000E+01 0. -1.
         -5    1    4    4    0  503  0.17035211399E+02  0.25175078205E+02 -0.19783102434E+02  0.36571083276E+02  0.47000000000E+01 0.  1.
<mgrwt>
<rscale>  0 0.95631375E+02</rscale>
<asrwt>0</asrwt>
<pdfrwt beam="1">  1        1 0.14323021E-01 0.95692546E+02</pdfrwt>
<pdfrwt beam="2">  1       -1 0.15127668E-01 0.95692546E+02</pdfrwt>
<totfact> 0.11392561E+04</totfact>
</mgrwt>
</event>
<event>
 8    1  0.8174053E-004  0.1016628E+03  0.7546771E-02  0.1277857E+00
         -2   -1    0    0    0  501 -0.00000000000E+00  0.00000000000E+00  0.16284616109E+03  0.16284616109E+03  0.00000000000E+00 0.  1.
          2   -1    0    0  501    0  0.00000000000E+00 -0.00000000000E+00 -0.10076131888E+03  0.10076131888E+03  0.00000000000E+00 0. -1.
         23    2    1    2    0    0 -0.16216006925E+02  0.38389487707E+02  0.11233907611E+03  0.15020195667E+03  0.90575096577E+02 0.  0.
         23    2    1    2    0    0  0.16216006925E+02 -0.38389487707E+02 -0.50254233898E+02  0.11340552329E+03  0.92728706678E+02 0.  0.
          5    1    4    4  502    0  0.54878154804E+02 -0.24650409924E+02 -0.30942571871E+02  0.67814359379E+02  0.47000000000E+01 0. -1.
         -5    1    4    4    0  502 -0.38662147879E+02 -0.13739077783E+02 -0.19311662027E+02  0.45591163916E+02  0.47000000000E+01 0. -1.
          5    1    3    3  503    0 -0.38188994690E+02 -0.14997484917E+02  0.39570170120E+02  0.57194512259E+02  0.47000000000E+01 0. -1.
         -5    1    3    3    0  503  0.21972987765E+02  0.53386972623E+02  0.72768905989E+02  0.93007444412E+02  0.47000000000E+01 0.  1.
<mgrwt>
<rscale>  0 0.10116910E+03</rscale>
<asrwt>0</asrwt>
<pdfrwt beam="1">  1        2 0.15501741E-01 0.10166280E+03</pdfrwt>
<pdfrwt beam="2">  1       -2 0.25053256E-01 0.10166280E+03</pdfrwt>
<totfact> 0.49527427E+03</totfact>
</mgrwt>
</event>
<event>
 8    1  0.8174053E-004  0.1216494E+03  0.7546771E-02  0.1240407E+00
          2   -1    0    0  501    0  0.00000000000E+00  0.00000000000E+00  0.74584911402E+03  0.74584911402E+03  0.00000000000E+00 0. -1.
         -2   -1    0    0    0  501 -0.00000000000E+00 -0.00000000000E+00 -0.52245441931E+02  0.52245441931E+02  0.00000000000E+00 0.  1.
         23    2    1    2    0    0 -0.42764821249E+02  0.68014785468E+02  0.32529577957E+02  0.12592361141E+03  0.91344082946E+02 0.  0.
         23    2    1    2    0    0  0.42764821249E+02 -0.68014785468E+02  0.66107409414E+03  0.67217094455E+03  0.91323489732E+02 0.  0.
          5    1    3    3  502    0 -0.27198321755E+02  0.69096603079E+01  0.52414116114E+02  0.59639095230E+02  0.47000000000E+01 0.  1.
         -5    1    3    3    0  502 -0.15566499494E+02  0.61105125160E+02 -0.19884538156E+02  0.66284516178E+02  0.47000000000E+01 0.  1.
          5    1    4    4  503    0  0.70934612786E+02 -0.51458028424E+02  0.44257095681E+03  0.45118819776E+03  0.47000000000E+01 0. -1.
         -5    1    4    4    0  503 -0.28169791537E+02 -0.16556757044E+02  0.21850313732E+03  0.22098274679E+03  0.47000000000E+01 0.  1.
<mgrwt>
<rscale>  0 0.12164556E+03</rscale>
<asrwt>0</asrwt>
<pdfrwt beam="1">  1        2 0.11474601E+00 0.12164942E+03</pdfrwt>
<pdfrwt beam="2">  1       -2 0.80377608E-02 0.12164942E+03</pdfrwt>
<totfact> 0.35391509E+03</totfact>
</mgrwt>
</event>
<event>
 8    1  0.8174053E-004  0.1046660E+03  0.7546771E-02  0.1273051E+00
         -1   -1    0    0    0  501 -0.00000000000E+00  0.00000000000E+00  0.56259142626E+02  0.56259142626E+02  0.00000000000E+00 0.  1.
          1   -1    0    0  501    0  0.00000000000E+00 -0.00000000000E+00 -0.19494182651E+03  0.19494182651E+03  0.00000000000E+00 0. -1.
         23    2    1    2    0    0 -0.49600644506E+02 -0.64965440434E+01 -0.41706820154E+02  0.10851498023E+03  0.86796388554E+02 0.  0.
         23    2    1    2    0    0  0.49600644506E+02  0.64965440434E+01 -0.96975863735E+02  0.14268598891E+03  0.91937719492E+02 0.  0.
          5    1    3    3  502    0 -0.47006591917E+00  0.35144771933E+02 -0.12014426378E+02  0.37440785213E+02  0.47000000000E+01 0. -1.
         -5    1    4    4    0  503  0.52756867948E+02 -0.29035024589E+02 -0.31856662785E+02  0.68288042382E+02  0.47000000000E+01 0.  1.
          5    1    4    4  503    0 -0.31562234419E+01  0.35531568633E+02 -0.65119200950E+02  0.74397946532E+02  0.47000000000E+01 0. -1.
         -5    1    3    3    0  502 -0.49130578587E+02 -0.41641315976E+02 -0.29692393776E+02  0.71074195012E+02  0.47000000000E+01 0.  1.
<mgrwt>
<rscale>  0 0.10352603E+03</rscale>
<asrwt>0</asrwt>
<pdfrwt beam="1">  1        1 0.29991050E-01 0.10466601E+03</pdfrwt>
<pdfrwt beam="2">  1       -1 0.86552528E-02 0.10466601E+03</pdfrwt>
<totfact> 0.10637475E+04</totfact>
</mgrwt>
</event>
<event>
 8    1  0.8174053E-004  0.1320854E+03  0.7546771E-02  0.1224408E+00
          3   -1    0    0  501    0  0.00000000000E+00  0.00000000000E+00  0.22311125394E+03  0.22311125394E+03  0.00000000000E+00 0. -1.
         -3   -1    0    0    0  501 -0.00000000000E+00 -0.00000000000E+00 -0.81921264016E+02  0.81921264016E+02  0.00000000000E+00 0.  1.
         23    2    1    2    0    0  0.77482742331E+02 -0.54975102914E+02  0.10322743762E+03  0.16763790524E+03  0.91764514369E+02 0.  0.
         23    2    1    2    0    0 -0.77482742331E+02  0.54975102914E+02  0.37962552310E+02  0.13739461272E+03  0.91707616512E+02 0.  0.
          5    1    3    3  502    0  0.37863636592E+02 -0.64985436497E+02  0.10156785837E+03  0.12647087327E+03  0.47000000000E+01 0. -1.
         -5    1    4    4    0  503 -0.95069928400E+02  0.34747004740E+02  0.16344538444E+02  0.10263956139E+03  0.47000000000E+01 0.  1.
          5    1    4    4  503    0  0.17587186069E+02  0.20228098174E+02  0.21618013866E+02  0.34755051332E+02  0.47000000000E+01 0. -1.
         -5    1    3    3    0  502  0.39619105739E+02  0.10010333583E+02  0.16595792496E+01  0.41167031970E+02  0.47000000000E+01 0.  1.
<mgrwt>
<rscale>  0 0.13207556E+03</rscale>
<asrwt>0</asrwt>
<pdfrwt beam="1">  1        3 0.34324808E-01 0.13208544E+03</pdfrwt>
<pdfrwt beam="2">  1       -3 0.12603271E-01 0.13208544E+03</pdfrwt>
<totfact> 0.95715787E+02</totfact>
</mgrwt>
</event>
<event>
 8    1  0.8174053E-004  0.9633898E+02  0.7546771E-02  0.1289710E+00
         -3   -1    0    0    0  501 -0.00000000000E+00  0.00000000000E+00  0.46012068917E+02  0.46012068917E+02  0.00000000000E+00 0.  1.
          3   -1    0    0  501    0  0.00000000000E+00 -0.00000000000E+00 -0.21463910133E+03  0.21463910133E+03  0.00000000000E+00 0. -1.
         23    2    1    2    0    0 -0.11096893437E+02  0.34702926958E+00 -0.44891132196E+02  0.10383352910E+03  0.92967341264E+02 0.  0.
         23    2    1    2    0    0  0.11096893437E+02 -0.34702926958E+00 -0.12373590022E+03  0.15681764115E+03  0.95697116466E+02 0.  0.
          5    1    3    3  502    0 -0.14780447940E+02  0.45283321802E+02 -0.18077352333E+02  0.51165628523E+02  0.47000000000E+01 0. -1.
         -5    1    4    4    0  503  0.45524417395E+02 -0.14096473787E+02 -0.31552917866E+02  0.57348581310E+02  0.47000000000E+01 0.  1.
          5    1    4    4  503    0 -0.34427523957E+02  0.13749444518E+02 -0.92182982351E+02  0.99469059841E+02  0.47000000000E+01 0. -1.
         -5    1    3    3    0  502  0.36835545027E+01 -0.44936292533E+02 -0.26813779863E+02  0.52667900574E+02  0.47000000000E+01 0.  1.
<mgrwt>
<rscale>  0 0.95653946E+02</rscale>
<asrwt>0</asrwt>
<pdfrwt beam="1">  1        3 0.33021400E-01 0.96338983E+02</pdfrwt>
<pdfrwt beam="2">  1       -3 0.70787799E-02 0.96338983E+02</pdfrwt>
<totfact> 0.25025411E+03</totfact>
</mgrwt>
</event>
<event>
 8    1  0.8174053E-004  0.1048060E+03  0.7546771E-02  0.1270593E+00
         -2   -1    0    0    0  501 -0.00000000000E+00  0.00000000000E+00  0.96334801735E+02  0.96334801735E+02  0.00000000000E+00 0.  1.
          2   -1    0    0  501    0  0.00000000000E+00 -0.00000000000E+00 -0.12729088904E+03  0.12729088904E+03  0.00000000000E+00 0. -1.
         23    2    1    2    0    0  0.24043565110E+01 -0.48296106023E+02  0.20905828967E+02  0.10668999146E+03  0.92776105795E+02 0.  0.
         23    2    1    2    0    0 -0.24043565110E+01  0.48296106023E+02 -0.51861916277E+02  0.11693569932E+03  0.92983894451E+02 0.  0.
          5    1    4    4  502    0 -0.32689053610E+02  0.60568371369E+02 -0.21970881323E+02  0.72401046003E+02  0.47000000000E+01 0. -1.
         -5    1    4    4    0  502  0.30284697099E+02 -0.12272265346E+02 -0.29891034954E+02  0.44534653313E+02  0.47000000000E+01 0.  1.
          5    1    3    3  503    0 -0.19205875944E+02  0.92106920599E+01 -0.22488714320E+02  0.31329455641E+02  0.47000000000E+01 0. -1.
         -5    1    3    3    0  503  0.21610232455E+02 -0.57506798083E+02  0.43394543287E+02  0.75360535823E+02  0.47000000000E+01 0.  1.
<mgrwt>
<rscale>  0 0.10475990E+03</rscale>
<asrwt>0</asrwt>
<pdfrwt beam="1">  1        2 0.19583214E-01 0.10480601E+03</pdfrwt>
<pdfrwt beam="2">  1       -2 0.14820739E-01 0.10480601E+03</pdfrwt>
<totfact> 0.91619129E+03</totfact>
</mgrwt>
</event>
<event>
 8    1  0.8174053E-004  0.9750775E+02  0.7546771E-02  0.1287928E+00
          1   -1    0    0  501    0  0.00000000000E+00  0.00000000000E+00  0.47216638501E+03  0.47216638501E+03  0.00000000000E+00 0. -1.
         -1   -1    0    0    0  501 -0.00000000000E+00 -0.00000000000E+00 -0.19399291672E+02  0.19399291672E+02  0.00000000000E+00 0.  1.
         23    2    1    2    0    0  0.48173805604E+01  0.33329367978E+02  0.20317294243E+03  0.22360112273E+03  0.87087103662E+02 0.  0.
         23    2    1    2    0    0 -0.48173805604E+01 -0.33329367978E+02  0.24959415091E+03  0.26796455395E+03  0.91507967316E+02 0.  0.
          5    1    3    3  502    0  0.28218297404E+02  0.43988605397E+02  0.18358359266E+03  0.19093531682E+03  0.47000000000E+01 0. -1.
         -5    1    3    3    0  502 -0.23400916843E+02 -0.10659237419E+02  0.19589349765E+02  0.32665805909E+02  0.47000000000E+01 0.  1.
          5    1    4    4  503    0  0.34970540261E+02  0.10603328806E+02  0.11664684652E+03  0.12232720903E+03  0.47000000000E+01 0. -1.
         -5    1    4    4    0  503 -0.39787920821E+02 -0.43932696784E+02  0.13294730439E+03  0.14563734492E+03  0.47000000000E+01 0.  1.
<mgrwt>
<rscale>  0 0.96456795E+02</rscale>
<asrwt>0</asrwt>
<pdfrwt beam="1">  1        1 0.72640974E-01 0.97507754E+02</pdfrwt>
<pdfrwt beam="2">  1       -1 0.29845068E-02 0.97507754E+02</pdfrwt>
<totfact> 0.16949980E+04</totfact>
</mgrwt>
</event>
<event>
 8    1  0.8174053E-004  0.9515089E+02  0.7546771E-02  0.1291143E+00
         -2   -1    0    0    0  501 -0.00000000000E+00  0.00000000000E+00  0.12254539995E+02  0.12254539995E+02  0.00000000000E+00 0.  1.
          2   -1    0    0  501    0  0.00000000000E+00 -0.00000000000E+00 -0.79856293269E+03  0.79856293269E+03  0.00000000000E+00 0. -1.
         23    2    1    2    0    0  0.10087526655E+02 -0.22653153561E+02 -0.27736427592E+03  0.29305516576E+03  0.91298768145E+02 0.  0.
         23    2    1    2    0    0 -0.10087526655E+02  0.22653153561E+02 -0.50894411678E+03  0.51776230693E+03  0.91862772151E+02 0.  0.
          5    1    3    3  502    0 -0.81629229684E+01  0.30898258634E+02 -0.15260964380E+03  0.15599079805E+03  0.47000000000E+01 0. -1.
         -5    1    4    4    0  503 -0.37230724163E+02 -0.20116494206E+02 -0.18415712911E+03  0.18901518025E+03  0.47000000000E+01 0.  1.
          5    1    4    4  503    0  0.27143197508E+02  0.42769647767E+02 -0.32478698767E+03  0.32874712668E+03  0.47000000000E+01 0. -1.
         -5    1    3    3    0  502  0.18250449624E+02 -0.53551412195E+02 -0.12475463212E+03  0.13706436771E+03  0.47000000000E+01 0.  1.
<mgrwt>
<rscale>  0 0.95014500E+02</rscale>
<asrwt>0</asrwt>
<pdfrwt beam="1">  1        2 0.12285588E+00 0.95150893E+02</pdfrwt>
<pdfrwt beam="2">  1       -2 0.18853132E-02 0.95150893E+02</pdfrwt>
<totfact> 0.27382176E+04</totfact>
</mgrwt>
</event>
<event>
 8    1  0.8174053E-004  0.1206221E+03  0.7546771E-02  0.1243694E+00
         -1   -1    0    0    0  501 -0.00000000000E+00  0.00000000000E+00  0.30967841965E+03  0.30967841965E+03  0.00000000000E+00 0.  1.
          1   -1    0    0  501    0  0.00000000000E+00 -0.00000000000E+00 -0.60209004067E+02  0.60209004067E+02  0.00000000000E+00 0. -1.
         23    2    1    2    0    0 -0.54937464479E+02 -0.50220495736E+02  0.34818393706E+02  0.12554684571E+03  0.94918210753E+02 0.  0.
         23    2    1    2    0    0  0.54937464479E+02  0.50220495736E+02  0.21465102188E+03  0.24434057800E+03  0.89927935989E+02 0.  0.
          5    1    3    3  502    0 -0.22226229006E+02 -0.48470838144E+02 -0.23524669135E+02  0.58471595361E+02  0.47000000000E+01 0. -1.
         -5    1    3    3    0  502 -0.32711235474E+02 -0.17496575919E+01  0.58343062841E+02  0.67075250351E+02  0.47000000000E+01 0.  1.
          5    1    4    4  503    0 -0.10256810910E+02  0.36072916041E+02  0.30971289485E+02  0.48864795243E+02  0.47000000000E+01 0. -1.
         -5    1    4    4    0  503  0.65194275389E+02  0.14147579695E+02  0.18367973239E+03  0.19547578276E+03  0.47000000000E+01 0.  1.
<mgrwt>
<rscale>  0 0.11963857E+03</rscale>
<asrwt>0</asrwt>
<pdfrwt beam="1">  1        1 0.92629239E-02 0.12062210E+03</pdfrwt>
<pdfrwt beam="2">  1       -1 0.47642833E-01 0.12062210E+03</pdfrwt>
<totfact> 0.30621171E+03</totfact>
</mgrwt>
</event>
<event>
 8    1  0.8174053E-004  0.1342817E+03  0.7546771E-02  0.1221240E+00
          1   -1    0    0  501    0  0.00000000000E+00  0.00000000000E+00  0.38152394984E+03  0.38152394984E+03  0.00000000000E+00 0. -1.
         -1   -1    0    0    0  501 -0.00000000000E+00 -0.00000000000E+00 -0.91852722585E+02  0.91852722585E+02  0.00000000000E+00 0.  1.
         23    2    1    2    0    0 -0.82967510138E+02 -0.52997024739E+02 -0.20082994971E+02  0.13576853044E+03  0.91309773859E+02 0.  0.
         23    2    1    2    0    0  0.82967510138E+02  0.52997024739E+02  0.30975422223E+03  0.33760814198E+03  0.91319696536E+02 0.  0.
          5    1    4    4  502    0  0.46529364369E+02  0.61309156950E+02  0.27751004384E+03  0.28802379920E+03  0.47000000000E+01 0. -1.
         -5    1    3    3    0  503 -0.40985600741E+02  0.11219817340E+02 -0.37596856375E+02  0.56932568697E+02  0.47000000000E+01 0.  1.
          5    1    3    3  503    0 -0.41981909397E+02 -0.64216842079E+02  0.17513861404E+02  0.78835961746E+02  0.47000000000E+01 0. -1.
         -5    1    4    4    0  502  0.36438145769E+02 -0.83121322111E+01  0.32244178383E+02  0.49584342776E+02  0.47000000000E+01 0.  1.
<mgrwt>
<rscale>  0 0.13428003E+03</rscale>
<asrwt>0</asrwt>
<pdfrwt beam="1">  1        1 0.58695991E-01 0.13428172E+03</pdfrwt>
<pdfrwt beam="2">  1       -1 0.14131188E-01 0.13428172E+03</pdfrwt>
<totfact> 0.22253084E+03</totfact>
</mgrwt>
</event>
<event>
 8    1  0.8174053E-004  0.1258694E+03  0.7546771E-02  0.1236903E+00
          1   -1    0    0  501    0  0.00000000000E+00  0.00000000000E+00  0.24234192908E+03  0.24234192908E+03  0.00000000000E+00 0. -1.
         -1   -1    0    0    0  501 -0.00000000000E+00 -0.00000000000E+00 -0.63160776375E+02  0.63160776375E+02  0.00000000000E+00 0.  1.
         23    2    1    2    0    0 -0.60609646821E+02  0.61207682785E+02  0.11287237377E+03  0.16323546903E+03  0.80534066513E+02 0.  0.
         23    2    1    2    0    0  0.60609646821E+02 -0.61207682785E+02  0.66308778931E+02  0.14226723642E+03  0.91778007584E+02 0.  0.
          5    1    3    3  502    0 -0.57256240240E+02  0.92181189067E+01  0.30594005272E+02  0.65736853600E+02  0.47000000000E+01 0. -1.
         -5    1    4    4    0  503 -0.17955200569E+01  0.21539506662E+02  0.11321050834E+02  0.24848147446E+02  0.47000000000E+01 0.  1.
          5    1    4    4  503    0  0.62405166878E+02 -0.82747189447E+02  0.54987728097E+02  0.11741908898E+03  0.47000000000E+01 0. -1.
         -5    1    3    3    0  502 -0.33534065813E+01  0.51989563878E+02  0.82278368500E+02  0.97498615431E+02  0.47000000000E+01 0.  1.
<mgrwt>
<rscale>  0 0.12383377E+03</rscale>
<asrwt>0</asrwt>
<pdfrwt beam="1">  1        1 0.37283373E-01 0.12586943E+03</pdfrwt>
<pdfrwt beam="2">  1       -1 0.97170427E-02 0.12586943E+03</pdfrwt>
<totfact> 0.69266651E+03</totfact>
</mgrwt>
</event>
<event>
 8    1  0.8174053E-004  0.1036625E+03  0.7546771E-02  0.1274010E+00
         -1   -1    0    0    0  501 -0.00000000000E+00  0.00000000000E+00  0.22534157106E+03  0.22534157106E+03  0.00000000000E+00 0.  1.
          1   -1    0    0  501    0  0.00000000000E+00 -0.00000000000E+00 -0.47947381111E+02  0.47947381111E+02  0.00000000000E+00 0. -1.
         23    2    1    2    0    0 -0.11383739022E+02  0.45107070300E+02  0.11281993598E+03  0.15321308666E+03  0.92637328686E+02 0.  0.
         23    2    1    2    0    0  0.11383739022E+02 -0.45107070300E+02  0.64574253969E+02  0.12007586551E+03  0.89911856260E+02 0.  0.
          5    1    4    4  502    0  0.26221368271E+02 -0.65064791048E+02  0.28175086077E+02  0.75742409940E+02  0.47000000000E+01 0. -1.
         -5    1    3    3    0  503 -0.16786965657E+02  0.72903290598E+02  0.81641107520E+02  0.11083344456E+03  0.47000000000E+01 0.  1.
          5    1    3    3  503    0  0.54032266345E+01 -0.27796220298E+02  0.31178828457E+02  0.42379642104E+02  0.47000000000E+01 0. -1.
         -5    1    4    4    0  502 -0.14837629249E+02  0.19957720747E+02  0.36399167892E+02  0.44333455566E+02  0.47000000000E+01 0.  1.
<mgrwt>
<rscale>  0 0.10305003E+03</rscale>
<asrwt>0</asrwt>
<pdfrwt beam="1">  1        1 0.73765203E-02 0.10366249E+03</pdfrwt>
<pdfrwt beam="2">  1       -1 0.34667933E-01 0.10366249E+03</pdfrwt>
<totfact> 0.71555929E+03</totfact>
</mgrwt>
</event>
<event>
 8    1  0.8174053E-004  0.1293283E+03  0.7546771E-02  0.1230138E+00
          1   -1    0    0  501    0  0.00000000000E+00  0.00000000000E+00  0.20067685216E+03  0.20067685216E+03  0.00000000000E+00 0. -1.
         -1   -1    0    0    0  501 -0.00000000000E+00 -0.00000000000E+00 -0.94084568874E+02  0.94084568874E+02  0.00000000000E+00 0.  1.
         23    2    1    2    0    0 -0.73668048313E+02  0.46715236357E+02  0.10845108815E+03  0.16541973692E+03  0.89402215819E+02 0.  0.
         23    2    1    2    0    0  0.73668048313E+02 -0.46715236357E+02 -0.18588048582E+01  0.12934168411E+03  0.95480476767E+02 0.  0.
          5    1    4    4  502    0 -0.22987958691E+02 -0.11426459849E+02  0.26994136245E+01  0.26237131386E+02  0.47000000000E+01 0. -1.
         -5    1    3    3    0  503  0.10358001006E+02  0.30597370509E+02  0.84307617011E+01  0.33714314612E+02  0.47000000000E+01 0.  1.
          5    1    3    3  503    0 -0.84026049320E+02  0.16117865848E+02  0.10002032645E+03  0.13170542231E+03  0.47000000000E+01 0. -1.
         -5    1    4    4    0  502  0.96656007004E+02 -0.35288776508E+02 -0.45582184827E+01  0.10310455273E+03  0.47000000000E+01 0.  1.
<mgrwt>
<rscale>  0 0.12820884E+03</rscale>
<asrwt>0</asrwt>
<pdfrwt beam="1">  1        1 0.30873362E-01 0.12932833E+03</pdfrwt>
<pdfrwt beam="2">  1       -1 0.14474549E-01 0.12932833E+03</pdfrwt>
<totfact> 0.47440927E+03</totfact>
</mgrwt>
</event>
<event>
 8    1  0.8174053E-004  0.9845646E+02  0.7546771E-02  0.1286494E+00
          1   -1    0    0  501    0  0.00000000000E+00  0.00000000000E+00  0.53917142241E+02  0.53917142241E+02  0.00000000000E+00 0. -1.
         -1   -1    0    0    0  501 -0.00000000000E+00 -0.00000000000E+00 -0.17553410777E+03  0.17553410777E+03  0.00000000000E+00 0.  1.
         23    2    1    2    0    0  0.24076198565E+02  0.28254349221E+02 -0.42590308594E+02  0.10727351966E+03  0.91190471256E+02 0.  0.
         23    2    1    2    0    0 -0.24076198565E+02 -0.28254349221E+02 -0.79026656939E+02  0.12217773035E+03  0.85464692706E+02 0.  0.
          5    1    3    3  502    0 -0.28757691499E+02 -0.11835868997E+02 -0.86287104143E+01  0.32613452112E+02  0.47000000000E+01 0. -1.
         -5    1    3    3    0  502  0.52833890064E+02  0.40090218218E+02 -0.33961598179E+02  0.74660067553E+02  0.47000000000E+01 0.  1.
          5    1    4    4  503    0  0.66970255685E+01 -0.52787065573E+02 -0.48489093464E+02  0.72142959658E+02  0.47000000000E+01 0. -1.
         -5    1    4    4    0  503 -0.30773224134E+02  0.24532716352E+02 -0.30537563475E+02  0.50034770692E+02  0.47000000000E+01 0.  1.
<mgrwt>
<rscale>  0 0.97109514E+02</rscale>
<asrwt>0</asrwt>
<pdfrwt beam="1">  1        1 0.82949450E-02 0.98456456E+02</pdfrwt>
<pdfrwt beam="2">  1       -1 0.27005247E-01 0.98456456E+02</pdfrwt>
<totfact> 0.92511161E+03</totfact>
</mgrwt>
</event>
<event>
 8    1  0.8174053E-004  0.1121707E+03  0.7546771E-02  0.1266020E+00
         -1   -1    0    0    0  501 -0.00000000000E+00  0.00000000000E+00  0.59565356485E+02  0.59565356485E+02  0.00000000000E+00 0.  1.
          1   -1    0    0  501    0  0.00000000000E+00 -0.00000000000E+00 -0.18076841194E+03  0.18076841194E+03  0.00000000000E+00 0. -1.
         23    2    1    2    0    0  0.23034933659E+02 -0.10286969029E+02 -0.72155331150E+02  0.11790848221E+03  0.89775210736E+02 0.  0.
         23    2    1    2    0    0 -0.23034933659E+02  0.10286969029E+02 -0.49047724301E+02  0.12242528621E+03  0.10929703356E+03 0.  0.
          5    1    4    4  502    0 -0.83022478756E+01  0.45100860153E+02 -0.66182574374E+02  0.80655055993E+02  0.47000000000E+01 0. -1.
         -5    1    4    4    0  502 -0.14732685784E+02 -0.34813891124E+02  0.17134850074E+02  0.41770230220E+02  0.47000000000E+01 0.  1.
          5    1    3    3  503    0  0.34987602167E+02  0.17305135571E+02  0.30450595859E+00  0.39316443715E+02  0.47000000000E+01 0. -1.
         -5    1    3    3    0  503 -0.11952668508E+02 -0.27592104600E+02 -0.72459837108E+02  0.78592038493E+02  0.47000000000E+01 0.  1.
<mgrwt>
<rscale>  0 0.10710869E+03</rscale>
<asrwt>0</asrwt>
<pdfrwt beam="1">  1        1 0.27810524E-01 0.11217072E+03</pdfrwt>
<pdfrwt beam="2">  1       -1 0.91639012E-02 0.11217072E+03</pdfrwt>
<totfact> 0.10780177E+04</totfact>
</mgrwt>
</event>
<event>
 8    1  0.8174053E-004  0.9104218E+02  0.7546771E-02  0.1301774E+00
         -1   -1    0    0    0  501 -0.00000000000E+00  0.00000000000E+00  0.18493002674E+03  0.18493002674E+03  0.00000000000E+00 0.  1.
          1   -1    0    0  501    0  0.00000000000E+00 -0.00000000000E+00 -0.10580157028E+03  0.10580157028E+03  0.00000000000E+00 0. -1.
         23    2    1    2    0    0  0.37781961963E+01  0.17406011671E+01  0.15117464700E+03  0.17647224476E+03  0.90947099000E+02 0.  0.
         23    2    1    2    0    0 -0.37781961963E+01 -0.17406011671E+01 -0.72046190541E+02  0.11425935225E+03  0.88584657511E+02 0.  0.
          5    1    3    3  502    0 -0.31893732590E+02 -0.11914818422E+02  0.19991920844E+02  0.39761035897E+02  0.47000000000E+01 0. -1.
         -5    1    4    4    0  503 -0.65607338257E+01  0.28684389266E+02  0.59275541826E+01  0.30381957055E+02  0.47000000000E+01 0.  1.
          5    1    4    4  503    0  0.27825376294E+01 -0.30424990433E+02 -0.77973744724E+02  0.83877395195E+02  0.47000000000E+01 0. -1.
         -5    1    3    3    0  502  0.35671928786E+02  0.13655419589E+02  0.13118272616E+03  0.13671120887E+03  0.47000000000E+01 0.  1.
<mgrwt>
<rscale>  0 0.90446384E+02</rscale>
<asrwt>0</asrwt>
<pdfrwt beam="1">  1        1 0.16277165E-01 0.91042184E+02</pdfrwt>
<pdfrwt beam="2">  1       -1 0.28450773E-01 0.91042184E+02</pdfrwt>
<totfact> 0.35132514E+03</totfact>
</mgrwt>
</event>
<event>
 8    1  0.8174053E-004  0.9802524E+02  0.7546771E-02  0.1284686E+00
         -1   -1    0    0    0  501 -0.00000000000E+00  0.00000000000E+00  0.34558958873E+02  0.34558958873E+02  0.00000000000E+00 0.  1.
          1   -1    0    0  501    0  0.00000000000E+00 -0.00000000000E+00 -0.36102687118E+03  0.36102687118E+03  0.00000000000E+00 0. -1.
         23    2    1    2    0    0 -0.33909931279E+02  0.59019470291E+01 -0.25881729173E+03  0.27675862716E+03  0.91783608514E+02 0.  0.
         23    2    1    2    0    0  0.33909931279E+02 -0.59019470291E+01 -0.67650620578E+02  0.11882720289E+03  0.91425276945E+02 0.  0.
          5    1    4    4  502    0 -0.26732480864E+02  0.84547363313E+01 -0.24848679440E+01  0.28537215496E+02  0.47000000000E+01 0. -1.
         -5    1    3    3    0  503  0.23970188639E+02  0.82047986356E+01 -0.25276720503E+02  0.36095585096E+02  0.47000000000E+01 0.  1.
          5    1    3    3  503    0 -0.57880119917E+02 -0.23028516064E+01 -0.23354057123E+03  0.24066304207E+03  0.47000000000E+01 0. -1.
         -5    1    4    4    0  502  0.60642412143E+02 -0.14356683360E+02 -0.65165752634E+02  0.90289987396E+02  0.47000000000E+01 0.  1.
<mgrwt>
<rscale>  0 0.97941271E+02</rscale>
<asrwt>0</asrwt>
<pdfrwt beam="1">  1        1 0.55542596E-01 0.98025238E+02</pdfrwt>
<pdfrwt beam="2">  1       -1 0.53167628E-02 0.98025238E+02</pdfrwt>
<totfact> 0.10239856E+04</totfact>
</mgrwt>
</event>
<event>
 8    1  0.8174053E-004  0.1126232E+03  0.7546771E-02  0.1256628E+00
         -1   -1    0    0    0  501 -0.00000000000E+00  0.00000000000E+00  0.36856428284E+02  0.36856428284E+02  0.00000000000E+00 0.  1.
          1   -1    0    0  501    0  0.00000000000E+00 -0.00000000000E+00 -0.53020041540E+03  0.53020041540E+03  0.00000000000E+00 0. -1.
         23    2    1    2    0    0  0.40598512374E+02 -0.52592860505E+02 -0.74881583250E+02  0.13370389921E+03  0.88629752176E+02 0.  0.
         23    2    1    2    0    0 -0.40598512374E+02  0.52592860505E+02 -0.41846240387E+03  0.43335294448E+03  0.90938126510E+02 0.  0.
          5    1    3    3  502    0  0.34189761820E+00  0.23623024909E+02 -0.20908567236E+02  0.31897059171E+02  0.47000000000E+01 0. -1.
         -5    1    4    4    0  503  0.17107428830E+02  0.49091900594E+02 -0.15405432883E+03  0.16265763141E+03  0.47000000000E+01 0.  1.
          5    1    4    4  503    0 -0.57705941204E+02  0.35009599105E+01 -0.26440807504E+03  0.27069531307E+03  0.47000000000E+01 0. -1.
         -5    1    3    3    0  502  0.40256614756E+02 -0.76215885414E+02 -0.53973016014E+02  0.10180684004E+03  0.47000000000E+01 0.  1.
<mgrwt>
<rscale>  0 0.11215645E+03</rscale>
<asrwt>0</asrwt>
<pdfrwt beam="1">  1        1 0.81569296E-01 0.11262323E+03</pdfrwt>
<pdfrwt beam="2">  1       -1 0.56702197E-02 0.11262323E+03</pdfrwt>
<totfact> 0.57812987E+03</totfact>
</mgrwt>
</event>
<event>
 8    1  0.8174053E-004  0.9265740E+02  0.7546771E-02  0.1297972E+00
         -3   -1    0    0    0  501 -0.00000000000E+00  0.00000000000E+00  0.16121706244E+03  0.16121706244E+03  0.00000000000E+00 0.  1.
          3   -1    0    0  501    0  0.00000000000E+00 -0.00000000000E+00 -0.24963949248E+03  0.24963949248E+03  0.00000000000E+00 0. -1.
         23    2    1    2    0    0  0.25697772582E-01 -0.98229656875E+01  0.13875217561E+03  0.16551252114E+03  0.89698032875E+02 0.  0.
         23    2    1    2    0    0 -0.25697772582E-01  0.98229656875E+01 -0.22717460565E+03  0.24534403378E+03  0.92135238346E+02 0.  0.
          5    1    3    3  502    0  0.14883960355E+02 -0.23334758510E+02  0.30353668173E+01  0.28237327818E+02  0.47000000000E+01 0. -1.
         -5    1    4    4    0  503 -0.17401749540E+02 -0.35458933540E+02 -0.13924390308E+03  0.14481405802E+03  0.47000000000E+01 0.  1.
          5    1    4    4  503    0  0.17376051768E+02  0.45281899227E+02 -0.87930702573E+02  0.10052997577E+03  0.47000000000E+01 0. -1.
         -5    1    3    3    0  502 -0.14858262582E+02  0.13511792823E+02  0.13571680879E+03  0.13727519332E+03  0.47000000000E+01 0.  1.
<mgrwt>
<rscale>  0 0.92045590E+02</rscale>
<asrwt>0</asrwt>
<pdfrwt beam="1">  1        3 0.38406076E-01 0.92657398E+02</pdfrwt>
<pdfrwt beam="2">  1       -3 0.24802625E-01 0.92657398E+02</pdfrwt>
<totfact> 0.22696811E+02</totfact>
</mgrwt>
</event>
<event>
 8    1  0.8174053E-004  0.1006553E+03  0.7546771E-02  0.1279177E+00
         -3   -1    0    0    0  501 -0.00000000000E+00  0.00000000000E+00  0.11763068073E+03  0.11763068073E+03  0.00000000000E+00 0.  1.
          3   -1    0    0  501    0  0.00000000000E+00 -0.00000000000E+00 -0.13021877289E+03  0.13021877289E+03  0.00000000000E+00 0. -1.
         23    2    1    2    0    0 -0.38949048435E+02  0.13676877043E+02  0.66162431087E+02  0.12004831188E+03  0.91269077784E+02 0.  0.
         23    2    1    2    0    0  0.38949048435E+02 -0.13676877043E+02 -0.78750523246E+02  0.12780114173E+03  0.91800880046E+02 0.  0.
          5    1    4    4  502    0  0.60657368753E+02 -0.16225129320E+02 -0.21821727803E+02  0.66639695451E+02  0.47000000000E+01 0. -1.
         -5    1    3    3    0  503 -0.17983910359E+02  0.50892409571E+02  0.22141446240E+02  0.58530265892E+02  0.47000000000E+01 0.  1.
          5    1    3    3  503    0 -0.20965138076E+02 -0.37215532529E+02  0.44020984847E+02  0.61518045993E+02  0.47000000000E+01 0. -1.
         -5    1    4    4    0  502 -0.21708320319E+02  0.25482522772E+01 -0.56928795443E+02  0.61161446282E+02  0.47000000000E+01 0.  1.
<mgrwt>
<rscale>  0 0.10053387E+03</rscale>
<asrwt>0</asrwt>
<pdfrwt beam="1">  1        3 0.20033657E-01 0.10065529E+03</pdfrwt>
<pdfrwt beam="2">  1       -3 0.18097028E-01 0.10065529E+03</pdfrwt>
<totfact> 0.13076657E+03</totfact>
</mgrwt>
</event>
<event>
 8    1  0.8174053E-004  0.1652026E+03  0.7546771E-02  0.1183021E+00
          1   -1    0    0  501    0  0.00000000000E+00  0.00000000000E+00  0.10230548989E+04  0.10230548989E+04  0.00000000000E+00 0. -1.
         -1   -1    0    0    0  501 -0.00000000000E+00 -0.00000000000E+00 -0.67063632426E+02  0.67063632426E+02  0.00000000000E+00 0.  1.
         23    2    1    2    0    0 -0.15169709410E+02 -0.13719852101E+03  0.90137378313E+03  0.91638778978E+03  0.90765247162E+02 0.  0.
         23    2    1    2    0    0  0.15169709410E+02  0.13719852101E+03  0.54617483333E+02  0.17373074154E+03  0.90253791163E+02 0.  0.
          5    1    3    3  502    0 -0.44135983973E+02 -0.57949581841E+02  0.55866398028E+03  0.56341252380E+03  0.47000000000E+01 0. -1.
         -5    1    4    4    0  503  0.46554017344E+02  0.59674698762E+02  0.41715480839E+01  0.75946283758E+02  0.47000000000E+01 0.  1.
          5    1    4    4  503    0 -0.31384307934E+02  0.77523822243E+02  0.50445935249E+02  0.97784457777E+02  0.47000000000E+01 0. -1.
         -5    1    3    3    0  502  0.28966274563E+02 -0.79248939165E+02  0.34270980285E+03  0.35297526598E+03  0.47000000000E+01 0.  1.
<mgrwt>
<rscale>  0 0.16513240E+03</rscale>
<asrwt>0</asrwt>
<pdfrwt beam="1">  1        1 0.15739305E+00 0.16520256E+03</pdfrwt>
<pdfrwt beam="2">  1       -1 0.10317483E-01 0.16520256E+03</pdfrwt>
<totfact> 0.89826429E+02</totfact>
</mgrwt>
</event>
<event>
 8    1  0.8174053E-004  0.1070883E+03  0.7546771E-02  0.1268965E+00
         -3   -1    0    0    0  501 -0.00000000000E+00  0.00000000000E+00  0.24612627018E+03  0.24612627018E+03  0.00000000000E+00 0.  1.
          3   -1    0    0  501    0  0.00000000000E+00 -0.00000000000E+00 -0.59327129562E+02  0.59327129562E+02  0.00000000000E+00 0. -1.
         23    2    1    2    0    0  0.26591909466E+02  0.46150846279E+02  0.17934562952E+02  0.10857971655E+03  0.92902508240E+02 0.  0.
         23    2    1    2    0    0 -0.26591909466E+02 -0.46150846279E+02  0.16886457767E+03  0.19687368319E+03  0.86063762878E+02 0.  0.
          5    1    4    4  502    0  0.21865911467E+02 -0.42765276084E+02  0.56102469046E+02  0.74003810415E+02  0.47000000000E+01 0. -1.
         -5    1    3    3    0  503 -0.45857688923E+01  0.58939322952E+02  0.36682087538E+02  0.69731905270E+02  0.47000000000E+01 0.  1.
          5    1    3    3  503    0  0.31177678358E+02 -0.12788476674E+02 -0.18747524586E+02  0.38847811283E+02  0.47000000000E+01 0. -1.
         -5    1    4    4    0  502 -0.48457820932E+02 -0.33855701944E+01  0.11276210862E+03  0.12286987278E+03  0.47000000000E+01 0.  1.
<mgrwt>
<rscale>  0 0.10558817E+03</rscale>
<asrwt>0</asrwt>
<pdfrwt beam="1">  1        3 0.91272508E-02 0.10708831E+03</pdfrwt>
<pdfrwt beam="2">  1       -3 0.37865579E-01 0.10708831E+03</pdfrwt>
<totfact> 0.13091990E+03</totfact>
</mgrwt>
</event>
<event>
 8    1  0.8174053E-004  0.1018065E+03  0.7546771E-02  0.1277232E+00
          1   -1    0    0  501    0  0.00000000000E+00  0.00000000000E+00  0.21978274052E+03  0.21978274052E+03  0.00000000000E+00 0. -1.
         -1   -1    0    0    0  501 -0.00000000000E+00 -0.00000000000E+00 -0.46748704216E+02  0.46748704216E+02  0.00000000000E+00 0.  1.
         23    2    1    2    0    0 -0.40220461745E+02  0.16314232397E+02  0.94806192061E+02  0.13814081176E+03  0.90613630865E+02 0.  0.
         23    2    1    2    0    0  0.40220461745E+02 -0.16314232397E+02  0.78227844241E+02  0.12839063297E+03  0.92090820929E+02 0.  0.
          5    1    3    3  502    0 -0.63681373101E+02 -0.43767700160E+01  0.81981437947E+02  0.10400730534E+03  0.47000000000E+01 0. -1.
         -5    1    3    3    0  502  0.23460911356E+02  0.20691002413E+02  0.12824754115E+02  0.34133506421E+02  0.47000000000E+01 0.  1.
          5    1    4    4  503    0 -0.25323082173E+02 -0.10043231708E+02  0.48868207163E+02  0.56145495502E+02  0.47000000000E+01 0. -1.
         -5    1    4    4    0  503  0.65543543918E+02 -0.62710006897E+01  0.29359637078E+02  0.72245137472E+02  0.47000000000E+01 0.  1.
<mgrwt>
<rscale>  0 0.10147127E+03</rscale>
<asrwt>0</asrwt>
<pdfrwt beam="1">  1        1 0.33812729E-01 0.10180648E+03</pdfrwt>
<pdfrwt beam="2">  1       -1 0.71921085E-02 0.10180648E+03</pdfrwt>
<totfact> 0.12078616E+04</totfact>
</mgrwt>
</event>
<event>
 8    1  0.8174053E-004  0.1218677E+03  0.7546771E-02  0.1240111E+00
          2   -1    0    0  501    0  0.00000000000E+00  0.00000000000E+00  0.85928528183E+03  0.85928528183E+03  0.00000000000E+00 0. -1.
         -2   -1    0    0    0  501 -0.00000000000E+00 -0.00000000000E+00 -0.24656353946E+02  0.24656353946E+02  0.00000000000E+00 0.  1.
         23    2    1    2    0    0  0.18166429641E+02 -0.79138474589E+02  0.17507823098E+03  0.21322644412E+03  0.90665385796E+02 0.  0.
         23    2    1    2    0    0 -0.18166429641E+02  0.79138474589E+02  0.65955069691E+03  0.67071519166E+03  0.90878100826E+02 0.  0.
          5    1    3    3  502    0 -0.30673859325E+01 -0.31794443084E+02  0.15345959286E+03  0.15681910632E+03  0.47000000000E+01 0. -1.
         -5    1    4    4    0  503 -0.50022865664E+02  0.68246701741E+02  0.53222075614E+03  0.53892571163E+03  0.47000000000E+01 0.  1.
          5    1    4    4  503    0  0.31856436023E+02  0.10891772848E+02  0.12732994076E+03  0.13178948003E+03  0.47000000000E+01 0. -1.
         -5    1    3    3    0  502  0.21233815574E+02 -0.47344031505E+02  0.21618638124E+02  0.56407337796E+02  0.47000000000E+01 0.  1.
<mgrwt>
<rscale>  0 0.12182809E+03</rscale>
<asrwt>0</asrwt>
<pdfrwt beam="1">  1        2 0.13219771E+00 0.12186774E+03</pdfrwt>
<pdfrwt beam="2">  1       -2 0.37932859E-02 0.12186774E+03</pdfrwt>
<totfact> 0.92063036E+03</totfact>
</mgrwt>
</event>
<event>
 8    1  0.8174053E-004  0.9879041E+02  0.7546771E-02  0.1282868E+00
         -2   -1    0    0    0  501 -0.00000000000E+00  0.00000000000E+00  0.40923453499E+03  0.40923453499E+03  0.00000000000E+00 0.  1.
          2   -1    0    0  501    0  0.00000000000E+00 -0.00000000000E+00 -0.75203175978E+02  0.75203175978E+02  0.00000000000E+00 0. -1.
         23    2    1    2    0    0 -0.11710451676E+00  0.35637871187E+02  0.36718009066E+03  0.38023414481E+03  0.92123364714E+02 0.  0.
         23    2    1    2    0    0  0.11710451676E+00 -0.35637871187E+02 -0.33148731639E+02  0.10420356617E+03  0.92138337387E+02 0.  0.
          5    1    4    4  502    0 -0.17029392590E+02  0.26017439393E+02 -0.23623838732E+02  0.39332977526E+02  0.47000000000E+01 0. -1.
         -5    1    3    3    0  503  0.34539708009E+02  0.35854635239E+02  0.11184784939E+03  0.12251766285E+03  0.47000000000E+01 0.  1.
          5    1    3    3  503    0 -0.34656812526E+02 -0.21676405211E+00  0.25533224127E+03  0.25771648196E+03  0.47000000000E+01 0. -1.
         -5    1    4    4    0  502  0.17146497106E+02 -0.61655310580E+02 -0.95248929062E+01  0.64870588641E+02  0.47000000000E+01 0.  1.
<mgrwt>
<rscale>  0 0.98786917E+02</rscale>
<asrwt>0</asrwt>
<pdfrwt beam="1">  1        2 0.11569720E-01 0.98790408E+02</pdfrwt>
<pdfrwt beam="2">  1       -2 0.62959158E-01 0.98790408E+02</pdfrwt>
<totfact> 0.12275870E+03</totfact>
</mgrwt>
</event>
<event>
 8    1  0.8174053E-004  0.1191875E+03  0.7546771E-02  0.1244927E+00
         -1   -1    0    0    0  501 -0.00000000000E+00  0.00000000000E+00  0.17942539510E+03  0.17942539510E+03  0.00000000000E+00 0.  1.
          1   -1    0    0  501    0  0.00000000000E+00 -0.00000000000E+00 -0.85611621973E+02  0.85611621973E+02  0.00000000000E+00 0. -1.
         23    2    1    2    0    0  0.55858370501E+02 -0.52990982624E+02  0.85140663231E+02  0.14553434536E+03  0.89460110378E+02 0.  0.
         23    2    1    2    0    0 -0.55858370501E+02  0.52990982624E+02  0.86731098960E+01  0.11950267172E+03  0.90980568901E+02 0.  0.
          5    1    3    3  502    0  0.26390954623E+02 -0.45002086821E+02 -0.26696909270E+01  0.52448904219E+02  0.47000000000E+01 0. -1.
         -5    1    4    4    0  503  0.21559257236E+02  0.12599375041E+02  0.18605604265E+02  0.31492925143E+02  0.47000000000E+01 0.  1.
          5    1    4    4  503    0 -0.77417627737E+02  0.40391607583E+02 -0.99324943687E+01  0.88009746573E+02  0.47000000000E+01 0. -1.
         -5    1    3    3    0  502  0.29467415877E+02 -0.79888958032E+01  0.87810354158E+02  0.93085441139E+02  0.47000000000E+01 0.  1.
<mgrwt>
<rscale>  0 0.11889733E+03</rscale>
<asrwt>0</asrwt>
<pdfrwt beam="1">  1        1 0.13171019E-01 0.11918752E+03</pdfrwt>
<pdfrwt beam="2">  1       -1 0.27603907E-01 0.11918752E+03</pdfrwt>
<totfact> 0.49357209E+03</totfact>
</mgrwt>
</event>
<event>
 8    1  0.8174053E-004  0.9332480E+02  0.7546771E-02  0.1299478E+00
          1   -1    0    0  501    0  0.00000000000E+00  0.00000000000E+00  0.19294006665E+03  0.19294006665E+03  0.00000000000E+00 0. -1.
         -1   -1    0    0    0  501 -0.00000000000E+00 -0.00000000000E+00 -0.75623668554E+02  0.75623668554E+02  0.00000000000E+00 0.  1.
         23    2    1    2    0    0 -0.90303363674E+01 -0.17773196923E+02 -0.32686257875E+02  0.91899320815E+02  0.83544360723E+02 0.  0.
         23    2    1    2    0    0  0.90303363674E+01  0.17773196923E+02  0.15000265597E+03  0.17666441439E+03  0.91170636771E+02 0.  0.
          5    1    3    3  502    0 -0.30015496294E+02 -0.63161540551E+01  0.17847784548E+02  0.35797447298E+02  0.47000000000E+01 0. -1.
         -5    1    4    4    0  503  0.42083522959E+02  0.87929524000E+01  0.12936028008E+03  0.13639835401E+03  0.47000000000E+01 0.  1.
          5    1    4    4  503    0 -0.33053186591E+02  0.89802445229E+01  0.20642375897E+02  0.40266060376E+02  0.47000000000E+01 0. -1.
         -5    1    3    3    0  502  0.20985159926E+02 -0.11457042868E+02 -0.50534042424E+02  0.56101873517E+02  0.47000000000E+01 0.  1.
<mgrwt>
<rscale>  0 0.91407844E+02</rscale>
<asrwt>0</asrwt>
<pdfrwt beam="1">  1        1 0.29683087E-01 0.93324801E+02</pdfrwt>
<pdfrwt beam="2">  1       -1 0.11634411E-01 0.93324801E+02</pdfrwt>
<totfact> 0.68195564E+03</totfact>
</mgrwt>
</event>
<event>
 8    1  0.8174053E-004  0.2334744E+03  0.7546771E-02  0.1124252E+00
         -1   -1    0    0    0  501 -0.00000000000E+00  0.00000000000E+00  0.68865478253E+03  0.68865478253E+03  0.00000000000E+00 0.  1.
          1   -1    0    0  501    0  0.00000000000E+00 -0.00000000000E+00 -0.65734283670E+03  0.65734283670E+03  0.00000000000E+00 0. -1.
         23    2    1    2    0    0 -0.62840573174E+02 -0.20522025932E+03  0.64687226778E+03  0.68771654440E+03  0.91902242289E+02 0.  0.
         23    2    1    2    0    0  0.62840573174E+02  0.20522025932E+03 -0.61556032196E+03  0.65828107484E+03  0.91406624738E+02 0.  0.
          5    1    4    4  502    0  0.73250679371E+02  0.16683067006E+03 -0.40754769349E+03  0.44644747392E+03  0.47000000000E+01 0. -1.
         -5    1    3    3    0  503  0.85001982029E+01 -0.12591311674E+03  0.37073380037E+03  0.39165291659E+03  0.47000000000E+01 0.  1.
          5    1    3    3  503    0 -0.71340771377E+02 -0.79307142581E+02  0.27613846741E+03  0.29606362781E+03  0.47000000000E+01 0. -1.
         -5    1    4    4    0  502 -0.10410106197E+02  0.38389589260E+02 -0.20801262847E+03  0.21183360092E+03  0.47000000000E+01 0.  1.
<mgrwt>
<rscale>  0 0.23342576E+03</rscale>
<asrwt>0</asrwt>
<pdfrwt beam="1">  1        1 0.10112967E+00 0.23347444E+03</pdfrwt>
<pdfrwt beam="2">  1       -1 0.10594689E+00 0.23347444E+03</pdfrwt>
<totfact> 0.28116212E+01</totfact>
</mgrwt>
</event>
<event>
 8    1  0.8174053E-004  0.1522589E+03  0.7546771E-02  0.1197938E+00
         -1   -1    0    0    0  501 -0.00000000000E+00  0.00000000000E+00  0.74459421373E+02  0.74459421373E+02  0.00000000000E+00 0.  1.
          1   -1    0    0  501    0  0.00000000000E+00 -0.00000000000E+00 -0.39736054673E+03  0.39736054673E+03  0.00000000000E+00 0. -1.
         23    2    1    2    0    0  0.11212826706E+02  0.12131677419E+03 -0.27242064512E+03  0.31208296122E+03  0.91319656235E+02 0.  0.
         23    2    1    2    0    0 -0.11212826706E+02 -0.12131677419E+03 -0.50480480235E+02  0.15973700688E+03  0.90134040733E+02 0.  0.
          5    1    3    3  502    0  0.50636238745E+02  0.80558624371E+02 -0.17577899042E+03  0.19993514976E+03  0.47000000000E+01 0. -1.
         -5    1    4    4    0  503 -0.10227221352E+02 -0.91564868070E+02  0.93684884762E+01  0.92728526881E+02  0.47000000000E+01 0.  1.
          5    1    4    4  503    0 -0.98560535397E+00 -0.29751906122E+02 -0.59848968711E+02  0.67008479998E+02  0.47000000000E+01 0. -1.
         -5    1    3    3    0  502 -0.39423412039E+02  0.40758149821E+02 -0.96641654699E+02  0.11214781147E+03  0.47000000000E+01 0.  1.
<mgrwt>
<rscale>  0 0.15208154E+03</rscale>
<asrwt>0</asrwt>
<pdfrwt beam="1">  1        1 0.61132393E-01 0.15225888E+03</pdfrwt>
<pdfrwt beam="2">  1       -1 0.11455295E-01 0.15225888E+03</pdfrwt>
<totfact> 0.29413336E+03</totfact>
</mgrwt>
</event>
<event>
 8    1  0.8174053E-004  0.9328707E+02  0.7546771E-02  0.1297236E+00
         -1   -1    0    0    0  501 -0.00000000000E+00  0.00000000000E+00  0.24039292292E+03  0.24039292292E+03  0.00000000000E+00 0.  1.
          1   -1    0    0  501    0  0.00000000000E+00 -0.00000000000E+00 -0.19960618997E+03  0.19960618997E+03  0.00000000000E+00 0. -1.
         23    2    1    2    0    0  0.84311023817E+01  0.15968769716E+02  0.22022151055E+03  0.23776331919E+03  0.87794061019E+02 0.  0.
         23    2    1    2    0    0 -0.84311023817E+01 -0.15968769716E+02 -0.17943477759E+03  0.20223579370E+03  0.91522629722E+02 0.  0.
          5    1    3    3  502    0 -0.37093518042E+02 -0.70329597400E+01  0.83396794274E+02  0.91665189132E+02  0.47000000000E+01 0. -1.
         -5    1    4    4    0  503  0.17074976068E+02  0.26094562343E+02 -0.25477643678E+02  0.40542339831E+02  0.47000000000E+01 0.  1.
          5    1    4    4  503    0 -0.25506078450E+02 -0.42063332058E+02 -0.15395713391E+03  0.16169345387E+03  0.47000000000E+01 0. -1.
         -5    1    3    3    0  502  0.45524620424E+02  0.23001729456E+02  0.13682471627E+03  0.14609813006E+03  0.47000000000E+01 0.  1.
<mgrwt>
<rscale>  0 0.92359540E+02</rscale>
<asrwt>0</asrwt>
<pdfrwt beam="1">  1        1 0.30708644E-01 0.93287067E+02</pdfrwt>
<pdfrwt beam="2">  1       -1 0.36983527E-01 0.93287067E+02</pdfrwt>
<totfact> 0.10244973E+03</totfact>
</mgrwt>
</event>
<event>
 8    1  0.8174053E-004  0.9961846E+02  0.7546771E-02  0.1282183E+00
         -1   -1    0    0    0  501 -0.00000000000E+00  0.00000000000E+00  0.14556964309E+03  0.14556964309E+03  0.00000000000E+00 0.  1.
          1   -1    0    0  501    0  0.00000000000E+00 -0.00000000000E+00 -0.80388219075E+02  0.80388219075E+02  0.00000000000E+00 0. -1.
         23    2    1    2    0    0  0.31030734807E+02  0.56353975752E+01  0.78771615981E+02  0.12541667671E+03  0.92356435092E+02 0.  0.
         23    2    1    2    0    0 -0.31030734807E+02 -0.56353975752E+01 -0.13590191965E+02  0.10054118546E+03  0.94494298493E+02 0.  0.
          5    1    4    4  502    0 -0.33187249418E+02  0.33340816312E+02 -0.32038928843E+02  0.57110301327E+02  0.47000000000E+01 0. -1.
         -5    1    3    3    0  503  0.60534902164E+02 -0.13172253026E+02  0.46740571875E+02  0.77748014052E+02  0.47000000000E+01 0.  1.
          5    1    3    3  503    0 -0.29504167357E+02  0.18807650601E+02  0.32031044107E+02  0.47668662654E+02  0.47000000000E+01 0. -1.
         -5    1    4    4    0  502  0.21565146116E+01 -0.38976213887E+02  0.18448736878E+02  0.43430884134E+02  0.47000000000E+01 0.  1.
<mgrwt>
<rscale>  0 0.99108160E+02</rscale>
<asrwt>0</asrwt>
<pdfrwt beam="1">  1        1 0.12367418E-01 0.99618455E+02</pdfrwt>
<pdfrwt beam="2">  1       -1 0.22395330E-01 0.99618455E+02</pdfrwt>
<totfact> 0.74341403E+03</totfact>
</mgrwt>
</event>
<event>
 8    1  0.8174053E-004  0.9247744E+02  0.7546771E-02  0.1296981E+00
          2   -1    0    0  501    0  0.00000000000E+00  0.00000000000E+00  0.52049691018E+03  0.52049691018E+03  0.00000000000E+00 0. -1.
         -2   -1    0    0    0  501 -0.00000000000E+00 -0.00000000000E+00 -0.18650294541E+02  0.18650294541E+02  0.00000000000E+00 0.  1.
         23    2    1    2    0    0 -0.17138773790E+00  0.19413627252E+02  0.34401224472E+03  0.35621616532E+03  0.90380382933E+02 0.  0.
         23    2    1    2    0    0  0.17138773790E+00 -0.19413627252E+02  0.15783437092E+03  0.18293103941E+03  0.90416581650E+02 0.  0.
          5    1    4    4  502    0 -0.37466716710E+02 -0.34861006030E+02  0.92630784045E+02  0.10593203838E+03  0.47000000000E+01 0. -1.
         -5    1    4    4    0  502  0.37638104448E+02  0.15447378778E+02  0.65203586877E+02  0.76999001027E+02  0.47000000000E+01 0.  1.
          5    1    3    3  503    0 -0.42474976240E+02  0.28106997404E+01  0.11556602241E+03  0.12324617307E+03  0.47000000000E+01 0. -1.
         -5    1    3    3    0  503  0.42303588502E+02  0.16602927511E+02  0.22844622231E+03  0.23296999225E+03  0.47000000000E+01 0.  1.
<mgrwt>
<rscale>  0 0.92468589E+02</rscale>
<asrwt>0</asrwt>
<pdfrwt beam="1">  1        2 0.80076437E-01 0.92477438E+02</pdfrwt>
<pdfrwt beam="2">  1       -2 0.28692765E-02 0.92477438E+02</pdfrwt>
<totfact> 0.24316283E+04</totfact>
</mgrwt>
</event>
<event>
 8    1  0.8174053E-004  0.1076031E+03  0.7546771E-02  0.1276414E+00
         -1   -1    0    0    0  501 -0.00000000000E+00  0.00000000000E+00  0.40839588367E+03  0.40839588367E+03  0.00000000000E+00 0.  1.
          1   -1    0    0  501    0  0.00000000000E+00 -0.00000000000E+00 -0.23293856054E+02  0.23293856054E+02  0.00000000000E+00 0. -1.
         23    2    1    2    0    0  0.14656836423E+02 -0.28586631099E+02  0.19379492503E+03  0.21219752817E+03  0.80245246970E+02 0.  0.
         23    2    1    2    0    0 -0.14656836423E+02  0.28586631099E+02  0.19130710258E+03  0.21949221155E+03  0.10269569174E+03 0.  0.
          5    1    4    4  502    0  0.19883880745E+02  0.43869140155E+02  0.37997875726E+02  0.61528844708E+02  0.47000000000E+01 0. -1.
         -5    1    3    3    0  503 -0.10524703751E+02 -0.44745919375E+02  0.16125002623E+03  0.16773976168E+03  0.47000000000E+01 0.  1.
          5    1    3    3  503    0  0.25181540174E+02  0.16159288275E+02  0.32544898805E+02  0.44457766490E+02  0.47000000000E+01 0. -1.
         -5    1    4    4    0  502 -0.34540717168E+02 -0.15282509056E+02  0.15330922686E+03  0.15796336684E+03  0.47000000000E+01 0.  1.
<mgrwt>
<rscale>  0 0.10186927E+03</rscale>
<asrwt>0</asrwt>
<pdfrwt beam="1">  1        1 0.35836705E-02 0.10760308E+03</pdfrwt>
<pdfrwt beam="2">  1       -1 0.62830131E-01 0.10760308E+03</pdfrwt>
<totfact> 0.65654496E+03</totfact>
</mgrwt>
</event>
<event>
 8    1  0.8174053E-004  0.9858676E+02  0.7546771E-02  0.1284586E+00
         -2   -1    0    0    0  501 -0.00000000000E+00  0.00000000000E+00  0.39008928846E+02  0.39008928846E+02  0.00000000000E+00 0.  1.
          2   -1    0    0  501    0  0.00000000000E+00 -0.00000000000E+00 -0.83658310938E+03  0.83658310938E+03  0.00000000000E+00 0. -1.
         23    2    1    2    0    0  0.17050108531E+02 -0.18074208586E+02 -0.31495565107E+02  0.10349550428E+03  0.95404221965E+02 0.  0.
         23    2    1    2    0    0 -0.17050108531E+02  0.18074208586E+02 -0.76607861543E+03  0.77209653394E+03  0.92947455554E+02 0.  0.
          5    1    4    4  502    0  0.30923364703E+02  0.33266040942E+02 -0.35824534804E+03  0.36114360489E+03  0.47000000000E+01 0. -1.
         -5    1    4    4    0  502 -0.47973473234E+02 -0.15191832356E+02 -0.40783326739E+03  0.41095292905E+03  0.47000000000E+01 0.  1.
          5    1    3    3  503    0  0.56611239612E+02 -0.13840705167E+02 -0.16983717436E+02  0.60884597624E+02  0.47000000000E+01 0. -1.
         -5    1    3    3    0  503 -0.39561131081E+02 -0.42335034189E+01 -0.14511847671E+02  0.42610906660E+02  0.47000000000E+01 0.  1.
<mgrwt>
<rscale>  0 0.97987449E+02</rscale>
<asrwt>0</asrwt>
<pdfrwt beam="1">  1        2 0.12870510E+00 0.98586758E+02</pdfrwt>
<pdfrwt beam="2">  1       -2 0.60013735E-02 0.98586758E+02</pdfrwt>
<totfact> 0.47524936E+03</totfact>
</mgrwt>
</event>
<event>
 8    1  0.8174053E-004  0.9511773E+02  0.7546771E-02  0.1291369E+00
          1   -1    0    0  501    0  0.00000000000E+00  0.00000000000E+00  0.38563658447E+03  0.38563658447E+03  0.00000000000E+00 0. -1.
         -1   -1    0    0    0  501 -0.00000000000E+00 -0.00000000000E+00 -0.28808149004E+02  0.28808149004E+02  0.00000000000E+00 0.  1.
         23    2    1    2    0    0  0.24784562786E+02  0.85602384604E+01  0.86869273185E+02  0.12821871659E+03  0.90588169339E+02 0.  0.
         23    2    1    2    0    0 -0.24784562786E+02 -0.85602384604E+01  0.26995916228E+03  0.28622601689E+03  0.91432112572E+02 0.  0.
          5    1    4    4  502    0 -0.42502382318E+02 -0.38001597496E+02  0.12993901517E+03  0.14197468640E+03  0.47000000000E+01 0. -1.
         -5    1    4    4    0  502  0.17717819532E+02  0.29441359035E+02  0.14002014711E+03  0.14425133049E+03  0.47000000000E+01 0.  1.
          5    1    3    3  503    0  0.81205509562E+00 -0.28445154757E+02  0.77779689148E+02  0.82955146354E+02  0.47000000000E+01 0. -1.
         -5    1    3    3    0  503  0.23972507690E+02  0.37005393218E+02  0.90895840372E+01  0.45263570232E+02  0.47000000000E+01 0.  1.
<mgrwt>
<rscale>  0 0.94914344E+02</rscale>
<asrwt>0</asrwt>
<pdfrwt beam="1">  1        1 0.59328702E-01 0.95117735E+02</pdfrwt>
<pdfrwt beam="2">  1       -1 0.44320232E-02 0.95117735E+02</pdfrwt>
<totfact> 0.12287638E+04</totfact>
</mgrwt>
</event>
<event>
 8    1  0.8174053E-004  0.9311974E+02  0.7546771E-02  0.1296041E+00
          1   -1    0    0  501    0  0.00000000000E+00  0.00000000000E+00  0.12102178878E+03  0.12102178878E+03  0.00000000000E+00 0. -1.
         -1   -1    0    0    0  501 -0.00000000000E+00 -0.00000000000E+00 -0.13814443828E+03  0.13814443828E+03  0.00000000000E+00 0.  1.
         23    2    1    2    0    0  0.68824257328E+01  0.15217498273E+02 -0.98996532429E+02  0.13591025932E+03  0.91609743571E+02 0.  0.
         23    2    1    2    0    0 -0.68824257328E+01 -0.15217498273E+02  0.81873882925E+02  0.12325596775E+03  0.90607730588E+02 0.  0.
          5    1    3    3  502    0 -0.12608144525E+02 -0.27083337900E+02 -0.46611612129E+01  0.30598838606E+02  0.47000000000E+01 0. -1.
         -5    1    3    3    0  502  0.19490570257E+02  0.42300836173E+02 -0.94335371216E+02  0.10531142071E+03  0.47000000000E+01 0.  1.
          5    1    4    4  503    0 -0.44216663146E+02 -0.19889991209E+02  0.66284540891E+02  0.82258467109E+02  0.47000000000E+01 0. -1.
         -5    1    4    4    0  503  0.37334237414E+02  0.46724929354E+01  0.15589342035E+02  0.40997500638E+02  0.47000000000E+01 0.  1.
<mgrwt>
<rscale>  0 0.92872354E+02</rscale>
<asrwt>0</asrwt>
<pdfrwt beam="1">  1        1 0.18618737E-01 0.93119736E+02</pdfrwt>
<pdfrwt beam="2">  1       -1 0.21252990E-01 0.93119736E+02</pdfrwt>
<totfact> 0.47647293E+03</totfact>
</mgrwt>
</event>
<event>
 8    1  0.8174053E-004  0.1069311E+03  0.7546771E-02  0.1274934E+00
         -2   -1    0    0    0  501 -0.00000000000E+00  0.00000000000E+00  0.64016243318E+02  0.64016243318E+02  0.00000000000E+00 0.  1.
          2   -1    0    0  501    0  0.00000000000E+00 -0.00000000000E+00 -0.15547974396E+03  0.15547974396E+03  0.00000000000E+00 0. -1.
         23    2    1    2    0    0  0.11181311656E+01 -0.12117437805E+02 -0.64846268930E+02  0.12505719106E+03  0.10623643408E+03 0.  0.
         23    2    1    2    0    0 -0.11181311656E+01  0.12117437805E+02 -0.26617231712E+02  0.94438796216E+02  0.89789346197E+02 0.  0.
          5    1    3    3  502    0 -0.17648751250E+02 -0.55301349692E+02 -0.45625184121E+02  0.73982870481E+02  0.47000000000E+01 0. -1.
         -5    1    3    3    0  502  0.18766882415E+02  0.43183911887E+02 -0.19221084808E+02  0.51074320580E+02  0.47000000000E+01 0.  1.
          5    1    4    4  503    0 -0.38763010695E+02 -0.16709239505E+02 -0.76482722391E+01  0.43155020000E+02  0.47000000000E+01 0. -1.
         -5    1    4    4    0  503  0.37644879529E+02  0.28826677310E+02 -0.18968959472E+02  0.51283776216E+02  0.47000000000E+01 0.  1.
<mgrwt>
<rscale>  0 0.10259409E+03</rscale>
<asrwt>0</asrwt>
<pdfrwt beam="1">  1        2 0.23919960E-01 0.10693111E+03</pdfrwt>
<pdfrwt beam="2">  1       -2 0.98486530E-02 0.10693111E+03</pdfrwt>
<totfact> 0.14066783E+04</totfact>
</mgrwt>
</event>
<event>
 8    1  0.8174053E-004  0.1078503E+03  0.7546771E-02  0.1265240E+00
         -1   -1    0    0    0  501 -0.00000000000E+00  0.00000000000E+00  0.40306248854E+03  0.40306248854E+03  0.00000000000E+00 0.  1.
          1   -1    0    0  501    0  0.00000000000E+00 -0.00000000000E+00 -0.34340552954E+02  0.34340552954E+02  0.00000000000E+00 0. -1.
         23    2    1    2    0    0 -0.33358477609E+02 -0.44433586752E+02  0.93244651600E+02  0.14156621151E+03  0.90880666414E+02 0.  0.
         23    2    1    2    0    0  0.33358477609E+02  0.44433586752E+02  0.27547728398E+03  0.29583682998E+03  0.92436812606E+02 0.  0.
          5    1    4    4  502    0 -0.21215474708E+02  0.42367959545E+02  0.17520484537E+03  0.18155981990E+03  0.47000000000E+01 0. -1.
         -5    1    4    4    0  502  0.54573952317E+02  0.20656272077E+01  0.10027243861E+03  0.11427701008E+03  0.47000000000E+01 0.  1.
          5    1    3    3  503    0  0.20023068017E+01 -0.50187090776E+02  0.10854312296E+02  0.51600963252E+02  0.47000000000E+01 0. -1.
         -5    1    3    3    0  503 -0.35360784411E+02  0.57535040238E+01  0.82390339304E+02  0.89965248253E+02  0.47000000000E+01 0.  1.
<mgrwt>
<rscale>  0 0.10751611E+03</rscale>
<asrwt>0</asrwt>
<pdfrwt beam="1">  1        1 0.52831623E-02 0.10785034E+03</pdfrwt>
<pdfrwt beam="2">  1       -1 0.62009610E-01 0.10785034E+03</pdfrwt>
<totfact> 0.39665914E+03</totfact>
</mgrwt>
</event>
<event>
 8    1  0.8174053E-004  0.1141138E+03  0.7546771E-02  0.1253419E+00
          1   -1    0    0  501    0  0.00000000000E+00  0.00000000000E+00  0.66917162453E+02  0.66917162453E+02  0.00000000000E+00 0. -1.
         -1   -1    0    0    0  501 -0.00000000000E+00 -0.00000000000E+00 -0.45859140142E+03  0.45859140142E+03  0.00000000000E+00 0.  1.
         23    2    1    2    0    0  0.67241584239E+02 -0.13774211639E+02  0.36993089568E+01  0.11417376913E+03  0.91163617262E+02 0.  0.
         23    2    1    2    0    0 -0.67241584239E+02  0.13774211639E+02 -0.39537354793E+03  0.41133479475E+03  0.90359899376E+02 0.  0.
          5    1    3    3  502    0  0.31053526700E+02 -0.31345716313E+01  0.46962755781E+02  0.56583897801E+02  0.47000000000E+01 0. -1.
         -5    1    4    4    0  503  0.12614469592E+02 -0.20020109291E+02 -0.12668028500E+03  0.12895702472E+03  0.47000000000E+01 0.  1.
          5    1    4    4  503    0 -0.79856053832E+02  0.33794320930E+02 -0.26869326293E+03  0.28237777003E+03  0.47000000000E+01 0. -1.
         -5    1    3    3    0  502  0.36188057540E+02 -0.10639640008E+02 -0.43263446825E+02  0.57589871324E+02  0.47000000000E+01 0.  1.
<mgrwt>
<rscale>  0 0.11395322E+03</rscale>
<asrwt>0</asrwt>
<pdfrwt beam="1">  1        1 0.10294948E-01 0.11411382E+03</pdfrwt>
<pdfrwt beam="2">  1       -1 0.70552522E-01 0.11411382E+03</pdfrwt>
<totfact> 0.12697634E+03</totfact>
</mgrwt>
</event>
<event>
 8    1  0.8174053E-004  0.1849829E+03  0.7546771E-02  0.1163154E+00
          1   -1    0    0  501    0  0.00000000000E+00  0.00000000000E+00  0.74530254197E+03  0.74530254197E+03  0.00000000000E+00 0. -1.
         -1   -1    0    0    0  501 -0.00000000000E+00 -0.00000000000E+00 -0.55131709980E+02  0.55131709980E+02  0.00000000000E+00 0.  1.
         23    2    1    2    0    0 -0.13726362222E+03 -0.84156085538E+02  0.50928260007E+03  0.54170806757E+03  0.90306782766E+02 0.  0.
         23    2    1    2    0    0  0.13726362222E+03  0.84156085538E+02  0.18088823192E+03  0.25872618438E+03  0.91077644464E+02 0.  0.
          5    1    3    3  502    0 -0.99396715471E+02 -0.68666574702E+02  0.46812631441E+03  0.48348644425E+03  0.47000000000E+01 0. -1.
         -5    1    3    3    0  502 -0.37866906746E+02 -0.15489510835E+02  0.41156285662E+02  0.58221623319E+02  0.47000000000E+01 0.  1.
          5    1    4    4  503    0  0.72147339895E+02  0.64209247017E+02  0.16068190018E+03  0.18753354127E+03  0.47000000000E+01 0. -1.
         -5    1    4    4    0  503  0.65116282323E+02  0.19946838521E+02  0.20206331735E+02  0.71192643108E+02  0.47000000000E+01 0.  1.
<mgrwt>
<rscale>  0 0.18488828E+03</rscale>
<asrwt>0</asrwt>
<pdfrwt beam="1">  1        1 0.11466192E+00 0.18498293E+03</pdfrwt>
<pdfrwt beam="2">  1       -1 0.84818021E-02 0.18498293E+03</pdfrwt>
<totfact> 0.20068429E+03</totfact>
</mgrwt>
</event>
<event>
 8    1  0.8174053E-004  0.1251347E+03  0.7546771E-02  0.1235842E+00
          1   -1    0    0  501    0  0.00000000000E+00  0.00000000000E+00  0.66582035888E+03  0.66582035888E+03  0.00000000000E+00 0. -1.
         -1   -1    0    0    0  501 -0.00000000000E+00 -0.00000000000E+00 -0.25289148166E+02  0.25289148166E+02  0.00000000000E+00 0.  1.
         23    2    1    2    0    0  0.29836298202E+02 -0.76703651701E+02  0.21454569153E+03  0.24712486283E+03  0.90924084825E+02 0.  0.
         23    2    1    2    0    0 -0.29836298202E+02  0.76703651701E+02  0.42598551919E+03  0.44398464422E+03  0.94260526569E+02 0.  0.
          5    1    4    4  502    0 -0.60929419885E+02  0.54331631562E+02  0.22669402492E+03  0.24099085321E+03  0.47000000000E+01 0. -1.
         -5    1    4    4    0  502  0.31093121683E+02  0.22372020139E+02  0.19929149426E+03  0.20299379101E+03  0.47000000000E+01 0.  1.
          5    1    3    3  503    0  0.78392647247E+01 -0.27694284057E+02  0.35872742164E+01  0.29383430317E+02  0.47000000000E+01 0. -1.
         -5    1    3    3    0  503  0.21997033477E+02 -0.49009367643E+02  0.21095841731E+03  0.21774143251E+03  0.47000000000E+01 0.  1.
<mgrwt>
<rscale>  0 0.12450662E+03</rscale>
<asrwt>0</asrwt>
<pdfrwt beam="1">  1        1 0.10243389E+00 0.12513473E+03</pdfrwt>
<pdfrwt beam="2">  1       -1 0.38906387E-02 0.12513473E+03</pdfrwt>
<totfact> 0.74405983E+03</totfact>
</mgrwt>
</event>
<event>
 8    1  0.8174053E-004  0.1314031E+03  0.7546771E-02  0.1226330E+00
         -2   -1    0    0    0  501 -0.00000000000E+00  0.00000000000E+00  0.27219378930E+02  0.27219378930E+02  0.00000000000E+00 0.  1.
          2   -1    0    0  501    0  0.00000000000E+00 -0.00000000000E+00 -0.14370629599E+04  0.14370629599E+04  0.00000000000E+00 0. -1.
         23    2    1    2    0    0  0.90004256990E+02  0.27767762146E+02 -0.15060346462E+03  0.19820476030E+03  0.87931271799E+02 0.  0.
         23    2    1    2    0    0 -0.90004256990E+02 -0.27767762146E+02 -0.12592401164E+04  0.12660775785E+04  0.91623956119E+02 0.  0.
          5    1    3    3  502    0  0.38867527865E+02 -0.22816374309E+02 -0.10101440124E+03  0.11071255989E+03  0.47000000000E+01 0. -1.
         -5    1    3    3    0  502  0.51136729125E+02  0.50584136455E+02 -0.49589063380E+02  0.87492200415E+02  0.47000000000E+01 0.  1.
          5    1    4    4  503    0 -0.93696070755E+02  0.88965510617E+01 -0.89314857175E+03  0.89810609813E+03  0.47000000000E+01 0. -1.
         -5    1    4    4    0  503  0.36918137644E+01 -0.36664313208E+02 -0.36609154462E+03  0.36797148041E+03  0.47000000000E+01 0.  1.
<mgrwt>
<rscale>  0 0.13076147E+03</rscale>
<asrwt>0</asrwt>
<pdfrwt beam="1">  1        2 0.22108654E+00 0.13140306E+03</pdfrwt>
<pdfrwt beam="2">  1       -2 0.41875980E-02 0.13140306E+03</pdfrwt>
<totfact> 0.37434999E+03</totfact>
</mgrwt>
</event>
<event>
 8    1  0.8174053E-004  0.9097433E+02  0.7546771E-02  0.1307463E+00
          2   -1    0    0  501    0  0.00000000000E+00  0.00000000000E+00  0.26098073856E+03  0.26098073856E+03  0.00000000000E+00 0. -1.
         -2   -1    0    0    0  501 -0.00000000000E+00 -0.00000000000E+00 -0.28719442603E+02  0.28719442603E+02  0.00000000000E+00 0.  1.
         23    2    1    2    0    0  0.17883396686E+02  0.11314443038E+02  0.14569902569E+03  0.17176884235E+03  0.88478791901E+02 0.  0.
         23    2    1    2    0    0 -0.17883396686E+02 -0.11314443038E+02  0.86562270264E+02  0.11793133881E+03  0.77245980755E+02 0.  0.
          5    1    3    3  502    0  0.43342262934E+02 -0.15114439397E+02  0.11423600707E+03  0.12320289504E+03  0.47000000000E+01 0. -1.
         -5    1    3    3    0  502 -0.25458866248E+02  0.26428882435E+02  0.31463018620E+02  0.48565947310E+02  0.47000000000E+01 0.  1.
          5    1    4    4  503    0  0.25128752263E+02 -0.19287097496E+02  0.55493279321E+02  0.64070588962E+02  0.47000000000E+01 0. -1.
         -5    1    4    4    0  503 -0.43012148949E+02  0.79726544583E+01  0.31068990943E+02  0.53860749851E+02  0.47000000000E+01 0.  1.
<mgrwt>
<rscale>  0 0.88122504E+02</rscale>
<asrwt>0</asrwt>
<pdfrwt beam="1">  1        2 0.40150881E-01 0.90974332E+02</pdfrwt>
<pdfrwt beam="2">  1       -2 0.44183760E-02 0.90974332E+02</pdfrwt>
<totfact> 0.26732795E+04</totfact>
</mgrwt>
</event>
<event>
 8    1  0.8174053E-004  0.9984294E+02  0.7546771E-02  0.1284495E+00
         -2   -1    0    0    0  501 -0.00000000000E+00  0.00000000000E+00  0.26366727055E+02  0.26366727055E+02  0.00000000000E+00 0.  1.
          2   -1    0    0  501    0  0.00000000000E+00 -0.00000000000E+00 -0.37768733206E+03  0.37768733206E+03  0.00000000000E+00 0. -1.
         23    2    1    2    0    0  0.10841017071E+02  0.14004005844E+02 -0.23449098033E+03  0.25486198643E+03  0.98259719326E+02 0.  0.
         23    2    1    2    0    0 -0.10841017071E+02 -0.14004005844E+02 -0.11682962468E+03  0.14919207268E+03  0.91079490109E+02 0.  0.
          5    1    4    4  502    0 -0.42540958278E+02 -0.30149803334E+02 -0.90977558394E+02  0.10496547005E+03  0.47000000000E+01 0. -1.
         -5    1    4    4    0  502  0.31699941206E+02  0.16145797490E+02 -0.25852066283E+02  0.44226602630E+02  0.47000000000E+01 0.  1.
          5    1    3    3  503    0  0.15273673445E+02  0.43054148421E+02 -0.49617976699E+02  0.67609011296E+02  0.47000000000E+01 0. -1.
         -5    1    3    3    0  503 -0.44326563734E+01 -0.29050142577E+02 -0.18487300363E+03  0.18725297514E+03  0.47000000000E+01 0.  1.
<mgrwt>
<rscale>  0 0.98029732E+02</rscale>
<asrwt>0</asrwt>
<pdfrwt beam="1">  1        2 0.58105737E-01 0.99842938E+02</pdfrwt>
<pdfrwt beam="2">  1       -2 0.40564200E-02 0.99842938E+02</pdfrwt>
<totfact> 0.20791827E+04</totfact>
</mgrwt>
</event>
<event>
 8    1  0.8174053E-004  0.1810359E+03  0.7546771E-02  0.1170623E+00
          2   -1    0    0  501    0  0.00000000000E+00  0.00000000000E+00  0.51199820338E+02  0.51199820338E+02  0.00000000000E+00 0. -1.
         -2   -1    0    0    0  501 -0.00000000000E+00 -0.00000000000E+00 -0.81708240486E+03  0.81708240486E+03  0.00000000000E+00 0.  1.
         23    2    1    2    0    0  0.90606977106E+02 -0.10465954575E+03 -0.60082100872E+03  0.62329381857E+03  0.91356745372E+02 0.  0.
         23    2    1    2    0    0 -0.90606977106E+02  0.10465954575E+03 -0.16506157580E+03  0.24498840663E+03  0.11666512230E+03 0.  0.
          5    1    3    3  502    0  0.61007657747E+02 -0.35065181609E+02 -0.14526576832E+03  0.16147982756E+03  0.47000000000E+01 0. -1.
         -5    1    4    4    0  503  0.79155386299E+01  0.36263022983E+02  0.40269061823E+01  0.37629357702E+02  0.47000000000E+01 0.  1.
          5    1    4    4  503    0 -0.98522515736E+02  0.68396522770E+02 -0.16908848198E+03  0.20735904893E+03  0.47000000000E+01 0. -1.
         -5    1    3    3    0  502  0.29599319360E+02 -0.69594364144E+02 -0.45555524040E+03  0.46181399100E+03  0.47000000000E+01 0.  1.
<mgrwt>
<rscale>  0 0.17711627E+03</rscale>
<asrwt>0</asrwt>
<pdfrwt beam="1">  1        2 0.78768948E-02 0.18103590E+03</pdfrwt>
<pdfrwt beam="2">  1       -2 0.12570500E+00 0.18103590E+03</pdfrwt>
<totfact> 0.42662249E+02</totfact>
</mgrwt>
</event>
<event>
 8    1  0.8174053E-004  0.1075246E+03  0.7546771E-02  0.1265463E+00
         -1   -1    0    0    0  501 -0.00000000000E+00  0.00000000000E+00  0.25622295621E+02  0.25622295621E+02  0.00000000000E+00 0.  1.
          1   -1    0    0  501    0  0.00000000000E+00 -0.00000000000E+00 -0.48602846960E+03  0.48602846960E+03  0.00000000000E+00 0. -1.
         23    2    1    2    0    0 -0.56814768635E+02 -0.47519920113E+01 -0.16021289168E+03  0.19295000231E+03  0.91164869168E+02 0.  0.
         23    2    1    2    0    0  0.56814768635E+02  0.47519920113E+01 -0.30019328231E+03  0.31870076291E+03  0.90574114267E+02 0.  0.
          5    1    3    3  502    0  0.79153034461E+00 -0.35172125364E+02 -0.91524121285E+02  0.98165471017E+02  0.47000000000E+01 0. -1.
         -5    1    3    3    0  502 -0.57606298980E+02  0.30420133353E+02 -0.68688770390E+02  0.94784531296E+02  0.47000000000E+01 0.  1.
          5    1    4    4  503    0 -0.70048432598E+01 -0.30567250172E+02 -0.12305454113E+03  0.12707452421E+03  0.47000000000E+01 0. -1.
         -5    1    4    4    0  503  0.63819611895E+02  0.35319242183E+02 -0.17713874118E+03  0.19162623870E+03  0.47000000000E+01 0.  1.
<mgrwt>
<rscale>  0 0.10739925E+03</rscale>
<asrwt>0</asrwt>
<pdfrwt beam="1">  1        1 0.74773598E-01 0.10752457E+03</pdfrwt>
<pdfrwt beam="2">  1       -1 0.39418923E-02 0.10752457E+03</pdfrwt>
<totfact> 0.11003123E+04</totfact>
</mgrwt>
</event>
<event>
 8    1  0.8174053E-004  0.1148793E+03  0.7546771E-02  0.1252586E+00
          2   -1    0    0  501    0  0.00000000000E+00  0.00000000000E+00  0.19170931582E+03  0.19170931582E+03  0.00000000000E+00 0. -1.
         -2   -1    0    0    0  501 -0.00000000000E+00 -0.00000000000E+00 -0.39364730756E+03  0.39364730756E+03  0.00000000000E+00 0.  1.
         23    2    1    2    0    0  0.21110341276E+02 -0.62282924735E+02 -0.36712787331E+03  0.38414790467E+03  0.91988738872E+02 0.  0.
         23    2    1    2    0    0 -0.21110341276E+02  0.62282924735E+02  0.16518988158E+03  0.20120871871E+03  0.94193642478E+02 0.  0.
          5    1    4    4  502    0 -0.51962656018E+02  0.87802186137E+01  0.78449757010E+02  0.94623803740E+02  0.47000000000E+01 0. -1.
         -5    1    4    4    0  502  0.30852314742E+02  0.53502706121E+02  0.86740124573E+02  0.10658491497E+03  0.47000000000E+01 0.  1.
          5    1    3    3  503    0  0.37432905506E+02 -0.25373692333E+02 -0.65132378224E+02  0.79431501121E+02  0.47000000000E+01 0. -1.
         -5    1    3    3    0  503 -0.16322564231E+02 -0.36909232402E+02 -0.30199549509E+03  0.30471640355E+03  0.47000000000E+01 0.  1.
<mgrwt>
<rscale>  0 0.11442641E+03</rscale>
<asrwt>0</asrwt>
<pdfrwt beam="1">  1        2 0.29493741E-01 0.11487929E+03</pdfrwt>
<pdfrwt beam="2">  1       -2 0.60561124E-01 0.11487929E+03</pdfrwt>
<totfact> 0.46199690E+02</totfact>
</mgrwt>
</event>
<event>
 8    1  0.8174053E-004  0.1020922E+03  0.7546771E-02  0.1279884E+00
         -3   -1    0    0    0  501 -0.00000000000E+00  0.00000000000E+00  0.24591023535E+03  0.24591023535E+03  0.00000000000E+00 0.  1.
          3   -1    0    0  501    0  0.00000000000E+00 -0.00000000000E+00 -0.40275489758E+02  0.40275489758E+02  0.00000000000E+00 0. -1.
         23    2    1    2    0    0  0.11396440259E+02 -0.28857664563E+02  0.12793048708E+03  0.16367353747E+03  0.97263424206E+02 0.  0.
         23    2    1    2    0    0 -0.11396440259E+02  0.28857664563E+02  0.77704258515E+02  0.12251218764E+03  0.89491008905E+02 0.  0.
          5    1    3    3  502    0  0.51056311819E+02 -0.13362857751E+01  0.48402782517E+02  0.70522705504E+02  0.47000000000E+01 0. -1.
         -5    1    3    3    0  502 -0.39659871560E+02 -0.27521378788E+02  0.79527704565E+02  0.93150831966E+02  0.47000000000E+01 0.  1.
          5    1    4    4  503    0 -0.41462109215E+02  0.43308073887E+02  0.41558051833E+02  0.73101692432E+02  0.47000000000E+01 0. -1.
         -5    1    4    4    0  503  0.30065668956E+02 -0.14450409324E+02  0.36146206682E+02  0.49410495210E+02  0.47000000000E+01 0.  1.
<mgrwt>
<rscale>  0 0.10019620E+03</rscale>
<asrwt>0</asrwt>
<pdfrwt beam="1">  1        3 0.61962293E-02 0.10209220E+03</pdfrwt>
<pdfrwt beam="2">  1       -3 0.37832343E-01 0.10209220E+03</pdfrwt>
<totfact> 0.24248449E+03</totfact>
</mgrwt>
</event>
<event>
 8    1  0.8174053E-004  0.1352156E+03  0.7546771E-02  0.1220008E+00
         -2   -1    0    0    0  501 -0.00000000000E+00  0.00000000000E+00  0.11397720520E+03  0.11397720520E+03  0.00000000000E+00 0.  1.
          2   -1    0    0  501    0  0.00000000000E+00 -0.00000000000E+00 -0.29497765155E+03  0.29497765155E+03  0.00000000000E+00 0. -1.
         23    2    1    2    0    0  0.70900746711E+02 -0.69352809318E+02  0.47719013193E+02  0.14338889524E+03  0.91905076101E+02 0.  0.
         23    2    1    2    0    0 -0.70900746711E+02  0.69352809318E+02 -0.22871945954E+03  0.26556596152E+03  0.91520274788E+02 0.  0.
          5    1    4    4  502    0 -0.60236986532E+02  0.90840752282E+02 -0.20025853249E+03  0.22804847436E+03  0.47000000000E+01 0. -1.
         -5    1    4    4    0  502 -0.10663760179E+02 -0.21487942963E+02 -0.28460927055E+02  0.37517487160E+02  0.47000000000E+01 0.  1.
          5    1    3    3  503    0  0.76453937406E+02 -0.21887759633E+02  0.61929234799E+01  0.79904448361E+02  0.47000000000E+01 0. -1.
         -5    1    3    3    0  503 -0.55531906949E+01 -0.47465049686E+02  0.41526089713E+02  0.63484446878E+02  0.47000000000E+01 0.  1.
<mgrwt>
<rscale>  0 0.13515029E+03</rscale>
<asrwt>0</asrwt>
<pdfrwt beam="1">  1        2 0.45381176E-01 0.13521565E+03</pdfrwt>
<pdfrwt beam="2">  1       -2 0.17534955E-01 0.13521565E+03</pdfrwt>
<totfact> 0.28425215E+03</totfact>
</mgrwt>
</event>
<event>
 8    1  0.8174053E-004  0.1027538E+03  0.7546771E-02  0.1274615E+00
          2   -1    0    0  501    0  0.00000000000E+00  0.00000000000E+00  0.51604748888E+03  0.51604748888E+03  0.00000000000E+00 0. -1.
         -2   -1    0    0    0  501 -0.00000000000E+00 -0.00000000000E+00 -0.31153144727E+02  0.31153144727E+02  0.00000000000E+00 0.  1.
         23    2    1    2    0    0 -0.18766847095E+02  0.43276007370E+02  0.40274973006E+03  0.41564806808E+03  0.91274115016E+02 0.  0.
         23    2    1    2    0    0  0.18766847095E+02 -0.43276007370E+02  0.82144614098E+02  0.13155256553E+03  0.91287088401E+02 0.  0.
          5    1    4    4  502    0  0.39573808804E+02  0.11396518078E+02  0.48901611755E+02  0.64104793891E+02  0.47000000000E+01 0. -1.
         -5    1    4    4    0  502 -0.20806961708E+02 -0.54672525448E+02  0.33243002343E+02  0.67447771640E+02  0.47000000000E+01 0.  1.
          5    1    3    3  503    0  0.93578744757E+01  0.64807107226E+02  0.22694561887E+03  0.23624972992E+03  0.47000000000E+01 0. -1.
         -5    1    3    3    0  503 -0.28124721571E+02 -0.21531099856E+02  0.17580411119E+03  0.17939833816E+03  0.47000000000E+01 0.  1.
<mgrwt>
<rscale>  0 0.10275090E+03</rscale>
<asrwt>0</asrwt>
<pdfrwt beam="1">  1        2 0.79391915E-01 0.10275378E+03</pdfrwt>
<pdfrwt beam="2">  1       -2 0.47927919E-02 0.10275378E+03</pdfrwt>
<totfact> 0.11663252E+04</totfact>
</mgrwt>
</event>
<event>
 8    1  0.8174053E-004  0.9915881E+02  0.7546771E-02  0.1282176E+00
         -1   -1    0    0    0  501 -0.00000000000E+00  0.00000000000E+00  0.22742574498E+02  0.22742574498E+02  0.00000000000E+00 0.  1.
          1   -1    0    0  501    0  0.00000000000E+00 -0.00000000000E+00 -0.59831339130E+03  0.59831339130E+03  0.00000000000E+00 0. -1.
         23    2    1    2    0    0 -0.37490345785E+02 -0.17198133651E+01 -0.12402490925E+03  0.15879120940E+03  0.91782276526E+02 0.  0.
         23    2    1    2    0    0  0.37490345785E+02  0.17198133651E+01 -0.45154590756E+03  0.46226475640E+03  0.91577915414E+02 0.  0.
          5    1    3    3  502    0  0.22895417286E+02  0.23857412010E+02 -0.40579470063E+02  0.52556252065E+02  0.47000000000E+01 0. -1.
         -5    1    4    4    0  503  0.37228561811E+02 -0.38569436258E+02 -0.18560829455E+03  0.19325138094E+03  0.47000000000E+01 0.  1.
          5    1    4    4  503    0  0.26178397452E+00  0.40289249623E+02 -0.26593761301E+03  0.26901337546E+03  0.47000000000E+01 0. -1.
         -5    1    3    3    0  502 -0.60385763071E+02 -0.25577225375E+02 -0.83445439185E+02  0.10623495734E+03  0.47000000000E+01 0.  1.
<mgrwt>
<rscale>  0 0.99111496E+02</rscale>
<asrwt>0</asrwt>
<pdfrwt beam="1">  1        1 0.92048220E-01 0.99158812E+02</pdfrwt>
<pdfrwt beam="2">  1       -1 0.34988574E-02 0.99158812E+02</pdfrwt>
<totfact> 0.98986698E+03</totfact>
</mgrwt>
</event>
<event>
 8    1  0.8174053E-004  0.9501179E+02  0.7546771E-02  0.1292787E+00
         -1   -1    0    0    0  501 -0.00000000000E+00  0.00000000000E+00  0.46075313014E+03  0.46075313014E+03  0.00000000000E+00 0.  1.
          1   -1    0    0  501    0  0.00000000000E+00 -0.00000000000E+00 -0.25376605069E+02  0.25376605069E+02  0.00000000000E+00 0. -1.
         23    2    1    2    0    0 -0.73391219888E+01 -0.94315843323E+01  0.34194934188E+03  0.35490363723E+03  0.94257210922E+02 0.  0.
         23    2    1    2    0    0  0.73391219888E+01  0.94315843323E+01  0.93427183186E+02  0.13122609798E+03  0.91371947213E+02 0.  0.
          5    1    4    4  502    0  0.22228210650E+02  0.42042060556E+02  0.25234790285E+02  0.54041769449E+02  0.47000000000E+01 0. -1.
         -5    1    4    4    0  502 -0.14889088661E+02 -0.32610476223E+02  0.68192392901E+02  0.77184328527E+02  0.47000000000E+01 0.  1.
          5    1    3    3  503    0 -0.44892682928E+02  0.17481854539E+02  0.16400808158E+03  0.17100207321E+03  0.47000000000E+01 0. -1.
         -5    1    3    3    0  503  0.37553560939E+02 -0.26913438871E+02  0.17794126030E+03  0.18390156402E+03  0.47000000000E+01 0.  1.
<mgrwt>
<rscale>  0 0.94288151E+02</rscale>
<asrwt>0</asrwt>
<pdfrwt beam="1">  1        1 0.39040934E-02 0.95011785E+02</pdfrwt>
<pdfrwt beam="2">  1       -1 0.70885091E-01 0.95011785E+02</pdfrwt>
<totfact> 0.45779206E+03</totfact>
</mgrwt>
</event>
<event>
 8    1  0.8174053E-004  0.9953289E+02  0.7546771E-02  0.1281614E+00
         -2   -1    0    0    0  501 -0.00000000000E+00  0.00000000000E+00  0.14570794337E+03  0.14570794337E+03  0.00000000000E+00 0.  1.
          2   -1    0    0  501    0  0.00000000000E+00 -0.00000000000E+00 -0.63676144110E+03  0.63676144110E+03  0.00000000000E+00 0. -1.
         23    2    1    2    0    0  0.69122015222E+00 -0.39629250767E+02  0.12445208679E+03  0.15896804434E+03  0.90617668893E+02 0.  0.
         23    2    1    2    0    0 -0.69122015222E+00  0.39629250767E+02 -0.61550558451E+03  0.62350134012E+03  0.91300828447E+02 0.  0.
          5    1    3    3  502    0  0.38933102978E+02 -0.86507427778E+01  0.23421138982E+02  0.46489370928E+02  0.47000000000E+01 0. -1.
         -5    1    3    3    0  502 -0.38241882825E+02 -0.30978507989E+02  0.10103094780E+03  0.11247867342E+03  0.47000000000E+01 0.  1.
          5    1    4    4  503    0  0.52240269358E+00  0.67684613992E+02 -0.49771784927E+03  0.50232123920E+03  0.47000000000E+01 0. -1.
         -5    1    4    4    0  503 -0.12136228458E+01 -0.28055363225E+02 -0.11778773524E+03  0.12118010092E+03  0.47000000000E+01 0.  1.
<mgrwt>
<rscale>  0 0.99375950E+02</rscale>
<asrwt>0</asrwt>
<pdfrwt beam="1">  1        2 0.97963301E-01 0.99532892E+02</pdfrwt>
<pdfrwt beam="2">  1       -2 0.22416606E-01 0.99532892E+02</pdfrwt>
<totfact> 0.81148077E+02</totfact>
</mgrwt>
</event>
<event>
 8    1  0.8174053E-004  0.1440548E+03  0.7546771E-02  0.1208284E+00
          2   -1    0    0  501    0  0.00000000000E+00  0.00000000000E+00  0.57243731082E+03  0.57243731082E+03  0.00000000000E+00 0. -1.
         -2   -1    0    0    0  501 -0.00000000000E+00 -0.00000000000E+00 -0.38115997803E+02  0.38115997803E+02  0.00000000000E+00 0.  1.
         23    2    1    2    0    0 -0.36355260371E+02 -0.10497546518E+03  0.19628732853E+03  0.24347584596E+03  0.91707246061E+02 0.  0.
         23    2    1    2    0    0  0.36355260371E+02  0.10497546518E+03  0.33803398449E+03  0.36707746266E+03  0.90207181958E+02 0.  0.
          5    1    4    4  502    0  0.85885056769E+01  0.74248069343E+02  0.30452167384E+03  0.31359540505E+03  0.47000000000E+01 0. -1.
         -5    1    4    4    0  502  0.27766754694E+02  0.30727395838E+02  0.33512310654E+02  0.53482057614E+02  0.47000000000E+01 0.  1.
          5    1    3    3  503    0 -0.24525024444E+02  0.10252279704E+02  0.26046784244E+02  0.37511478677E+02  0.47000000000E+01 0. -1.
         -5    1    3    3    0  503 -0.11830235927E+02 -0.11522774488E+03  0.17024054428E+03  0.20596436728E+03  0.47000000000E+01 0.  1.
<mgrwt>
<rscale>  0 0.14381659E+03</rscale>
<asrwt>0</asrwt>
<pdfrwt beam="1">  1        2 0.88067272E-01 0.14405475E+03</pdfrwt>
<pdfrwt beam="2">  1       -2 0.58640001E-02 0.14405475E+03</pdfrwt>
<totfact> 0.78610577E+03</totfact>
</mgrwt>
</event>
<event>
 8    1  0.8174053E-004  0.9266576E+02  0.7546771E-02  0.1296975E+00
         -1   -1    0    0    0  501 -0.00000000000E+00  0.00000000000E+00  0.16909006607E+03  0.16909006607E+03  0.00000000000E+00 0.  1.
          1   -1    0    0  501    0  0.00000000000E+00 -0.00000000000E+00 -0.96840972827E+02  0.96840972827E+02  0.00000000000E+00 0. -1.
         23    2    1    2    0    0  0.17138491372E+02  0.83031783171E+01 -0.55915175943E+02  0.10822868896E+03  0.90687769610E+02 0.  0.
         23    2    1    2    0    0 -0.17138491372E+02 -0.83031783171E+01  0.12816426918E+03  0.15770234993E+03  0.89895943305E+02 0.  0.
          5    1    3    3  502    0 -0.33656372242E+02 -0.12579394967E+02 -0.31212579525E+02  0.47825805700E+02  0.47000000000E+01 0. -1.
         -5    1    4    4    0  503  0.17190228724E+02  0.19072444193E+02  0.10428226715E+03  0.10749950388E+03  0.47000000000E+01 0.  1.
          5    1    4    4  503    0 -0.34328720096E+02 -0.27375622510E+02  0.23882002029E+02  0.50202846056E+02  0.47000000000E+01 0. -1.
         -5    1    3    3    0  502  0.50794863614E+02  0.20882573284E+02 -0.24702596417E+02  0.60402883261E+02  0.47000000000E+01 0.  1.
<mgrwt>
<rscale>  0 0.92471450E+02</rscale>
<asrwt>0</asrwt>
<pdfrwt beam="1">  1        1 0.14898611E-01 0.92665755E+02</pdfrwt>
<pdfrwt beam="2">  1       -1 0.26013856E-01 0.92665755E+02</pdfrwt>
<totfact> 0.45616151E+03</totfact>
</mgrwt>
</event>
<event>
 8    1  0.8174053E-004  0.9655348E+02  0.7546771E-02  0.1289708E+00
         -1   -1    0    0    0  501 -0.00000000000E+00  0.00000000000E+00  0.83255618631E+02  0.83255618631E+02  0.00000000000E+00 0.  1.
          1   -1    0    0  501    0  0.00000000000E+00 -0.00000000000E+00 -0.13908368365E+03  0.13908368365E+03  0.00000000000E+00 0. -1.
         23    2    1    2    0    0  0.57173699568E+01 -0.17506335414E+02 -0.80139336546E+02  0.12277217985E+03  0.91167619165E+02 0.  0.
         23    2    1    2    0    0 -0.57173699568E+01  0.17506335414E+02  0.24311271524E+02  0.99567122434E+02  0.94780872795E+02 0.  0.
          5    1    3    3  502    0 -0.22235558003E+02 -0.46775159349E+02 -0.40349925388E+02  0.65822048363E+02  0.47000000000E+01 0. -1.
         -5    1    4    4    0  503 -0.29649910364E+02  0.42311995404E+02  0.35684668298E+02  0.62967512982E+02  0.47000000000E+01 0.  1.
          5    1    4    4  503    0  0.23932540407E+02 -0.24805659990E+02 -0.11373396774E+02  0.36599609452E+02  0.47000000000E+01 0. -1.
         -5    1    3    3    0  502  0.27952927959E+02  0.29268823936E+02 -0.39789411158E+02  0.56950131487E+02  0.47000000000E+01 0.  1.
<mgrwt>
<rscale>  0 0.95654920E+02</rscale>
<asrwt>0</asrwt>
<pdfrwt beam="1">  1        1 0.21397490E-01 0.96553477E+02</pdfrwt>
<pdfrwt beam="2">  1       -1 0.12808557E-01 0.96553477E+02</pdfrwt>
<totfact> 0.88604281E+03</totfact>
</mgrwt>
</event>
<event>
 8    1  0.8174053E-004  0.1013872E+03  0.7546771E-02  0.1282169E+00
         -2   -1    0    0    0  501 -0.00000000000E+00  0.00000000000E+00  0.17264131696E+03  0.17264131696E+03  0.00000000000E+00 0.  1.
          2   -1    0    0  501    0  0.00000000000E+00 -0.00000000000E+00 -0.55660564743E+02  0.55660564743E+02  0.00000000000E+00 0. -1.
         23    2    1    2    0    0  0.25036082393E+02  0.22394649146E+01  0.44562429553E+02  0.11074824398E+03  0.98221905862E+02 0.  0.
         23    2    1    2    0    0 -0.25036082393E+02 -0.22394649146E+01  0.72418322665E+02  0.11755363773E+03  0.89121398445E+02 0.  0.
          5    1    3    3  502    0 -0.26973721877E+02  0.31182598566E+02  0.21565641569E+02  0.46766473264E+02  0.47000000000E+01 0. -1.
         -5    1    4    4    0  503 -0.21840071865E+01  0.36060429935E+02  0.61366401880E+02  0.71365606381E+02  0.47000000000E+01 0.  1.
          5    1    4    4  503    0 -0.22852075206E+02 -0.38299894849E+02  0.11051920786E+02  0.46188031347E+02  0.47000000000E+01 0. -1.
         -5    1    3    3    0  502  0.52009804270E+02 -0.28943133652E+02  0.22996787984E+02  0.63981770711E+02  0.47000000000E+01 0.  1.
<mgrwt>
<rscale>  0 0.99114702E+02</rscale>
<asrwt>0</asrwt>
<pdfrwt beam="1">  1        2 0.85631639E-02 0.10138720E+03</pdfrwt>
<pdfrwt beam="2">  1       -2 0.26560202E-01 0.10138720E+03</pdfrwt>
<totfact> 0.90986697E+03</totfact>
</mgrwt>
</event>
<event>
 8    1  0.8174053E-004  0.1083992E+03  0.7546771E-02  0.1264966E+00
          1   -1    0    0  501    0  0.00000000000E+00  0.00000000000E+00  0.59044450220E+03  0.59044450220E+03  0.00000000000E+00 0. -1.
         -1   -1    0    0    0  501 -0.00000000000E+00 -0.00000000000E+00 -0.13852882918E+03  0.13852882918E+03  0.00000000000E+00 0.  1.
         23    2    1    2    0    0 -0.54109266326E+02 -0.14847494445E+02 -0.11165450476E+03  0.15561847345E+03  0.92747614803E+02 0.  0.
         23    2    1    2    0    0  0.54109266326E+02  0.14847494445E+02  0.56357017778E+03  0.57335485793E+03  0.89309501345E+02 0.  0.
          5    1    4    4  502    0  0.60897254996E+02 -0.17329774744E+02  0.24633769159E+03  0.25438778480E+03  0.47000000000E+01 0. -1.
         -5    1    4    4    0  502 -0.67879886707E+01  0.32177269189E+02  0.31723248619E+03  0.31896707312E+03  0.47000000000E+01 0.  1.
          5    1    3    3  503    0 -0.55097330624E+02  0.25076986229E+02 -0.37790217311E+02  0.71517561512E+02  0.47000000000E+01 0. -1.
         -5    1    3    3    0  503  0.98806429825E+00 -0.39924480674E+02 -0.73864287453E+02  0.84100911940E+02  0.47000000000E+01 0.  1.
<mgrwt>
<rscale>  0 0.10765998E+03</rscale>
<asrwt>0</asrwt>
<pdfrwt beam="1">  1        1 0.90837614E-01 0.10839917E+03</pdfrwt>
<pdfrwt beam="2">  1       -1 0.21312128E-01 0.10839917E+03</pdfrwt>
<totfact> 0.65891321E+02</totfact>
</mgrwt>
</event>
<event>
 8    1  0.8174053E-004  0.9800656E+02  0.7546771E-02  0.1290779E+00
         -3   -1    0    0    0  501 -0.00000000000E+00  0.00000000000E+00  0.69610301737E+02  0.69610301737E+02  0.00000000000E+00 0.  1.
          3   -1    0    0  501    0  0.00000000000E+00 -0.00000000000E+00 -0.14719099260E+03  0.14719099260E+03  0.00000000000E+00 0. -1.
         23    2    1    2    0    0 -0.17574981974E+02 -0.16703047475E+02  0.68586928744E+01  0.87436323363E+02  0.83726920336E+02 0.  0.
         23    2    1    2    0    0  0.17574981974E+02  0.16703047475E+02 -0.84439383734E+02  0.12936497097E+03  0.94960067409E+02 0.  0.
          5    1    3    3  502    0 -0.18703095483E+01 -0.45210348017E+02 -0.15055399972E+02  0.47918980519E+02  0.47000000000E+01 0. -1.
         -5    1    3    3    0  502 -0.15704672426E+02  0.28507300542E+02  0.21914092847E+02  0.39517342845E+02  0.47000000000E+01 0.  1.
          5    1    4    4  503    0  0.58166057808E+01 -0.38875977149E+02 -0.45601724280E+02  0.60388589645E+02  0.47000000000E+01 0. -1.
         -5    1    4    4    0  503  0.11758376193E+02  0.55579024623E+02 -0.38837659454E+02  0.68976381325E+02  0.47000000000E+01 0.  1.
<mgrwt>
<rscale>  0 0.95176399E+02</rscale>
<asrwt>0</asrwt>
<pdfrwt beam="1">  1        3 0.22644768E-01 0.98006562E+02</pdfrwt>
<pdfrwt beam="2">  1       -3 0.10709277E-01 0.98006562E+02</pdfrwt>
<totfact> 0.25411191E+03</totfact>
</mgrwt>
</event>
<event>
 8    1  0.8174053E-004  0.1006777E+03  0.7546771E-02  0.1280029E+00
          1   -1    0    0  501    0  0.00000000000E+00  0.00000000000E+00  0.20310532138E+02  0.20310532138E+02  0.00000000000E+00 0. -1.
         -1   -1    0    0    0  501 -0.00000000000E+00 -0.00000000000E+00 -0.54737327063E+03  0.54737327063E+03  0.00000000000E+00 0.  1.
         23    2    1    2    0    0 -0.17758965491E+02 -0.37313653210E+02 -0.35936658736E+03  0.37320281858E+03  0.91805828339E+02 0.  0.
         23    2    1    2    0    0  0.17758965491E+02  0.37313653210E+02 -0.16769615113E+03  0.19448098418E+03  0.89404499514E+02 0.  0.
          5    1    3    3  502    0  0.25939447725E+02 -0.44042348021E+02 -0.13405100422E+03  0.14354213702E+03  0.47000000000E+01 0. -1.
         -5    1    4    4    0  503 -0.26561298679E+02 -0.52646058831E+01 -0.96367396813E+02  0.10020969929E+03  0.47000000000E+01 0.  1.
          5    1    4    4  503    0  0.44320264169E+02  0.42578259093E+02 -0.71328754319E+02  0.94271284896E+02  0.47000000000E+01 0. -1.
         -5    1    3    3    0  502 -0.43698413215E+02  0.67286948111E+01 -0.22531558314E+03  0.22966068156E+03  0.47000000000E+01 0.  1.
<mgrwt>
<rscale>  0 0.10012700E+03</rscale>
<asrwt>0</asrwt>
<pdfrwt beam="1">  1        1 0.31246971E-02 0.10067770E+03</pdfrwt>
<pdfrwt beam="2">  1       -1 0.84211275E-01 0.10067770E+03</pdfrwt>
<totfact> 0.44102704E+03</totfact>
</mgrwt>
</event>
<event>
 8    1  0.8174053E-004  0.9409699E+02  0.7546771E-02  0.1294991E+00
          2   -1    0    0  501    0  0.00000000000E+00  0.00000000000E+00  0.72875646995E+03  0.72875646995E+03  0.00000000000E+00 0. -1.
         -2   -1    0    0    0  501 -0.00000000000E+00 -0.00000000000E+00 -0.13070729381E+02  0.13070729381E+02  0.00000000000E+00 0.  1.
         23    2    1    2    0    0 -0.22456857904E+01  0.19463856208E+02  0.24568686118E+03  0.26308986443E+03  0.92034548980E+02 0.  0.
         23    2    1    2    0    0  0.22456857904E+01 -0.19463856208E+02  0.46999887939E+03  0.47873733490E+03  0.88919089057E+02 0.  0.
          5    1    3    3  502    0  0.43931840996E+02  0.16131711039E+02  0.13738217213E+03  0.14521084662E+03  0.47000000000E+01 0. -1.
         -5    1    3    3    0  502 -0.46177526787E+02  0.33321451685E+01  0.10830468904E+03  0.11787901781E+03  0.47000000000E+01 0.  1.
          5    1    4    4  503    0  0.13058792840E+02  0.33749114596E+02  0.18022711558E+03  0.18388430601E+03  0.47000000000E+01 0. -1.
         -5    1    4    4    0  503 -0.10813107049E+02 -0.53212970803E+02  0.28977176381E+03  0.29485302889E+03  0.47000000000E+01 0.  1.
<mgrwt>
<rscale>  0 0.93326356E+02</rscale>
<asrwt>0</asrwt>
<pdfrwt beam="1">  1        2 0.11211635E+00 0.94096987E+02</pdfrwt>
<pdfrwt beam="2">  1       -2 0.20108820E-02 0.94096987E+02</pdfrwt>
<totfact> 0.27831755E+04</totfact>
</mgrwt>
</event>
<event>
 8    1  0.8174053E-004  0.9345659E+02  0.7546771E-02  0.1295616E+00
          2   -1    0    0  501    0  0.00000000000E+00  0.00000000000E+00  0.27924065817E+03  0.27924065817E+03  0.00000000000E+00 0. -1.
         -2   -1    0    0    0  501 -0.00000000000E+00 -0.00000000000E+00 -0.32047905204E+02  0.32047905204E+02  0.00000000000E+00 0.  1.
         23    2    1    2    0    0 -0.74402225875E+01 -0.83437397570E+01  0.15596698098E+03  0.18182363095E+03  0.92785552278E+02 0.  0.
         23    2    1    2    0    0  0.74402225875E+01  0.83437397570E+01  0.91225771984E+02  0.12946493242E+03  0.91181425451E+02 0.  0.
          5    1    4    4  502    0  0.29966363901E+02  0.23315103941E+02  0.94372442225E+02  0.10183233715E+03  0.47000000000E+01 0. -1.
         -5    1    3    3    0  503  0.44570625091E+01 -0.25332286592E+02  0.18133896942E+01  0.26210084555E+02  0.47000000000E+01 0.  1.
          5    1    3    3  503    0 -0.11897285097E+02  0.16988546835E+02  0.15415359129E+03  0.15561354640E+03  0.47000000000E+01 0. -1.
         -5    1    4    4    0  502 -0.22526141314E+02 -0.14971364184E+02 -0.31466702405E+01  0.27632595274E+02  0.47000000000E+01 0.  1.
<mgrwt>
<rscale>  0 0.93055915E+02</rscale>
<asrwt>0</asrwt>
<pdfrwt beam="1">  1        2 0.42960099E-01 0.93456587E+02</pdfrwt>
<pdfrwt beam="2">  1       -2 0.49304472E-02 0.93456587E+02</pdfrwt>
<totfact> 0.21233161E+04</totfact>
</mgrwt>
</event>
<event>
 8    1  0.8174053E-004  0.1056640E+03  0.7546771E-02  0.1269977E+00
          1   -1    0    0  501    0  0.00000000000E+00  0.00000000000E+00  0.16284888471E+03  0.16284888471E+03  0.00000000000E+00 0. -1.
         -1   -1    0    0    0  501 -0.00000000000E+00 -0.00000000000E+00 -0.81438084332E+02  0.81438084332E+02  0.00000000000E+00 0.  1.
         23    2    1    2    0    0  0.47519470771E+02  0.36558441452E+01 -0.11014922615E+02  0.10390397186E+03  0.91669196292E+02 0.  0.
         23    2    1    2    0    0 -0.47519470771E+02 -0.36558441452E+01  0.92425722995E+02  0.14038299719E+03  0.94304858459E+02 0.  0.
          5    1    4    4  502    0 -0.34219430156E+02 -0.24013148493E+02  0.10463157204E+03  0.11277170110E+03  0.47000000000E+01 0. -1.
         -5    1    3    3    0  503  0.71662956868E+02  0.16048940032E+02  0.16098925518E+01  0.73605907488E+02  0.47000000000E+01 0.  1.
          5    1    3    3  503    0 -0.24143486097E+02 -0.12393095887E+02 -0.12624815167E+02  0.30298064370E+02  0.47000000000E+01 0. -1.
         -5    1    4    4    0  502 -0.13300040615E+02  0.20357304348E+02 -0.12205849047E+02  0.27611296087E+02  0.47000000000E+01 0.  1.
<mgrwt>
<rscale>  0 0.10507264E+03</rscale>
<asrwt>0</asrwt>
<pdfrwt beam="1">  1        1 0.25053674E-01 0.10566396E+03</pdfrwt>
<pdfrwt beam="2">  1       -1 0.12528936E-01 0.10566396E+03</pdfrwt>
<totfact> 0.75835153E+03</totfact>
</mgrwt>
</event>
<event>
 8    1  0.8174053E-004  0.9666992E+02  0.7546771E-02  0.1287733E+00
         -2   -1    0    0    0  501 -0.00000000000E+00  0.00000000000E+00  0.13847249730E+02  0.13847249730E+02  0.00000000000E+00 0.  1.
          2   -1    0    0  501    0  0.00000000000E+00 -0.00000000000E+00 -0.84302494235E+03  0.84302494235E+03  0.00000000000E+00 0. -1.
         23    2    1    2    0    0 -0.14421023113E+02 -0.31320536467E+02 -0.22213141490E+03  0.24225490591E+03  0.90311306288E+02 0.  0.
         23    2    1    2    0    0  0.14421023113E+02  0.31320536467E+02 -0.60704627772E+03  0.61461728617E+03  0.89779080213E+02 0.  0.
          5    1    4    4  502    0  0.91967700719E+01  0.62910412356E+02 -0.39242303957E+03  0.39756789678E+03  0.47000000000E+01 0. -1.
         -5    1    3    3    0  503 -0.48097863694E+02 -0.15270708381E+02 -0.17368695372E+03  0.18093050301E+03  0.47000000000E+01 0.  1.
          5    1    3    3  503    0  0.33676840580E+02 -0.16049828087E+02 -0.48444461174E+02  0.61324402904E+02  0.47000000000E+01 0. -1.
         -5    1    4    4    0  502  0.52242530415E+01 -0.31589875889E+02 -0.21462323815E+03  0.21704938938E+03  0.47000000000E+01 0.  1.
<mgrwt>
<rscale>  0 0.96545425E+02</rscale>
<asrwt>0</asrwt>
<pdfrwt beam="1">  1        2 0.12969615E+00 0.96669923E+02</pdfrwt>
<pdfrwt beam="2">  1       -2 0.21303460E-02 0.96669923E+02</pdfrwt>
<totfact> 0.21511170E+04</totfact>
</mgrwt>
</event>
<event>
 8    1  0.8174053E-004  0.1012375E+03  0.7546771E-02  0.1277838E+00
         -1   -1    0    0    0  501 -0.00000000000E+00  0.00000000000E+00  0.29746736054E+03  0.29746736054E+03  0.00000000000E+00 0.  1.
          1   -1    0    0  501    0  0.00000000000E+00 -0.00000000000E+00 -0.38634159658E+02  0.38634159658E+02  0.00000000000E+00 0. -1.
         23    2    1    2    0    0 -0.10400130205E+02  0.38699944299E+02  0.18535724157E+03  0.21120213855E+03  0.92968747062E+02 0.  0.
         23    2    1    2    0    0  0.10400130205E+02 -0.38699944299E+02  0.73475959318E+02  0.12489938165E+03  0.92710789780E+02 0.  0.
          5    1    3    3  502    0 -0.48021618292E+02  0.36828496467E+01  0.73328650788E+02  0.87856816647E+02  0.47000000000E+01 0. -1.
         -5    1    3    3    0  502  0.37621488087E+02  0.35017094653E+02  0.11202859078E+03  0.12334532191E+03  0.47000000000E+01 0.  1.
          5    1    4    4  503    0 -0.28326195835E+02 -0.46353428326E+02  0.19595336140E+02  0.57940321768E+02  0.47000000000E+01 0. -1.
         -5    1    4    4    0  503  0.38726326039E+02  0.76534840272E+01  0.53880623177E+02  0.66959059882E+02  0.47000000000E+01 0.  1.
<mgrwt>
<rscale>  0 0.10117826E+03</rscale>
<asrwt>0</asrwt>
<pdfrwt beam="1">  1        1 0.59437171E-02 0.10123752E+03</pdfrwt>
<pdfrwt beam="2">  1       -1 0.45764208E-01 0.10123752E+03</pdfrwt>
<totfact> 0.58856355E+03</totfact>
</mgrwt>
</event>
<event>
 8    1  0.8174053E-004  0.1098481E+03  0.7546771E-02  0.1262036E+00
          1   -1    0    0  501    0  0.00000000000E+00  0.00000000000E+00  0.34258352025E+03  0.34258352025E+03  0.00000000000E+00 0. -1.
         -1   -1    0    0    0  501 -0.00000000000E+00 -0.00000000000E+00 -0.37841710489E+02  0.37841710489E+02  0.00000000000E+00 0.  1.
         23    2    1    2    0    0 -0.20369683958E+02 -0.53256772798E+02  0.96771333034E+02  0.14639430024E+03  0.93890320979E+02 0.  0.
         23    2    1    2    0    0  0.20369683958E+02  0.53256772798E+02  0.20797047672E+03  0.23403093049E+03  0.90926065374E+02 0.  0.
          5    1    4    4  502    0  0.17795652277E+02 -0.14215632316E+02  0.12407745784E+03  0.12623816771E+03  0.47000000000E+01 0. -1.
         -5    1    4    4    0  502  0.25740316807E+01  0.67472405114E+02  0.83893018882E+02  0.10779276278E+03  0.47000000000E+01 0.  1.
          5    1    3    3  503    0  0.48204131743E+01 -0.71499365108E+02  0.88302229392E+02  0.11381901998E+03  0.47000000000E+01 0. -1.
         -5    1    3    3    0  503 -0.25190097132E+02  0.18242592310E+02  0.84691036427E+01  0.32575280264E+02  0.47000000000E+01 0.  1.
<mgrwt>
<rscale>  0 0.10921192E+03</rscale>
<asrwt>0</asrwt>
<pdfrwt beam="1">  1        1 0.52705155E-01 0.10984808E+03</pdfrwt>
<pdfrwt beam="2">  1       -1 0.58218019E-02 0.10984808E+03</pdfrwt>
<totfact> 0.96471757E+03</totfact>
</mgrwt>
</event>
<event>
 8    1  0.8174053E-004  0.1022881E+03  0.7546771E-02  0.1278400E+00
         -1   -1    0    0    0  501 -0.00000000000E+00  0.00000000000E+00  0.15800540419E+03  0.15800540419E+03  0.00000000000E+00 0.  1.
          1   -1    0    0  501    0  0.00000000000E+00 -0.00000000000E+00 -0.82203792430E+02  0.82203792430E+02  0.00000000000E+00 0. -1.
         23    2    1    2    0    0 -0.36319495766E+02  0.32954251569E+02 -0.21280886975E+02  0.99184852394E+02  0.83544421266E+02 0.  0.
         23    2    1    2    0    0  0.36319495766E+02 -0.32954251569E+02  0.97082498732E+02  0.14102434422E+03  0.89765057980E+02 0.  0.
          5    1    4    4  502    0  0.50411435090E+02 -0.54886946217E+02  0.80357225038E+02  0.10969623179E+03  0.47000000000E+01 0. -1.
         -5    1    3    3    0  503  0.17710984809E+02  0.38191134232E+02 -0.10505250527E+02  0.43642777243E+02  0.47000000000E+01 0.  1.
          5    1    3    3  503    0 -0.54030480575E+02 -0.52368826627E+01 -0.10775636448E+02  0.55542075151E+02  0.47000000000E+01 0. -1.
         -5    1    4    4    0  502 -0.14091939325E+02  0.21932694648E+02  0.16725273694E+02  0.31328112433E+02  0.47000000000E+01 0.  1.
<mgrwt>
<rscale>  0 0.10090709E+03</rscale>
<asrwt>0</asrwt>
<pdfrwt beam="1">  1        1 0.12646737E-01 0.10228809E+03</pdfrwt>
<pdfrwt beam="2">  1       -1 0.24308524E-01 0.10228809E+03</pdfrwt>
<totfact> 0.63385308E+03</totfact>
</mgrwt>
</event>
<event>
 8    1  0.8174053E-004  0.1024184E+03  0.7546771E-02  0.1286029E+00
         -1   -1    0    0    0  501 -0.00000000000E+00  0.00000000000E+00  0.16638722270E+02  0.16638722270E+02  0.00000000000E+00 0.  1.
          1   -1    0    0  501    0  0.00000000000E+00 -0.00000000000E+00 -0.74216447722E+03  0.74216447722E+03  0.00000000000E+00 0. -1.
         23    2    1    2    0    0 -0.31122101769E+01 -0.42915851221E+02 -0.54404851167E+03  0.55042008958E+03  0.71568399597E+02 0.  0.
         23    2    1    2    0    0  0.31122101769E+01  0.42915851221E+02 -0.18147724327E+03  0.20838310991E+03  0.92941242352E+02 0.  0.
          5    1    4    4  502    0 -0.53466942176E+01  0.23741986958E+02 -0.18497018737E+03  0.18662349611E+03  0.47000000000E+01 0. -1.
         -5    1    4    4    0  502  0.84589043945E+01  0.19173864263E+02  0.34929440943E+01  0.21759613801E+02  0.47000000000E+01 0.  1.
          5    1    3    3  503    0  0.31345203472E+02 -0.31950456403E+02 -0.35928284022E+03  0.36209060016E+03  0.47000000000E+01 0. -1.
         -5    1    3    3    0  503 -0.34457413649E+02 -0.10965394818E+02 -0.18476567146E+03  0.18832948943E+03  0.47000000000E+01 0.  1.
<mgrwt>
<rscale>  0 0.97322848E+02</rscale>
<asrwt>0</asrwt>
<pdfrwt beam="1">  1        1 0.11417916E+00 0.10241841E+03</pdfrwt>
<pdfrwt beam="2">  1       -1 0.25598033E-02 0.10241841E+03</pdfrwt>
<totfact> 0.11549701E+04</totfact>
</mgrwt>
</event>
<event>
 8    1  0.8174053E-004  0.1226848E+03  0.7546771E-02  0.1238904E+00
          1   -1    0    0  501    0  0.00000000000E+00  0.00000000000E+00  0.70848526249E+03  0.70848526249E+03  0.00000000000E+00 0. -1.
         -1   -1    0    0    0  501 -0.00000000000E+00 -0.00000000000E+00 -0.41151059830E+02  0.41151059830E+02  0.00000000000E+00 0.  1.
         23    2    1    2    0    0  0.52031607564E+01  0.81336899923E+02  0.72791930371E+02  0.14265417591E+03  0.91699425333E+02 0.  0.
         23    2    1    2    0    0 -0.52031607564E+01 -0.81336899923E+02  0.59454227229E+03  0.60698214641E+03  0.91126551300E+02 0.  0.
          5    1    3    3  502    0  0.34322514612E+02  0.30740415378E+02  0.70109356165E+02  0.84026305220E+02  0.47000000000E+01 0. -1.
         -5    1    3    3    0  502 -0.29119353856E+02  0.50596484544E+02  0.26825742054E+01  0.58627870689E+02  0.47000000000E+01 0.  1.
          5    1    4    4  503    0  0.28843648552E+02 -0.21674923603E+02  0.80396930735E+02  0.88246897093E+02  0.47000000000E+01 0. -1.
         -5    1    4    4    0  503 -0.34046809309E+02 -0.59661976319E+02  0.51414534155E+03  0.51873524931E+03  0.47000000000E+01 0.  1.
<mgrwt>
<rscale>  0 0.12257771E+03</rscale>
<asrwt>0</asrwt>
<pdfrwt beam="1">  1        1 0.10899772E+00 0.12268475E+03</pdfrwt>
<pdfrwt beam="2">  1       -1 0.63309328E-02 0.12268475E+03</pdfrwt>
<totfact> 0.33188316E+03</totfact>
</mgrwt>
</event>
<event>
 7    1  0.8174053E-004  0.2900369E+03  0.7546771E-02  0.1090330E+00
          1   -1    0    0  501    0  0.00000000000E+00  0.00000000000E+00  0.71852764443E+03  0.71852764443E+03  0.00000000000E+00 0. -1.
         -1   -1    0    0    0  501 -0.00000000000E+00 -0.00000000000E+00 -0.29268678510E+02  0.29268678510E+02  0.00000000000E+00 0.  1.
         23    2    1    2    0    0 -0.18761925849E+02 -0.19229026739E+02  0.36809614413E+03  0.37958358736E+03  0.88697030060E+02 0.  0.
          5    1    1    2  502    0 -0.70593249769E+01 -0.46224377600E+02  0.28521250251E+03  0.28905845212E+03  0.47000000000E+01 0. -1.
         -5    1    1    2    0  502  0.25821250826E+02  0.65453404339E+02  0.35950319284E+02  0.79154283462E+02  0.47000000000E+01 0.  1.
          5    1    3    3  503    0 -0.47236707617E+02 -0.18608333198E+01  0.29859361631E+03  0.30234914742E+03  0.47000000000E+01 0. -1.
         -5    1    3    3    0  503  0.28474781767E+02 -0.17368193419E+02  0.69502527818E+02  0.77234439937E+02  0.47000000000E+01 0.  1.
<mgrwt>
<rscale>  0 0.29003693E+03</rscale>
<asrwt>0</asrwt>
<pdfrwt beam="1">  1        1 0.11054270E+00 0.29003693E+03</pdfrwt>
<pdfrwt beam="2">  1       -1 0.45028742E-02 0.29003693E+03</pdfrwt>
<totfact> 0.55825969E+03</totfact>
</mgrwt>
</event>
<event>
 8    1  0.8174053E-004  0.9313146E+02  0.7546771E-02  0.1296265E+00
         -2   -1    0    0    0  501 -0.00000000000E+00  0.00000000000E+00  0.10272970573E+03  0.10272970573E+03  0.00000000000E+00 0.  1.
          2   -1    0    0  501    0  0.00000000000E+00 -0.00000000000E+00 -0.88649977827E+02  0.88649977827E+02  0.00000000000E+00 0. -1.
         23    2    1    2    0    0  0.12771860159E+02 -0.10060559616E+02  0.30816317192E+02  0.96756312307E+02  0.90265183178E+02 0.  0.
         23    2    1    2    0    0 -0.12771860159E+02  0.10060559616E+02 -0.16736589286E+02  0.94623371253E+02  0.91701328751E+02 0.  0.
          5    1    3    3  502    0  0.33543054136E+02 -0.36316946249E+02 -0.19191698077E+01  0.49697387038E+02  0.47000000000E+01 0. -1.
         -5    1    4    4    0  503 -0.14520870853E+02 -0.29700586552E+02  0.21106228379E+02  0.39503713854E+02  0.47000000000E+01 0.  1.
          5    1    4    4  503    0  0.17490106940E+01  0.39761146168E+02 -0.37842817665E+02  0.55119657399E+02  0.47000000000E+01 0. -1.
         -5    1    3    3    0  502 -0.20771193978E+02  0.26256386633E+02  0.32735487000E+02  0.47058925268E+02  0.47000000000E+01 0.  1.
<mgrwt>
<rscale>  0 0.92775993E+02</rscale>
<asrwt>0</asrwt>
<pdfrwt beam="1">  1        2 0.13638458E-01 0.93131461E+02</pdfrwt>
<pdfrwt beam="2">  1       -2 0.15804570E-01 0.93131461E+02</pdfrwt>
<totfact> 0.12364987E+04</totfact>
</mgrwt>
</event>
<event>
 8    1  0.8174053E-004  0.1379593E+03  0.7546771E-02  0.1217756E+00
         -4   -1    0    0    0  501 -0.00000000000E+00  0.00000000000E+00  0.36497193281E+03  0.36497193281E+03  0.00000000000E+00 0. -1.
          4   -1    0    0  501    0  0.00000000000E+00 -0.00000000000E+00 -0.50798016511E+02  0.50798016511E+02  0.00000000000E+00 0.  1.
         23    2    1    2    0    0  0.42333025162E+02  0.91327695931E+02  0.13538679598E+03  0.18994343837E+03  0.87270225116E+02 0.  0.
         23    2    1    2    0    0 -0.42333025162E+02 -0.91327695931E+02  0.17878712032E+03  0.22582651095E+03  0.94339522954E+02 0.  0.
          5    1    3    3  502    0  0.64679342537E+02  0.53505556664E+02  0.11172768339E+03  0.13982641803E+03  0.47000000000E+01 0. -1.
         -5    1    4    4    0  503 -0.31809462873E+02 -0.11031233391E+03  0.13983571427E+03  0.18098831434E+03  0.47000000000E+01 0.  1.
          5    1    4    4  503    0 -0.10523562289E+02  0.18984637976E+02  0.38951406046E+02  0.44838196610E+02  0.47000000000E+01 0. -1.
         -5    1    3    3    0  502 -0.22346317375E+02  0.37822139267E+02  0.23659112589E+02  0.50117020337E+02  0.47000000000E+01 0.  1.
<mgrwt>
<rscale>  0 0.13676023E+03</rscale>
<asrwt>0</asrwt>
<pdfrwt beam="1">  1        4 0.78150797E-02 0.13795934E+03</pdfrwt>
<pdfrwt beam="2">  1       -4 0.56149526E-01 0.13795934E+03</pdfrwt>
<totfact> 0.58256704E+02</totfact>
</mgrwt>
</event>
<event>
 8    1  0.8174053E-004  0.9848524E+02  0.7546771E-02  0.1286790E+00
          2   -1    0    0  501    0  0.00000000000E+00  0.00000000000E+00  0.87695162435E+03  0.87695162435E+03  0.00000000000E+00 0. -1.
         -2   -1    0    0    0  501 -0.00000000000E+00 -0.00000000000E+00 -0.10409388709E+02  0.10409388709E+02  0.00000000000E+00 0.  1.
         23    2    1    2    0    0  0.20509246571E+01 -0.13958607438E+02  0.41309817554E+03  0.42334500303E+03  0.91497759224E+02 0.  0.
         23    2    1    2    0    0 -0.20509246571E+01  0.13958607438E+02  0.45344406011E+03  0.46401601003E+03  0.97469446025E+02 0.  0.
          5    1    4    4  502    0 -0.44200574905E+02  0.80388097867E+01  0.12737914237E+03  0.13515120863E+03  0.47000000000E+01 0. -1.
         -5    1    3    3    0  503  0.34506734915E+02 -0.32973664814E+02  0.14868802854E+03  0.15623122977E+03  0.47000000000E+01 0.  1.
          5    1    3    3  503    0 -0.32455810258E+02  0.19015057376E+02  0.26441014700E+03  0.26711377325E+03  0.47000000000E+01 0. -1.
         -5    1    4    4    0  502  0.42149650248E+02  0.59197976510E+01  0.32606491774E+03  0.32886480140E+03  0.47000000000E+01 0.  1.
<mgrwt>
<rscale>  0 0.96974285E+02</rscale>
<asrwt>0</asrwt>
<pdfrwt beam="1">  1        2 0.13491558E+00 0.98485237E+02</pdfrwt>
<pdfrwt beam="2">  1       -2 0.16014451E-02 0.98485237E+02</pdfrwt>
<totfact> 0.30889575E+04</totfact>
</mgrwt>
</event>
<event>
 8    1  0.8174053E-004  0.1488495E+03  0.7546771E-02  0.1202081E+00
         -2   -1    0    0    0  501 -0.00000000000E+00  0.00000000000E+00  0.52760770168E+02  0.52760770168E+02  0.00000000000E+00 0.  1.
          2   -1    0    0  501    0  0.00000000000E+00 -0.00000000000E+00 -0.49379345498E+03  0.49379345498E+03  0.00000000000E+00 0. -1.
         23    2    1    2    0    0  0.92438871476E+02 -0.71178746000E+02 -0.11399900845E+03  0.18748854501E+03  0.92438204994E+02 0.  0.
         23    2    1    2    0    0 -0.92438871476E+02  0.71178746000E+02 -0.32703367637E+03  0.35906568014E+03  0.91464628855E+02 0.  0.
          5    1    3    3  502    0  0.92379053875E+02 -0.18845373407E+02 -0.87174970825E+02  0.12849359218E+03  0.47000000000E+01 0. -1.
         -5    1    4    4    0  503 -0.21952486791E+02  0.36560167473E+02 -0.31458474953E+02  0.53200405716E+02  0.47000000000E+01 0.  1.
          5    1    4    4  503    0 -0.70486384685E+02  0.34618578527E+02 -0.29557520142E+03  0.30586527442E+03  0.47000000000E+01 0. -1.
         -5    1    3    3    0  502  0.59817601418E-01 -0.52333372594E+02 -0.26824037621E+02  0.58994952830E+02  0.47000000000E+01 0.  1.
<mgrwt>
<rscale>  0 0.14869863E+03</rscale>
<asrwt>0</asrwt>
<pdfrwt beam="1">  1        2 0.75968225E-01 0.14884952E+03</pdfrwt>
<pdfrwt beam="2">  1       -2 0.81170415E-02 0.14884952E+03</pdfrwt>
<totfact> 0.56409719E+03</totfact>
</mgrwt>
</event>
<event>
 8    1  0.8174053E-004  0.9661056E+02  0.7546771E-02  0.1288755E+00
         -2   -1    0    0    0  501 -0.00000000000E+00  0.00000000000E+00  0.12747578610E+03  0.12747578610E+03  0.00000000000E+00 0.  1.
          2   -1    0    0  501    0  0.00000000000E+00 -0.00000000000E+00 -0.15404800512E+03  0.15404800512E+03  0.00000000000E+00 0. -1.
         23    2    1    2    0    0 -0.64265711171E+01 -0.28723177608E+02 -0.11630386383E+03  0.15119586459E+03  0.92017818814E+02 0.  0.
         23    2    1    2    0    0  0.64265711171E+01  0.28723177608E+02  0.89731644807E+02  0.13032792662E+03  0.89818030649E+02 0.  0.
          5    1    3    3  502    0 -0.14776054635E+02  0.31041027049E+02 -0.55118030364E+02  0.65130364823E+02  0.47000000000E+01 0. -1.
         -5    1    4    4    0  503  0.47557456620E+02  0.90749741091E+01  0.44084843344E+02  0.65647774127E+02  0.47000000000E+01 0.  1.
          5    1    4    4  503    0 -0.41130885502E+02  0.19648203499E+02  0.45646801463E+02  0.64680152495E+02  0.47000000000E+01 0. -1.
         -5    1    3    3    0  502  0.83494835179E+01 -0.59764204657E+02 -0.61185833464E+02  0.86065499766E+02  0.47000000000E+01 0.  1.
<mgrwt>
<rscale>  0 0.96083048E+02</rscale>
<asrwt>0</asrwt>
<pdfrwt beam="1">  1        2 0.23699693E-01 0.96610562E+02</pdfrwt>
<pdfrwt beam="2">  1       -2 0.19611659E-01 0.96610562E+02</pdfrwt>
<totfact> 0.46438759E+03</totfact>
</mgrwt>
</event>
<event>
 8    1  0.8174053E-004  0.1664319E+03  0.7546771E-02  0.1182293E+00
          1   -1    0    0  501    0  0.00000000000E+00  0.00000000000E+00  0.85823932735E+02  0.85823932735E+02  0.00000000000E+00 0. -1.
         -1   -1    0    0    0  501 -0.00000000000E+00 -0.00000000000E+00 -0.34608370071E+03  0.34608370071E+03  0.00000000000E+00 0.  1.
         23    2    1    2    0    0  0.24206501755E+02  0.13455203034E+03 -0.67650131200E+02  0.17735299420E+03  0.90483925113E+02 0.  0.
         23    2    1    2    0    0 -0.24206501755E+02 -0.13455203034E+03 -0.19260963677E+03  0.25455463924E+03  0.94917799108E+02 0.  0.
          5    1    4    4  502    0  0.18552307862E+00 -0.12321203378E+03 -0.19081828788E+03  0.22718923539E+03  0.47000000000E+01 0. -1.
         -5    1    4    4    0  502 -0.24392024834E+02 -0.11339996557E+02 -0.17913488955E+01  0.27365403857E+02  0.47000000000E+01 0.  1.
          5    1    3    3  503    0 -0.17640129799E+02  0.10312921637E+03 -0.20421724668E+02  0.10670494968E+03  0.47000000000E+01 0. -1.
         -5    1    3    3    0  503  0.41846631554E+02  0.31422813969E+02 -0.47228406532E+02  0.70648044515E+02  0.47000000000E+01 0.  1.
<mgrwt>
<rscale>  0 0.16580637E+03</rscale>
<asrwt>0</asrwt>
<pdfrwt beam="1">  1        1 0.13203682E-01 0.16643194E+03</pdfrwt>
<pdfrwt beam="2">  1       -1 0.53243647E-01 0.16643194E+03</pdfrwt>
<totfact> 0.15872545E+03</totfact>
</mgrwt>
</event>
<event>
 8    1  0.8174053E-004  0.9023642E+02  0.7546771E-02  0.1303640E+00
          2   -1    0    0  501    0  0.00000000000E+00  0.00000000000E+00  0.48671124603E+02  0.48671124603E+02  0.00000000000E+00 0. -1.
         -2   -1    0    0    0  501 -0.00000000000E+00 -0.00000000000E+00 -0.37299988332E+03  0.37299988332E+03  0.00000000000E+00 0.  1.
         23    2    1    2    0    0  0.12049723817E+01 -0.32062988331E+00 -0.31939527621E+03  0.33129982003E+03  0.88003826764E+02 0.  0.
         23    2    1    2    0    0 -0.12049723817E+01  0.32062988331E+00 -0.49334825148E+01  0.90371187901E+02  0.90227809410E+02 0.  0.
          5    1    4    4  502    0  0.39625216903E+02  0.16823448922E+01  0.17412945654E+02  0.43569355920E+02  0.47000000000E+01 0. -1.
         -5    1    3    3    0  503 -0.16817070325E+02  0.39237955012E+02 -0.12950580705E+03  0.13644147107E+03  0.47000000000E+01 0.  1.
          5    1    3    3  503    0  0.18022042706E+02 -0.39558584895E+02 -0.18988946916E+03  0.19485834896E+03  0.47000000000E+01 0. -1.
         -5    1    4    4    0  502 -0.40830189285E+02 -0.13617150089E+01 -0.22346428169E+02  0.46801831980E+02  0.47000000000E+01 0.  1.
<mgrwt>
<rscale>  0 0.89675271E+02</rscale>
<asrwt>0</asrwt>
<pdfrwt beam="1">  1        2 0.74878653E-02 0.90236425E+02</pdfrwt>
<pdfrwt beam="2">  1       -2 0.57384597E-01 0.90236425E+02</pdfrwt>
<totfact> 0.25111012E+03</totfact>
</mgrwt>
</event>
<event>
 7    1  0.8174053E-004  0.2101872E+03  0.7546771E-02  0.1147785E+00
         -2   -1    0    0    0  501 -0.00000000000E+00  0.00000000000E+00  0.35816956114E+02  0.35816956114E+02  0.00000000000E+00 0.  1.
          2   -1    0    0  501    0  0.00000000000E+00 -0.00000000000E+00 -0.12883018797E+04  0.12883018797E+04  0.00000000000E+00 0. -1.
         23    2    1    2    0    0 -0.49407548574E+02 -0.14819962725E+03 -0.31211279927E+03  0.36054300564E+03  0.90402566768E+02 0.  0.
          5    1    1    2  502    0 -0.35445996683E+02  0.20829123225E+02 -0.39357393762E+03  0.39574335804E+03  0.47000000000E+01 0. -1.
         -5    1    1    2    0  502  0.84853545257E+02  0.12737050402E+03 -0.54679818673E+03  0.56783247217E+03  0.47000000000E+01 0.  1.
          5    1    3    3  503    0  0.11448165444E+02 -0.47860603871E+02 -0.38072925970E+02  0.62396599161E+02  0.47000000000E+01 0. -1.
         -5    1    3    3    0  503 -0.60855714018E+02 -0.10033902338E+03 -0.27403987330E+03  0.29814640648E+03  0.47000000000E+01 0.  1.
<mgrwt>
<rscale>  0 0.20233374E+03</rscale>
<asrwt>0</asrwt>
<pdfrwt beam="1">  1        2 0.19820026E+00 0.21018717E+03</pdfrwt>
<pdfrwt beam="2">  1       -2 0.55103019E-02 0.21018717E+03</pdfrwt>
<totfact> 0.29968190E+03</totfact>
</mgrwt>
</event>
<event>
 8    1  0.8174053E-004  0.1664106E+03  0.7546771E-02  0.1182936E+00
          1   -1    0    0  501    0  0.00000000000E+00  0.00000000000E+00  0.60813958229E+03  0.60813958229E+03  0.00000000000E+00 0. -1.
         -1   -1    0    0    0  501 -0.00000000000E+00 -0.00000000000E+00 -0.45097110996E+02  0.45097110996E+02  0.00000000000E+00 0.  1.
         23    2    1    2    0    0 -0.12673556891E+03  0.42505147687E+02  0.24066640780E+03  0.29259667109E+03  0.99115589496E+02 0.  0.
         23    2    1    2    0    0  0.12673556891E+03 -0.42505147687E+02  0.32237606349E+03  0.36064002220E+03  0.90919234989E+02 0.  0.
          5    1    4    4  502    0  0.12400832386E+03 -0.17941519327E+02  0.30581146039E+03  0.33051883730E+03  0.47000000000E+01 0. -1.
         -5    1    3    3    0  503 -0.69649576562E+02 -0.27852634048E+02  0.12068227661E+03  0.14217290398E+03  0.47000000000E+01 0.  1.
          5    1    3    3  503    0 -0.57085992349E+02  0.70357781735E+02  0.11998413119E+03  0.15042376711E+03  0.47000000000E+01 0. -1.
         -5    1    4    4    0  502  0.27272450490E+01 -0.24563628360E+02  0.16564603098E+02  0.30121184896E+02  0.47000000000E+01 0.  1.
<mgrwt>
<rscale>  0 0.16521078E+03</rscale>
<asrwt>0</asrwt>
<pdfrwt beam="1">  1        1 0.93559930E-01 0.16641061E+03</pdfrwt>
<pdfrwt beam="2">  1       -1 0.69380175E-02 0.16641061E+03</pdfrwt>
<totfact> 0.36255340E+03</totfact>
</mgrwt>
</event>
<event>
 7    1  0.8174053E-004  0.1665660E+03  0.7546771E-02  0.1202371E+00
         -1   -1    0    0    0  501 -0.00000000000E+00  0.00000000000E+00  0.29051438924E+02  0.29051438924E+02  0.00000000000E+00 0.  1.
          1   -1    0    0  501    0  0.00000000000E+00 -0.00000000000E+00 -0.71993709060E+03  0.71993709060E+03  0.00000000000E+00 0. -1.
         23    2    1    2    0    0 -0.28964708037E+02 -0.43131855173E+02 -0.40202308547E+03  0.41554316231E+03  0.91401571400E+02 0.  0.
          5    1    3    3  502    0  0.25128772731E+02 -0.36216299517E+02 -0.11303193030E+03  0.12141409653E+03  0.47000000000E+01 0. -1.
         -5    1    3    3    0  502 -0.54093480768E+02 -0.69155556559E+01 -0.28899115517E+03  0.29412906578E+03  0.47000000000E+01 0.  1.
          5    1    1    2  503    0  0.73230112970E+02  0.76136295776E+02 -0.22682530399E+03  0.25026224947E+03  0.47000000000E+01 0. -1.
         -5    1    1    2    0  503 -0.44265404933E+02 -0.33004440603E+02 -0.62037262224E+02  0.83183117744E+02  0.47000000000E+01 0.  1.
<mgrwt>
<rscale>  0 0.14846618E+03</rscale>
<asrwt>0</asrwt>
<pdfrwt beam="1">  1        1 0.11075955E+00 0.16656600E+03</pdfrwt>
<pdfrwt beam="2">  1       -1 0.44694522E-02 0.16656600E+03</pdfrwt>
<totfact> 0.55074004E+03</totfact>
</mgrwt>
</event>
<event>
 8    1  0.8174053E-004  0.9349285E+02  0.7546771E-02  0.1295744E+00
          1   -1    0    0  501    0  0.00000000000E+00  0.00000000000E+00  0.29638471062E+02  0.29638471062E+02  0.00000000000E+00 0. -1.
         -1   -1    0    0    0  501 -0.00000000000E+00 -0.00000000000E+00 -0.34464724036E+03  0.34464724036E+03  0.00000000000E+00 0.  1.
         23    2    1    2    0    0  0.10959247422E+02  0.12761263306E+01 -0.23423746888E+03  0.25220647093E+03  0.92839531170E+02 0.  0.
         23    2    1    2    0    0 -0.10959247422E+02 -0.12761263306E+01 -0.80771300417E+02  0.12207924049E+03  0.90871361747E+02 0.  0.
          5    1    4    4  502    0  0.25574686529E+02  0.32012477821E+02 -0.43922046725E+02  0.60250307184E+02  0.47000000000E+01 0. -1.
         -5    1    3    3    0  503 -0.28841719951E+02  0.12026382018E+02 -0.18561319914E+03  0.18828390364E+03  0.47000000000E+01 0.  1.
          5    1    3    3  503    0  0.39800967372E+02 -0.10750255688E+02 -0.48624269740E+02  0.63922567289E+02  0.47000000000E+01 0. -1.
         -5    1    4    4    0  502 -0.36533933951E+02 -0.33288604152E+02 -0.36849253692E+02  0.61828933308E+02  0.47000000000E+01 0.  1.
<mgrwt>
<rscale>  0 0.93000439E+02</rscale>
<asrwt>0</asrwt>
<pdfrwt beam="1">  1        1 0.45597654E-02 0.93492845E+02</pdfrwt>
<pdfrwt beam="2">  1       -1 0.53022645E-01 0.93492845E+02</pdfrwt>
<totfact> 0.64135488E+03</totfact>
</mgrwt>
</event>
<event>
 8    1  0.8174053E-004  0.1461468E+03  0.7546771E-02  0.1207748E+00
          1   -1    0    0  501    0  0.00000000000E+00  0.00000000000E+00  0.12991888425E+03  0.12991888425E+03  0.00000000000E+00 0. -1.
         -1   -1    0    0    0  501 -0.00000000000E+00 -0.00000000000E+00 -0.15785157006E+03  0.15785157006E+03  0.00000000000E+00 0.  1.
         23    2    1    2    0    0 -0.11341416305E+03  0.27727922576E+02  0.10221386521E+01  0.14615042006E+03  0.87905008074E+02 0.  0.
         23    2    1    2    0    0  0.11341416305E+03 -0.27727922576E+02 -0.28954824465E+02  0.14162003425E+03  0.74741167832E+02 0.  0.
          5    1    3    3  502    0 -0.78193989932E+02 -0.94475353024E+01  0.33074042014E+02  0.85554299950E+02  0.47000000000E+01 0. -1.
         -5    1    3    3    0  502 -0.35220173121E+02  0.37175457879E+02 -0.32051903362E+02  0.60596120109E+02  0.47000000000E+01 0.  1.
          5    1    4    4  503    0  0.57389691163E+02  0.16601903676E+02 -0.35620630889E+02  0.69714555169E+02  0.47000000000E+01 0. -1.
         -5    1    4    4    0  503  0.56024471890E+02 -0.44329826252E+02  0.66658064242E+01  0.71905479077E+02  0.47000000000E+01 0.  1.
<mgrwt>
<rscale>  0 0.14422986E+03</rscale>
<asrwt>0</asrwt>
<pdfrwt beam="1">  1        1 0.19987521E-01 0.14614685E+03</pdfrwt>
<pdfrwt beam="2">  1       -1 0.24284857E-01 0.14614685E+03</pdfrwt>
<totfact> 0.36077928E+03</totfact>
</mgrwt>
</event>
<event>
 8    1  0.8174053E-004  0.1275570E+03  0.7546771E-02  0.1231177E+00
         -1   -1    0    0    0  501 -0.00000000000E+00  0.00000000000E+00  0.25548087989E+03  0.25548087989E+03  0.00000000000E+00 0.  1.
          1   -1    0    0  501    0  0.00000000000E+00 -0.00000000000E+00 -0.89980227314E+02  0.89980227314E+02  0.00000000000E+00 0. -1.
         23    2    1    2    0    0 -0.14961646813E+02 -0.88323661869E+02  0.17627219530E+03  0.21758370638E+03  0.90806730628E+02 0.  0.
         23    2    1    2    0    0  0.14961646813E+02  0.88323661869E+02 -0.10771542725E+02  0.12787740082E+03  0.90618339124E+02 0.  0.
          5    1    3    3  502    0 -0.31805018854E+02  0.17218550876E+01  0.25375105795E+02  0.40994023996E+02  0.47000000000E+01 0. -1.
         -5    1    3    3    0  502  0.16843372041E+02 -0.90045516957E+02  0.15089708950E+03  0.17658968239E+03  0.47000000000E+01 0.  1.
          5    1    4    4  503    0  0.47656320042E+02  0.42380766709E+02 -0.26386696686E+02  0.69178045569E+02  0.47000000000E+01 0. -1.
         -5    1    4    4    0  503 -0.32694673229E+02  0.45942895161E+02  0.15615153961E+02  0.58699355248E+02  0.47000000000E+01 0.  1.
<mgrwt>
<rscale>  0 0.12752345E+03</rscale>
<asrwt>0</asrwt>
<pdfrwt beam="1">  1        1 0.13843112E-01 0.12755698E+03</pdfrwt>
<pdfrwt beam="2">  1       -1 0.39304750E-01 0.12755698E+03</pdfrwt>
<totfact> 0.25490761E+03</totfact>
</mgrwt>
</event>
<event>
 8    1  0.8174053E-004  0.9753101E+02  0.7546771E-02  0.1286889E+00
         -1   -1    0    0    0  501 -0.00000000000E+00  0.00000000000E+00  0.20585161254E+02  0.20585161254E+02  0.00000000000E+00 0.  1.
          1   -1    0    0  501    0  0.00000000000E+00 -0.00000000000E+00 -0.55319030047E+03  0.55319030047E+03  0.00000000000E+00 0. -1.
         23    2    1    2    0    0  0.44042870342E+01  0.35185424884E+02 -0.38699302526E+03  0.39851797873E+03  0.88292501961E+02 0.  0.
         23    2    1    2    0    0 -0.44042870342E+01 -0.35185424884E+02 -0.14561211396E+03  0.17525748300E+03  0.90856401791E+02 0.  0.
          5    1    3    3  502    0  0.14708816746E+02 -0.27224655568E+02 -0.14601998998E+03  0.14933672902E+03  0.47000000000E+01 0. -1.
         -5    1    4    4    0  503 -0.18847119673E+02  0.22870096181E+02 -0.84231102878E+02  0.89416015967E+02  0.47000000000E+01 0.  1.
          5    1    4    4  503    0  0.14442832639E+02 -0.58055521065E+02 -0.61381011084E+02  0.85841467033E+02  0.47000000000E+01 0. -1.
         -5    1    3    3    0  502 -0.10304529712E+02  0.62410080452E+02 -0.24097303528E+03  0.24918124971E+03  0.47000000000E+01 0.  1.
<mgrwt>
<rscale>  0 0.96929499E+02</rscale>
<asrwt>0</asrwt>
<pdfrwt beam="1">  1        1 0.85106196E-01 0.97531008E+02</pdfrwt>
<pdfrwt beam="2">  1       -1 0.31669480E-02 0.97531008E+02</pdfrwt>
<totfact> 0.12674879E+04</totfact>
</mgrwt>
</event>
<event>
 8    1  0.8174053E-004  0.2203364E+03  0.7546771E-02  0.1134212E+00
          1   -1    0    0  501    0  0.00000000000E+00  0.00000000000E+00  0.12987145699E+04  0.12987145699E+04  0.00000000000E+00 0. -1.
         -1   -1    0    0    0  501 -0.00000000000E+00 -0.00000000000E+00 -0.37802959661E+02  0.37802959661E+02  0.00000000000E+00 0.  1.
         23    2    1    2    0    0 -0.16801031541E+03  0.10323136851E+03  0.73169579704E+03  0.76326583613E+03  0.91169159572E+02 0.  0.
         23    2    1    2    0    0  0.16801031541E+03 -0.10323136851E+03  0.52921581315E+03  0.57325169339E+03  0.98305368930E+02 0.  0.
          5    1    4    4  502    0  0.40508494901E+02 -0.73566884580E+01  0.23416361705E+03  0.23780191037E+03  0.47000000000E+01 0. -1.
         -5    1    4    4    0  502  0.12750182051E+03 -0.95874680053E+02  0.29505219610E+03  0.33544978302E+03  0.47000000000E+01 0.  1.
          5    1    3    3  503    0 -0.13208943768E+03  0.87420672325E+02  0.41696488652E+03  0.44606255177E+03  0.47000000000E+01 0. -1.
         -5    1    3    3    0  503 -0.35920877730E+02  0.15810696186E+02  0.31473091052E+03  0.31720328436E+03  0.47000000000E+01 0.  1.
<mgrwt>
<rscale>  0 0.21955980E+03</rscale>
<asrwt>0</asrwt>
<pdfrwt beam="1">  1        1 0.19980221E+00 0.22033640E+03</pdfrwt>
<pdfrwt beam="2">  1       -1 0.58158409E-02 0.22033640E+03</pdfrwt>
<totfact> 0.13722557E+03</totfact>
</mgrwt>
</event>
<event>
 8    1  0.8174053E-004  0.9429515E+02  0.7546771E-02  0.1294128E+00
         -2   -1    0    0    0  501 -0.00000000000E+00  0.00000000000E+00  0.32109087967E+02  0.32109087967E+02  0.00000000000E+00 0.  1.
          2   -1    0    0  501    0  0.00000000000E+00 -0.00000000000E+00 -0.36540576125E+03  0.36540576125E+03  0.00000000000E+00 0. -1.
         23    2    1    2    0    0 -0.39225401195E+01  0.19090044918E+02 -0.66678252119E+02  0.11548837473E+03  0.92259196049E+02 0.  0.
         23    2    1    2    0    0  0.39225401195E+01 -0.19090044918E+02 -0.26661842117E+03  0.28202647449E+03  0.89853957469E+02 0.  0.
          5    1    3    3  502    0 -0.31955583213E+02 -0.13930496067E+02  0.77908531143E+00  0.35184016159E+02  0.47000000000E+01 0. -1.
         -5    1    4    4    0  503  0.45265369381E+02 -0.11080425449E+02 -0.10551195483E+03  0.11544085977E+03  0.47000000000E+01 0.  1.
          5    1    4    4  503    0 -0.41342829261E+02 -0.80096194691E+01 -0.16110646634E+03  0.16658561472E+03  0.47000000000E+01 0. -1.
         -5    1    3    3    0  502  0.28033043093E+02  0.33020540985E+02 -0.67457337430E+02  0.80304358569E+02  0.47000000000E+01 0.  1.
<mgrwt>
<rscale>  0 0.93701579E+02</rscale>
<asrwt>0</asrwt>
<pdfrwt beam="1">  1        2 0.56216270E-01 0.94295150E+02</pdfrwt>
<pdfrwt beam="2">  1       -2 0.49398598E-02 0.94295150E+02</pdfrwt>
<totfact> 0.15991299E+04</totfact>
</mgrwt>
</event>
<event>
 8    1  0.8174053E-004  0.1070566E+03  0.7546771E-02  0.1266209E+00
          2   -1    0    0  501    0  0.00000000000E+00  0.00000000000E+00  0.22915865528E+02  0.22915865528E+02  0.00000000000E+00 0. -1.
         -2   -1    0    0    0  501 -0.00000000000E+00 -0.00000000000E+00 -0.72613725638E+03  0.72613725638E+03  0.00000000000E+00 0.  1.
         23    2    1    2    0    0  0.12239886047E+02  0.53538659321E+02 -0.56116423634E+03  0.57128487924E+03  0.91896192758E+02 0.  0.
         23    2    1    2    0    0 -0.12239886047E+02 -0.53538659321E+02 -0.14205715452E+03  0.17776824268E+03  0.91679387558E+02 0.  0.
          5    1    3    3  502    0 -0.28667262321E+02  0.18076734291E+02 -0.79303725958E+02  0.86369851236E+02  0.47000000000E+01 0. -1.
         -5    1    3    3    0  502  0.40907148368E+02  0.35461925030E+02 -0.48186051038E+03  0.48491502800E+03  0.47000000000E+01 0.  1.
          5    1    4    4  503    0  0.35089253219E+02 -0.67222510862E+01 -0.74754666332E+02  0.82986712729E+02  0.47000000000E+01 0.  1.
         -5    1    4    4    0  503 -0.47329139265E+02 -0.46816408235E+02 -0.67302488183E+02  0.94781529948E+02  0.47000000000E+01 0. -1.
<mgrwt>
<rscale>  0 0.10701005E+03</rscale>
<asrwt>0</asrwt>
<pdfrwt beam="1">  1        2 0.35255177E-02 0.10705659E+03</pdfrwt>
<pdfrwt beam="2">  1       -2 0.11171343E+00 0.10705659E+03</pdfrwt>
<totfact> 0.15719878E+03</totfact>
</mgrwt>
</event>
<event>
 8    1  0.8174053E-004  0.1069921E+03  0.7546771E-02  0.1268500E+00
          1   -1    0    0  501    0  0.00000000000E+00  0.00000000000E+00  0.22235117398E+02  0.22235117398E+02  0.00000000000E+00 0. -1.
         -1   -1    0    0    0  501 -0.00000000000E+00 -0.00000000000E+00 -0.49701109277E+03  0.49701109277E+03  0.00000000000E+00 0.  1.
         23    2    1    2    0    0 -0.45740689696E+02 -0.13852565345E+01 -0.26588247840E+03  0.28660215705E+03  0.96711811461E+02 0.  0.
         23    2    1    2    0    0  0.45740689696E+02  0.13852565345E+01 -0.20889349698E+03  0.23264405312E+03  0.91611313409E+02 0.  0.
          5    1    3    3  502    0 -0.64431379309E+02 -0.13435282782E+02 -0.10423896278E+03  0.12336839475E+03  0.47000000000E+01 0. -1.
         -5    1    3    3    0  502  0.18690689613E+02  0.12050026247E+02 -0.16164351562E+03  0.16323376229E+03  0.47000000000E+01 0.  1.
          5    1    4    4  503    0  0.83160422895E+01  0.44166507245E+02 -0.99284926044E+02  0.10908447855E+03  0.47000000000E+01 0. -1.
         -5    1    4    4    0  503  0.37424647406E+02 -0.42781250711E+02 -0.10960857093E+03  0.12355957457E+03  0.47000000000E+01 0.  1.
<mgrwt>
<rscale>  0 0.10582637E+03</rscale>
<asrwt>0</asrwt>
<pdfrwt beam="1">  1        1 0.34207873E-02 0.10699207E+03</pdfrwt>
<pdfrwt beam="2">  1       -1 0.76463245E-01 0.10699207E+03</pdfrwt>
<totfact> 0.47627491E+03</totfact>
</mgrwt>
</event>
<event>
 8    1  0.8174053E-004  0.1252841E+03  0.7546771E-02  0.1249364E+00
         -2   -1    0    0    0  501 -0.00000000000E+00  0.00000000000E+00  0.58215239800E+03  0.58215239800E+03  0.00000000000E+00 0.  1.
          2   -1    0    0  501    0  0.00000000000E+00 -0.00000000000E+00 -0.59713337671E+02  0.59713337671E+02  0.00000000000E+00 0. -1.
         23    2    1    2    0    0  0.23839403977E+02  0.19914519624E+02  0.53371080746E+03  0.54821832455E+03  0.12137215537E+03 0.  0.
         23    2    1    2    0    0 -0.23839403977E+02 -0.19914519624E+02 -0.11271747124E+02  0.93647411129E+02  0.87623513135E+02 0.  0.
          5    1    4    4  502    0 -0.55561876416E+02 -0.21122894969E+02 -0.14586087538E+02  0.61385199783E+02  0.47000000000E+01 0. -1.
         -5    1    4    4    0  502  0.31722472438E+02  0.12083753449E+01  0.33143404145E+01  0.32262211347E+02  0.47000000000E+01 0.  1.
          5    1    3    3  503    0 -0.40380616789E+02 -0.21414007444E+02  0.25932132725E+03  0.26336057923E+03  0.47000000000E+01 0. -1.
         -5    1    3    3    0  503  0.64220020766E+02  0.41328527068E+02  0.27438948021E+03  0.28485774531E+03  0.47000000000E+01 0.  1.
<mgrwt>
<rscale>  0 0.11627964E+03</rscale>
<asrwt>0</asrwt>
<pdfrwt beam="1">  1        2 0.91866678E-02 0.12528410E+03</pdfrwt>
<pdfrwt beam="2">  1       -2 0.89561903E-01 0.12528410E+03</pdfrwt>
<totfact> 0.76943135E+02</totfact>
</mgrwt>
</event>
<event>
 8    1  0.8174053E-004  0.1177932E+03  0.7546771E-02  0.1255088E+00
          1   -1    0    0  501    0  0.00000000000E+00  0.00000000000E+00  0.22271284216E+03  0.22271284216E+03  0.00000000000E+00 0. -1.
         -1   -1    0    0    0  501 -0.00000000000E+00 -0.00000000000E+00 -0.11350588257E+03  0.11350588257E+03  0.00000000000E+00 0.  1.
         23    2    1    2    0    0  0.32116626076E+02  0.27462710640E+02 -0.65671017229E+02  0.13486259129E+03  0.10995252557E+03 0.  0.
         23    2    1    2    0    0 -0.32116626076E+02 -0.27462710640E+02  0.17487797681E+03  0.20135613344E+03  0.90422937105E+02 0.  0.
          5    1    4    4  502    0  0.21568469321E+02 -0.21712306578E+02  0.12113958388E+03  0.12503404300E+03  0.47000000000E+01 0. -1.
         -5    1    3    3    0  503  0.30352152604E+02  0.53922767050E+02 -0.82402754707E+02  0.10315629868E+03  0.47000000000E+01 0.  1.
          5    1    3    3  503    0  0.17644734724E+01 -0.26460056410E+02  0.16731737478E+02  0.31706292607E+02  0.47000000000E+01 0. -1.
         -5    1    4    4    0  502 -0.53685095398E+02 -0.57504040624E+01  0.53738392928E+02  0.76322090441E+02  0.47000000000E+01 0.  1.
<mgrwt>
<rscale>  0 0.11301430E+03</rscale>
<asrwt>0</asrwt>
<pdfrwt beam="1">  1        1 0.34263514E-01 0.11779319E+03</pdfrwt>
<pdfrwt beam="2">  1       -1 0.17462443E-01 0.11779319E+03</pdfrwt>
<totfact> 0.30899483E+03</totfact>
</mgrwt>
</event>
<event>
 8    1  0.8174053E-004  0.1187133E+03  0.7546771E-02  0.1247632E+00
         -1   -1    0    0    0  501 -0.00000000000E+00  0.00000000000E+00  0.50747055042E+02  0.50747055042E+02  0.00000000000E+00 0.  1.
          1   -1    0    0  501    0  0.00000000000E+00 -0.00000000000E+00 -0.28014134145E+03  0.28014134145E+03  0.00000000000E+00 0. -1.
         23    2    1    2    0    0  0.57091334554E+02 -0.44000744911E+02 -0.15601491230E+03  0.19604464533E+03  0.94325839872E+02 0.  0.
         23    2    1    2    0    0 -0.57091334554E+02  0.44000744911E+02 -0.73379374111E+02  0.13484375117E+03  0.87194143441E+02 0.  0.
          5    1    4    4  502    0 -0.24103066679E+02 -0.48508077706E+01 -0.71417896266E+02  0.75677566467E+02  0.47000000000E+01 0. -1.
         -5    1    3    3    0  503  0.69114520209E-01 -0.53383147687E+02 -0.10876396519E+03  0.12124955817E+03  0.47000000000E+01 0.  1.
          5    1    3    3  503    0  0.57022220033E+02  0.93824027760E+01 -0.47250947113E+02  0.74795087155E+02  0.47000000000E+01 0. -1.
         -5    1    4    4    0  502 -0.32988267874E+02  0.48851552681E+02 -0.19614778450E+01  0.59166184701E+02  0.47000000000E+01 0.  1.
<mgrwt>
<rscale>  0 0.11729206E+03</rscale>
<asrwt>0</asrwt>
<pdfrwt beam="1">  1        1 0.43098666E-01 0.11871331E+03</pdfrwt>
<pdfrwt beam="2">  1       -1 0.78072395E-02 0.11871331E+03</pdfrwt>
<totfact> 0.80306098E+03</totfact>
</mgrwt>
</event>
<event>
 8    1  0.8174053E-004  0.9551276E+02  0.7546771E-02  0.1290907E+00
         -3   -1    0    0    0  501 -0.00000000000E+00  0.00000000000E+00  0.33333687102E+02  0.33333687102E+02  0.00000000000E+00 0.  1.
          3   -1    0    0  501    0  0.00000000000E+00 -0.00000000000E+00 -0.32108339218E+03  0.32108339218E+03  0.00000000000E+00 0. -1.
         23    2    1    2    0    0 -0.27008168919E+02 -0.31993244503E+01 -0.21609079894E+03  0.23625816363E+03  0.91558776898E+02 0.  0.
         23    2    1    2    0    0  0.27008168919E+02  0.31993244503E+01 -0.71658906137E+02  0.11815891566E+03  0.89926935094E+02 0.  0.
          5    1    3    3  502    0  0.14189854005E+01  0.23721404159E+02 -0.18352466456E+03  0.18511647965E+03  0.47000000000E+01 0. -1.
         -5    1    4    4    0  503  0.14389781190E+02 -0.41553559673E+02 -0.20122234975E+02  0.48587636953E+02  0.47000000000E+01 0.  1.
          5    1    4    4  503    0  0.12618387729E+02  0.44752884124E+02 -0.51536671161E+02  0.69571278705E+02  0.47000000000E+01 0. -1.
         -5    1    3    3    0  502 -0.28427154320E+02 -0.26920728609E+02 -0.32566134380E+02  0.51141683977E+02  0.47000000000E+01 0.  1.
<mgrwt>
<rscale>  0 0.95119550E+02</rscale>
<asrwt>0</asrwt>
<pdfrwt beam="1">  1        3 0.49397447E-01 0.95512756E+02</pdfrwt>
<pdfrwt beam="2">  1       -3 0.51282593E-02 0.95512756E+02</pdfrwt>
<totfact> 0.19264234E+03</totfact>
</mgrwt>
</event>
<event>
 8    1  0.8174053E-004  0.9300513E+02  0.7546771E-02  0.1296163E+00
         -4   -1    0    0    0  501 -0.00000000000E+00  0.00000000000E+00  0.31606982230E+03  0.31606982230E+03  0.00000000000E+00 0.  1.
          4   -1    0    0  501    0  0.00000000000E+00 -0.00000000000E+00 -0.34879624268E+02  0.34879624268E+02  0.00000000000E+00 0. -1.
         23    2    1    2    0    0 -0.12827005781E+02  0.15064074905E+02  0.58428230677E+02  0.10983538586E+03  0.90876264315E+02 0.  0.
         23    2    1    2    0    0  0.12827005781E+02 -0.15064074905E+02  0.22276196735E+03  0.24111406071E+03  0.90120129514E+02 0.  0.
          5    1    3    3  502    0 -0.40742241330E+02 -0.18038276333E+02  0.46724032347E+02  0.64734340504E+02  0.47000000000E+01 0. -1.
         -5    1    4    4    0  503  0.41264133292E+02  0.19090163430E+02  0.13671406804E+03  0.14415266018E+03  0.47000000000E+01 0.  1.
          5    1    4    4  503    0 -0.28437127511E+02 -0.34154238335E+02  0.86047899312E+02  0.96961400533E+02  0.47000000000E+01 0. -1.
         -5    1    3    3    0  502  0.27915235549E+02  0.33102351238E+02  0.11704198330E+02  0.45101045351E+02  0.47000000000E+01 0.  1.
<mgrwt>
<rscale>  0 0.92819904E+02</rscale>
<asrwt>0</asrwt>
<pdfrwt beam="1">  1        4 0.53660962E-02 0.93005128E+02</pdfrwt>
<pdfrwt beam="2">  1       -4 0.48626125E-01 0.93005128E+02</pdfrwt>
<totfact> 0.13199142E+03</totfact>
</mgrwt>
</event>
<event>
 8    1  0.8174053E-004  0.1173827E+03  0.7546771E-02  0.1252035E+00
         -1   -1    0    0    0  501 -0.00000000000E+00  0.00000000000E+00  0.26160806810E+03  0.26160806810E+03  0.00000000000E+00 0.  1.
          1   -1    0    0  501    0  0.00000000000E+00 -0.00000000000E+00 -0.10737666997E+03  0.10737666997E+03  0.00000000000E+00 0. -1.
         23    2    1    2    0    0 -0.15057252342E+01  0.53578865399E+02  0.21245732733E+03  0.23795433631E+03  0.92796488116E+02 0.  0.
         23    2    1    2    0    0  0.15057252342E+01 -0.53578865399E+02 -0.58225929200E+02  0.13103040176E+03  0.10443057660E+03 0.  0.
          5    1    3    3  502    0  0.36067926721E+02  0.44416117470E+02  0.17394066462E+03  0.18316967991E+03  0.47000000000E+01 0. -1.
         -5    1    4    4    0  503 -0.42202195847E+02 -0.55357000494E+02 -0.19558189481E+02  0.72457129489E+02  0.47000000000E+01 0.  1.
          5    1    4    4  503    0  0.43707921082E+02  0.17781350941E+01 -0.38667739719E+02  0.58573272272E+02  0.47000000000E+01 0. -1.
         -5    1    3    3    0  502 -0.37573651956E+02  0.91627479293E+01  0.38516662714E+02  0.54784656406E+02  0.47000000000E+01 0.  1.
<mgrwt>
<rscale>  0 0.11474018E+03</rscale>
<asrwt>0</asrwt>
<pdfrwt beam="1">  1        1 0.16519488E-01 0.11738274E+03</pdfrwt>
<pdfrwt beam="2">  1       -1 0.40247395E-01 0.11738274E+03</pdfrwt>
<totfact> 0.19397831E+03</totfact>
</mgrwt>
</event>
<event>
 8    1  0.8174053E-004  0.9892397E+02  0.7546771E-02  0.1283567E+00
         -1   -1    0    0    0  501 -0.00000000000E+00  0.00000000000E+00  0.35380708580E+02  0.35380708580E+02  0.00000000000E+00 0.  1.
          1   -1    0    0  501    0  0.00000000000E+00 -0.00000000000E+00 -0.33420214933E+03  0.33420214933E+03  0.00000000000E+00 0. -1.
         23    2    1    2    0    0 -0.42779081357E+01  0.31286412912E+02 -0.68209242458E+02  0.11864872784E+03  0.91803484298E+02 0.  0.
         23    2    1    2    0    0  0.42779081357E+01 -0.31286412912E+02 -0.23061219829E+03  0.25093413007E+03  0.93748661349E+02 0.  0.
          5    1    4    4  502    0 -0.37896137087E+02 -0.40069172561E+02 -0.12063851960E+03  0.13273054738E+03  0.47000000000E+01 0. -1.
         -5    1    4    4    0  502  0.42174045223E+02  0.87827596494E+01 -0.10997367869E+03  0.11820358269E+03  0.47000000000E+01 0.  1.
          5    1    3    3  503    0  0.31393340425E+02  0.46638299807E+02 -0.29699241423E+02  0.63755845010E+02  0.47000000000E+01 0. -1.
         -5    1    3    3    0  503 -0.35671248560E+02 -0.15351886895E+02 -0.38510001036E+02  0.54892882825E+02  0.47000000000E+01 0. -1.
<mgrwt>
<rscale>  0 0.98460363E+02</rscale>
<asrwt>0</asrwt>
<pdfrwt beam="1">  1        1 0.51415716E-01 0.98923969E+02</pdfrwt>
<pdfrwt beam="2">  1       -1 0.54431859E-02 0.98923969E+02</pdfrwt>
<totfact> 0.10888508E+04</totfact>
</mgrwt>
</event>
<event>
 8    1  0.8174053E-004  0.9546965E+02  0.7546771E-02  0.1290770E+00
          2   -1    0    0  501    0  0.00000000000E+00  0.00000000000E+00  0.31700411222E+03  0.31700411222E+03  0.00000000000E+00 0. -1.
         -2   -1    0    0    0  501 -0.00000000000E+00 -0.00000000000E+00 -0.43177258066E+02  0.43177258066E+02  0.00000000000E+00 0.  1.
         23    2    1    2    0    0  0.74313946008E+01  0.22134447669E+02  0.24170010635E+03  0.25945112252E+03  0.91382625089E+02 0.  0.
         23    2    1    2    0    0 -0.74313946008E+01 -0.22134447669E+02  0.32126747811E+02  0.10073024777E+03  0.92570489316E+02 0.  0.
          5    1    4    4  502    0 -0.47871326394E+02  0.27710632731E+00  0.23211043244E+02  0.53409579732E+02  0.47000000000E+01 0. -1.
         -5    1    4    4    0  502  0.40439931793E+02 -0.22411553996E+02  0.89157045673E+01  0.47320668041E+02  0.47000000000E+01 0.  1.
          5    1    3    3  503    0 -0.34250015076E+02  0.31563315820E+02  0.85892410413E+02  0.97820767759E+02  0.47000000000E+01 0. -1.
         -5    1    3    3    0  503  0.41681409677E+02 -0.94288681518E+01  0.15580769593E+03  0.16163035476E+03  0.47000000000E+01 0.  1.
<mgrwt>
<rscale>  0 0.95180507E+02</rscale>
<asrwt>0</asrwt>
<pdfrwt beam="1">  1        2 0.48769862E-01 0.95469654E+02</pdfrwt>
<pdfrwt beam="2">  1       -2 0.66426553E-02 0.95469654E+02</pdfrwt>
<totfact> 0.11921463E+04</totfact>
</mgrwt>
</event>
<event>
 8    1  0.8174053E-004  0.1166891E+03  0.7546771E-02  0.1249866E+00
          1   -1    0    0  501    0  0.00000000000E+00  0.00000000000E+00  0.12203584802E+03  0.12203584802E+03  0.00000000000E+00 0. -1.
         -1   -1    0    0    0  501 -0.00000000000E+00 -0.00000000000E+00 -0.65993791850E+03  0.65993791850E+03  0.00000000000E+00 0.  1.
         23    2    1    2    0    0  0.29353014199E+02  0.66258972930E+02 -0.62567419947E+03  0.63595906460E+03  0.87885590589E+02 0.  0.
         23    2    1    2    0    0 -0.29353014199E+02 -0.66258972930E+02  0.87772128985E+02  0.14601470192E+03  0.91457616485E+02 0.  0.
          5    1    3    3  502    0 -0.21733404072E+02  0.50943274888E+02 -0.40941383402E+03  0.41316986288E+03  0.47000000000E+01 0. -1.
         -5    1    3    3    0  502  0.51086418271E+02  0.15315698041E+02 -0.21626036545E+03  0.22278920172E+03  0.47000000000E+01 0.  1.
          5    1    4    4  503    0 -0.52101375835E+02 -0.16935374912E+02  0.69270467526E+02  0.88441211879E+02  0.47000000000E+01 0. -1.
         -5    1    4    4    0  503  0.22748361636E+02 -0.49323598017E+02  0.18501661459E+02  0.57573490038E+02  0.47000000000E+01 0.  1.
<mgrwt>
<rscale>  0 0.11598830E+03</rscale>
<asrwt>0</asrwt>
<pdfrwt beam="1">  1        1 0.18774745E-01 0.11668910E+03</pdfrwt>
<pdfrwt beam="2">  1       -1 0.10152891E+00 0.11668910E+03</pdfrwt>
<totfact> 0.27405785E+02</totfact>
</mgrwt>
</event>
<event>
 8    1  0.8174053E-004  0.9815533E+02  0.7546771E-02  0.1287444E+00
          2   -1    0    0  501    0  0.00000000000E+00  0.00000000000E+00  0.32573775153E+02  0.32573775153E+02  0.00000000000E+00 0. -1.
         -2   -1    0    0    0  501 -0.00000000000E+00 -0.00000000000E+00 -0.30750377415E+03  0.30750377415E+03  0.00000000000E+00 0.  1.
         23    2    1    2    0    0 -0.48143202339E+01  0.39920653899E+01 -0.89139657368E+02  0.13259090191E+03  0.97955880308E+02 0.  0.
         23    2    1    2    0    0  0.48143202339E+01 -0.39920653899E+01 -0.18579034163E+03  0.20748664739E+03  0.92160422852E+02 0.  0.
          5    1    4    4  502    0  0.12394930641E+02  0.21140708936E+02 -0.59142354923E+01  0.25644337804E+02  0.47000000000E+01 0. -1.
         -5    1    3    3    0  503  0.24583314860E+01 -0.45161854606E+02 -0.58240115198E+02  0.73889360015E+02  0.47000000000E+01 0.  1.
          5    1    3    3  503    0 -0.72726517199E+01  0.49153919995E+02 -0.30899542170E+02  0.58701541890E+02  0.47000000000E+01 0. -1.
         -5    1    4    4    0  502 -0.75806104075E+01 -0.25132774326E+02 -0.17987610613E+03  0.18184230959E+03  0.47000000000E+01 0.  1.
<mgrwt>
<rscale>  0 0.96676508E+02</rscale>
<asrwt>0</asrwt>
<pdfrwt beam="1">  1        2 0.50113499E-02 0.98155330E+02</pdfrwt>
<pdfrwt beam="2">  1       -2 0.47308275E-01 0.98155330E+02</pdfrwt>
<totfact> 0.61733923E+03</totfact>
</mgrwt>
</event>
<event>
 8    1  0.8174053E-004  0.9362322E+02  0.7546771E-02  0.1295767E+00
         -2   -1    0    0    0  501 -0.00000000000E+00  0.00000000000E+00  0.31780619096E+02  0.31780619096E+02  0.00000000000E+00 0.  1.
          2   -1    0    0  501    0  0.00000000000E+00 -0.00000000000E+00 -0.29945382272E+03  0.29945382272E+03  0.00000000000E+00 0. -1.
         23    2    1    2    0    0 -0.19598636774E+01 -0.26129734459E+01 -0.82199699639E+02  0.12458771270E+03  0.93566227018E+02 0.  0.
         23    2    1    2    0    0  0.19598636774E+01  0.26129734459E+01 -0.18547350399E+03  0.20664672912E+03  0.91059218529E+02 0.  0.
          5    1    3    3  502    0 -0.15599158117E+02 -0.26948169725E+02 -0.89910648003E+02  0.95265692722E+02  0.47000000000E+01 0. -1.
         -5    1    4    4    0  503  0.30635918402E+02 -0.18502471339E+02 -0.15617697296E+03  0.16029422268E+03  0.47000000000E+01 0.  1.
          5    1    4    4  503    0 -0.28676054724E+02  0.21115444785E+02 -0.29296531028E+02  0.46352506440E+02  0.47000000000E+01 0. -1.
         -5    1    3    3    0  502  0.13639294439E+02  0.24335196279E+02  0.77109483644E+01  0.29322019975E+02  0.47000000000E+01 0.  1.
<mgrwt>
<rscale>  0 0.92990475E+02</rscale>
<asrwt>0</asrwt>
<pdfrwt beam="1">  1        2 0.46069818E-01 0.93623221E+02</pdfrwt>
<pdfrwt beam="2">  1       -2 0.48893261E-02 0.93623221E+02</pdfrwt>
<totfact> 0.19986963E+04</totfact>
</mgrwt>
</event>
<event>
 8    1  0.8174053E-004  0.9905059E+02  0.7546771E-02  0.1283831E+00
          1   -1    0    0  501    0  0.00000000000E+00  0.00000000000E+00  0.33083186409E+02  0.33083186409E+02  0.00000000000E+00 0. -1.
         -1   -1    0    0    0  501 -0.00000000000E+00 -0.00000000000E+00 -0.32969130328E+03  0.32969130328E+03  0.00000000000E+00 0.  1.
         23    2    1    2    0    0  0.37112234630E+02  0.28862647156E+01 -0.21454285782E+03  0.23630416398E+03  0.91789822909E+02 0.  0.
         23    2    1    2    0    0 -0.37112234630E+02 -0.28862647156E+01 -0.82065259054E+02  0.12647032571E+03  0.88737748780E+02 0.  0.
          5    1    3    3  502    0  0.17015819865E+02 -0.34729613403E+02 -0.37277508670E+02  0.53920189404E+02  0.47000000000E+01 0. -1.
         -5    1    4    4    0  503  0.23215760485E+02 -0.31045039822E+01  0.75277128015E+00  0.23901174542E+02  0.47000000000E+01 0.  1.
          5    1    4    4  503    0 -0.60327995116E+02  0.21823926660E+00 -0.82818030334E+02  0.10256915117E+03  0.47000000000E+01 0. -1.
         -5    1    3    3    0  502  0.20096414765E+02  0.37615878118E+02 -0.17726534915E+03  0.18238397457E+03  0.47000000000E+01 0.  1.
<mgrwt>
<rscale>  0 0.98337553E+02</rscale>
<asrwt>0</asrwt>
<pdfrwt beam="1">  1        1 0.50897212E-02 0.99050594E+02</pdfrwt>
<pdfrwt beam="2">  1       -1 0.50721737E-01 0.99050594E+02</pdfrwt>
<totfact> 0.60205941E+03</totfact>
</mgrwt>
</event>
<event>
 8    1  0.8174053E-004  0.1027075E+03  0.7546771E-02  0.1277283E+00
          2   -1    0    0  501    0  0.00000000000E+00  0.00000000000E+00  0.64533701980E+02  0.64533701980E+02  0.00000000000E+00 0. -1.
         -2   -1    0    0    0  501 -0.00000000000E+00 -0.00000000000E+00 -0.15573281535E+03  0.15573281535E+03  0.00000000000E+00 0.  1.
         23    2    1    2    0    0 -0.31558163340E+02  0.38237110849E+02 -0.42372679346E+02  0.10654383325E+03  0.84250520048E+02 0.  0.
         23    2    1    2    0    0  0.31558163340E+02 -0.38237110849E+02 -0.48826434023E+02  0.11372268408E+03  0.89949062788E+02 0.  0.
          5    1    4    4  502    0  0.57571917487E+02 -0.26178425493E+02 -0.84507665063E+01  0.63979223963E+02  0.47000000000E+01 0. -1.
         -5    1    3    3    0  503 -0.15456079616E+02  0.57526967005E+02 -0.32890638052E+01  0.59842712761E+02  0.47000000000E+01 0.  1.
          5    1    3    3  503    0 -0.16102083724E+02 -0.19289856157E+02 -0.39083615541E+02  0.46701120485E+02  0.47000000000E+01 0. -1.
         -5    1    4    4    0  502 -0.26013754147E+02 -0.12058685356E+02 -0.40375667517E+02  0.49743460120E+02  0.47000000000E+01 0.  1.
<mgrwt>
<rscale>  0 0.10144647E+03</rscale>
<asrwt>0</asrwt>
<pdfrwt beam="1">  1        2 0.99282620E-02 0.10270749E+03</pdfrwt>
<pdfrwt beam="2">  1       -2 0.23958894E-01 0.10270749E+03</pdfrwt>
<totfact> 0.90879446E+03</totfact>
</mgrwt>
</event>
<event>
 8    1  0.8174053E-004  0.9718956E+02  0.7546771E-02  0.1287873E+00
          1   -1    0    0  501    0  0.00000000000E+00  0.00000000000E+00  0.47929667107E+02  0.47929667107E+02  0.00000000000E+00 0. -1.
         -1   -1    0    0    0  501 -0.00000000000E+00 -0.00000000000E+00 -0.68944884735E+03  0.68944884735E+03  0.00000000000E+00 0.  1.
         23    2    1    2    0    0  0.22794379438E+02 -0.21285929152E+02 -0.87217611541E+01  0.97580122968E+02  0.92049642949E+02 0.  0.
         23    2    1    2    0    0 -0.22794379438E+02  0.21285929152E+02 -0.63279741909E+03  0.63979839149E+03  0.89088347349E+02 0.  0.
          5    1    4    4  502    0 -0.29626739034E+01  0.52298372796E+02 -0.26751624005E+03  0.27263698562E+03  0.47000000000E+01 0. -1.
         -5    1    4    4    0  502 -0.19831705535E+02 -0.31012443644E+02 -0.36528117904E+03  0.36716140587E+03  0.47000000000E+01 0.  1.
          5    1    3    3  503    0  0.54599812635E+02 -0.31775730834E+02 -0.66988172836E+01  0.63700869404E+02  0.47000000000E+01 0. -1.
         -5    1    3    3    0  503 -0.31805433196E+02  0.10489801683E+02 -0.20229438705E+01  0.33879253564E+02  0.47000000000E+01 0.  1.
<mgrwt>
<rscale>  0 0.96481896E+02</rscale>
<asrwt>0</asrwt>
<pdfrwt beam="1">  1        1 0.73737954E-02 0.97189564E+02</pdfrwt>
<pdfrwt beam="2">  1       -1 0.10606905E+00 0.97189564E+02</pdfrwt>
<totfact> 0.83923997E+02</totfact>
</mgrwt>
</event>
<event>
 8    1  0.8174053E-004  0.9447103E+02  0.7546771E-02  0.1296405E+00
         -1   -1    0    0    0  501 -0.00000000000E+00  0.00000000000E+00  0.12727603539E+03  0.12727603539E+03  0.00000000000E+00 0.  1.
          1   -1    0    0  501    0  0.00000000000E+00 -0.00000000000E+00 -0.51835557659E+03  0.51835557659E+03  0.00000000000E+00 0. -1.
         23    2    1    2    0    0 -0.25341048079E+02 -0.19964233354E+01  0.10536191639E+03  0.14151292864E+03  0.90986928303E+02 0.  0.
         23    2    1    2    0    0  0.25341048079E+02  0.19964233354E+01 -0.49644145759E+03  0.50411868334E+03  0.83877122333E+02 0.  0.
          5    1    4    4  502    0  0.37569911612E+02  0.25935655180E+02 -0.42774999932E+03  0.43020496090E+03  0.47000000000E+01 0. -1.
         -5    1    3    3    0  503  0.61577819274E+01 -0.42265051623E+02  0.43900052430E+02  0.61429288376E+02  0.47000000000E+01 0.  1.
          5    1    3    3  503    0 -0.31498830006E+02  0.40268628288E+02  0.61461863964E+02  0.80083640263E+02  0.47000000000E+01 0. -1.
         -5    1    4    4    0  502 -0.12228863533E+02 -0.23939231844E+02 -0.68691458274E+02  0.73913722436E+02  0.47000000000E+01 0.  1.
<mgrwt>
<rscale>  0 0.92716051E+02</rscale>
<asrwt>0</asrwt>
<pdfrwt beam="1">  1        1 0.79747011E-01 0.94471030E+02</pdfrwt>
<pdfrwt beam="2">  1       -1 0.19580929E-01 0.94471030E+02</pdfrwt>
<totfact> 0.89487315E+02</totfact>
</mgrwt>
</event>
<event>
 8    1  0.8174053E-004  0.1024314E+03  0.7546771E-02  0.1279171E+00
         -1   -1    0    0    0  501 -0.00000000000E+00  0.00000000000E+00  0.19725608667E+02  0.19725608667E+02  0.00000000000E+00 0.  1.
          1   -1    0    0  501    0  0.00000000000E+00 -0.00000000000E+00 -0.55508028417E+03  0.55508028417E+03  0.00000000000E+00 0. -1.
         23    2    1    2    0    0  0.97557478997E+01  0.19861207801E+02 -0.18154557745E+03  0.20844898615E+03  0.10001270391E+03 0.  0.
         23    2    1    2    0    0 -0.97557478997E+01 -0.19861207801E+02 -0.35380909806E+03  0.36635690669E+03  0.92449245636E+02 0.  0.
          5    1    4    4  502    0 -0.21187368310E+02 -0.49812512582E+02 -0.14120879642E+03  0.15130170247E+03  0.47000000000E+01 0. -1.
         -5    1    3    3    0  503  0.43507747161E+02  0.42568508120E+02 -0.11787917893E+03  0.13275011402E+03  0.47000000000E+01 0.  1.
          5    1    3    3  503    0 -0.33751999261E+02 -0.22707300319E+02 -0.63666398523E+02  0.75698872137E+02  0.47000000000E+01 0. -1.
         -5    1    4    4    0  502  0.11431620410E+02  0.29951304781E+02 -0.21260030164E+03  0.21505520421E+03  0.47000000000E+01 0.  1.
<mgrwt>
<rscale>  0 0.10053673E+03</rscale>
<asrwt>0</asrwt>
<pdfrwt beam="1">  1        1 0.85396966E-01 0.10243136E+03</pdfrwt>
<pdfrwt beam="2">  1       -1 0.30347091E-02 0.10243136E+03</pdfrwt>
<totfact> 0.13476203E+04</totfact>
</mgrwt>
</event>
<event>
 8    1  0.8174053E-004  0.3760011E+03  0.7546771E-02  0.1052529E+00
          1   -1    0    0  501    0  0.00000000000E+00  0.00000000000E+00  0.21016865310E+04  0.21016865310E+04  0.00000000000E+00 0. -1.
         -1   -1    0    0    0  501 -0.00000000000E+00 -0.00000000000E+00 -0.79767226723E+02  0.79767226723E+02  0.00000000000E+00 0.  1.
         23    2    1    2    0    0 -0.35225789639E+03 -0.91742360215E+02  0.57698282579E+03  0.68868425723E+03  0.94204769926E+02 0.  0.
         23    2    1    2    0    0  0.35225789639E+03  0.91742360215E+02  0.14449364785E+04  0.14927695005E+04  0.89538084078E+02 0.  0.
          5    1    4    4  502    0  0.25684120938E+03  0.91907403541E+02  0.93635644385E+03  0.97529475422E+03  0.47000000000E+01 0. -1.
         -5    1    3    3    0  503 -0.30030499877E+03 -0.10141868333E+03  0.44437773123E+03  0.54585941379E+03  0.47000000000E+01 0.  1.
          5    1    3    3  503    0 -0.51952897624E+02  0.96763231161E+01  0.13260509456E+03  0.14282484344E+03  0.47000000000E+01 0. -1.
         -5    1    4    4    0  502  0.95416687011E+02 -0.16504332617E+00  0.50858003462E+03  0.51747474626E+03  0.47000000000E+01 0.  1.
<mgrwt>
<rscale>  0 0.37571528E+03</rscale>
<asrwt>0</asrwt>
<pdfrwt beam="1">  1        1 0.32333635E+00 0.37600110E+03</pdfrwt>
<pdfrwt beam="2">  1       -1 0.12271883E-01 0.37600110E+03</pdfrwt>
<totfact> 0.12555807E+02</totfact>
</mgrwt>
</event>
<event>
 8    1  0.8174053E-004  0.1473007E+03  0.7546771E-02  0.1204317E+00
         -3   -1    0    0    0  501 -0.00000000000E+00  0.00000000000E+00  0.12017818068E+03  0.12017818068E+03  0.00000000000E+00 0.  1.
          3   -1    0    0  501    0  0.00000000000E+00 -0.00000000000E+00 -0.19939603287E+03  0.19939603287E+03  0.00000000000E+00 0. -1.
         23    2    1    2    0    0 -0.11253961613E+03  0.17920085291E+02  0.11728630834E+02  0.14776693328E+03  0.93333869177E+02 0.  0.
         23    2    1    2    0    0  0.11253961613E+03 -0.17920085291E+02 -0.90946483026E+02  0.17180728027E+03  0.90885555100E+02 0.  0.
          5    1    4    4  502    0  0.14086901149E+02 -0.41283394893E+02 -0.34744697665E+02  0.55964662902E+02  0.47000000000E+01 0. -1.
         -5    1    3    3    0  503  0.75870566933E+01  0.23686937019E+02 -0.62551459364E+01  0.26073957607E+02  0.47000000000E+01 0.  1.
          5    1    3    3  503    0 -0.12012667282E+03 -0.57668517285E+01  0.17983776771E+02  0.12169297567E+03  0.47000000000E+01 0. -1.
         -5    1    4    4    0  502  0.98452714978E+02  0.23363309602E+02 -0.56201785362E+02  0.11584261737E+03  0.47000000000E+01 0.  1.
<mgrwt>
<rscale>  0 0.14691446E+03</rscale>
<asrwt>0</asrwt>
<pdfrwt beam="1">  1        3 0.30676313E-01 0.14730073E+03</pdfrwt>
<pdfrwt beam="2">  1       -3 0.18488951E-01 0.14730073E+03</pdfrwt>
<totfact> 0.62218416E+02</totfact>
</mgrwt>
</event>
<event>
 8    1  0.8174053E-004  0.1144829E+03  0.7546771E-02  0.1256578E+00
         -1   -1    0    0    0  501 -0.00000000000E+00  0.00000000000E+00  0.54478271876E+03  0.54478271876E+03  0.00000000000E+00 0.  1.
          1   -1    0    0  501    0  0.00000000000E+00 -0.00000000000E+00 -0.30374028566E+02  0.30374028566E+02  0.00000000000E+00 0. -1.
         23    2    1    2    0    0  0.17564451667E+02  0.56926715493E+02  0.10065851277E+03  0.14586018552E+03  0.87142966595E+02 0.  0.
         23    2    1    2    0    0 -0.17564451667E+02 -0.56926715493E+02  0.41375017743E+03  0.42929656181E+03  0.97760768012E+02 0.  0.
          5    1    3    3  502    0  0.26396175109E+02  0.75460454078E+02  0.59983387584E+02  0.10005565939E+03  0.47000000000E+01 0. -1.
         -5    1    4    4    0  503  0.42171459286E+01 -0.77701711459E+02  0.35085342928E+03  0.35941001533E+03  0.47000000000E+01 0.  1.
          5    1    4    4  503    0 -0.21781597596E+02  0.20774995966E+02  0.62896748147E+02  0.69886546479E+02  0.47000000000E+01 0. -1.
         -5    1    3    3    0  502 -0.88317234421E+01 -0.18533738585E+02  0.40675125184E+02  0.45804526126E+02  0.47000000000E+01 0.  1.
<mgrwt>
<rscale>  0 0.11218401E+03</rscale>
<asrwt>0</asrwt>
<pdfrwt beam="1">  1        1 0.46729279E-02 0.11448287E+03</pdfrwt>
<pdfrwt beam="2">  1       -1 0.83812719E-01 0.11448287E+03</pdfrwt>
<totfact> 0.25903353E+03</totfact>
</mgrwt>
</event>
<event>
 8    1  0.8174053E-004  0.1065350E+03  0.7546771E-02  0.1267933E+00
          1   -1    0    0  501    0  0.00000000000E+00  0.00000000000E+00  0.59360994983E+03  0.59360994983E+03  0.00000000000E+00 0. -1.
         -1   -1    0    0    0  501 -0.00000000000E+00 -0.00000000000E+00 -0.19558047689E+02  0.19558047689E+02  0.00000000000E+00 0.  1.
         23    2    1    2    0    0 -0.47726117825E+02  0.22014869656E+02  0.22543908715E+03  0.24864009679E+03  0.90756150784E+02 0.  0.
         23    2    1    2    0    0  0.47726117825E+02 -0.22014869656E+02  0.34861281499E+03  0.36452790074E+03  0.92667463703E+02 0.  0.
          5    1    3    3  502    0  0.95086055397E+01 -0.26088706412E+02  0.42796794465E+02  0.51231726479E+02  0.47000000000E+01 0. -1.
         -5    1    4    4    0  503  0.37863031910E+01  0.34339594279E+02  0.10873474309E+03  0.11418790734E+03  0.47000000000E+01 0.  1.
          5    1    4    4  503    0  0.43939814634E+02 -0.56354463934E+02  0.23987807190E+03  0.25033999340E+03  0.47000000000E+01 0. -1.
         -5    1    3    3    0  502 -0.57234723365E+02  0.48103576068E+02  0.18264229269E+03  0.19740837031E+03  0.47000000000E+01 0.  1.
<mgrwt>
<rscale>  0 0.10611794E+03</rscale>
<asrwt>0</asrwt>
<pdfrwt beam="1">  1        1 0.91324594E-01 0.10653495E+03</pdfrwt>
<pdfrwt beam="2">  1       -1 0.30089309E-02 0.10653495E+03</pdfrwt>
<totfact> 0.12517633E+04</totfact>
</mgrwt>
</event>
<event>
 8    1  0.8174053E-004  0.9954602E+02  0.7546771E-02  0.1284455E+00
          1   -1    0    0  501    0  0.00000000000E+00  0.00000000000E+00  0.71379825266E+03  0.71379825266E+03  0.00000000000E+00 0. -1.
         -1   -1    0    0    0  501 -0.00000000000E+00 -0.00000000000E+00 -0.13077647240E+02  0.13077647240E+02  0.00000000000E+00 0.  1.
         23    2    1    2    0    0 -0.61166904305E+01 -0.20973870406E+02  0.36044319626E+03  0.37393676858E+03  0.97118958096E+02 0.  0.
         23    2    1    2    0    0  0.61166904305E+01  0.20973870406E+02  0.34027740916E+03  0.35293913132E+03  0.91104325324E+02 0.  0.
          5    1    4    4  502    0 -0.59739093143E+01  0.43467057953E+02  0.30968479429E+03  0.31281277872E+03  0.47000000000E+01 0. -1.
         -5    1    3    3    0  503 -0.37159913747E+02 -0.27212059879E+02  0.86329748588E+02  0.97960557796E+02  0.47000000000E+01 0.  1.
          5    1    3    3  503    0  0.31043223317E+02  0.62381894728E+01  0.27411344767E+03  0.27597621078E+03  0.47000000000E+01 0. -1.
         -5    1    4    4    0  502  0.12090599745E+02 -0.22493187547E+02  0.30592614872E+02  0.40126352599E+02  0.47000000000E+01 0.  1.
<mgrwt>
<rscale>  0 0.98047861E+02</rscale>
<asrwt>0</asrwt>
<pdfrwt beam="1">  1        1 0.10981509E+00 0.99546015E+02</pdfrwt>
<pdfrwt beam="2">  1       -1 0.20119463E-02 0.99546015E+02</pdfrwt>
<totfact> 0.17214454E+04</totfact>
</mgrwt>
</event>
<event>
 8    1  0.8174053E-004  0.1013158E+03  0.7546771E-02  0.1279004E+00
          1   -1    0    0  501    0  0.00000000000E+00  0.00000000000E+00  0.13323465334E+02  0.13323465334E+02  0.00000000000E+00 0. -1.
         -1   -1    0    0    0  501 -0.00000000000E+00 -0.00000000000E+00 -0.94561114718E+03  0.94561114718E+03  0.00000000000E+00 0.  1.
         23    2    1    2    0    0 -0.39084750621E+02  0.38583536653E+01 -0.24271983474E+03  0.26196352021E+03  0.90385082394E+02 0.  0.
         23    2    1    2    0    0  0.39084750621E+02 -0.38583536653E+01 -0.68956784710E+03  0.69697109230E+03  0.93393699594E+02 0.  0.
          5    1    3    3  502    0 -0.44976137563E+02  0.40742731789E+02 -0.14656077431E+03  0.15869774324E+03  0.47000000000E+01 0. -1.
         -5    1    3    3    0  502  0.58913869414E+01 -0.36884378123E+02 -0.96159060431E+02  0.10326577697E+03  0.47000000000E+01 0.  1.
          5    1    4    4  503    0 -0.22888649886E+01  0.40148378255E+02 -0.30025662053E+03  0.30297402422E+03  0.47000000000E+01 0. -1.
         -5    1    4    4    0  503  0.41373615610E+02 -0.44006731921E+02 -0.38931122657E+03  0.39399706808E+03  0.47000000000E+01 0.  1.
<mgrwt>
<rscale>  0 0.10061697E+03</rscale>
<asrwt>0</asrwt>
<pdfrwt beam="1">  1        1 0.20497635E-02 0.10131578E+03</pdfrwt>
<pdfrwt beam="2">  1       -1 0.14547867E+00 0.10131578E+03</pdfrwt>
<totfact> 0.22746809E+03</totfact>
</mgrwt>
</event>
<event>
 8    1  0.8174053E-004  0.9770523E+02  0.7546771E-02  0.1286549E+00
         -2   -1    0    0    0  501 -0.00000000000E+00  0.00000000000E+00  0.18343426922E+03  0.18343426922E+03  0.00000000000E+00 0.  1.
          2   -1    0    0  501    0  0.00000000000E+00 -0.00000000000E+00 -0.10965806019E+03  0.10965806019E+03  0.00000000000E+00 0. -1.
         23    2    1    2    0    0  0.21140702302E+02 -0.15455498235E+02  0.14451944566E+03  0.17444822049E+03  0.94130280665E+02 0.  0.
         23    2    1    2    0    0 -0.21140702302E+02  0.15455498235E+02 -0.70743236634E+02  0.11864410892E+03  0.91575200422E+02 0.  0.
          5    1    3    3  502    0  0.32413875499E+02  0.10142859032E+02  0.82602056121E+01  0.35268369837E+02  0.47000000000E+01 0. -1.
         -5    1    4    4    0  503  0.31781737569E+02  0.18397727737E+02 -0.10962430247E+02  0.38611139659E+02  0.47000000000E+01 0.  1.
          5    1    4    4  503    0 -0.52922439871E+02 -0.29422295019E+01 -0.59780806387E+02  0.80032969260E+02  0.47000000000E+01 0. -1.
         -5    1    3    3    0  502 -0.11273173197E+02 -0.25598357268E+02  0.13625924005E+03  0.13917985065E+03  0.47000000000E+01 0.  1.
<mgrwt>
<rscale>  0 0.97084556E+02</rscale>
<asrwt>0</asrwt>
<pdfrwt beam="1">  1        2 0.16870471E-01 0.97705227E+02</pdfrwt>
<pdfrwt beam="2">  1       -2 0.28220657E-01 0.97705227E+02</pdfrwt>
<totfact> 0.36381053E+03</totfact>
</mgrwt>
</event>
<event>
 7    1  0.9772710E-004  0.2234376E+03  0.7546771E-02  0.1143825E+00
          3   -1    0    0  501    0  0.00000000000E+00  0.00000000000E+00  0.23779492555E+03  0.23779492555E+03  0.00000000000E+00 0. -1.
         -3   -1    0    0    0  501 -0.00000000000E+00 -0.00000000000E+00 -0.19308169245E+03  0.19308169245E+03  0.00000000000E+00 0.  1.
         23    2    1    2    0    0  0.11363855166E+03  0.77277223232E+02  0.10960560523E+03  0.19820653693E+03  0.91580308641E+02 0.  0.
          5    1    3    3  502    0  0.12010947983E+03  0.41409516829E+02  0.94797993521E+02  0.15858683680E+03  0.47000000000E+01 0. -1.
         -5    1    3    3    0  502 -0.64709281745E+01  0.35867706404E+02  0.14807611704E+02  0.39619700131E+02  0.47000000000E+01 0. -1.
          5    1    1    2  503    0  0.34806208616E+02  0.24988094775E+02 -0.13437426795E+02  0.45150099420E+02  0.47000000000E+01 0. -1.
         -5    1    1    2    0  503 -0.14844476027E+03 -0.10226531801E+03 -0.51454945331E+02  0.18751998165E+03  0.47000000000E+01 0.  1.
<mgrwt>
<rscale>  0 0.20717276E+03</rscale>
<asrwt>0</asrwt>
<pdfrwt beam="1">  1        3 0.36583835E-01 0.22343757E+03</pdfrwt>
<pdfrwt beam="2">  1       -3 0.29704876E-01 0.22343757E+03</pdfrwt>
<totfact> 0.19926729E+02</totfact>
</mgrwt>
</event>
<event>
 8    1  0.8174053E-004  0.1514819E+03  0.7546771E-02  0.1198679E+00
          2   -1    0    0  501    0  0.00000000000E+00  0.00000000000E+00  0.23995905061E+03  0.23995905061E+03  0.00000000000E+00 0. -1.
         -2   -1    0    0    0  501 -0.00000000000E+00 -0.00000000000E+00 -0.13666956599E+03  0.13666956599E+03  0.00000000000E+00 0.  1.
         23    2    1    2    0    0  0.88108128620E+02 -0.82045532258E+02 -0.51585015364E+02  0.16002432342E+03  0.91936165813E+02 0.  0.
         23    2    1    2    0    0 -0.88108128620E+02  0.82045532258E+02  0.15487449998E+03  0.21660429318E+03  0.91852040736E+02 0.  0.
          5    1    3    3  502    0  0.48084199314E+02 -0.40008295367E+02  0.21739619760E+02  0.66388666120E+02  0.47000000000E+01 0. -1.
         -5    1    4    4    0  503  0.18960838127E+02  0.12674076467E+02  0.17985942912E+02  0.29423285662E+02  0.47000000000E+01 0.  1.
          5    1    4    4  503    0 -0.10706896675E+03  0.69371455792E+02  0.13688855707E+03  0.18718100752E+03  0.47000000000E+01 0. -1.
         -5    1    3    3    0  502  0.40023929305E+02 -0.42037236891E+02 -0.73324635124E+02  0.93635657303E+02  0.47000000000E+01 0.  1.
<mgrwt>
<rscale>  0 0.15146915E+03</rscale>
<asrwt>0</asrwt>
<pdfrwt beam="1">  1        2 0.36916777E-01 0.15148191E+03</pdfrwt>
<pdfrwt beam="2">  1       -2 0.21026087E-01 0.15148191E+03</pdfrwt>
<totfact> 0.26203036E+03</totfact>
</mgrwt>
</event>
<event>
 7    1  0.8174053E-004  0.1456694E+03  0.7546771E-02  0.1225964E+00
         -1   -1    0    0    0  501 -0.00000000000E+00  0.00000000000E+00  0.75297316556E+03  0.75297316556E+03  0.00000000000E+00 0.  1.
          1   -1    0    0  501    0  0.00000000000E+00 -0.00000000000E+00 -0.22241385064E+02  0.22241385064E+02  0.00000000000E+00 0. -1.
         23    2    1    2    0    0  0.59010471923E+01  0.27644485913E+02  0.16043991850E+03  0.18661249899E+03  0.91017676165E+02 0.  0.
          5    1    3    3  502    0 -0.21861896068E+02 -0.25237503956E+02  0.41811395983E+02  0.53713656920E+02  0.47000000000E+01 0. -1.
         -5    1    3    3    0  502  0.27762943261E+02  0.52881989870E+02  0.11862852251E+03  0.13289884207E+03  0.47000000000E+01 0.  1.
          5    1    1    2  503    0  0.20766434702E+02  0.38312998581E+02  0.41971652741E+03  0.42199903323E+03  0.47000000000E+01 0. -1.
         -5    1    1    2    0  503 -0.26667481895E+02 -0.65957484494E+02  0.15057533459E+03  0.16660301839E+03  0.47000000000E+01 0.  1.
<mgrwt>
<rscale>  0 0.13101059E+03</rscale>
<asrwt>0</asrwt>
<pdfrwt beam="1">  1        1 0.34217521E-02 0.14566938E+03</pdfrwt>
<pdfrwt beam="2">  1       -1 0.11584201E+00 0.14566938E+03</pdfrwt>
<totfact> 0.19828749E+03</totfact>
</mgrwt>
</event>
<event>
 8    1  0.8174053E-004  0.9615142E+02  0.7546771E-02  0.1290126E+00
         -1   -1    0    0    0  501 -0.00000000000E+00  0.00000000000E+00  0.24261567584E+02  0.24261567584E+02  0.00000000000E+00 0.  1.
          1   -1    0    0  501    0  0.00000000000E+00 -0.00000000000E+00 -0.40882285835E+03  0.40882285835E+03  0.00000000000E+00 0. -1.
         23    2    1    2    0    0  0.94520939777E+01  0.15277980181E+02 -0.25616427151E+03  0.27267591573E+03  0.91702029763E+02 0.  0.
         23    2    1    2    0    0 -0.94520939777E+01 -0.15277980181E+02 -0.12839701926E+03  0.16040851021E+03  0.94458122112E+02 0.  0.
          5    1    4    4  502    0 -0.38863762496E+02  0.86815434239E+01 -0.18703821144E+02  0.44245724731E+02  0.47000000000E+01 0. -1.
         -5    1    3    3    0  503  0.87712977299E+00 -0.31868707952E+02 -0.40783164902E+02  0.51978268946E+02  0.47000000000E+01 0.  1.
          5    1    3    3  503    0  0.85749642047E+01  0.47146688133E+02 -0.21538110661E+03  0.22069764678E+03  0.47000000000E+01 0. -1.
         -5    1    4    4    0  502  0.29411668519E+02 -0.23959523605E+02 -0.10969319812E+03  0.11616278548E+03  0.47000000000E+01 0.  1.
<mgrwt>
<rscale>  0 0.95467626E+02</rscale>
<asrwt>0</asrwt>
<pdfrwt beam="1">  1        1 0.62895820E-01 0.96151420E+02</pdfrwt>
<pdfrwt beam="2">  1       -1 0.37325491E-02 0.96151420E+02</pdfrwt>
<totfact> 0.14685793E+04</totfact>
</mgrwt>
</event>
<event>
 8    1  0.8174053E-004  0.1328907E+03  0.7546771E-02  0.1231365E+00
         -1   -1    0    0    0  501 -0.00000000000E+00  0.00000000000E+00  0.68672567894E+03  0.68672567894E+03  0.00000000000E+00 0.  1.
          1   -1    0    0  501    0  0.00000000000E+00 -0.00000000000E+00 -0.18009998847E+03  0.18009998847E+03  0.00000000000E+00 0. -1.
         23    2    1    2    0    0  0.26581589709E+02 -0.58794270153E+02  0.65678395358E+03  0.66630771208E+03  0.91855638824E+02 0.  0.
         23    2    1    2    0    0 -0.26581589709E+02  0.58794270153E+02 -0.15015826312E+03  0.20051795533E+03  0.11617486523E+03 0.  0.
          5    1    4    4  502    0 -0.38830126620E+02  0.17392557564E+02 -0.15113119764E+03  0.15707644219E+03  0.47000000000E+01 0. -1.
         -5    1    3    3    0  503  0.32341823029E+02 -0.80385026166E+02  0.45196030563E+03  0.46021511689E+03  0.47000000000E+01 0.  1.
          5    1    3    3  503    0 -0.57602333204E+01  0.21590756012E+02  0.20482364795E+03  0.20609259519E+03  0.47000000000E+01 0. -1.
         -5    1    4    4    0  502  0.12248536911E+02  0.41401712589E+02  0.97293452290E+00  0.43441513134E+02  0.47000000000E+01 0.  1.
<mgrwt>
<rscale>  0 0.12740040E+03</rscale>
<asrwt>0</asrwt>
<pdfrwt beam="1">  1        1 0.27707691E-01 0.13289073E+03</pdfrwt>
<pdfrwt beam="2">  1       -1 0.10565010E+00 0.13289073E+03</pdfrwt>
<totfact> 0.15337132E+02</totfact>
</mgrwt>
</event>
<event>
 8    1  0.8174053E-004  0.9379336E+02  0.7546771E-02  0.1294675E+00
          1   -1    0    0  501    0  0.00000000000E+00  0.00000000000E+00  0.71538374713E+02  0.71538374713E+02  0.00000000000E+00 0. -1.
         -1   -1    0    0    0  501 -0.00000000000E+00 -0.00000000000E+00 -0.35093013072E+03  0.35093013072E+03  0.00000000000E+00 0.  1.
         23    2    1    2    0    0 -0.86558030846E+01 -0.68451952757E+01 -0.31024158036E+03  0.32373196122E+03  0.91819196850E+02 0.  0.
         23    2    1    2    0    0  0.86558030846E+01  0.68451952757E+01  0.30849824351E+02  0.98736544207E+02  0.93141901817E+02 0.  0.
          5    1    4    4  502    0  0.18312547757E+02  0.47263234796E+02  0.24297202966E+02  0.56405734112E+02  0.47000000000E+01 0. -1.
         -5    1    3    3    0  503 -0.50098207951E+02 -0.87365841449E+00 -0.17227907649E+03  0.17947914618E+03  0.47000000000E+01 0.  1.
          5    1    3    3  503    0  0.41442404866E+02 -0.59715368612E+01 -0.13796250387E+03  0.14425281504E+03  0.47000000000E+01 0. -1.
         -5    1    4    4    0  502 -0.96567446726E+01 -0.40418039520E+02  0.65526213858E+01  0.42330810096E+02  0.47000000000E+01 0.  1.
<mgrwt>
<rscale>  0 0.93463270E+02</rscale>
<asrwt>0</asrwt>
<pdfrwt beam="1">  1        1 0.11005904E-01 0.93793355E+02</pdfrwt>
<pdfrwt beam="2">  1       -1 0.53989251E-01 0.93793355E+02</pdfrwt>
<totfact> 0.19184465E+03</totfact>
</mgrwt>
</event>
<event>
 8    1  0.8174053E-004  0.1233010E+03  0.7546771E-02  0.1238069E+00
          1   -1    0    0  501    0  0.00000000000E+00  0.00000000000E+00  0.81685706791E+03  0.81685706791E+03  0.00000000000E+00 0. -1.
         -1   -1    0    0    0  501 -0.00000000000E+00 -0.00000000000E+00 -0.25541523697E+02  0.25541523697E+02  0.00000000000E+00 0.  1.
         23    2    1    2    0    0 -0.13646109107E+02 -0.78862418514E+02  0.61602196075E+03  0.62808348408E+03  0.92737853655E+02 0.  0.
         23    2    1    2    0    0  0.13646109107E+02  0.78862418514E+02  0.17529358346E+03  0.21431510753E+03  0.93795669214E+02 0.  0.
          5    1    4    4  502    0 -0.12076617364E+02 -0.17259608495E+02  0.17867556687E+02  0.28019249709E+02  0.47000000000E+01 0. -1.
         -5    1    3    3    0  503  0.34226969662E+02 -0.18861777568E+02  0.12427437000E+03  0.13035897033E+03  0.47000000000E+01 0.  1.
          5    1    3    3  503    0 -0.47873078769E+02 -0.60000640946E+02  0.49174759074E+03  0.49772451375E+03  0.47000000000E+01 0. -1.
         -5    1    4    4    0  502  0.25722726470E+02  0.96122027009E+02  0.15742602678E+03  0.18629585782E+03  0.47000000000E+01 0.  1.
<mgrwt>
<rscale>  0 0.12309977E+03</rscale>
<asrwt>0</asrwt>
<pdfrwt beam="1">  1        1 0.12567030E+00 0.12330095E+03</pdfrwt>
<pdfrwt beam="2">  1       -1 0.39294658E-02 0.12330095E+03</pdfrwt>
<totfact> 0.54432006E+03</totfact>
</mgrwt>
</event>
<event>
 8    1  0.8174053E-004  0.9972693E+02  0.7546771E-02  0.1284455E+00
         -2   -1    0    0    0  501 -0.00000000000E+00  0.00000000000E+00  0.63917292392E+03  0.63917292392E+03  0.00000000000E+00 0.  1.
          2   -1    0    0  501    0  0.00000000000E+00 -0.00000000000E+00 -0.14560627584E+02  0.14560627584E+02  0.00000000000E+00 0. -1.
         23    2    1    2    0    0  0.62849122149E+01  0.28881301556E+02  0.29528813604E+03  0.30964074047E+03  0.88366708505E+02 0.  0.
         23    2    1    2    0    0 -0.62849122149E+01 -0.28881301556E+02  0.32932416029E+03  0.34409281103E+03  0.95246156612E+02 0.  0.
          5    1    3    3  502    0 -0.17724253281E+02 -0.26386576584E+02  0.11987418774E+03  0.12410604926E+03  0.47000000000E+01 0. -1.
         -5    1    3    3    0  502  0.24009165496E+02  0.55267878141E+02  0.17541394830E+03  0.18553469121E+03  0.47000000000E+01 0.  1.
          5    1    4    4  503    0  0.31945729450E+02 -0.38399506810E+02  0.10602951431E+03  0.11730046742E+03  0.47000000000E+01 0. -1.
         -5    1    4    4    0  503 -0.38230641665E+02  0.95182052539E+01  0.22329464598E+03  0.22679234361E+03  0.47000000000E+01 0.  1.
<mgrwt>
<rscale>  0 0.98047993E+02</rscale>
<asrwt>0</asrwt>
<pdfrwt beam="1">  1        2 0.22400970E-02 0.99726927E+02</pdfrwt>
<pdfrwt beam="2">  1       -2 0.98334274E-01 0.99726927E+02</pdfrwt>
<totfact> 0.38506222E+03</totfact>
</mgrwt>
</event>
<event>
 8    1  0.8174053E-004  0.1029219E+03  0.7546771E-02  0.1277000E+00
          3   -1    0    0  501    0  0.00000000000E+00  0.00000000000E+00  0.99034894235E+02  0.99034894235E+02  0.00000000000E+00 0. -1.
         -3   -1    0    0    0  501 -0.00000000000E+00 -0.00000000000E+00 -0.13515561661E+03  0.13515561661E+03  0.00000000000E+00 0.  1.
         23    2    1    2    0    0 -0.70993359394E+01 -0.36232933066E+02  0.40646005877E+02  0.10579251408E+03  0.90425285360E+02 0.  0.
         23    2    1    2    0    0  0.70993359394E+01  0.36232933066E+02 -0.76766728256E+02  0.12839799677E+03  0.96071270406E+02 0.  0.
          5    1    3    3  502    0  0.42465932698E+01 -0.64461422603E+02  0.37509519426E+02  0.74848931896E+02  0.47000000000E+01 0. -1.
         -5    1    3    3    0  502 -0.11345929209E+02  0.28228489537E+02  0.31364864507E+01  0.30943582185E+02  0.47000000000E+01 0.  1.
          5    1    4    4  503    0  0.27744979104E+02 -0.21437663230E+02 -0.81593971992E+01  0.36304586940E+02  0.47000000000E+01 0. -1.
         -5    1    4    4    0  503 -0.20645643165E+02  0.57670596296E+02 -0.68607331057E+02  0.92093409827E+02  0.47000000000E+01 0.  1.
<mgrwt>
<rscale>  0 0.10158372E+03</rscale>
<asrwt>0</asrwt>
<pdfrwt beam="1">  1        3 0.15236138E-01 0.10292189E+03</pdfrwt>
<pdfrwt beam="2">  1       -3 0.20793172E-01 0.10292189E+03</pdfrwt>
<totfact> 0.16525968E+03</totfact>
</mgrwt>
</event>
<event>
 8    1  0.8174053E-004  0.9435163E+02  0.7546771E-02  0.1293462E+00
          1   -1    0    0  501    0  0.00000000000E+00  0.00000000000E+00  0.37900378546E+03  0.37900378546E+03  0.00000000000E+00 0. -1.
         -1   -1    0    0    0  501 -0.00000000000E+00 -0.00000000000E+00 -0.23673106998E+02  0.23673106998E+02  0.00000000000E+00 0.  1.
         23    2    1    2    0    0 -0.28279181027E+02  0.16725908541E+01  0.14861092769E+03  0.17603249343E+03  0.89998451515E+02 0.  0.
         23    2    1    2    0    0  0.28279181027E+02 -0.16725908541E+01  0.20671975077E+03  0.22664439903E+03  0.88499257685E+02 0.  0.
          5    1    4    4  502    0  0.22872056308E+02  0.18648184798E+02  0.20249418567E+03  0.20468725164E+03  0.47000000000E+01 0. -1.
         -5    1    3    3    0  503  0.41122205944E+01 -0.39941741806E+02  0.77096702649E+02  0.87053113994E+02  0.47000000000E+01 0.  1.
          5    1    3    3  503    0 -0.32391401622E+02  0.41614332660E+02  0.71514225038E+02  0.88979379435E+02  0.47000000000E+01 0. -1.
         -5    1    4    4    0  502  0.54071247192E+01 -0.20320775652E+02  0.42255651075E+01  0.21957147386E+02  0.47000000000E+01 0.  1.
<mgrwt>
<rscale>  0 0.93992354E+02</rscale>
<asrwt>0</asrwt>
<pdfrwt beam="1">  1        1 0.58308270E-01 0.94351634E+02</pdfrwt>
<pdfrwt beam="2">  1       -1 0.36420167E-02 0.94351634E+02</pdfrwt>
<totfact> 0.16690423E+04</totfact>
</mgrwt>
</event>
<event>
 8    1  0.8174053E-004  0.1138637E+03  0.7546771E-02  0.1253771E+00
         -1   -1    0    0    0  501 -0.00000000000E+00  0.00000000000E+00  0.21422320646E+02  0.21422320646E+02  0.00000000000E+00 0.  1.
          1   -1    0    0  501    0  0.00000000000E+00 -0.00000000000E+00 -0.71342294053E+03  0.71342294053E+03  0.00000000000E+00 0. -1.
         23    2    1    2    0    0 -0.41755001488E+02 -0.53163489915E+02 -0.49117979124E+03  0.50420485056E+03  0.91624817628E+02 0.  0.
         23    2    1    2    0    0  0.41755001488E+02  0.53163489915E+02 -0.20082082865E+03  0.23064041061E+03  0.91083242033E+02 0.  0.
          5    1    4    4  502    0 -0.15814235864E+02  0.22841952690E+02 -0.13522036908E+03  0.13812488216E+03  0.47000000000E+01 0. -1.
         -5    1    3    3    0  503  0.23493526015E+02 -0.39616495614E+02 -0.23025988466E+03  0.23486829708E+03  0.47000000000E+01 0.  1.
          5    1    3    3  503    0 -0.65248527502E+02 -0.13546994301E+02 -0.26091990658E+03  0.26933655349E+03  0.47000000000E+01 0. -1.
         -5    1    4    4    0  502  0.57569237351E+02  0.30321537224E+02 -0.65600459575E+02  0.92515528455E+02  0.47000000000E+01 0.  1.
<mgrwt>
<rscale>  0 0.11375472E+03</rscale>
<asrwt>0</asrwt>
<pdfrwt beam="1">  1        1 0.10975736E+00 0.11386371E+03</pdfrwt>
<pdfrwt beam="2">  1       -1 0.32957420E-02 0.11386371E+03</pdfrwt>
<totfact> 0.85454059E+03</totfact>
</mgrwt>
</event>
<event>
 8    1  0.8174053E-004  0.1106745E+03  0.7546771E-02  0.1262073E+00
         -1   -1    0    0    0  501 -0.00000000000E+00  0.00000000000E+00  0.79354318264E+02  0.79354318264E+02  0.00000000000E+00 0.  1.
          1   -1    0    0  501    0  0.00000000000E+00 -0.00000000000E+00 -0.20380150995E+03  0.20380150995E+03  0.00000000000E+00 0. -1.
         23    2    1    2    0    0  0.56623402880E+02  0.25061523732E+02  0.11715740490E+02  0.11129283379E+03  0.91730837522E+02 0.  0.
         23    2    1    2    0    0 -0.56623402880E+02 -0.25061523732E+02 -0.13616293218E+03  0.17186299443E+03  0.84630107103E+02 0.  0.
          5    1    3    3  502    0  0.29571633606E+02  0.50573698623E+02 -0.20115216731E+02  0.62119984310E+02  0.47000000000E+01 0. -1.
         -5    1    3    3    0  502  0.27051769274E+02 -0.25512174891E+02  0.31830957221E+02  0.49172849481E+02  0.47000000000E+01 0.  1.
          5    1    4    4  503    0 -0.41944238751E+02  0.26435674565E+02 -0.52027569347E+02  0.72021677474E+02  0.47000000000E+01 0. -1.
         -5    1    4    4    0  503 -0.14679164129E+02 -0.51497198297E+02 -0.84135362832E+02  0.99841316953E+02  0.47000000000E+01 0.  1.
<mgrwt>
<rscale>  0 0.10919245E+03</rscale>
<asrwt>0</asrwt>
<pdfrwt beam="1">  1        1 0.31354078E-01 0.11067446E+03</pdfrwt>
<pdfrwt beam="2">  1       -1 0.12208357E-01 0.11067446E+03</pdfrwt>
<totfact> 0.59975369E+03</totfact>
</mgrwt>
</event>
<event>
 8    1  0.8174053E-004  0.9308477E+02  0.7546771E-02  0.1296378E+00
          2   -1    0    0  501    0  0.00000000000E+00  0.00000000000E+00  0.36413912052E+03  0.36413912052E+03  0.00000000000E+00 0. -1.
         -2   -1    0    0    0  501 -0.00000000000E+00 -0.00000000000E+00 -0.27040011308E+02  0.27040011308E+02  0.00000000000E+00 0.  1.
         23    2    1    2    0    0  0.21709185120E+02  0.14385656835E+01  0.23885749158E+03  0.25584180997E+03  0.89043653628E+02 0.  0.
         23    2    1    2    0    0 -0.21709185120E+02 -0.14385656835E+01  0.98241617629E+02  0.13533732186E+03  0.90506447642E+02 0.  0.
          5    1    3    3  502    0  0.19515070628E+02 -0.34287035120E+02  0.19515065716E+03  0.19915398000E+03  0.47000000000E+01 0. -1.
         -5    1    3    3    0  502  0.21941144924E+01  0.35725600803E+02  0.43706834422E+02  0.56687829967E+02  0.47000000000E+01 0.  1.
          5    1    4    4  503    0 -0.51743848175E+02 -0.14375013622E+02  0.35858084211E+02  0.64745339939E+02  0.47000000000E+01 0. -1.
         -5    1    4    4    0  503  0.30034663055E+02  0.12936447939E+02  0.62383533418E+02  0.70591981923E+02  0.47000000000E+01 0.  1.
<mgrwt>
<rscale>  0 0.92727311E+02</rscale>
<asrwt>0</asrwt>
<pdfrwt beam="1">  1        2 0.56021400E-01 0.93084775E+02</pdfrwt>
<pdfrwt beam="2">  1       -2 0.41600020E-02 0.93084775E+02</pdfrwt>
<totfact> 0.20670419E+04</totfact>
</mgrwt>
</event>
<event>
 8    1  0.8174053E-004  0.9486694E+02  0.7546771E-02  0.1291521E+00
         -2   -1    0    0    0  501 -0.00000000000E+00  0.00000000000E+00  0.12641249594E+03  0.12641249594E+03  0.00000000000E+00 0.  1.
          2   -1    0    0  501    0  0.00000000000E+00 -0.00000000000E+00 -0.75979955058E+02  0.75979955058E+02  0.00000000000E+00 0. -1.
         23    2    1    2    0    0 -0.13050783868E+02  0.19365332372E+02 -0.33121841797E+00  0.94867513257E+02  0.91947791211E+02 0.  0.
         23    2    1    2    0    0  0.13050783868E+02 -0.19365332372E+02  0.50763759297E+02  0.10752493774E+03  0.91865738556E+02 0.  0.
          5    1    3    3  502    0  0.22250884677E+02  0.31729698733E+02 -0.28054169950E+02  0.48072883232E+02  0.47000000000E+01 0. -1.
         -5    1    3    3    0  502 -0.35301668545E+02 -0.12364366362E+02  0.27722951532E+02  0.46794630025E+02  0.47000000000E+01 0.  1.
          5    1    4    4  503    0 -0.28441164888E+02  0.20619729707E+02  0.10136526696E+02  0.36863427497E+02  0.47000000000E+01 0. -1.
         -5    1    4    4    0  503  0.41491948755E+02 -0.39985062078E+02  0.40627232601E+02  0.70661510242E+02  0.47000000000E+01 0.  1.
<mgrwt>
<rscale>  0 0.94847047E+02</rscale>
<asrwt>0</asrwt>
<pdfrwt beam="1">  1        2 0.11689224E-01 0.94866935E+02</pdfrwt>
<pdfrwt beam="2">  1       -2 0.19448076E-01 0.94866935E+02</pdfrwt>
<totfact> 0.10556903E+04</totfact>
</mgrwt>
</event>
<event>
 8    1  0.8174053E-004  0.9078314E+02  0.7546771E-02  0.1303141E+00
         -1   -1    0    0    0  501 -0.00000000000E+00  0.00000000000E+00  0.21348294458E+02  0.21348294458E+02  0.00000000000E+00 0.  1.
          1   -1    0    0  501    0  0.00000000000E+00 -0.00000000000E+00 -0.62178683360E+03  0.62178683360E+03  0.00000000000E+00 0. -1.
         23    2    1    2    0    0 -0.56126669720E+01 -0.15716970850E+01 -0.50796750840E+03  0.51601605388E+03  0.90595838818E+02 0.  0.
         23    2    1    2    0    0  0.56126669720E+01  0.15716970850E+01 -0.92471030749E+02  0.12711907418E+03  0.87031001553E+02 0.  0.
          5    1    3    3  502    0 -0.25217388453E+02  0.33993269755E+02 -0.15691342833E+03  0.16258958472E+03  0.47000000000E+01 0. -1.
         -5    1    3    3    0  502  0.19604721481E+02 -0.35564966840E+02 -0.35105408006E+03  0.35342646916E+03  0.47000000000E+01 0.  1.
          5    1    4    4  503    0 -0.26733098194E+00  0.31023955886E+02 -0.91470991809E+02  0.96703617549E+02  0.47000000000E+01 0. -1.
         -5    1    4    4    0  503  0.58799979539E+01 -0.29452258800E+02 -0.10000389401E+01  0.30415456634E+02  0.47000000000E+01 0.  1.
<mgrwt>
<rscale>  0 0.89880469E+02</rscale>
<asrwt>0</asrwt>
<pdfrwt beam="1">  1        1 0.95659509E-01 0.90783139E+02</pdfrwt>
<pdfrwt beam="2">  1       -1 0.32843531E-02 0.90783139E+02</pdfrwt>
<totfact> 0.10229661E+04</totfact>
</mgrwt>
</event>
<event>
 8    1  0.8174053E-004  0.1143765E+03  0.7546771E-02  0.1253619E+00
         -1   -1    0    0    0  501 -0.00000000000E+00  0.00000000000E+00  0.11763854802E+02  0.11763854802E+02  0.00000000000E+00 0.  1.
          1   -1    0    0  501    0  0.00000000000E+00 -0.00000000000E+00 -0.11276451208E+04  0.11276451208E+04  0.00000000000E+00 0. -1.
         23    2    1    2    0    0 -0.49481965180E+01 -0.65836436474E+02 -0.66510848553E+03  0.67487130841E+03  0.93397346764E+02 0.  0.
         23    2    1    2    0    0  0.49481965180E+01  0.65836436474E+02 -0.45077278049E+03  0.46453766721E+03  0.90775677402E+02 0.  0.
          5    1    3    3  502    0  0.35826664598E+02 -0.12810203869E+02 -0.38250156187E+03  0.38441798352E+03  0.47000000000E+01 0. -1.
         -5    1    4    4    0  503 -0.34282882806E+02  0.38287901572E+01 -0.93353489981E+02  0.99634029223E+02  0.47000000000E+01 0.  1.
          5    1    4    4  503    0  0.39231079324E+02  0.62007646317E+02 -0.35741929051E+03  0.36490363798E+03  0.47000000000E+01 0. -1.
         -5    1    3    3    0  502 -0.40774861116E+02 -0.53026232606E+02 -0.28260692366E+03  0.29045332490E+03  0.47000000000E+01 0.  1.
<mgrwt>
<rscale>  0 0.11384010E+03</rscale>
<asrwt>0</asrwt>
<pdfrwt beam="1">  1        1 0.17348394E+00 0.11437651E+03</pdfrwt>
<pdfrwt beam="2">  1       -1 0.18098231E-02 0.11437651E+03</pdfrwt>
<totfact> 0.97966902E+03</totfact>
</mgrwt>
</event>
<event>
 8    1  0.8174053E-004  0.9893991E+02  0.7546771E-02  0.1286121E+00
          3   -1    0    0  501    0  0.00000000000E+00  0.00000000000E+00  0.25500582133E+02  0.25500582133E+02  0.00000000000E+00 0. -1.
         -3   -1    0    0    0  501 -0.00000000000E+00 -0.00000000000E+00 -0.35946756734E+03  0.35946756734E+03  0.00000000000E+00 0.  1.
         23    2    1    2    0    0  0.26920921334E+02  0.11003353629E+02 -0.17812365554E+03  0.20375755880E+03  0.94569002905E+02 0.  0.
         23    2    1    2    0    0 -0.26920921334E+02 -0.11003353629E+02 -0.15584332967E+03  0.18121059067E+03  0.87774284231E+02 0.  0.
          5    1    3    3  502    0 -0.11638741786E+02  0.41257560175E+02 -0.12038485470E+03  0.12787591573E+03  0.47000000000E+01 0. -1.
         -5    1    3    3    0  502  0.38559663120E+02 -0.30254206546E+02 -0.57738800836E+02  0.75881643074E+02  0.47000000000E+01 0.  1.
          5    1    4    4  503    0 -0.43150015365E+02 -0.39464823115E+02 -0.11002565722E+03  0.12468813631E+03  0.47000000000E+01 0.  1.
         -5    1    4    4    0  503  0.16229094031E+02  0.28461469486E+02 -0.45817672450E+02  0.56522454363E+02  0.47000000000E+01 0. -1.
<mgrwt>
<rscale>  0 0.97280380E+02</rscale>
<asrwt>0</asrwt>
<pdfrwt beam="1">  1        3 0.39231670E-02 0.98939912E+02</pdfrwt>
<pdfrwt beam="2">  1       -3 0.55302695E-01 0.98939912E+02</pdfrwt>
<totfact> 0.23515090E+03</totfact>
</mgrwt>
</event>
<event>
 8    1  0.8174053E-004  0.1035029E+03  0.7546771E-02  0.1273886E+00
          2   -1    0    0  501    0  0.00000000000E+00  0.00000000000E+00  0.20360313768E+03  0.20360313768E+03  0.00000000000E+00 0. -1.
         -2   -1    0    0    0  501 -0.00000000000E+00 -0.00000000000E+00 -0.69923963694E+02  0.69923963694E+02  0.00000000000E+00 0.  1.
         23    2    1    2    0    0  0.27119981221E+02 -0.27004594158E+02  0.13678885184E+03  0.17153434846E+03  0.96167048548E+02 0.  0.
         23    2    1    2    0    0 -0.27119981221E+02  0.27004594158E+02 -0.31096778516E+01  0.10199275292E+03  0.94488676910E+02 0.  0.
          5    1    3    3  502    0  0.43008370117E+02  0.23392279108E+02  0.52491675946E+02  0.71933195853E+02  0.47000000000E+01 0. -1.
         -5    1    3    3    0  502 -0.15888388896E+02 -0.50396873266E+02  0.84297175894E+02  0.99601152606E+02  0.47000000000E+01 0.  1.
          5    1    4    4  503    0 -0.42416106828E+01  0.60068039726E+02  0.53505037205E+01  0.60637270287E+02  0.47000000000E+01 0. -1.
         -5    1    4    4    0  503 -0.22878370538E+02 -0.33063445568E+02 -0.84601815721E+01  0.41355482630E+02  0.47000000000E+01 0.  1.
<mgrwt>
<rscale>  0 0.10311126E+03</rscale>
<asrwt>0</asrwt>
<pdfrwt beam="1">  1        2 0.31323560E-01 0.10350286E+03</pdfrwt>
<pdfrwt beam="2">  1       -2 0.10757533E-01 0.10350286E+03</pdfrwt>
<totfact> 0.91188453E+03</totfact>
</mgrwt>
</event>
<event>
 8    1  0.8174053E-004  0.9437280E+02  0.7546771E-02  0.1293775E+00
          1   -1    0    0  501    0  0.00000000000E+00  0.00000000000E+00  0.98964220056E+02  0.98964220056E+02  0.00000000000E+00 0. -1.
         -1   -1    0    0    0  501 -0.00000000000E+00 -0.00000000000E+00 -0.11199685334E+03  0.11199685334E+03  0.00000000000E+00 0.  1.
         23    2    1    2    0    0 -0.28968535795E+01 -0.20381251957E+02  0.42315350832E+02  0.10155529633E+03  0.89995011555E+02 0.  0.
         23    2    1    2    0    0  0.28968535795E+01  0.20381251957E+02 -0.55347984114E+02  0.10940577706E+03  0.92100149389E+02 0.  0.
          5    1    4    4  502    0 -0.37352834994E+02 -0.66853701214E+01 -0.45947478146E+02  0.59776159158E+02  0.47000000000E+01 0. -1.
         -5    1    4    4    0  502  0.40249688574E+02  0.27066622079E+02 -0.94005059688E+01  0.49629617906E+02  0.47000000000E+01 0.  1.
          5    1    3    3  503    0 -0.17138170026E+02  0.31835964932E+02  0.80945974738E+01  0.37347798372E+02  0.47000000000E+01 0. -1.
         -5    1    3    3    0  503  0.14241316447E+02 -0.52217216889E+02  0.34220753358E+02  0.64207497959E+02  0.47000000000E+01 0.  1.
<mgrwt>
<rscale>  0 0.93855229E+02</rscale>
<asrwt>0</asrwt>
<pdfrwt beam="1">  1        1 0.15225265E-01 0.94372796E+02</pdfrwt>
<pdfrwt beam="2">  1       -1 0.17230285E-01 0.94372796E+02</pdfrwt>
<totfact> 0.85868954E+03</totfact>
</mgrwt>
</event>
<event>
 8    1  0.8174053E-004  0.1137199E+03  0.7546771E-02  0.1254682E+00
         -1   -1    0    0    0  501 -0.00000000000E+00  0.00000000000E+00  0.15153517119E+03  0.15153517119E+03  0.00000000000E+00 0.  1.
          1   -1    0    0  501    0  0.00000000000E+00 -0.00000000000E+00 -0.22534762859E+03  0.22534762859E+03  0.00000000000E+00 0. -1.
         23    2    1    2    0    0  0.47240176254E+02 -0.47267496260E+02 -0.18607305868E+03  0.21708712736E+03  0.89653707345E+02 0.  0.
         23    2    1    2    0    0 -0.47240176254E+02  0.47267496260E+02  0.11226060129E+03  0.15979567242E+03  0.92012846219E+02 0.  0.
          5    1    4    4  502    0 -0.28103417145E+02 -0.12811841000E+02  0.33262798970E+00  0.31243334752E+02  0.47000000000E+01 0. -1.
         -5    1    3    3    0  503  0.22524205705E+02  0.34045837628E+01 -0.69685881773E+00  0.23270295346E+02  0.47000000000E+01 0.  1.
          5    1    3    3  503    0  0.24715970549E+02 -0.50672080022E+02 -0.18537619987E+03  0.19381683201E+03  0.47000000000E+01 0. -1.
         -5    1    4    4    0  502 -0.19136759109E+02  0.60079337260E+02  0.11192797330E+03  0.12855233767E+03  0.47000000000E+01 0.  1.
<mgrwt>
<rscale>  0 0.11324183E+03</rscale>
<asrwt>0</asrwt>
<pdfrwt beam="1">  1        1 0.34668866E-01 0.11371989E+03</pdfrwt>
<pdfrwt beam="2">  1       -1 0.23313103E-01 0.11371989E+03</pdfrwt>
<totfact> 0.19147657E+03</totfact>
</mgrwt>
</event>
<event>
 8    1  0.8174053E-004  0.1080464E+03  0.7546771E-02  0.1265649E+00
         -2   -1    0    0    0  501 -0.00000000000E+00  0.00000000000E+00  0.13955153255E+02  0.13955153255E+02  0.00000000000E+00 0.  1.
          2   -1    0    0  501    0  0.00000000000E+00 -0.00000000000E+00 -0.84665819490E+03  0.84665819490E+03  0.00000000000E+00 0. -1.
         23    2    1    2    0    0  0.55719283536E+02  0.93875651944E+01 -0.50653043571E+03  0.51792576526E+03  0.92093708141E+02 0.  0.
         23    2    1    2    0    0 -0.55719283536E+02 -0.93875651944E+01 -0.32617260593E+03  0.34268758289E+03  0.88619668649E+02 0.  0.
          5    1    4    4  502    0  0.10887330819E+02 -0.31808567732E+02 -0.88105238823E+02  0.94418970878E+02  0.47000000000E+01 0. -1.
         -5    1    3    3    0  503 -0.17768890425E+02  0.18933295141E+02 -0.64286377016E+02  0.69491232553E+02  0.47000000000E+01 0.  1.
          5    1    3    3  503    0  0.73488173961E+02 -0.95457299462E+01 -0.44224405869E+03  0.44843453271E+03  0.47000000000E+01 0. -1.
         -5    1    4    4    0  502 -0.66606614354E+02  0.22421002537E+02 -0.23806736711E+03  0.24826861201E+03  0.47000000000E+01 0.  1.
<mgrwt>
<rscale>  0 0.10730236E+03</rscale>
<asrwt>0</asrwt>
<pdfrwt beam="1">  1        2 0.13025509E+00 0.10804636E+03</pdfrwt>
<pdfrwt beam="2">  1       -2 0.21469469E-02 0.10804636E+03</pdfrwt>
<totfact> 0.21364173E+04</totfact>
</mgrwt>
</event>
<event>
 8    1  0.8174053E-004  0.2501224E+03  0.7546771E-02  0.1113275E+00
          2   -1    0    0  501    0  0.00000000000E+00  0.00000000000E+00  0.35913592840E+03  0.35913592840E+03  0.00000000000E+00 0. -1.
         -2   -1    0    0    0  501 -0.00000000000E+00 -0.00000000000E+00 -0.20405425201E+03  0.20405425201E+03  0.00000000000E+00 0.  1.
         23    2    1    2    0    0 -0.21342494576E+03 -0.91488815930E+02  0.18558580602E+03  0.31121454965E+03  0.92152013567E+02 0.  0.
         23    2    1    2    0    0  0.21342494576E+03  0.91488815930E+02 -0.30504129630E+02  0.25197563076E+03  0.92955933979E+02 0.  0.
          5    1    3    3  502    0 -0.77107542932E+02 -0.59994301228E+02  0.12489554655E+03  0.15863756461E+03  0.47000000000E+01 0. -1.
         -5    1    3    3    0  502 -0.13631740283E+03 -0.31494514703E+02  0.60690259472E+02  0.15257698504E+03  0.47000000000E+01 0.  1.
          5    1    4    4  503    0  0.92470023363E+02  0.11564472023E+02  0.25108708502E+02  0.96628047049E+02  0.47000000000E+01 0. -1.
         -5    1    4    4    0  503  0.12095492240E+03  0.79924343908E+02 -0.55612838132E+02  0.15534758371E+03  0.47000000000E+01 0.  1.
<mgrwt>
<rscale>  0 0.25004796E+03</rscale>
<asrwt>0</asrwt>
<pdfrwt beam="1">  1        2 0.55251681E-01 0.25012240E+03</pdfrwt>
<pdfrwt beam="2">  1       -2 0.31392962E-01 0.25012240E+03</pdfrwt>
<totfact> 0.84667669E+02</totfact>
</mgrwt>
</event>
<event>
 8    1  0.8174053E-004  0.1179126E+03  0.7546771E-02  0.1247191E+00
          3   -1    0    0  501    0  0.00000000000E+00  0.00000000000E+00  0.42430477265E+03  0.42430477265E+03  0.00000000000E+00 0. -1.
         -3   -1    0    0    0  501 -0.00000000000E+00 -0.00000000000E+00 -0.58309749920E+02  0.58309749920E+02  0.00000000000E+00 0.  1.
         23    2    1    2    0    0 -0.67824573327E+02  0.27672338873E+02  0.34332154308E+03  0.36254173820E+03  0.90558814611E+02 0.  0.
         23    2    1    2    0    0  0.67824573327E+02 -0.27672338873E+02  0.22673479644E+02  0.12007278437E+03  0.92398353782E+02 0.  0.
          5    1    3    3  502    0 -0.29622407776E+02  0.50290692366E+02  0.27327409931E+03  0.27947712631E+03  0.47000000000E+01 0. -1.
         -5    1    4    4    0  503  0.26261894678E+02 -0.38480327363E+02 -0.27151366455E+02  0.54126790099E+02  0.47000000000E+01 0.  1.
          5    1    4    4  503    0  0.41562678650E+02  0.10807988490E+02  0.49824846099E+02  0.65945994272E+02  0.47000000000E+01 0. -1.
         -5    1    3    3    0  502 -0.38202165552E+02 -0.22618353493E+02  0.70047443779E+02  0.83064611884E+02  0.47000000000E+01 0.  1.
<mgrwt>
<rscale>  0 0.11755200E+03</rscale>
<asrwt>0</asrwt>
<pdfrwt beam="1">  1        3 0.65277655E-01 0.11791262E+03</pdfrwt>
<pdfrwt beam="2">  1       -3 0.89707310E-02 0.11791262E+03</pdfrwt>
<totfact> 0.46387178E+02</totfact>
</mgrwt>
</event>
<event>
 8    1  0.8174053E-004  0.1154517E+03  0.7546771E-02  0.1255413E+00
          3   -1    0    0  501    0  0.00000000000E+00  0.00000000000E+00  0.17457130532E+03  0.17457130532E+03  0.00000000000E+00 0. -1.
         -3   -1    0    0    0  501 -0.00000000000E+00 -0.00000000000E+00 -0.69805180856E+02  0.69805180856E+02  0.00000000000E+00 0.  1.
         23    2    1    2    0    0 -0.64828969469E+02 -0.24316270577E+02  0.54110353138E+02  0.12750305593E+03  0.92385186352E+02 0.  0.
         23    2    1    2    0    0  0.64828969469E+02  0.24316270577E+02  0.50655771329E+02  0.11687343025E+03  0.79368225583E+02 0.  0.
          5    1    4    4  502    0  0.46257306298E+01 -0.20037678492E+02  0.34168328407E+02  0.40155580052E+02  0.47000000000E+01 0. -1.
         -5    1    4    4    0  502  0.60203238840E+02  0.44353949069E+02  0.16487442922E+02  0.76717850198E+02  0.47000000000E+01 0.  1.
          5    1    3    3  503    0  0.33858057885E+01 -0.43831872960E+02  0.23721045613E+02  0.50174443425E+02  0.47000000000E+01 0. -1.
         -5    1    3    3    0  503 -0.68214775258E+02  0.19515602384E+02  0.30389307525E+02  0.77328612504E+02  0.47000000000E+01 0.  1.
<mgrwt>
<rscale>  0 0.11283227E+03</rscale>
<asrwt>0</asrwt>
<pdfrwt beam="1">  1        3 0.26857124E-01 0.11545172E+03</pdfrwt>
<pdfrwt beam="2">  1       -3 0.10739259E-01 0.11545172E+03</pdfrwt>
<totfact> 0.19224713E+03</totfact>
</mgrwt>
</event>
<event>
 8    1  0.8174053E-004  0.9464254E+02  0.7546771E-02  0.1292580E+00
          4   -1    0    0  501    0  0.00000000000E+00  0.00000000000E+00  0.14728487814E+03  0.14728487814E+03  0.00000000000E+00 0. -1.
         -4   -1    0    0    0  501 -0.00000000000E+00 -0.00000000000E+00 -0.19899090758E+03  0.19899090758E+03  0.00000000000E+00 0.  1.
         23    2    1    2    0    0 -0.22233894086E+02  0.12992315812E+02 -0.17052092383E+03  0.19502460295E+03  0.91071751800E+02 0.  0.
         23    2    1    2    0    0  0.22233894086E+02 -0.12992315812E+02  0.11881489439E+03  0.15125118277E+03  0.89982191816E+02 0.  0.
          5    1    4    4  502    0  0.96178921528E+01 -0.51517277298E+02  0.71371446519E+02  0.88670779223E+02  0.47000000000E+01 0. -1.
         -5    1    3    3    0  503  0.10005505410E+02 -0.20281260113E+02 -0.13363842119E+03  0.13561989998E+03  0.47000000000E+01 0.  1.
          5    1    3    3  503    0 -0.32239399496E+02  0.33273575926E+02 -0.36882502632E+02  0.59404702972E+02  0.47000000000E+01 0. -1.
         -5    1    4    4    0  502  0.12616001934E+02  0.38524961486E+02  0.47443447870E+02  0.62580403547E+02  0.47000000000E+01 0.  1.
<mgrwt>
<rscale>  0 0.94379449E+02</rscale>
<asrwt>0</asrwt>
<pdfrwt beam="1">  1        4 0.22659212E-01 0.94642540E+02</pdfrwt>
<pdfrwt beam="2">  1       -4 0.30613986E-01 0.94642540E+02</pdfrwt>
<totfact> 0.28477749E+02</totfact>
</mgrwt>
</event>
<event>
 8    1  0.8174053E-004  0.9944236E+02  0.7546771E-02  0.1281960E+00
          3   -1    0    0  501    0  0.00000000000E+00  0.00000000000E+00  0.25669834990E+03  0.25669834990E+03  0.00000000000E+00 0. -1.
         -3   -1    0    0    0  501 -0.00000000000E+00 -0.00000000000E+00 -0.38729768284E+02  0.38729768284E+02  0.00000000000E+00 0.  1.
         23    2    1    2    0    0 -0.16470804577E+01 -0.41890008028E+02  0.91715330499E+02  0.13527928647E+03  0.90173709318E+02 0.  0.
         23    2    1    2    0    0  0.16470804577E+01  0.41890008028E+02  0.12625325111E+03  0.16014883171E+03  0.89164338363E+02 0.  0.
          5    1    4    4  502    0 -0.23777071700E+02  0.37742218313E+02  0.12623094335E+03  0.13396329811E+03  0.47000000000E+01 0. -1.
         -5    1    3    3    0  503  0.41353090191E+02 -0.47619404793E+01  0.31928261953E+02  0.52671226080E+02  0.47000000000E+01 0.  1.
          5    1    3    3  503    0 -0.43000170649E+02 -0.37128067549E+02  0.59787068546E+02  0.82608060388E+02  0.47000000000E+01 0. -1.
         -5    1    4    4    0  502  0.25424152157E+02  0.41477897157E+01  0.22307764880E-01  0.26185533603E+02  0.47000000000E+01 0.  1.
<mgrwt>
<rscale>  0 0.99212977E+02</rscale>
<asrwt>0</asrwt>
<pdfrwt beam="1">  1        3 0.39492053E-01 0.99442363E+02</pdfrwt>
<pdfrwt beam="2">  1       -3 0.59584261E-02 0.99442363E+02</pdfrwt>
<totfact> 0.23660653E+03</totfact>
</mgrwt>
</event>
<event>
 8    1  0.8174053E-004  0.1654292E+03  0.7546771E-02  0.1182932E+00
         -2   -1    0    0    0  501 -0.00000000000E+00  0.00000000000E+00  0.18005541550E+02  0.18005541550E+02  0.00000000000E+00 0.  1.
          2   -1    0    0  501    0  0.00000000000E+00 -0.00000000000E+00 -0.16668871347E+04  0.16668871347E+04  0.00000000000E+00 0. -1.
         23    2    1    2    0    0  0.13731300664E+03  0.11584121904E+02 -0.10792455019E+04  0.10917214667E+04  0.89976962305E+02 0.  0.
         23    2    1    2    0    0 -0.13731300664E+03 -0.11584121904E+02 -0.56963609124E+03  0.59317120957E+03  0.91530070176E+02 0.  0.
          5    1    4    4  502    0 -0.11971529513E+03  0.11357530034E+02 -0.53219756759E+03  0.54563457215E+03  0.47000000000E+01 0. -1.
         -5    1    4    4    0  502 -0.17597711511E+02 -0.22941651938E+02 -0.37438523646E+02  0.47536637416E+02  0.47000000000E+01 0.  1.
          5    1    3    3  503    0  0.96455641153E+02 -0.34733719060E+02 -0.66820890431E+03  0.67604389780E+03  0.47000000000E+01 0. -1.
         -5    1    3    3    0  503  0.40857365486E+02  0.46317840964E+02 -0.41103659759E+03  0.41567756887E+03  0.47000000000E+01 0.  1.
<mgrwt>
<rscale>  0 0.16521519E+03</rscale>
<asrwt>0</asrwt>
<pdfrwt beam="1">  1        2 0.25644428E+00 0.16542916E+03</pdfrwt>
<pdfrwt beam="2">  1       -2 0.27700822E-02 0.16542916E+03</pdfrwt>
<totfact> 0.52629381E+03</totfact>
</mgrwt>
</event>
<event>
 8    1  0.8174053E-004  0.9790511E+02  0.7546771E-02  0.1285389E+00
         -1   -1    0    0    0  501 -0.00000000000E+00  0.00000000000E+00  0.45514764305E+02  0.45514764305E+02  0.00000000000E+00 0.  1.
          1   -1    0    0  501    0  0.00000000000E+00 -0.00000000000E+00 -0.21838359290E+03  0.21838359290E+03  0.00000000000E+00 0. -1.
         23    2    1    2    0    0  0.25895387048E+02 -0.18639864436E+02 -0.57364656268E+02  0.11248295072E+03  0.91343827369E+02 0.  0.
         23    2    1    2    0    0 -0.25895387048E+02  0.18639864436E+02 -0.11550417232E+03  0.15141540648E+03  0.92560228380E+02 0.  0.
          5    1    3    3  502    0 -0.24619857897E+02 -0.81446161004E+01 -0.54569154394E+02  0.60599956977E+02  0.47000000000E+01 0. -1.
         -5    1    4    4    0  503 -0.31438819585E+02 -0.32927086570E+02 -0.51370003135E+02  0.68800869392E+02  0.47000000000E+01 0.  1.
          5    1    4    4  503    0  0.55434325367E+01  0.51566951006E+02 -0.64134169187E+02  0.82614537085E+02  0.47000000000E+01 0. -1.
         -5    1    3    3    0  502  0.50515244945E+02 -0.10495248335E+02 -0.27955018737E+01  0.51882993748E+02  0.47000000000E+01 0.  1.
<mgrwt>
<rscale>  0 0.97616546E+02</rscale>
<asrwt>0</asrwt>
<pdfrwt beam="1">  1        1 0.33597476E-01 0.97905115E+02</pdfrwt>
<pdfrwt beam="2">  1       -1 0.70022715E-02 0.97905115E+02</pdfrwt>
<totfact> 0.12622381E+04</totfact>
</mgrwt>
</event>
<event>
 8    1  0.8174053E-004  0.9298696E+02  0.7546771E-02  0.1296274E+00
         -1   -1    0    0    0  501 -0.00000000000E+00  0.00000000000E+00  0.32750195792E+02  0.32750195792E+02  0.00000000000E+00 0.  1.
          1   -1    0    0  501    0  0.00000000000E+00 -0.00000000000E+00 -0.52478505208E+03  0.52478505208E+03  0.00000000000E+00 0. -1.
         23    2    1    2    0    0  0.14972324096E+02  0.20018541560E+02 -0.49165968877E+02  0.10518492189E+03  0.89563735975E+02 0.  0.
         23    2    1    2    0    0 -0.14972324096E+02 -0.20018541560E+02 -0.44286888741E+03  0.45235032599E+03  0.88673860223E+02 0.  0.
          5    1    3    3  502    0 -0.54575090301E+01 -0.28099183193E+02 -0.43650395147E+02  0.52409879769E+02  0.47000000000E+01 0. -1.
         -5    1    4    4    0  503 -0.45797231874E+02 -0.13269635382E+02 -0.36601777250E+03  0.36914031134E+03  0.47000000000E+01 0.  1.
          5    1    4    4  503    0  0.30824907778E+02 -0.67489061778E+01 -0.76851114911E+02  0.83210014645E+02  0.47000000000E+01 0. -1.
         -5    1    3    3    0  502  0.20429833126E+02  0.48117724753E+02 -0.55155737301E+01  0.52775042118E+02  0.47000000000E+01 0.  1.
<mgrwt>
<rscale>  0 0.92772018E+02</rscale>
<asrwt>0</asrwt>
<pdfrwt beam="1">  1        1 0.80736162E-01 0.92986963E+02</pdfrwt>
<pdfrwt beam="2">  1       -1 0.50384916E-02 0.92986963E+02</pdfrwt>
<totfact> 0.68862768E+03</totfact>
</mgrwt>
</event>
<event>
 8    1  0.8174053E-004  0.9573690E+02  0.7546771E-02  0.1290676E+00
          3   -1    0    0  501    0  0.00000000000E+00  0.00000000000E+00  0.26448134550E+02  0.26448134550E+02  0.00000000000E+00 0. -1.
         -3   -1    0    0    0  501 -0.00000000000E+00 -0.00000000000E+00 -0.41148265510E+03  0.41148265510E+03  0.00000000000E+00 0.  1.
         23    2    1    2    0    0 -0.24445800372E+02 -0.13544805658E+02 -0.28257682948E+03  0.29770549991E+03  0.89430650226E+02 0.  0.
         23    2    1    2    0    0  0.24445800372E+02  0.13544805658E+02 -0.10245769106E+03  0.14022528974E+03  0.91566885432E+02 0.  0.
          5    1    3    3  502    0  0.19507390473E+02 -0.18068992328E+02 -0.26610248895E+02  0.37910712379E+02  0.47000000000E+01 0. -1.
         -5    1    4    4    0  503 -0.26950901035E+02 -0.20168576713E+02 -0.39540526350E+02  0.52140826396E+02  0.47000000000E+01 0.  1.
          5    1    4    4  503    0  0.51396701407E+02  0.33713382372E+02 -0.62917164714E+02  0.88084463341E+02  0.47000000000E+01 0. -1.
         -5    1    3    3    0  502 -0.43953190845E+02  0.45241866692E+01 -0.25596658059E+03  0.25979478753E+03  0.47000000000E+01 0.  1.
<mgrwt>
<rscale>  0 0.95222488E+02</rscale>
<asrwt>0</asrwt>
<pdfrwt beam="1">  1        3 0.40689441E-02 0.95736897E+02</pdfrwt>
<pdfrwt beam="2">  1       -3 0.63305019E-01 0.95736897E+02</pdfrwt>
<totfact> 0.16760108E+03</totfact>
</mgrwt>
</event>
<event>
 8    1  0.8174053E-004  0.9973729E+02  0.7546771E-02  0.1282420E+00
          1   -1    0    0  501    0  0.00000000000E+00  0.00000000000E+00  0.17419477084E+03  0.17419477084E+03  0.00000000000E+00 0. -1.
         -1   -1    0    0    0  501 -0.00000000000E+00 -0.00000000000E+00 -0.56242021438E+02  0.56242021438E+02  0.00000000000E+00 0.  1.
         23    2    1    2    0    0 -0.30793141365E+02  0.12010967391E+02  0.44362311274E+02  0.10648890061E+03  0.90991155613E+02 0.  0.
         23    2    1    2    0    0  0.30793141365E+02 -0.12010967391E+02  0.73590438127E+02  0.12394789166E+03  0.94101255949E+02 0.  0.
          5    1    4    4  502    0 -0.84359460686E+01 -0.43627872749E+02  0.16434680297E+02  0.47610347437E+02  0.47000000000E+01 0. -1.
         -5    1    4    4    0  502  0.39229087434E+02  0.31616905358E+02  0.57155757829E+02  0.76337544225E+02  0.47000000000E+01 0.  1.
          5    1    3    3  503    0 -0.44566949071E+02 -0.23872040992E+02  0.44874361514E+02  0.67763453364E+02  0.47000000000E+01 0. -1.
         -5    1    3    3    0  503  0.13773807705E+02  0.35883008383E+02 -0.51205023930E+00  0.38725447251E+02  0.47000000000E+01 0.  1.
<mgrwt>
<rscale>  0 0.98996871E+02</rscale>
<asrwt>0</asrwt>
<pdfrwt beam="1">  1        1 0.26799195E-01 0.99737291E+02</pdfrwt>
<pdfrwt beam="2">  1       -1 0.86526188E-02 0.99737291E+02</pdfrwt>
<totfact> 0.12176601E+04</totfact>
</mgrwt>
</event>
<event>
 8    1  0.8174053E-004  0.1027981E+03  0.7546771E-02  0.1274607E+00
          2   -1    0    0  501    0  0.00000000000E+00  0.00000000000E+00  0.31863248370E+03  0.31863248370E+03  0.00000000000E+00 0. -1.
         -2   -1    0    0    0  501 -0.00000000000E+00 -0.00000000000E+00 -0.98871888026E+02  0.98871888026E+02  0.00000000000E+00 0.  1.
         23    2    1    2    0    0  0.27666230067E+02  0.34793808124E+02  0.28015941958E+03  0.29842377632E+03  0.92689915971E+02 0.  0.
         23    2    1    2    0    0 -0.27666230067E+02 -0.34793808124E+02 -0.60398823910E+02  0.11908059540E+03  0.92499410281E+02 0.  0.
          5    1    3    3  502    0  0.11623347010E+02 -0.30069752838E+02  0.59671808803E+02  0.67986079438E+02  0.47000000000E+01 0. -1.
         -5    1    4    4    0  503  0.74118441417E+01  0.28495438543E+02 -0.13553451355E+02  0.32752274654E+02  0.47000000000E+01 0.  1.
          5    1    4    4  503    0 -0.35078074209E+02 -0.63289246667E+02 -0.46845372555E+02  0.86328320751E+02  0.47000000000E+01 0. -1.
         -5    1    3    3    0  502  0.16042883057E+02  0.64863560962E+02  0.22048761078E+03  0.23043769688E+03  0.47000000000E+01 0.  1.
<mgrwt>
<rscale>  0 0.10275514E+03</rscale>
<asrwt>0</asrwt>
<pdfrwt beam="1">  1        2 0.49020382E-01 0.10279810E+03</pdfrwt>
<pdfrwt beam="2">  1       -2 0.15211060E-01 0.10279810E+03</pdfrwt>
<totfact> 0.32666476E+03</totfact>
</mgrwt>
</event>
<event>
 8    1  0.8174053E-004  0.1014072E+03  0.7546771E-02  0.1280752E+00
         -2   -1    0    0    0  501 -0.00000000000E+00  0.00000000000E+00  0.35768225840E+02  0.35768225840E+02  0.00000000000E+00 0.  1.
          2   -1    0    0  501    0  0.00000000000E+00 -0.00000000000E+00 -0.40663196021E+03  0.40663196021E+03  0.00000000000E+00 0. -1.
         23    2    1    2    0    0  0.13934811699E+02 -0.35464300799E+02 -0.61134259229E+02  0.11840949494E+03  0.93976141819E+02 0.  0.
         23    2    1    2    0    0 -0.13934811699E+02  0.35464300799E+02 -0.30972947514E+03  0.32399069112E+03  0.87096065067E+02 0.  0.
          5    1    4    4  502    0  0.26995037986E+02  0.21822193708E+02 -0.23481509377E+03  0.23741347577E+03  0.47000000000E+01 0. -1.
         -5    1    3    3    0  503  0.50999337994E+02 -0.27286472207E+02 -0.17993340538E+02  0.60756352302E+02  0.47000000000E+01 0.  1.
          5    1    3    3  503    0 -0.37064526295E+02 -0.81778285914E+01 -0.43140918691E+02  0.57653142633E+02  0.47000000000E+01 0. -1.
         -5    1    4    4    0  502 -0.40929849685E+02  0.13642107091E+02 -0.74914381373E+02  0.86577215349E+02  0.47000000000E+01 0.  1.
<mgrwt>
<rscale>  0 0.99783379E+02</rscale>
<asrwt>0</asrwt>
<pdfrwt beam="1">  1        2 0.62558764E-01 0.10140715E+03</pdfrwt>
<pdfrwt beam="2">  1       -2 0.55028039E-02 0.10140715E+03</pdfrwt>
<totfact> 0.12243027E+04</totfact>
</mgrwt>
</event>
<event>
 8    1  0.8174053E-004  0.9376797E+02  0.7546771E-02  0.1294281E+00
          1   -1    0    0  501    0  0.00000000000E+00  0.00000000000E+00  0.10846430392E+03  0.10846430392E+03  0.00000000000E+00 0. -1.
         -1   -1    0    0    0  501 -0.00000000000E+00 -0.00000000000E+00 -0.86978707944E+02  0.86978707944E+02  0.00000000000E+00 0.  1.
         23    2    1    2    0    0 -0.16735874485E+01  0.22441232613E+02 -0.15742698239E+02  0.94555064732E+02  0.90478825714E+02 0.  0.
         23    2    1    2    0    0  0.16735874485E+01 -0.22441232613E+02  0.37228294218E+02  0.10088794713E+03  0.91027590160E+02 0.  0.
          5    1    3    3  502    0  0.28848306966E+02  0.45225057925E+02 -0.16008540263E+02  0.56177344549E+02  0.47000000000E+01 0. -1.
         -5    1    4    4    0  503 -0.37378609061E+02  0.36586175568E+01 -0.41985098637E+01  0.38082323758E+02  0.47000000000E+01 0.  1.
          5    1    4    4  503    0  0.39052196510E+02 -0.26099850170E+02  0.41426804081E+02  0.62805623375E+02  0.47000000000E+01 0. -1.
         -5    1    3    3    0  502 -0.30521894415E+02 -0.22783825313E+02  0.26584202389E+00  0.38377720184E+02  0.47000000000E+01 0.  1.
<mgrwt>
<rscale>  0 0.93634526E+02</rscale>
<asrwt>0</asrwt>
<pdfrwt beam="1">  1        1 0.16686816E-01 0.93767969E+02</pdfrwt>
<pdfrwt beam="2">  1       -1 0.13381340E-01 0.93767969E+02</pdfrwt>
<totfact> 0.11307829E+04</totfact>
</mgrwt>
</event>
<event>
 8    1  0.8174053E-004  0.9953260E+02  0.7546771E-02  0.1281537E+00
          1   -1    0    0  501    0  0.00000000000E+00  0.00000000000E+00  0.18261850403E+03  0.18261850403E+03  0.00000000000E+00 0. -1.
         -1   -1    0    0    0  501 -0.00000000000E+00 -0.00000000000E+00 -0.63033952045E+02  0.63033952045E+02  0.00000000000E+00 0.  1.
         23    2    1    2    0    0 -0.12704486895E+02 -0.37156596371E+02  0.13383442170E+02  0.10042835259E+03  0.91458847792E+02 0.  0.
         23    2    1    2    0    0  0.12704486895E+02  0.37156596371E+02  0.10620110982E+03  0.14522410348E+03  0.90935954743E+02 0.  0.
          5    1    4    4  502    0 -0.16110095108E+02  0.25136251457E+02  0.10939183283E+03  0.11349021716E+03  0.47000000000E+01 0. -1.
         -5    1    4    4    0  502  0.28814582003E+02  0.12020344914E+02 -0.31907230099E+01  0.31733886323E+02  0.47000000000E+01 0.  1.
          5    1    3    3  503    0  0.37621931991E+02 -0.38041693325E+01  0.11650269511E+02  0.39845956516E+02  0.47000000000E+01 0. -1.
         -5    1    3    3    0  503 -0.50326418886E+02 -0.33352427038E+02  0.17331726595E+01  0.60582396079E+02  0.47000000000E+01 0.  1.
<mgrwt>
<rscale>  0 0.99412311E+02</rscale>
<asrwt>0</asrwt>
<pdfrwt beam="1">  1        1 0.28095154E-01 0.99532595E+02</pdfrwt>
<pdfrwt beam="2">  1       -1 0.96975311E-02 0.99532595E+02</pdfrwt>
<totfact> 0.96713784E+03</totfact>
</mgrwt>
</event>
<event>
 8    1  0.8174053E-004  0.9596249E+02  0.7546771E-02  0.1290841E+00
          1   -1    0    0  501    0  0.00000000000E+00  0.00000000000E+00  0.35314726723E+03  0.35314726723E+03  0.00000000000E+00 0. -1.
         -1   -1    0    0    0  501 -0.00000000000E+00 -0.00000000000E+00 -0.29489303582E+02  0.29489303582E+02  0.00000000000E+00 0.  1.
         23    2    1    2    0    0 -0.22735306344E+01  0.21826173021E+02  0.86608348553E+02  0.12689975450E+03  0.90116540557E+02 0.  0.
         23    2    1    2    0    0  0.22735306344E+01 -0.21826173021E+02  0.23704961509E+03  0.25573681631E+03  0.93419743266E+02 0.  0.
          5    1    4    4  502    0 -0.15285524630E+02 -0.46179109407E+02  0.66638667276E+02  0.82637518024E+02  0.47000000000E+01 0. -1.
         -5    1    4    4    0  502  0.17559055264E+02  0.24352936386E+02  0.17041094781E+03  0.17309929829E+03  0.47000000000E+01 0.  1.
          5    1    3    3  503    0 -0.30451082748E+02 -0.16815599934E+02  0.65709397181E+02  0.74497300082E+02  0.47000000000E+01 0. -1.
         -5    1    3    3    0  503  0.28177552113E+02  0.38641772955E+02  0.20898951372E+02  0.52402454414E+02  0.47000000000E+01 0.  1.
<mgrwt>
<rscale>  0 0.95149054E+02</rscale>
<asrwt>0</asrwt>
<pdfrwt beam="1">  1        1 0.54330346E-01 0.95962489E+02</pdfrwt>
<pdfrwt beam="2">  1       -1 0.45368162E-02 0.95962489E+02</pdfrwt>
<totfact> 0.13251431E+04</totfact>
</mgrwt>
</event>
<event>
 8    1  0.8174053E-004  0.9929298E+02  0.7546771E-02  0.1284912E+00
          2   -1    0    0  501    0  0.00000000000E+00  0.00000000000E+00  0.60541714442E+03  0.60541714442E+03  0.00000000000E+00 0. -1.
         -2   -1    0    0    0  501 -0.00000000000E+00 -0.00000000000E+00 -0.15652790642E+02  0.15652790642E+02  0.00000000000E+00 0.  1.
         23    2    1    2    0    0 -0.13578289304E+02 -0.11298193828E+02  0.24413975874E+03  0.26146535187E+03  0.91912400182E+02 0.  0.
         23    2    1    2    0    0  0.13578289304E+02  0.11298193828E+02  0.34562459504E+03  0.35960458319E+03  0.97709142009E+02 0.  0.
          5    1    4    4  502    0  0.26704426437E+02 -0.20249635477E+02  0.30248244256E+03  0.30436966370E+03  0.47000000000E+01 0. -1.
         -5    1    3    3    0  503 -0.49718823910E+02 -0.34720487700E+01  0.91070842852E+02  0.10392307247E+03  0.47000000000E+01 0.  1.
          5    1    3    3  503    0  0.36140534606E+02 -0.78261450581E+01  0.15306891589E+03  0.15754227940E+03  0.47000000000E+01 0. -1.
         -5    1    4    4    0  502 -0.13126137133E+02  0.31547829305E+02  0.43142152478E+02  0.55234919483E+02  0.47000000000E+01 0.  1.
<mgrwt>
<rscale>  0 0.97836599E+02</rscale>
<asrwt>0</asrwt>
<pdfrwt beam="1">  1        2 0.93141081E-01 0.99292978E+02</pdfrwt>
<pdfrwt beam="2">  1       -2 0.24081221E-02 0.99292978E+02</pdfrwt>
<totfact> 0.26716142E+04</totfact>
</mgrwt>
</event>
<event>
 8    1  0.8174053E-004  0.1259861E+03  0.7546771E-02  0.1235173E+00
         -2   -1    0    0    0  501 -0.00000000000E+00  0.00000000000E+00  0.56473732161E+02  0.56473732161E+02  0.00000000000E+00 0.  1.
          2   -1    0    0  501    0  0.00000000000E+00 -0.00000000000E+00 -0.32016161257E+03  0.32016161257E+03  0.00000000000E+00 0. -1.
         23    2    1    2    0    0  0.35190636593E+02  0.76279390486E+02 -0.60588165480E+02  0.13979777456E+03  0.93891243778E+02 0.  0.
         23    2    1    2    0    0 -0.35190636593E+02 -0.76279390486E+02 -0.20309971493E+03  0.23683757018E+03  0.88236127098E+02 0.  0.
          5    1    3    3  502    0 -0.22538089454E+02  0.24274696314E+02 -0.51521020000E+02  0.61430707787E+02  0.47000000000E+01 0. -1.
         -5    1    3    3    0  502  0.57728726047E+02  0.52004694173E+02 -0.90671454800E+01  0.78367066770E+02  0.47000000000E+01 0.  1.
          5    1    4    4  503    0 -0.62368653878E+02 -0.46558649170E+02 -0.10580354226E+03  0.13143072835E+03  0.47000000000E+01 0. -1.
         -5    1    4    4    0  503  0.27178017285E+02 -0.29720741317E+02 -0.97296172675E+02  0.10540684183E+03  0.47000000000E+01 0.  1.
<mgrwt>
<rscale>  0 0.12493394E+03</rscale>
<asrwt>0</asrwt>
<pdfrwt beam="1">  1        2 0.49255633E-01 0.12598608E+03</pdfrwt>
<pdfrwt beam="2">  1       -2 0.86882664E-02 0.12598608E+03</pdfrwt>
<totfact> 0.79964774E+03</totfact>
</mgrwt>
</event>
<event>
 8    1  0.8174053E-004  0.9438858E+02  0.7546771E-02  0.1294623E+00
         -1   -1    0    0    0  501 -0.00000000000E+00  0.00000000000E+00  0.71029639169E+03  0.71029639169E+03  0.00000000000E+00 0.  1.
          1   -1    0    0  501    0  0.00000000000E+00 -0.00000000000E+00 -0.16535976965E+02  0.16535976965E+02  0.00000000000E+00 0. -1.
         23    2    1    2    0    0 -0.36880915127E+01  0.16972649797E+02  0.54048979343E+03  0.54866968246E+03  0.92776779384E+02 0.  0.
         23    2    1    2    0    0  0.36880915127E+01 -0.16972649797E+02  0.15327062130E+03  0.17816268619E+03  0.89153724198E+02 0.  0.
          5    1    3    3  502    0  0.43168877850E+02  0.14091229994E+02  0.21635491508E+03  0.22111909473E+03  0.47000000000E+01 0. -1.
         -5    1    4    4    0  503  0.14285245144E+02  0.32637952469E+02  0.38903475799E+02  0.52961066827E+02  0.47000000000E+01 0. -1.
          5    1    4    4  503    0 -0.10597153632E+02 -0.49610602266E+02  0.11436714550E+03  0.12520161937E+03  0.47000000000E+01 0.  1.
         -5    1    3    3    0  502 -0.46856969363E+02  0.28814198028E+01  0.32413487835E+03  0.32755058773E+03  0.47000000000E+01 0.  1.
<mgrwt>
<rscale>  0 0.93486030E+02</rscale>
<asrwt>0</asrwt>
<pdfrwt beam="1">  1        1 0.25439970E-02 0.94388578E+02</pdfrwt>
<pdfrwt beam="2">  1       -1 0.10927634E+00 0.94388578E+02</pdfrwt>
<totfact> 0.33230693E+03</totfact>
</mgrwt>
</event>
<event>
 8    1  0.8174053E-004  0.1028105E+03  0.7546771E-02  0.1276002E+00
          1   -1    0    0  501    0  0.00000000000E+00  0.00000000000E+00  0.41079068408E+02  0.41079068408E+02  0.00000000000E+00 0. -1.
         -1   -1    0    0    0  501 -0.00000000000E+00 -0.00000000000E+00 -0.25932039935E+03  0.25932039935E+03  0.00000000000E+00 0.  1.
         23    2    1    2    0    0 -0.42580210908E+02 -0.39973606975E+01 -0.82215377710E+02  0.13164105493E+03  0.93493025188E+02 0.  0.
         23    2    1    2    0    0  0.42580210908E+02  0.39973606975E+01 -0.13602595323E+03  0.16875841282E+03  0.90262332634E+02 0.  0.
          5    1    3    3  502    0  0.22884814483E+02 -0.18328683650E+02 -0.64599742049E+01  0.30388758530E+02  0.47000000000E+01 0. -1.
         -5    1    3    3    0  502 -0.65465025391E+02  0.14331322952E+02 -0.75755403505E+02  0.10125229640E+03  0.47000000000E+01 0.  1.
          5    1    4    4  503    0 -0.10178559421E+02  0.36191187196E+02 -0.50466715659E+02  0.63106136722E+02  0.47000000000E+01 0. -1.
         -5    1    4    4    0  503  0.52758770329E+02 -0.32193826499E+02 -0.85559237570E+02  0.10565227610E+03  0.47000000000E+01 0.  1.
<mgrwt>
<rscale>  0 0.10207033E+03</rscale>
<asrwt>0</asrwt>
<pdfrwt beam="1">  1        1 0.63198568E-02 0.10281050E+03</pdfrwt>
<pdfrwt beam="2">  1       -1 0.39895445E-01 0.10281050E+03</pdfrwt>
<totfact> 0.69087775E+03</totfact>
</mgrwt>
</event>
<event>
 8    1  0.8174053E-004  0.9421281E+02  0.7546771E-02  0.1293747E+00
         -3   -1    0    0    0  501 -0.00000000000E+00  0.00000000000E+00  0.24622879596E+03  0.24622879596E+03  0.00000000000E+00 0.  1.
          3   -1    0    0  501    0  0.00000000000E+00 -0.00000000000E+00 -0.36212210553E+02  0.36212210553E+02  0.00000000000E+00 0. -1.
         23    2    1    2    0    0  0.14308917259E+02 -0.71815200678E-01  0.12371638259E+03  0.15467646455E+03  0.91729575896E+02 0.  0.
         23    2    1    2    0    0 -0.14308917259E+02  0.71815200678E-01  0.86300202816E+02  0.12776454196E+03  0.93119830897E+02 0.  0.
          5    1    4    4  502    0  0.31742624005E+02  0.19080737153E+02  0.61426967573E+02  0.71882063509E+02  0.47000000000E+01 0. -1.
         -5    1    4    4    0  502 -0.46051541265E+02 -0.19008921953E+02  0.24873235243E+02  0.55882478454E+02  0.47000000000E+01 0.  1.
          5    1    3    3  503    0  0.18775282156E+02  0.43151854171E+02  0.48898679979E+02  0.68027675561E+02  0.47000000000E+01 0. -1.
         -5    1    3    3    0  503 -0.44663648969E+01 -0.43223669372E+02  0.74817702612E+02  0.86648788991E+02  0.47000000000E+01 0.  1.
<mgrwt>
<rscale>  0 0.93867442E+02</rscale>
<asrwt>0</asrwt>
<pdfrwt beam="1">  1        3 0.55711095E-02 0.94212808E+02</pdfrwt>
<pdfrwt beam="2">  1       -3 0.37881352E-01 0.94212808E+02</pdfrwt>
<totfact> 0.28165761E+03</totfact>
</mgrwt>
</event>
<event>
 8    1  0.8174053E-004  0.1123122E+03  0.7546771E-02  0.1256946E+00
         -2   -1    0    0    0  501 -0.00000000000E+00  0.00000000000E+00  0.19164874561E+03  0.19164874561E+03  0.00000000000E+00 0.  1.
          2   -1    0    0  501    0  0.00000000000E+00 -0.00000000000E+00 -0.90968975108E+02  0.90968975108E+02  0.00000000000E+00 0. -1.
         23    2    1    2    0    0  0.60006963510E+02  0.23323323135E+02 -0.25305432122E+02  0.11383886756E+03  0.90410783658E+02 0.  0.
         23    2    1    2    0    0 -0.60006963510E+02 -0.23323323135E+02  0.12598520262E+03  0.16877885315E+03  0.92028348456E+02 0.  0.
          5    1    4    4  502    0  0.94644096993E+01 -0.36791968380E+02  0.64068367465E+02  0.74632899567E+02  0.47000000000E+01 0. -1.
         -5    1    3    3    0  503 -0.16032977700E+02  0.28426103464E+02 -0.16814697513E+02  0.37012481469E+02  0.47000000000E+01 0.  1.
          5    1    3    3  503    0  0.76039941210E+02 -0.51027803288E+01 -0.84907346092E+01  0.76826386096E+02  0.47000000000E+01 0. -1.
         -5    1    4    4    0  502 -0.69471373210E+02  0.13468645245E+02  0.61916835157E+02  0.94145953584E+02  0.47000000000E+01 0.  1.
<mgrwt>
<rscale>  0 0.11198034E+03</rscale>
<asrwt>0</asrwt>
<pdfrwt beam="1">  1        2 0.13995227E-01 0.11231220E+03</pdfrwt>
<pdfrwt beam="2">  1       -2 0.29484422E-01 0.11231220E+03</pdfrwt>
<totfact> 0.42186897E+03</totfact>
</mgrwt>
</event>
<event>
 8    1  0.8174053E-004  0.9420584E+02  0.7546771E-02  0.1294068E+00
         -2   -1    0    0    0  501 -0.00000000000E+00  0.00000000000E+00  0.38269682139E+02  0.38269682139E+02  0.00000000000E+00 0.  1.
          2   -1    0    0  501    0  0.00000000000E+00 -0.00000000000E+00 -0.53994846911E+03  0.53994846911E+03  0.00000000000E+00 0. -1.
         23    2    1    2    0    0 -0.25267147167E+02  0.99387671046E+00 -0.47192332889E+03  0.48123421422E+03  0.90748686317E+02 0.  0.
         23    2    1    2    0    0  0.25267147167E+02 -0.99387671046E+00 -0.29755458082E+02  0.96983937031E+02  0.88775448405E+02 0.  0.
          5    1    4    4  502    0 -0.14520748080E+02 -0.25170056440E+02 -0.39424901699E+02  0.49201592861E+02  0.47000000000E+01 0. -1.
         -5    1    3    3    0  503  0.26922499111E+02 -0.20313127093E+02 -0.11785675166E+03  0.12267741439E+03  0.47000000000E+01 0.  1.
          5    1    3    3  503    0 -0.52189646277E+02  0.21307003803E+02 -0.35406657723E+03  0.35855679983E+03  0.47000000000E+01 0. -1.
         -5    1    4    4    0  502  0.39787895247E+02  0.24176179730E+02  0.96694436173E+01  0.47782344170E+02  0.47000000000E+01 0.  1.
<mgrwt>
<rscale>  0 0.93727383E+02</rscale>
<asrwt>0</asrwt>
<pdfrwt beam="1">  1        2 0.83068998E-01 0.94205842E+02</pdfrwt>
<pdfrwt beam="2">  1       -2 0.58876432E-02 0.94205842E+02</pdfrwt>
<totfact> 0.81094947E+03</totfact>
</mgrwt>
</event>
<event>
 8    1  0.8174053E-004  0.9864535E+02  0.7546771E-02  0.1283457E+00
         -1   -1    0    0    0  501 -0.00000000000E+00  0.00000000000E+00  0.12440106349E+03  0.12440106349E+03  0.00000000000E+00 0.  1.
          1   -1    0    0  501    0  0.00000000000E+00 -0.00000000000E+00 -0.11310327209E+03  0.11310327209E+03  0.00000000000E+00 0. -1.
         23    2    1    2    0    0  0.20169367654E+02 -0.27624845676E+02 -0.60707827977E+02  0.11537442418E+03  0.91955869234E+02 0.  0.
         23    2    1    2    0    0 -0.20169367654E+02  0.27624845676E+02  0.72005619383E+02  0.12212991140E+03  0.92525512942E+02 0.  0.
          5    1    3    3  502    0 -0.20897720092E+02  0.14916830983E+02  0.52959217741E+01  0.26633875780E+02  0.47000000000E+01 0. -1.
         -5    1    3    3    0  502  0.41067087746E+02 -0.42541676659E+02 -0.66003749752E+02  0.88740548399E+02  0.47000000000E+01 0.  1.
          5    1    4    4  503    0  0.12363191246E+02  0.22962586758E+02 -0.13977652152E+02  0.29959867291E+02  0.47000000000E+01 0. -1.
         -5    1    4    4    0  503 -0.32532558900E+02  0.46622589174E+01  0.85983271535E+02  0.92170044107E+02  0.47000000000E+01 0.  1.
<mgrwt>
<rscale>  0 0.98511557E+02</rscale>
<asrwt>0</asrwt>
<pdfrwt beam="1">  1        1 0.17400503E-01 0.98645355E+02</pdfrwt>
<pdfrwt beam="2">  1       -1 0.19138625E-01 0.98645355E+02</pdfrwt>
<totfact> 0.61595474E+03</totfact>
</mgrwt>
</event>
<event>
 8    1  0.8174053E-004  0.1845903E+03  0.7546771E-02  0.1163542E+00
         -2   -1    0    0    0  501 -0.00000000000E+00  0.00000000000E+00  0.30010971920E+02  0.30010971920E+02  0.00000000000E+00 0.  1.
          2   -1    0    0  501    0  0.00000000000E+00 -0.00000000000E+00 -0.12086755290E+04  0.12086755290E+04  0.00000000000E+00 0. -1.
         23    2    1    2    0    0 -0.11682639933E+03  0.10976113707E+03 -0.74548188054E+03  0.76799531715E+03  0.91529548033E+02 0.  0.
         23    2    1    2    0    0  0.11682639933E+03 -0.10976113707E+03 -0.43318267657E+03  0.47069118380E+03  0.90592739414E+02 0.  0.
          5    1    3    3  502    0 -0.31937223806E+02  0.17919495180E+02 -0.54873163710E+02  0.66138102993E+02  0.47000000000E+01 0.  1.
         -5    1    3    3    0  502 -0.84889175521E+02  0.91841641889E+02 -0.69060871683E+03  0.70185721416E+03  0.47000000000E+01 0. -1.
          5    1    4    4  503    0 -0.21110437136E+01 -0.41960002359E+02 -0.62032804056E+02  0.75068349406E+02  0.47000000000E+01 0. -1.
         -5    1    4    4    0  503  0.11893744304E+03 -0.67801134710E+02 -0.37114987251E+03  0.39562283439E+03  0.47000000000E+01 0.  1.
<mgrwt>
<rscale>  0 0.18447449E+03</rscale>
<asrwt>0</asrwt>
<pdfrwt beam="1">  1        2 0.18595004E+00 0.18459028E+03</pdfrwt>
<pdfrwt beam="2">  1       -2 0.46170736E-02 0.18459028E+03</pdfrwt>
<totfact> 0.43286971E+03</totfact>
</mgrwt>
</event>
<event>
 8    1  0.8174053E-004  0.1238208E+03  0.7546771E-02  0.1239020E+00
          3   -1    0    0  501    0  0.00000000000E+00  0.00000000000E+00  0.14961874527E+03  0.14961874527E+03  0.00000000000E+00 0. -1.
         -3   -1    0    0    0  501 -0.00000000000E+00 -0.00000000000E+00 -0.17320351680E+03  0.17320351680E+03  0.00000000000E+00 0.  1.
         23    2    1    2    0    0 -0.28059418072E+02 -0.80062865731E+02  0.94532930183E+02  0.15169840211E+03  0.82936945332E+02 0.  0.
         23    2    1    2    0    0  0.28059418072E+02  0.80062865731E+02 -0.11811770172E+03  0.17112385996E+03  0.90189747632E+02 0.  0.
          5    1    3    3  502    0 -0.52458353502E+02 -0.47921383286E+02  0.34280223979E+02  0.79028865512E+02  0.47000000000E+01 0. -1.
         -5    1    3    3    0  502  0.24398935430E+02 -0.32141482445E+02  0.60252706204E+02  0.72669536594E+02  0.47000000000E+01 0.  1.
          5    1    4    4  503    0  0.41795815602E+02  0.51138626541E+02 -0.12171685635E+03  0.13856093405E+03  0.47000000000E+01 0.  1.
         -5    1    4    4    0  503 -0.13736397530E+02  0.28924239189E+02  0.35991546297E+01  0.32562925910E+02  0.47000000000E+01 0. -1.
<mgrwt>
<rscale>  0 0.12250527E+03</rscale>
<asrwt>0</asrwt>
<pdfrwt beam="1">  1        3 0.23018269E-01 0.12382077E+03</pdfrwt>
<pdfrwt beam="2">  1       -3 0.26646695E-01 0.12382077E+03</pdfrwt>
<totfact> 0.53349795E+02</totfact>
</mgrwt>
</event>
<event>
 8    1  0.8174053E-004  0.1088209E+03  0.7546771E-02  0.1264291E+00
         -3   -1    0    0    0  501 -0.00000000000E+00  0.00000000000E+00  0.18385527336E+02  0.18385527336E+02  0.00000000000E+00 0.  1.
          3   -1    0    0  501    0  0.00000000000E+00 -0.00000000000E+00 -0.64488381815E+03  0.64488381815E+03  0.00000000000E+00 0. -1.
         23    2    1    2    0    0  0.39585342253E+02  0.34630608456E+02 -0.37547709550E+03  0.39092843512E+03  0.95266540690E+02 0.  0.
         23    2    1    2    0    0 -0.39585342253E+02 -0.34630608456E+02 -0.25102119532E+03  0.27234091037E+03  0.91605963782E+02 0.  0.
          5    1    4    4  502    0 -0.58777804837E+02 -0.65877081176E+01 -0.21309803990E+03  0.22120373606E+03  0.47000000000E+01 0. -1.
         -5    1    3    3    0  503  0.59405267809E+02  0.11592591759E+02 -0.12934991067E+03  0.14288759015E+03  0.47000000000E+01 0.  1.
          5    1    3    3  503    0 -0.19819925556E+02  0.23038016696E+02 -0.24612718483E+03  0.24804084497E+03  0.47000000000E+01 0. -1.
         -5    1    4    4    0  502  0.19192462583E+02 -0.28042900338E+02 -0.37923155418E+02  0.51137174308E+02  0.47000000000E+01 0.  1.
<mgrwt>
<rscale>  0 0.10801455E+03</rscale>
<asrwt>0</asrwt>
<pdfrwt beam="1">  1        3 0.99212895E-01 0.10882092E+03</pdfrwt>
<pdfrwt beam="2">  1       -3 0.28285427E-02 0.10882092E+03</pdfrwt>
<totfact> 0.11453330E+03</totfact>
</mgrwt>
</event>
<event>
 8    1  0.8174053E-004  0.1327928E+03  0.7546771E-02  0.1224469E+00
         -2   -1    0    0    0  501 -0.00000000000E+00  0.00000000000E+00  0.44019116680E+02  0.44019116680E+02  0.00000000000E+00 0.  1.
          2   -1    0    0  501    0  0.00000000000E+00 -0.00000000000E+00 -0.77169990770E+03  0.77169990770E+03  0.00000000000E+00 0. -1.
         23    2    1    2    0    0  0.57367595988E+02  0.77992865020E+02 -0.75478835619E+02  0.15013558592E+03  0.86427492561E+02 0.  0.
         23    2    1    2    0    0 -0.57367595988E+02 -0.77992865020E+02 -0.65220195540E+03  0.66558343846E+03  0.90884513843E+02 0.  0.
          5    1    4    4  502    0 -0.56133135187E+02 -0.90040939470E+01 -0.40091712164E+03  0.40495509751E+03  0.47000000000E+01 0. -1.
         -5    1    4    4    0  502 -0.12344608010E+01 -0.68988771073E+02 -0.25128483376E+03  0.26062834094E+03  0.47000000000E+01 0.  1.
          5    1    3    3  503    0  0.27895342558E+02 -0.14906624044E+02 -0.22565650172E+02  0.39136378786E+02  0.47000000000E+01 0. -1.
         -5    1    3    3    0  503  0.29472253430E+02  0.92899489064E+02 -0.52913185447E+02  0.11099920714E+03  0.47000000000E+01 0.  1.
<mgrwt>
<rscale>  0 0.13203387E+03</rscale>
<asrwt>0</asrwt>
<pdfrwt beam="1">  1        2 0.11872306E+00 0.13279278E+03</pdfrwt>
<pdfrwt beam="2">  1       -2 0.67721718E-02 0.13279278E+03</pdfrwt>
<totfact> 0.44312235E+03</totfact>
</mgrwt>
</event>
<event>
 8    1  0.8174053E-004  0.9439757E+02  0.7546771E-02  0.1293488E+00
          1   -1    0    0  501    0  0.00000000000E+00  0.00000000000E+00  0.64952779009E+02  0.64952779009E+02  0.00000000000E+00 0. -1.
         -1   -1    0    0    0  501 -0.00000000000E+00 -0.00000000000E+00 -0.21877162216E+03  0.21877162216E+03  0.00000000000E+00 0.  1.
         23    2    1    2    0    0 -0.16837407711E+02 -0.38006715823E+01 -0.16521907631E+03  0.19028464030E+03  0.92806022202E+02 0.  0.
         23    2    1    2    0    0  0.16837407711E+02  0.38006715823E+01  0.11400233159E+02  0.93439760862E+02  0.91121238967E+02 0.  0.
          5    1    3    3  502    0  0.23972625311E+02 -0.19991405776E+02 -0.17468912875E+02  0.36077638313E+02  0.47000000000E+01 0. -1.
         -5    1    3    3    0  502 -0.40810033022E+02  0.16190734194E+02 -0.14775016343E+03  0.15420700199E+03  0.47000000000E+01 0.  1.
          5    1    4    4  503    0 -0.32855019923E+02 -0.18429747308E+02  0.71807555138E+01  0.38636267544E+02  0.47000000000E+01 0. -1.
         -5    1    4    4    0  503  0.49692427634E+02  0.22230418891E+02  0.42194776455E+01  0.54803493318E+02  0.47000000000E+01 0.  1.
<mgrwt>
<rscale>  0 0.93980852E+02</rscale>
<asrwt>0</asrwt>
<pdfrwt beam="1">  1        1 0.99927353E-02 0.94397570E+02</pdfrwt>
<pdfrwt beam="2">  1       -1 0.33657172E-01 0.94397570E+02</pdfrwt>
<totfact> 0.49968492E+03</totfact>
</mgrwt>
</event>
<event>
 8    1  0.8174053E-004  0.1155470E+03  0.7546771E-02  0.1259879E+00
          3   -1    0    0  501    0  0.00000000000E+00  0.00000000000E+00  0.11571911842E+03  0.11571911842E+03  0.00000000000E+00 0. -1.
         -3   -1    0    0    0  501 -0.00000000000E+00 -0.00000000000E+00 -0.10306818122E+03  0.10306818122E+03  0.00000000000E+00 0.  1.
         23    2    1    2    0    0 -0.29693432953E+02  0.14469970509E+02  0.33591938029E+02  0.12033087628E+03  0.11072498128E+03 0.  0.
         23    2    1    2    0    0  0.29693432953E+02 -0.14469970509E+02 -0.20941000827E+02  0.98456423357E+02  0.90355197844E+02 0.  0.
          5    1    3    3  502    0  0.41244832446E+02  0.15849543694E+02  0.12364557278E+02  0.46122841581E+02  0.47000000000E+01 0. -1.
         -5    1    3    3    0  502 -0.70938265400E+02 -0.13795731854E+01  0.21227380752E+02  0.74208034697E+02  0.47000000000E+01 0.  1.
          5    1    4    4  503    0  0.17873206789E+02  0.22846111177E+02 -0.43905150730E+02  0.52831321935E+02  0.47000000000E+01 0. -1.
         -5    1    4    4    0  503  0.11820226164E+02 -0.37316081686E+02  0.22964149903E+02  0.45625101421E+02  0.47000000000E+01 0.  1.
<mgrwt>
<rscale>  0 0.11037400E+03</rscale>
<asrwt>0</asrwt>
<pdfrwt beam="1">  1        3 0.17802941E-01 0.11554697E+03</pdfrwt>
<pdfrwt beam="2">  1       -3 0.15856643E-01 0.11554697E+03</pdfrwt>
<totfact> 0.20682384E+03</totfact>
</mgrwt>
</event>
<event>
 8    1  0.8174053E-004  0.9179362E+02  0.7546771E-02  0.1298790E+00
          1   -1    0    0  501    0  0.00000000000E+00  0.00000000000E+00  0.37819357969E+02  0.37819357969E+02  0.00000000000E+00 0. -1.
         -1   -1    0    0    0  501 -0.00000000000E+00 -0.00000000000E+00 -0.23402775070E+03  0.23402775070E+03  0.00000000000E+00 0.  1.
         23    2    1    2    0    0  0.18459093274E+02 -0.15921585272E+02 -0.67324998330E+02  0.11383639312E+03  0.88497649670E+02 0.  0.
         23    2    1    2    0    0 -0.18459093274E+02  0.15921585272E+02 -0.12888339440E+03  0.15801071555E+03  0.88103472535E+02 0.  0.
          5    1    4    4  502    0 -0.32050326219E+02 -0.29420119255E+02 -0.65201010868E+02  0.78524064120E+02  0.47000000000E+01 0. -1.
         -5    1    4    4    0  502  0.13591232945E+02  0.45341704527E+02 -0.63682383534E+02  0.79486651426E+02  0.47000000000E+01 0.  1.
          5    1    3    3  503    0 -0.31410324656E+02 -0.85456244435E+01 -0.45730663018E+01  0.33206010413E+02  0.47000000000E+01 0. -1.
         -5    1    3    3    0  503  0.49869417930E+02 -0.73759608284E+01 -0.62751932028E+02  0.80630382711E+02  0.47000000000E+01 0.  1.
<mgrwt>
<rscale>  0 0.91698483E+02</rscale>
<asrwt>0</asrwt>
<pdfrwt beam="1">  1        1 0.58183628E-02 0.91793622E+02</pdfrwt>
<pdfrwt beam="2">  1       -1 0.36004269E-01 0.91793622E+02</pdfrwt>
<totfact> 0.91200046E+03</totfact>
</mgrwt>
</event>
<event>
 8    1  0.8174053E-004  0.9897896E+02  0.7546771E-02  0.1283541E+00
          2   -1    0    0  501    0  0.00000000000E+00  0.00000000000E+00  0.17458339996E+03  0.17458339996E+03  0.00000000000E+00 0. -1.
         -2   -1    0    0    0  501 -0.00000000000E+00 -0.00000000000E+00 -0.55952246777E+02  0.55952246777E+02  0.00000000000E+00 0.  1.
         23    2    1    2    0    0  0.58383657425E+01 -0.28873410717E+02  0.75091735331E+02  0.12424010349E+03  0.94493778839E+02 0.  0.
         23    2    1    2    0    0 -0.58383657425E+01  0.28873410717E+02  0.43539417856E+02  0.10629554325E+03  0.92386694101E+02 0.  0.
          5    1    4    4  502    0  0.33948231287E+02 -0.12360599974E+02  0.42922879759E+01  0.36684882109E+02  0.47000000000E+01 0. -1.
         -5    1    3    3    0  503 -0.30472630075E+02  0.15506048333E+02  0.72114581249E+01  0.35257819656E+02  0.47000000000E+01 0.  1.
          5    1    3    3  503    0  0.36310995817E+02 -0.44379459050E+02  0.67880277206E+02  0.88982283834E+02  0.47000000000E+01 0. -1.
         -5    1    4    4    0  502 -0.39786597030E+02  0.41234010691E+02  0.39247129880E+02  0.69610661143E+02  0.47000000000E+01 0.  1.
<mgrwt>
<rscale>  0 0.98472696E+02</rscale>
<asrwt>0</asrwt>
<pdfrwt beam="1">  1        2 0.26858984E-01 0.98978960E+02</pdfrwt>
<pdfrwt beam="2">  1       -2 0.86080380E-02 0.98978960E+02</pdfrwt>
<totfact> 0.15155747E+04</totfact>
</mgrwt>
</event>
<event>
 8    1  0.8174053E-004  0.9377720E+02  0.7546771E-02  0.1298415E+00
         -1   -1    0    0    0  501 -0.00000000000E+00  0.00000000000E+00  0.28290897850E+02  0.28290897850E+02  0.00000000000E+00 0.  1.
          1   -1    0    0  501    0  0.00000000000E+00 -0.00000000000E+00 -0.36661203029E+03  0.36661203029E+03  0.00000000000E+00 0. -1.
         23    2    1    2    0    0 -0.20944859938E+02 -0.92209828946E+01 -0.71541295313E+02  0.11212095391E+03  0.83242042790E+02 0.  0.
         23    2    1    2    0    0  0.20944859938E+02  0.92209828946E+01 -0.26677983713E+03  0.28278197423E+03  0.90942013211E+02 0.  0.
          5    1    3    3  502    0  0.99069801535E+01  0.28482477935E+02 -0.73386988938E+01  0.31390226290E+02  0.47000000000E+01 0. -1.
         -5    1    4    4    0  503 -0.17845507278E+02 -0.11152783325E+02 -0.12943484449E+02  0.25148966094E+02  0.47000000000E+01 0.  1.
          5    1    4    4  503    0  0.38790367216E+02  0.20373766220E+02 -0.25383635268E+03  0.25763300814E+03  0.47000000000E+01 0. -1.
         -5    1    3    3    0  502 -0.30851840091E+02 -0.37703460829E+02 -0.64202596419E+02  0.80730727623E+02  0.47000000000E+01 0.  1.
<mgrwt>
<rscale>  0 0.91857366E+02</rscale>
<asrwt>0</asrwt>
<pdfrwt beam="1">  1        1 0.56401847E-01 0.93777201E+02</pdfrwt>
<pdfrwt beam="2">  1       -1 0.43524461E-02 0.93777201E+02</pdfrwt>
<totfact> 0.13414705E+04</totfact>
</mgrwt>
</event>
<event>
 8    1  0.8174053E-004  0.9745214E+02  0.7546771E-02  0.1287352E+00
          1   -1    0    0  501    0  0.00000000000E+00  0.00000000000E+00  0.22811792260E+02  0.22811792260E+02  0.00000000000E+00 0. -1.
         -1   -1    0    0    0  501 -0.00000000000E+00 -0.00000000000E+00 -0.43508009288E+03  0.43508009288E+03  0.00000000000E+00 0.  1.
         23    2    1    2    0    0 -0.20249416573E+02  0.20836893058E+02 -0.14785541874E+03  0.17708230746E+03  0.93019910672E+02 0.  0.
         23    2    1    2    0    0  0.20249416573E+02 -0.20836893058E+02 -0.26441288189E+03  0.28080957768E+03  0.89975729103E+02 0.  0.
          5    1    3    3  502    0 -0.50624218207E+02  0.88525939606E+01 -0.43044100264E+02  0.67201670042E+02  0.47000000000E+01 0. -1.
         -5    1    4    4    0  503  0.40961193345E+02  0.24488974708E+01 -0.53668519399E+02  0.67721609798E+02  0.47000000000E+01 0.  1.
          5    1    4    4  503    0 -0.20711776772E+02 -0.23285790529E+02 -0.21074436249E+03  0.21308796789E+03  0.47000000000E+01 0. -1.
         -5    1    3    3    0  502  0.30374801635E+02  0.11984299097E+02 -0.10481131847E+03  0.10988063742E+03  0.47000000000E+01 0.  1.
<mgrwt>
<rscale>  0 0.96718551E+02</rscale>
<asrwt>0</asrwt>
<pdfrwt beam="1">  1        1 0.35095064E-02 0.97452136E+02</pdfrwt>
<pdfrwt beam="2">  1       -1 0.66935401E-01 0.97452136E+02</pdfrwt>
<totfact> 0.59321721E+03</totfact>
</mgrwt>
</event>
<event>
 8    1  0.8174053E-004  0.1131735E+03  0.7546771E-02  0.1256070E+00
         -2   -1    0    0    0  501 -0.00000000000E+00  0.00000000000E+00  0.69997010062E+02  0.69997010062E+02  0.00000000000E+00 0.  1.
          2   -1    0    0  501    0  0.00000000000E+00 -0.00000000000E+00 -0.17896413818E+03  0.17896413818E+03  0.00000000000E+00 0. -1.
         23    2    1    2    0    0  0.17475365631E+02  0.63995973030E+02 -0.48679691647E+02  0.12319883880E+03  0.91691703741E+02 0.  0.
         23    2    1    2    0    0 -0.17475365631E+02 -0.63995973030E+02 -0.60287436473E+02  0.12576230944E+03  0.88208335844E+02 0.  0.
          5    1    4    4  502    0  0.12160154230E+02 -0.56813614324E+02 -0.72108229412E+02  0.92721857576E+02  0.47000000000E+01 0. -1.
         -5    1    4    4    0  502 -0.29635519861E+02 -0.71823587064E+01  0.11820792939E+02  0.33040451869E+02  0.47000000000E+01 0.  1.
          5    1    3    3  503    0  0.35357932665E+02 -0.57125134723E+01  0.11514292992E+00  0.36123669116E+02  0.47000000000E+01 0. -1.
         -5    1    3    3    0  503 -0.17882567034E+02  0.69708486502E+02 -0.48794834577E+02  0.87075169684E+02  0.47000000000E+01 0.  1.
<mgrwt>
<rscale>  0 0.11246607E+03</rscale>
<asrwt>0</asrwt>
<pdfrwt beam="1">  1        2 0.27532944E-01 0.11317350E+03</pdfrwt>
<pdfrwt beam="2">  1       -2 0.10768771E-01 0.11317350E+03</pdfrwt>
<totfact> 0.10540262E+04</totfact>
</mgrwt>
</event>
<event>
 8    1  0.8174053E-004  0.1129066E+03  0.7546771E-02  0.1256958E+00
          1   -1    0    0  501    0  0.00000000000E+00  0.00000000000E+00  0.16321224681E+03  0.16321224681E+03  0.00000000000E+00 0. -1.
         -1   -1    0    0    0  501 -0.00000000000E+00 -0.00000000000E+00 -0.98830540762E+02  0.98830540762E+02  0.00000000000E+00 0.  1.
         23    2    1    2    0    0  0.61052060579E+02  0.83098745010E+01 -0.31765015115E+02  0.11374546267E+03  0.90180962390E+02 0.  0.
         23    2    1    2    0    0 -0.61052060579E+02 -0.83098745010E+01  0.96146721167E+02  0.14829732490E+03  0.94612348389E+02 0.  0.
          5    1    4    4  502    0 -0.55344689197E+02  0.30414606807E+02  0.87373852501E+02  0.10790904981E+03  0.47000000000E+01 0. -1.
         -5    1    3    3    0  503  0.19856788362E+02 -0.43990856106E+01 -0.58967610819E+02  0.62553282280E+02  0.47000000000E+01 0.  1.
          5    1    3    3  503    0  0.41195272217E+02  0.12708960112E+02  0.27202595704E+02  0.51192180391E+02  0.47000000000E+01 0. -1.
         -5    1    4    4    0  502 -0.57073713814E+01 -0.38724481308E+02  0.87728686659E+01  0.40388275097E+02  0.47000000000E+01 0.  1.
<mgrwt>
<rscale>  0 0.11197347E+03</rscale>
<asrwt>0</asrwt>
<pdfrwt beam="1">  1        1 0.25109576E-01 0.11290662E+03</pdfrwt>
<pdfrwt beam="2">  1       -1 0.15204699E-01 0.11290662E+03</pdfrwt>
<totfact> 0.56312398E+03</totfact>
</mgrwt>
</event>
<event>
 8    1  0.8174053E-004  0.1408450E+03  0.7546771E-02  0.1212905E+00
          1   -1    0    0  501    0  0.00000000000E+00  0.00000000000E+00  0.33906162223E+03  0.33906162223E+03  0.00000000000E+00 0. -1.
         -1   -1    0    0    0  501 -0.00000000000E+00 -0.00000000000E+00 -0.68635680643E+02  0.68635680643E+02  0.00000000000E+00 0.  1.
         23    2    1    2    0    0  0.92747667983E+02 -0.52213944992E+02  0.54460992983E+02  0.15100765746E+03  0.92243627891E+02 0.  0.
         23    2    1    2    0    0 -0.92747667983E+02  0.52213944992E+02  0.21596494860E+03  0.25668964541E+03  0.88996005920E+02 0.  0.
          5    1    3    3  502    0 -0.37522157449E+01 -0.33665673394E+02 -0.71375626864E+01  0.34935533331E+02  0.47000000000E+01 0. -1.
         -5    1    3    3    0  502  0.96499883728E+02 -0.18548271598E+02  0.61598555670E+02  0.11607212413E+03  0.47000000000E+01 0.  1.
          5    1    4    4  503    0 -0.85709436066E+02  0.13983823159E+00  0.13938151271E+03  0.16369307582E+03  0.47000000000E+01 0. -1.
         -5    1    4    4    0  503 -0.70382319172E+01  0.52074106760E+02  0.76583435892E+02  0.92996569595E+02  0.47000000000E+01 0.  1.
<mgrwt>
<rscale>  0 0.14031571E+03</rscale>
<asrwt>0</asrwt>
<pdfrwt beam="1">  1        1 0.52163326E-01 0.14084500E+03</pdfrwt>
<pdfrwt beam="2">  1       -1 0.10559336E-01 0.14084500E+03</pdfrwt>
<totfact> 0.40540158E+03</totfact>
</mgrwt>
</event>
<event>
 8    1  0.8174053E-004  0.9920280E+02  0.7546771E-02  0.1283170E+00
         -1   -1    0    0    0  501 -0.00000000000E+00  0.00000000000E+00  0.12068340383E+02  0.12068340383E+02  0.00000000000E+00 0.  1.
          1   -1    0    0  501    0  0.00000000000E+00 -0.00000000000E+00 -0.91319819924E+03  0.91319819924E+03  0.00000000000E+00 0. -1.
         23    2    1    2    0    0  0.48243347048E+01  0.33630678306E+02 -0.61973449771E+03  0.62762412504E+03  0.93203529758E+02 0.  0.
         23    2    1    2    0    0 -0.48243347048E+01 -0.33630678306E+02 -0.28139536115E+03  0.29764241458E+03  0.90848010168E+02 0.  0.
          5    1    3    3  502    0  0.35488591335E+02 -0.10196108910E+02 -0.13890301612E+03  0.14380381998E+03  0.47000000000E+01 0. -1.
         -5    1    3    3    0  502 -0.30664256630E+02  0.43826787216E+02 -0.48083148158E+03  0.48382030506E+03  0.47000000000E+01 0.  1.
          5    1    4    4  503    0 -0.29300099922E+02 -0.46098832671E+01 -0.23760995920E+03  0.23950016615E+03  0.47000000000E+01 0. -1.
         -5    1    4    4    0  503  0.24475765217E+02 -0.29020795039E+02 -0.43785401955E+02  0.58142248426E+02  0.47000000000E+01 0.  1.
<mgrwt>
<rscale>  0 0.98645692E+02</rscale>
<asrwt>0</asrwt>
<pdfrwt beam="1">  1        1 0.14049200E+00 0.99202796E+02</pdfrwt>
<pdfrwt beam="2">  1       -1 0.18566681E-02 0.99202796E+02</pdfrwt>
<totfact> 0.13350436E+04</totfact>
</mgrwt>
</event>
<event>
 8    1  0.8174053E-004  0.9752361E+02  0.7546771E-02  0.1285726E+00
         -3   -1    0    0    0  501 -0.00000000000E+00  0.00000000000E+00  0.25694461852E+02  0.25694461852E+02  0.00000000000E+00 0.  1.
          3   -1    0    0  501    0  0.00000000000E+00 -0.00000000000E+00 -0.44945492903E+03  0.44945492903E+03  0.00000000000E+00 0. -1.
         23    2    1    2    0    0 -0.25873087030E+02  0.20056938622E+02 -0.11171970007E+03  0.14829748797E+03  0.91864879778E+02 0.  0.
         23    2    1    2    0    0  0.25873087030E+02 -0.20056938622E+02 -0.31204076711E+03  0.32685190291E+03  0.91602558243E+02 0.  0.
          5    1    3    3  502    0  0.20185932083E+02  0.41491035820E+02 -0.49457914105E+02  0.67802309512E+02  0.47000000000E+01 0. -1.
         -5    1    4    4    0  503 -0.44691753954E+01 -0.19666585942E+02 -0.95462184216E+01  0.22802815999E+02  0.47000000000E+01 0.  1.
          5    1    4    4  503    0  0.30342262426E+02 -0.39035268051E+00 -0.30249454869E+03  0.30404908691E+03  0.47000000000E+01 0. -1.
         -5    1    3    3    0  502 -0.46059019113E+02 -0.21434097198E+02 -0.62261785963E+02  0.80495178462E+02  0.47000000000E+01 0.  1.
<mgrwt>
<rscale>  0 0.97461781E+02</rscale>
<asrwt>0</asrwt>
<pdfrwt beam="1">  1        3 0.69146907E-01 0.97523605E+02</pdfrwt>
<pdfrwt beam="2">  1       -3 0.39529944E-02 0.97523605E+02</pdfrwt>
<totfact> 0.14656304E+03</totfact>
</mgrwt>
</event>
<event>
 8    1  0.8174053E-004  0.1089141E+03  0.7546771E-02  0.1263155E+00
          1   -1    0    0  501    0  0.00000000000E+00  0.00000000000E+00  0.35357347588E+03  0.35357347588E+03  0.00000000000E+00 0. -1.
         -1   -1    0    0    0  501 -0.00000000000E+00 -0.00000000000E+00 -0.42089814585E+02  0.42089814585E+02  0.00000000000E+00 0.  1.
         23    2    1    2    0    0 -0.12373527136E+02 -0.56449024688E+02  0.64071304680E+02  0.12533912541E+03  0.90912967800E+02 0.  0.
         23    2    1    2    0    0  0.12373527136E+02  0.56449024688E+02  0.24741235662E+03  0.27032416505E+03  0.92318380851E+02 0.  0.
          5    1    3    3  502    0 -0.25202817019E+01 -0.77788895727E+02  0.29703094318E+02  0.83437569058E+02  0.47000000000E+01 0. -1.
         -5    1    4    4    0  503  0.37435158360E+02 -0.80420003930E+01  0.71642331727E+02  0.81368166669E+02  0.47000000000E+01 0.  1.
          5    1    4    4  503    0 -0.25061631224E+02  0.64491025081E+02  0.17577002489E+03  0.18895599838E+03  0.47000000000E+01 0. -1.
         -5    1    3    3    0  502 -0.98532454338E+01  0.21339871039E+02  0.34368210362E+02  0.41901556356E+02  0.47000000000E+01 0.  1.
<mgrwt>
<rscale>  0 0.10861570E+03</rscale>
<asrwt>0</asrwt>
<pdfrwt beam="1">  1        1 0.54395917E-01 0.10891409E+03</pdfrwt>
<pdfrwt beam="2">  1       -1 0.64753563E-02 0.10891409E+03</pdfrwt>
<totfact> 0.79183801E+03</totfact>
</mgrwt>
</event>
<event>
 8    1  0.8174053E-004  0.1301320E+03  0.7546771E-02  0.1227523E+00
         -1   -1    0    0    0  501 -0.00000000000E+00  0.00000000000E+00  0.36831044770E+02  0.36831044770E+02  0.00000000000E+00 0.  1.
          1   -1    0    0  501    0  0.00000000000E+00 -0.00000000000E+00 -0.46662627208E+03  0.46662627208E+03  0.00000000000E+00 0. -1.
         23    2    1    2    0    0 -0.59185731393E+02 -0.70954330176E+02 -0.25108430287E+03  0.28280321196E+03  0.91634391871E+02 0.  0.
         23    2    1    2    0    0  0.59185731393E+02  0.70954330176E+02 -0.17871092443E+03  0.22065410489E+03  0.90626550857E+02 0.  0.
          5    1    3    3  502    0 -0.70976737371E+02 -0.28199188100E+02 -0.20433442023E+03  0.21819151392E+03  0.47000000000E+01 0. -1.
         -5    1    3    3    0  502  0.11791005977E+02 -0.42755142076E+02 -0.46749882642E+02  0.64611698035E+02  0.47000000000E+01 0.  1.
          5    1    4    4  503    0  0.13768618918E+01  0.44713298451E+02 -0.19195926924E+02  0.48905504982E+02  0.47000000000E+01 0. -1.
         -5    1    4    4    0  503  0.57808869502E+02  0.26241031725E+02 -0.15951499751E+03  0.17174859990E+03  0.47000000000E+01 0.  1.
<mgrwt>
<rscale>  0 0.12995468E+03</rscale>
<asrwt>0</asrwt>
<pdfrwt beam="1">  1        1 0.71788651E-01 0.13013197E+03</pdfrwt>
<pdfrwt beam="2">  1       -1 0.56663151E-02 0.13013197E+03</pdfrwt>
<totfact> 0.68908925E+03</totfact>
</mgrwt>
</event>
<event>
 8    1  0.8174053E-004  0.1099412E+03  0.7546771E-02  0.1262767E+00
          1   -1    0    0  501    0  0.00000000000E+00  0.00000000000E+00  0.43329533125E+03  0.43329533125E+03  0.00000000000E+00 0. -1.
         -1   -1    0    0    0  501 -0.00000000000E+00 -0.00000000000E+00 -0.57684361327E+02  0.57684361327E+02  0.00000000000E+00 0.  1.
         23    2    1    2    0    0  0.64730284505E+02 -0.18272153711E+02  0.99452854830E+01  0.11039012027E+03  0.86966594826E+02 0.  0.
         23    2    1    2    0    0 -0.64730284505E+02  0.18272153711E+02  0.36566568444E+03  0.38058957232E+03  0.81321266854E+02 0.  0.
          5    1    3    3  502    0  0.36423195819E+02  0.29660419081E+02  0.23750181564E+02  0.52844590812E+02  0.47000000000E+01 0. -1.
         -5    1    3    3    0  502  0.28307088685E+02 -0.47932572792E+02 -0.13804896081E+02  0.57545529453E+02  0.47000000000E+01 0.  1.
          5    1    4    4  503    0 -0.39215400371E+02 -0.27006945941E+02  0.23628921210E+03  0.24108484920E+03  0.47000000000E+01 0. -1.
         -5    1    4    4    0  503 -0.25514884134E+02  0.45279099652E+02  0.12937647234E+03  0.13950472312E+03  0.47000000000E+01 0.  1.
<mgrwt>
<rscale>  0 0.10882196E+03</rscale>
<asrwt>0</asrwt>
<pdfrwt beam="1">  1        1 0.66660818E-01 0.10994121E+03</pdfrwt>
<pdfrwt beam="2">  1       -1 0.88745174E-02 0.10994121E+03</pdfrwt>
<totfact> 0.38347869E+03</totfact>
</mgrwt>
</event>
<event>
 8    1  0.8174053E-004  0.1562718E+03  0.7546771E-02  0.1193134E+00
         -1   -1    0    0    0  501 -0.00000000000E+00  0.00000000000E+00  0.79379825406E+02  0.79379825406E+02  0.00000000000E+00 0.  1.
          1   -1    0    0  501    0  0.00000000000E+00 -0.00000000000E+00 -0.39150103058E+03  0.39150103058E+03  0.00000000000E+00 0. -1.
         23    2    1    2    0    0 -0.42981280855E+02  0.11933939858E+03 -0.26595024879E+03  0.30846461518E+03  0.91277606383E+02 0.  0.
         23    2    1    2    0    0  0.42981280855E+02 -0.11933939858E+03 -0.46170956381E+02  0.16241624081E+03  0.90321622583E+02 0.  0.
          5    1    3    3  502    0  0.13297762502E+02  0.25116709065E+02 -0.10963198854E+02  0.30821442065E+02  0.47000000000E+01 0.  1.
         -5    1    3    3    0  502 -0.56279043357E+02  0.94222689518E+02 -0.25498704994E+03  0.27764317311E+03  0.47000000000E+01 0. -1.
          5    1    4    4  503    0 -0.12444460594E+02 -0.42212097957E+02 -0.50593872696E+02  0.67220203568E+02  0.47000000000E+01 0. -1.
         -5    1    4    4    0  503  0.55425741448E+02 -0.77127300627E+02  0.44229163142E+01  0.95196037238E+02  0.47000000000E+01 0.  1.
<mgrwt>
<rscale>  0 0.15613253E+03</rscale>
<asrwt>0</asrwt>
<pdfrwt beam="1">  1        1 0.60230927E-01 0.15627183E+03</pdfrwt>
<pdfrwt beam="2">  1       -1 0.12212281E-01 0.15627183E+03</pdfrwt>
<totfact> 0.27174457E+03</totfact>
</mgrwt>
</event>
<event>
 8    1  0.8174053E-004  0.1165171E+03  0.7546771E-02  0.1249519E+00
          3   -1    0    0  501    0  0.00000000000E+00  0.00000000000E+00  0.46225144313E+03  0.46225144313E+03  0.00000000000E+00 0. -1.
         -3   -1    0    0    0  501 -0.00000000000E+00 -0.00000000000E+00 -0.62014169938E+02  0.62014169938E+02  0.00000000000E+00 0.  1.
         23    2    1    2    0    0 -0.34918193439E+02 -0.61844077623E+02  0.39178480676E+03  0.40874389159E+03  0.92370254603E+02 0.  0.
         23    2    1    2    0    0  0.34918193439E+02  0.61844077623E+02  0.84524664385E+01  0.11552172148E+03  0.90718541519E+02 0.  0.
          5    1    4    4  502    0 -0.19654333303E+02  0.49651085269E+02 -0.13476135554E+02  0.55274038349E+02  0.47000000000E+01 0.  1.
         -5    1    4    4    0  502  0.54572526743E+02  0.12192992354E+02  0.21928601993E+02  0.60247683134E+02  0.47000000000E+01 0. -1.
          5    1    3    3  503    0 -0.35652782549E+02 -0.83813450163E+02  0.34481227010E+03  0.35666988511E+03  0.47000000000E+01 0. -1.
         -5    1    3    3    0  503  0.73458910996E+00  0.21969372540E+02  0.46972536659E+02  0.52074006483E+02  0.47000000000E+01 0.  1.
<mgrwt>
<rscale>  0 0.11618946E+03</rscale>
<asrwt>0</asrwt>
<pdfrwt beam="1">  1        3 0.71115604E-01 0.11651710E+03</pdfrwt>
<pdfrwt beam="2">  1       -3 0.95406418E-02 0.11651710E+03</pdfrwt>
<totfact> 0.34977435E+02</totfact>
</mgrwt>
</event>
<event>
 8    1  0.8174053E-004  0.1105926E+03  0.7546771E-02  0.1259671E+00
         -1   -1    0    0    0  501 -0.00000000000E+00  0.00000000000E+00  0.43045382251E+02  0.43045382251E+02  0.00000000000E+00 0.  1.
          1   -1    0    0  501    0  0.00000000000E+00 -0.00000000000E+00 -0.40853681834E+03  0.40853681834E+03  0.00000000000E+00 0. -1.
         23    2    1    2    0    0  0.24152108370E+02 -0.57873632699E+02 -0.30764070844E+03  0.32677258336E+03  0.90580539006E+02 0.  0.
         23    2    1    2    0    0 -0.24152108370E+02  0.57873632699E+02 -0.57850727645E+02  0.12480961723E+03  0.91093645019E+02 0.  0.
          5    1    3    3  502    0  0.50582235079E+02 -0.54756258093E+02 -0.27185215951E+03  0.28192640340E+03  0.47000000000E+01 0. -1.
         -5    1    3    3    0  502 -0.26430126709E+02 -0.31173746058E+01 -0.35788548934E+02  0.44846179961E+02  0.47000000000E+01 0.  1.
          5    1    4    4  503    0  0.41273468409E+01  0.34885356094E+02  0.18571012503E+02  0.40012442654E+02  0.47000000000E+01 0.  1.
         -5    1    4    4    0  503 -0.28279455211E+02  0.22988276605E+02 -0.76421740148E+02  0.84797174573E+02  0.47000000000E+01 0. -1.
<mgrwt>
<rscale>  0 0.11048693E+03</rscale>
<asrwt>0</asrwt>
<pdfrwt beam="1">  1        1 0.62851818E-01 0.11059265E+03</pdfrwt>
<pdfrwt beam="2">  1       -1 0.66223665E-02 0.11059265E+03</pdfrwt>
<totfact> 0.64036647E+03</totfact>
</mgrwt>
</event>
<event>
 8    1  0.8174053E-004  0.9959847E+02  0.7546771E-02  0.1281477E+00
         -2   -1    0    0    0  501 -0.00000000000E+00  0.00000000000E+00  0.20792615356E+03  0.20792615356E+03  0.00000000000E+00 0.  1.
          2   -1    0    0  501    0  0.00000000000E+00 -0.00000000000E+00 -0.47465726153E+02  0.47465726153E+02  0.00000000000E+00 0. -1.
         23    2    1    2    0    0  0.13669591771E+02 -0.37777069876E+02  0.84966123964E+02  0.13091637268E+03  0.91136653800E+02 0.  0.
         23    2    1    2    0    0 -0.13669591771E+02  0.37777069876E+02  0.75494303440E+02  0.12447550703E+03  0.90447759792E+02 0.  0.
          5    1    4    4  502    0  0.14124770384E+02  0.48231212828E+02  0.86916093642E+01  0.51219069716E+02  0.47000000000E+01 0. -1.
         -5    1    3    3    0  503 -0.76790347827E+01 -0.64144878439E+02  0.62107574803E+02  0.89738363329E+02  0.47000000000E+01 0.  1.
          5    1    3    3  503    0  0.21348626554E+02  0.26367808562E+02  0.22858549161E+02  0.41178009348E+02  0.47000000000E+01 0. -1.
         -5    1    4    4    0  502 -0.27794362155E+02 -0.10454142951E+02  0.66802694076E+02  0.73256437316E+02  0.47000000000E+01 0.  1.
<mgrwt>
<rscale>  0 0.99440597E+02</rscale>
<asrwt>0</asrwt>
<pdfrwt beam="1">  1        2 0.73024195E-02 0.99598466E+02</pdfrwt>
<pdfrwt beam="2">  1       -2 0.31988639E-01 0.99598466E+02</pdfrwt>
<totfact> 0.79578183E+03</totfact>
</mgrwt>
</event>
<event>
 8    1  0.8174053E-004  0.9732002E+02  0.7546771E-02  0.1286892E+00
          1   -1    0    0  501    0  0.00000000000E+00  0.00000000000E+00  0.10128165921E+04  0.10128165921E+04  0.00000000000E+00 0. -1.
         -1   -1    0    0    0  501 -0.00000000000E+00 -0.00000000000E+00 -0.11390810514E+02  0.11390810514E+02  0.00000000000E+00 0.  1.
         23    2    1    2    0    0 -0.11482286464E+02 -0.35287627062E+02  0.27297851058E+03  0.28928794218E+03  0.88279027657E+02 0.  0.
         23    2    1    2    0    0  0.11482286464E+02  0.35287627062E+02  0.72844727102E+03  0.73491946045E+03  0.89967367244E+02 0.  0.
          5    1    3    3  502    0  0.15973318064E+02 -0.24942413123E+02  0.23643692502E+02  0.38188808013E+02  0.47000000000E+01 0. -1.
         -5    1    3    3    0  502 -0.27455604527E+02 -0.10345213939E+02  0.24933481808E+03  0.25109913417E+03  0.47000000000E+01 0.  1.
          5    1    4    4  503    0 -0.23582010951E+02  0.49442594223E+02  0.53023477742E+03  0.53307756523E+03  0.47000000000E+01 0. -1.
         -5    1    4    4    0  503  0.35064297414E+02 -0.14154967162E+02  0.19821249360E+03  0.20184189522E+03  0.47000000000E+01 0.  1.
<mgrwt>
<rscale>  0 0.96928005E+02</rscale>
<asrwt>0</asrwt>
<pdfrwt beam="1">  1        1 0.15581787E+00 0.97320022E+02</pdfrwt>
<pdfrwt beam="2">  1       -1 0.17524332E-02 0.97320022E+02</pdfrwt>
<totfact> 0.12231592E+04</totfact>
</mgrwt>
</event>
<event>
 8    1  0.8174053E-004  0.9638320E+02  0.7546771E-02  0.1288951E+00
         -1   -1    0    0    0  501 -0.00000000000E+00  0.00000000000E+00  0.98945544066E+01  0.98945544066E+01  0.00000000000E+00 0.  1.
          1   -1    0    0  501    0  0.00000000000E+00 -0.00000000000E+00 -0.10156386023E+04  0.10156386023E+04  0.00000000000E+00 0. -1.
         23    2    1    2    0    0  0.17641177965E+02  0.25574035880E+02 -0.35245274143E+03  0.36539383697E+03  0.91238581111E+02 0.  0.
         23    2    1    2    0    0 -0.17641177965E+02 -0.25574035880E+02 -0.65329130642E+03  0.66013931969E+03  0.89605512607E+02 0.  0.
          5    1    4    4  502    0  0.36076273645E+02 -0.14318047156E+02 -0.31017851237E+03  0.31263285741E+03  0.47000000000E+01 0. -1.
         -5    1    4    4    0  502 -0.53717451610E+02 -0.11255988724E+02 -0.34311279404E+03  0.34750646228E+03  0.47000000000E+01 0.  1.
          5    1    3    3  503    0  0.28517637795E+02 -0.28206762905E+02 -0.17462293723E+03  0.17923207678E+03  0.47000000000E+01 0. -1.
         -5    1    3    3    0  503 -0.10876459830E+02  0.53780798785E+02 -0.17782980420E+03  0.18616176019E+03  0.47000000000E+01 0.  1.
<mgrwt>
<rscale>  0 0.95994748E+02</rscale>
<asrwt>0</asrwt>
<pdfrwt beam="1">  1        1 0.15625212E+00 0.96383200E+02</pdfrwt>
<pdfrwt beam="2">  1       -1 0.15222388E-02 0.96383200E+02</pdfrwt>
<totfact> 0.14867197E+04</totfact>
</mgrwt>
</event>
<event>
 8    1  0.8174053E-004  0.1001432E+03  0.7546771E-02  0.1280170E+00
          1   -1    0    0  501    0  0.00000000000E+00  0.00000000000E+00  0.19659551694E+03  0.19659551694E+03  0.00000000000E+00 0. -1.
         -1   -1    0    0    0  501 -0.00000000000E+00 -0.00000000000E+00 -0.53515769926E+02  0.53515769926E+02  0.00000000000E+00 0.  1.
         23    2    1    2    0    0 -0.35745359867E+01  0.41095378625E+02  0.43702399677E+02  0.10926370873E+03  0.91252675888E+02 0.  0.
         23    2    1    2    0    0  0.35745359867E+01 -0.41095378625E+02  0.99377347337E+02  0.14084757813E+03  0.90887709018E+02 0.  0.
          5    1    3    3  502    0 -0.41169908985E+02  0.40928464540E+02  0.41104149325E+02  0.71286336048E+02  0.47000000000E+01 0. -1.
         -5    1    3    3    0  502  0.37595372998E+02  0.16691408559E+00  0.25982503516E+01  0.37977372685E+02  0.47000000000E+01 0.  1.
          5    1    4    4  503    0 -0.31266418329E+02  0.59637414424E+01  0.96296927185E+01  0.33585355573E+02  0.47000000000E+01 0. -1.
         -5    1    4    4    0  503  0.34840954315E+02 -0.47059120068E+02  0.89747654619E+02  0.10726222256E+03  0.47000000000E+01 0.  1.
<mgrwt>
<rscale>  0 0.10005997E+03</rscale>
<asrwt>0</asrwt>
<pdfrwt beam="1">  1        1 0.30245464E-01 0.10014319E+03</pdfrwt>
<pdfrwt beam="2">  1       -1 0.82331955E-02 0.10014319E+03</pdfrwt>
<totfact> 0.11302942E+04</totfact>
</mgrwt>
</event>
<event>
 8    1  0.8174053E-004  0.1038099E+03  0.7546771E-02  0.1274564E+00
         -4   -1    0    0    0  501 -0.00000000000E+00  0.00000000000E+00  0.19443473368E+03  0.19443473368E+03  0.00000000000E+00 0.  1.
          4   -1    0    0  501    0  0.00000000000E+00 -0.00000000000E+00 -0.86964810895E+02  0.86964810895E+02  0.00000000000E+00 0. -1.
         23    2    1    2    0    0  0.31876291656E+02 -0.26293840031E+02  0.14064352650E+03  0.17241794579E+03  0.90773798496E+02 0.  0.
         23    2    1    2    0    0 -0.31876291656E+02  0.26293840031E+02 -0.33173603711E+02  0.10898159878E+03  0.95231491096E+02 0.  0.
          5    1    4    4  502    0 -0.61115374106E+02  0.42195091895E+01 -0.37202465976E+02  0.71826225605E+02  0.47000000000E+01 0. -1.
         -5    1    3    3    0  503  0.47181135201E+02 -0.42799131782E+02  0.13406042900E+03  0.14849954149E+03  0.47000000000E+01 0.  1.
          5    1    3    3  503    0 -0.15304843545E+02  0.16505291751E+02  0.65830974988E+01  0.23918404303E+02  0.47000000000E+01 0. -1.
         -5    1    4    4    0  502  0.29239082451E+02  0.22074330842E+02  0.40288622657E+01  0.37155373176E+02  0.47000000000E+01 0.  1.
<mgrwt>
<rscale>  0 0.10277620E+03</rscale>
<asrwt>0</asrwt>
<pdfrwt beam="1">  1        4 0.13379202E-01 0.10380993E+03</pdfrwt>
<pdfrwt beam="2">  1       -4 0.29913036E-01 0.10380993E+03</pdfrwt>
<totfact> 0.76784826E+02</totfact>
</mgrwt>
</event>
<event>
 8    1  0.8174053E-004  0.1118905E+03  0.7546771E-02  0.1260031E+00
         -1   -1    0    0    0  501 -0.00000000000E+00  0.00000000000E+00  0.57808548292E+03  0.57808548292E+03  0.00000000000E+00 0.  1.
          1   -1    0    0  501    0  0.00000000000E+00 -0.00000000000E+00 -0.40416173476E+02  0.40416173476E+02  0.00000000000E+00 0. -1.
         23    2    1    2    0    0  0.53100735032E+02 -0.46474270369E+01  0.48216680594E+03  0.49360161750E+03  0.91194525093E+02 0.  0.
         23    2    1    2    0    0 -0.53100735032E+02  0.46474270369E+01  0.55502503504E+02  0.12490003890E+03  0.98377869376E+02 0.  0.
          5    1    3    3  502    0  0.49280279636E+02  0.29950462179E+02  0.17240383807E+03  0.18185364865E+03  0.47000000000E+01 0. -1.
         -5    1    4    4    0  503  0.20492726130E+02  0.19828640494E+02 -0.36807701216E+01  0.29133569585E+02  0.47000000000E+01 0.  1.
          5    1    4    4  503    0 -0.73593461162E+02 -0.15181213457E+02  0.59183273626E+02  0.95766469314E+02  0.47000000000E+01 0. -1.
         -5    1    3    3    0  502  0.38204553959E+01 -0.34597889216E+02  0.30976296787E+03  0.31174796885E+03  0.47000000000E+01 0.  1.
<mgrwt>
<rscale>  0 0.11029149E+03</rscale>
<asrwt>0</asrwt>
<pdfrwt beam="1">  1        1 0.62178733E-02 0.11189053E+03</pdfrwt>
<pdfrwt beam="2">  1       -1 0.88936222E-01 0.11189053E+03</pdfrwt>
<totfact> 0.15521574E+03</totfact>
</mgrwt>
</event>
<event>
 8    1  0.8174053E-004  0.1180343E+03  0.7546771E-02  0.1249561E+00
         -1   -1    0    0    0  501 -0.00000000000E+00  0.00000000000E+00  0.58269203479E+03  0.58269203479E+03  0.00000000000E+00 0.  1.
          1   -1    0    0  501    0  0.00000000000E+00 -0.00000000000E+00 -0.39923884077E+02  0.39923884077E+02  0.00000000000E+00 0. -1.
         23    2    1    2    0    0 -0.73292195240E+02 -0.24115883116E+01  0.60640349614E+02  0.12624980857E+03  0.82971082436E+02 0.  0.
         23    2    1    2    0    0  0.73292195240E+02  0.24115883116E+01  0.48212780110E+03  0.49636611030E+03  0.92490741264E+02 0.  0.
          5    1    4    4  502    0  0.21188646208E+02 -0.32396506867E+02  0.76143359077E+02  0.85547609650E+02  0.47000000000E+01 0. -1.
         -5    1    4    4    0  502  0.52103549033E+02  0.34808095178E+02  0.40598444203E+03  0.41081850065E+03  0.47000000000E+01 0.  1.
          5    1    3    3  503    0 -0.27132270603E+02  0.26687218148E+02 -0.72460929619E+01  0.39025166031E+02  0.47000000000E+01 0. -1.
         -5    1    3    3    0  503 -0.46159924637E+02 -0.29098806460E+02  0.67886442576E+02  0.87224642536E+02  0.47000000000E+01 0.  1.
<mgrwt>
<rscale>  0 0.11616501E+03</rscale>
<asrwt>0</asrwt>
<pdfrwt beam="1">  1        1 0.61421364E-02 0.11803431E+03</pdfrwt>
<pdfrwt beam="2">  1       -1 0.89644922E-01 0.11803431E+03</pdfrwt>
<totfact> 0.15553616E+03</totfact>
</mgrwt>
</event>
<event>
 8    1  0.8174053E-004  0.1109130E+03  0.7546771E-02  0.1262707E+00
          2   -1    0    0  501    0  0.00000000000E+00  0.00000000000E+00  0.19662437967E+03  0.19662437967E+03  0.00000000000E+00 0. -1.
         -2   -1    0    0    0  501 -0.00000000000E+00 -0.00000000000E+00 -0.58220053232E+02  0.58220053232E+02  0.00000000000E+00 0.  1.
         23    2    1    2    0    0  0.27980502982E+02 -0.35421532918E+02  0.61561504246E+02  0.11991289017E+03  0.92475342025E+02 0.  0.
         23    2    1    2    0    0 -0.27980502982E+02  0.35421532918E+02  0.76842822196E+02  0.13493154273E+03  0.10131193592E+03 0.  0.
          5    1    3    3  502    0 -0.11872268540E+02 -0.54948628163E+02  0.22957455230E+02  0.60905149601E+02  0.47000000000E+01 0. -1.
         -5    1    4    4    0  503  0.26571451591E+02  0.39666425029E+01  0.65262723171E+02  0.70732519594E+02  0.47000000000E+01 0.  1.
          5    1    4    4  503    0 -0.54551954573E+02  0.31454890415E+02  0.11580099025E+02  0.64199023141E+02  0.47000000000E+01 0. -1.
         -5    1    3    3    0  502  0.39852771522E+02  0.19527095246E+02  0.38604049016E+02  0.59007740570E+02  0.47000000000E+01 0.  1.
<mgrwt>
<rscale>  0 0.10885422E+03</rscale>
<asrwt>0</asrwt>
<pdfrwt beam="1">  1        2 0.30249904E-01 0.11091304E+03</pdfrwt>
<pdfrwt beam="2">  1       -2 0.89569313E-02 0.11091304E+03</pdfrwt>
<totfact> 0.12673186E+04</totfact>
</mgrwt>
</event>
<event>
 8    1  0.8174053E-004  0.1109457E+03  0.7546771E-02  0.1258929E+00
         -2   -1    0    0    0  501 -0.00000000000E+00  0.00000000000E+00  0.10210113902E+03  0.10210113902E+03  0.00000000000E+00 0.  1.
          2   -1    0    0  501    0  0.00000000000E+00 -0.00000000000E+00 -0.16553072904E+03  0.16553072904E+03  0.00000000000E+00 0. -1.
         23    2    1    2    0    0 -0.64796755827E+02  0.14232446863E+02  0.38197402660E+02  0.11733706867E+03  0.88925609382E+02 0.  0.
         23    2    1    2    0    0  0.64796755827E+02 -0.14232446863E+02 -0.10162699268E+03  0.15029479938E+03  0.88652687330E+02 0.  0.
          5    1    4    4  502    0  0.39888931619E+02 -0.23604865323E+01 -0.11310111242E+03  0.12004436843E+03  0.47000000000E+01 0. -1.
         -5    1    3    3    0  503 -0.42437411358E+02 -0.35486117527E+02  0.12608345685E+02  0.56932054248E+02  0.47000000000E+01 0.  1.
          5    1    3    3  503    0 -0.22359344469E+02  0.49718564391E+02  0.25589056975E+02  0.60405014420E+02  0.47000000000E+01 0. -1.
         -5    1    4    4    0  502  0.24907824208E+02 -0.11871960331E+02  0.11474119738E+02  0.30250430949E+02  0.47000000000E+01 0.  1.
<mgrwt>
<rscale>  0 0.11089099E+03</rscale>
<asrwt>0</asrwt>
<pdfrwt beam="1">  1        2 0.25466266E-01 0.11094569E+03</pdfrwt>
<pdfrwt beam="2">  1       -2 0.15707868E-01 0.11094569E+03</pdfrwt>
<totfact> 0.62570556E+03</totfact>
</mgrwt>
</event>
<event>
 8    1  0.8174053E-004  0.9508878E+02  0.7546771E-02  0.1291405E+00
          1   -1    0    0  501    0  0.00000000000E+00  0.00000000000E+00  0.56127080330E+03  0.56127080330E+03  0.00000000000E+00 0. -1.
         -1   -1    0    0    0  501 -0.00000000000E+00 -0.00000000000E+00 -0.23242791870E+02  0.23242791870E+02  0.00000000000E+00 0.  1.
         23    2    1    2    0    0  0.23827373920E+01  0.23704726237E+02  0.10640050179E+03  0.14269878344E+03  0.92055877225E+02 0.  0.
         23    2    1    2    0    0 -0.23827373920E+01 -0.23704726237E+02  0.43162750964E+03  0.44181481172E+03  0.91271185479E+02 0.  0.
          5    1    3    3  502    0 -0.42831905089E+01 -0.30908930764E+02  0.12860987916E+02  0.34076424872E+02  0.47000000000E+01 0. -1.
         -5    1    4    4    0  503 -0.35985194567E+02 -0.23876559846E+02  0.10793636502E+03  0.11635021802E+03  0.47000000000E+01 0.  1.
          5    1    4    4  503    0  0.33602457175E+02  0.17183360833E+00  0.32369114461E+03  0.32546459370E+03  0.47000000000E+01 0. -1.
         -5    1    3    3    0  502  0.66659279009E+01  0.54613657001E+02  0.93539513875E+02  0.10862235857E+03  0.47000000000E+01 0.  1.
<mgrwt>
<rscale>  0 0.94898344E+02</rscale>
<asrwt>0</asrwt>
<pdfrwt beam="1">  1        1 0.86349344E-01 0.95088780E+02</pdfrwt>
<pdfrwt beam="2">  1       -1 0.35758145E-02 0.95088780E+02</pdfrwt>
<totfact> 0.10409444E+04</totfact>
</mgrwt>
</event>
<event>
 8    1  0.8174053E-004  0.9384889E+02  0.7546771E-02  0.1293872E+00
          2   -1    0    0  501    0  0.00000000000E+00  0.00000000000E+00  0.37060077935E+03  0.37060077935E+03  0.00000000000E+00 0. -1.
         -2   -1    0    0    0  501 -0.00000000000E+00 -0.00000000000E+00 -0.23743407394E+02  0.23743407394E+02  0.00000000000E+00 0.  1.
         23    2    1    2    0    0 -0.13132325724E+02  0.22820862963E+02  0.16853442126E+03  0.19283317124E+03  0.89930701192E+02 0.  0.
         23    2    1    2    0    0  0.13132325724E+02 -0.22820862963E+02  0.17832295069E+03  0.20151101550E+03  0.90079769414E+02 0.  0.
          5    1    4    4  502    0  0.23372118740E+01 -0.56775716514E+02  0.95487147823E+02  0.11121524151E+03  0.47000000000E+01 0. -1.
         -5    1    4    4    0  502  0.10795113850E+02  0.33954853551E+02  0.82835802871E+02  0.90295773988E+02  0.47000000000E+01 0.  1.
          5    1    3    3  503    0 -0.15516823768E+02 -0.28500815047E+02  0.11011817969E+03  0.11489635232E+03  0.47000000000E+01 0. -1.
         -5    1    3    3    0  503  0.23844980443E+01  0.51321678009E+02  0.58416241569E+02  0.77936818922E+02  0.47000000000E+01 0.  1.
<mgrwt>
<rscale>  0 0.93813104E+02</rscale>
<asrwt>0</asrwt>
<pdfrwt beam="1">  1        2 0.57015500E-01 0.93848892E+02</pdfrwt>
<pdfrwt beam="2">  1       -2 0.36528322E-02 0.93848892E+02</pdfrwt>
<totfact> 0.24585660E+04</totfact>
</mgrwt>
</event>
<event>
 8    1  0.8174053E-004  0.2960021E+03  0.7546771E-02  0.1087284E+00
         -2   -1    0    0    0  501 -0.00000000000E+00  0.00000000000E+00  0.10912198797E+03  0.10912198797E+03  0.00000000000E+00 0.  1.
          2   -1    0    0  501    0  0.00000000000E+00 -0.00000000000E+00 -0.12223712664E+04  0.12223712664E+04  0.00000000000E+00 0. -1.
         23    2    1    2    0    0 -0.21277060869E+03  0.18530499002E+03 -0.16624221549E+03  0.33930394570E+03  0.88777373849E+02 0.  0.
         23    2    1    2    0    0  0.21277060869E+03 -0.18530499002E+03 -0.94700706290E+03  0.99218930865E+03  0.89487293850E+02 0.  0.
          5    1    4    4  502    0  0.17074551361E+03 -0.17732420101E+03 -0.86774549108E+03  0.90199901884E+03  0.47000000000E+01 0. -1.
         -5    1    3    3    0  503 -0.16170527214E+03  0.12236021128E+03 -0.72772440745E+02  0.21549601963E+03  0.47000000000E+01 0.  1.
          5    1    3    3  503    0 -0.51065336550E+02  0.62944778733E+02 -0.93469774749E+02  0.12380792607E+03  0.47000000000E+01 0. -1.
         -5    1    4    4    0  502  0.42025095075E+02 -0.79807890027E+01 -0.79261571818E+02  0.90190289811E+02  0.47000000000E+01 0.  1.
<mgrwt>
<rscale>  0 0.29594863E+03</rscale>
<asrwt>0</asrwt>
<pdfrwt beam="1">  1        2 0.18805712E+00 0.29600211E+03</pdfrwt>
<pdfrwt beam="2">  1       -2 0.16787998E-01 0.29600211E+03</pdfrwt>
<totfact> 0.55099059E+02</totfact>
</mgrwt>
</event>
<event>
 8    1  0.8174053E-004  0.1070486E+03  0.7546771E-02  0.1268191E+00
          2   -1    0    0  501    0  0.00000000000E+00  0.00000000000E+00  0.23848296648E+03  0.23848296648E+03  0.00000000000E+00 0. -1.
         -2   -1    0    0    0  501 -0.00000000000E+00 -0.00000000000E+00 -0.64945834377E+02  0.64945834377E+02  0.00000000000E+00 0.  1.
         23    2    1    2    0    0 -0.45956800940E+02  0.30552702029E+02  0.16952243314E+03  0.20049252316E+03  0.91727320625E+02 0.  0.
         23    2    1    2    0    0  0.45956800940E+02 -0.30552702029E+02  0.40146989642E+01  0.10293627770E+03  0.86800140011E+02 0.  0.
          5    1    3    3  502    0 -0.73566976767E+02  0.20444227414E+02  0.11066710472E+03  0.13453387890E+03  0.47000000000E+01 0. -1.
         -5    1    4    4    0  503  0.71322098449E+02 -0.25333859311E+02 -0.23045983156E+01  0.75868618863E+02  0.47000000000E+01 0.  1.
          5    1    4    4  503    0 -0.25365297509E+02 -0.52188427187E+01  0.63192972797E+01  0.27067658842E+02  0.47000000000E+01 0. -1.
         -5    1    3    3    0  502  0.27610175827E+02  0.10108474615E+02  0.58855328420E+02  0.65958644253E+02  0.47000000000E+01 0.  1.
<mgrwt>
<rscale>  0 0.10598518E+03</rscale>
<asrwt>0</asrwt>
<pdfrwt beam="1">  1        2 0.36689687E-01 0.10704857E+03</pdfrwt>
<pdfrwt beam="2">  1       -2 0.99916669E-02 0.10704857E+03</pdfrwt>
<totfact> 0.86747253E+03</totfact>
</mgrwt>
</event>
<event>
 8    1  0.8174053E-004  0.9259037E+02  0.7546771E-02  0.1297714E+00
         -1   -1    0    0    0  501 -0.00000000000E+00  0.00000000000E+00  0.32540801098E+02  0.32540801098E+02  0.00000000000E+00 0.  1.
          1   -1    0    0  501    0  0.00000000000E+00 -0.00000000000E+00 -0.27124570780E+03  0.27124570780E+03  0.00000000000E+00 0. -1.
         23    2    1    2    0    0  0.15871447088E+02 -0.11065172972E+02 -0.15112320816E+03  0.17633640169E+03  0.88780412432E+02 0.  0.
         23    2    1    2    0    0 -0.15871447088E+02  0.11065172972E+02 -0.87581698544E+02  0.12745010721E+03  0.90546314237E+02 0.  0.
          5    1    4    4  502    0  0.15724551946E+01 -0.28764072151E+02 -0.77152189219E+02  0.82488755375E+02  0.47000000000E+01 0. -1.
         -5    1    3    3    0  503  0.50383539302E+02  0.77417576352E+01 -0.81327528460E+02  0.96097308647E+02  0.47000000000E+01 0.  1.
          5    1    3    3  503    0 -0.34512092214E+02 -0.18806930607E+02 -0.69795679699E+02  0.80239093044E+02  0.47000000000E+01 0. -1.
         -5    1    4    4    0  502 -0.17443902282E+02  0.39829245123E+02 -0.10429509325E+02  0.44961351833E+02  0.47000000000E+01 0.  1.
<mgrwt>
<rscale>  0 0.92155774E+02</rscale>
<asrwt>0</asrwt>
<pdfrwt beam="1">  1        1 0.41730108E-01 0.92590366E+02</pdfrwt>
<pdfrwt beam="2">  1       -1 0.50062772E-02 0.92590366E+02</pdfrwt>
<totfact> 0.15798249E+04</totfact>
</mgrwt>
</event>
<event>
 8    1  0.8174053E-004  0.1336409E+03  0.7546771E-02  0.1222219E+00
         -1   -1    0    0    0  501 -0.00000000000E+00  0.00000000000E+00  0.12461897653E+03  0.12461897653E+03  0.00000000000E+00 0.  1.
          1   -1    0    0  501    0  0.00000000000E+00 -0.00000000000E+00 -0.15825583310E+03  0.15825583310E+03  0.00000000000E+00 0. -1.
         23    2    1    2    0    0 -0.21512469392E+02  0.95539625018E+02 -0.60581587361E+02  0.14673115602E+03  0.90935675799E+02 0.  0.
         23    2    1    2    0    0  0.21512469392E+02 -0.95539625018E+02  0.26944730798E+02  0.13614365361E+03  0.90655775391E+02 0.  0.
          5    1    4    4  502    0  0.38213736955E+02 -0.98259301313E+01 -0.10365086769E+02  0.41065357891E+02  0.47000000000E+01 0. -1.
         -5    1    4    4    0  502 -0.16701267563E+02 -0.85713694886E+02  0.37309817567E+02  0.95078295715E+02  0.47000000000E+01 0.  1.
          5    1    3    3  503    0  0.14939567578E+01  0.10726398489E+03 -0.49628111369E+02  0.11829130907E+03  0.47000000000E+01 0. -1.
         -5    1    3    3    0  503 -0.23006426150E+02 -0.11724359877E+02 -0.10953475992E+02  0.28439846959E+02  0.47000000000E+01 0.  1.
<mgrwt>
<rscale>  0 0.13359335E+03</rscale>
<asrwt>0</asrwt>
<pdfrwt beam="1">  1        1 0.24347051E-01 0.13364095E+03</pdfrwt>
<pdfrwt beam="2">  1       -1 0.19172150E-01 0.13364095E+03</pdfrwt>
<totfact> 0.41017945E+03</totfact>
</mgrwt>
</event>
<event>
 8    1  0.8174053E-004  0.1082845E+03  0.7546771E-02  0.1264611E+00
         -1   -1    0    0    0  501 -0.00000000000E+00  0.00000000000E+00  0.25761764362E+02  0.25761764362E+02  0.00000000000E+00 0.  1.
          1   -1    0    0  501    0  0.00000000000E+00 -0.00000000000E+00 -0.46044127595E+03  0.46044127595E+03  0.00000000000E+00 0. -1.
         23    2    1    2    0    0  0.77329846792E+01  0.55367663106E+02 -0.25924655501E+03  0.28095250056E+03  0.92737015895E+02 0.  0.
         23    2    1    2    0    0 -0.77329846792E+01 -0.55367663106E+02 -0.17543295657E+03  0.20525053975E+03  0.90695560223E+02 0.  0.
          5    1    4    4  502    0 -0.19664073696E+02  0.20964779257E+02 -0.46497390872E+02  0.54866156431E+02  0.47000000000E+01 0. -1.
         -5    1    4    4    0  502  0.11931089017E+02 -0.76332442364E+02 -0.12893556570E+03  0.15038438332E+03  0.47000000000E+01 0.  1.
          5    1    3    3  503    0 -0.17809906840E+02  0.70666243706E+02 -0.21770856422E+03  0.22963018033E+03  0.47000000000E+01 0. -1.
         -5    1    3    3    0  503  0.25542891520E+02 -0.15298580600E+02 -0.41537990788E+02  0.51322320235E+02  0.47000000000E+01 0.  1.
<mgrwt>
<rscale>  0 0.10784605E+03</rscale>
<asrwt>0</asrwt>
<pdfrwt beam="1">  1        1 0.70837114E-01 0.10828449E+03</pdfrwt>
<pdfrwt beam="2">  1       -1 0.39633487E-02 0.10828449E+03</pdfrwt>
<totfact> 0.11705631E+04</totfact>
</mgrwt>
</event>
<event>
 8    1  0.8174053E-004  0.1075763E+03  0.7546771E-02  0.1267281E+00
          1   -1    0    0  501    0  0.00000000000E+00  0.00000000000E+00  0.64972324915E+02  0.64972324915E+02  0.00000000000E+00 0. -1.
         -1   -1    0    0    0  501 -0.00000000000E+00 -0.00000000000E+00 -0.19910918106E+03  0.19910918106E+03  0.00000000000E+00 0.  1.
         23    2    1    2    0    0  0.79716847188E+01  0.56468368517E+02 -0.11557410329E+03  0.15491545323E+03  0.85960455430E+02 0.  0.
         23    2    1    2    0    0 -0.79716847188E+01 -0.56468368517E+02 -0.18562752863E+02  0.10916605275E+03  0.91216373966E+02 0.  0.
          5    1    3    3  502    0  0.41271145923E+02  0.12224638948E+02 -0.29263415243E+02  0.52260757313E+02  0.47000000000E+01 0. -1.
         -5    1    4    4    0  503  0.26035931031E+02  0.13147757798E+02 -0.88134938907E+00  0.29556725403E+02  0.47000000000E+01 0.  1.
          5    1    4    4  503    0 -0.34007615750E+02 -0.69616126316E+02 -0.17681403474E+02  0.79609327350E+02  0.47000000000E+01 0. -1.
         -5    1    3    3    0  502 -0.33299461204E+02  0.44243729569E+02 -0.86310688043E+02  0.10265469591E+03  0.47000000000E+01 0.  1.
<mgrwt>
<rscale>  0 0.10645408E+03</rscale>
<asrwt>0</asrwt>
<pdfrwt beam="1">  1        1 0.99957424E-02 0.10757626E+03</pdfrwt>
<pdfrwt beam="2">  1       -1 0.30632181E-01 0.10757626E+03</pdfrwt>
<totfact> 0.59107851E+03</totfact>
</mgrwt>
</event>
<event>
 8    1  0.8174053E-004  0.1060345E+03  0.7546771E-02  0.1269534E+00
          2   -1    0    0  501    0  0.00000000000E+00  0.00000000000E+00  0.39871553884E+03  0.39871553884E+03  0.00000000000E+00 0. -1.
         -2   -1    0    0    0  501 -0.00000000000E+00 -0.00000000000E+00 -0.27762819765E+02  0.27762819765E+02  0.00000000000E+00 0.  1.
         23    2    1    2    0    0  0.32564205003E+02 -0.32205700474E+02  0.21141997849E+03  0.23652001818E+03  0.95633033530E+02 0.  0.
         23    2    1    2    0    0 -0.32564205003E+02  0.32205700474E+02  0.15953274058E+03  0.18995834043E+03  0.92389616246E+02 0.  0.
          5    1    4    4  502    0 -0.30742450475E+02 -0.15906317489E+02  0.12686395619E+03  0.13158519133E+03  0.47000000000E+01 0. -1.
         -5    1    3    3    0  503  0.49055360723E+02  0.10195070898E+02  0.15987833802E+03  0.16761127902E+03  0.47000000000E+01 0.  1.
          5    1    3    3  503    0 -0.16491155720E+02 -0.42400771372E+02  0.51541640478E+02  0.68908739163E+02  0.47000000000E+01 0. -1.
         -5    1    4    4    0  502 -0.18217545279E+01  0.48112017963E+02  0.32668784395E+02  0.58373149100E+02  0.47000000000E+01 0.  1.
<mgrwt>
<rscale>  0 0.10529791E+03</rscale>
<asrwt>0</asrwt>
<pdfrwt beam="1">  1        2 0.61340848E-01 0.10603448E+03</pdfrwt>
<pdfrwt beam="2">  1       -2 0.42712033E-02 0.10603448E+03</pdfrwt>
<totfact> 0.18302328E+04</totfact>
</mgrwt>
</event>
<event>
 8    1  0.8174053E-004  0.1011089E+03  0.7546771E-02  0.1279458E+00
          2   -1    0    0  501    0  0.00000000000E+00  0.00000000000E+00  0.19747358769E+03  0.19747358769E+03  0.00000000000E+00 0. -1.
         -2   -1    0    0    0  501 -0.00000000000E+00 -0.00000000000E+00 -0.58066302721E+02  0.58066302721E+02  0.00000000000E+00 0.  1.
         23    2    1    2    0    0 -0.41582038293E+02 -0.93318511479E+01  0.23954520557E+02  0.10390783287E+03  0.91688981461E+02 0.  0.
         23    2    1    2    0    0  0.41582038293E+02  0.93318511479E+01  0.11545276441E+03  0.15163205755E+03  0.88582112812E+02 0.  0.
          5    1    4    4  502    0  0.55647057948E+02  0.34765415991E+02  0.60912981059E+02  0.89653279186E+02  0.47000000000E+01 0. -1.
         -5    1    4    4    0  502 -0.14065019655E+02 -0.25433564844E+02  0.54539783356E+02  0.61978778360E+02  0.47000000000E+01 0.  1.
          5    1    3    3  503    0  0.25444763560E+02 -0.13335672930E+01 -0.10522751758E+02  0.27964847558E+02  0.47000000000E+01 0. -1.
         -5    1    3    3    0  503 -0.67026801853E+02 -0.79982838549E+01  0.34477272316E+02  0.75942985309E+02  0.47000000000E+01 0.  1.
<mgrwt>
<rscale>  0 0.10039934E+03</rscale>
<asrwt>0</asrwt>
<pdfrwt beam="1">  1        2 0.30380552E-01 0.10110894E+03</pdfrwt>
<pdfrwt beam="2">  1       -2 0.89332774E-02 0.10110894E+03</pdfrwt>
<totfact> 0.12559302E+04</totfact>
</mgrwt>
</event>
<event>
 8    1  0.8174053E-004  0.1118546E+03  0.7546771E-02  0.1260769E+00
         -1   -1    0    0    0  501 -0.00000000000E+00  0.00000000000E+00  0.10831817336E+03  0.10831817336E+03  0.00000000000E+00 0.  1.
          1   -1    0    0  501    0  0.00000000000E+00 -0.00000000000E+00 -0.14918749830E+03  0.14918749830E+03  0.00000000000E+00 0. -1.
         23    2    1    2    0    0  0.27748193594E+02  0.56788890174E+02 -0.88783780422E+02  0.14280759584E+03  0.92284936310E+02 0.  0.
         23    2    1    2    0    0 -0.27748193594E+02 -0.56788890174E+02  0.47914455474E+02  0.11469807582E+03  0.82854772089E+02 0.  0.
          5    1    4    4  502    0 -0.19524602553E+02  0.18001063833E+02  0.22561016541E+02  0.35161596541E+02  0.47000000000E+01 0. -1.
         -5    1    3    3    0  503 -0.18696558614E+02 -0.13943535775E+02 -0.64516672940E+01  0.24651521348E+02  0.47000000000E+01 0.  1.
          5    1    3    3  503    0  0.46444752208E+02  0.70732425948E+02 -0.82332113128E+02  0.11815607450E+03  0.47000000000E+01 0. -1.
         -5    1    4    4    0  502 -0.82235910411E+01 -0.74789954007E+02  0.25353438934E+02  0.79536479276E+02  0.47000000000E+01 0.  1.
<mgrwt>
<rscale>  0 0.10989258E+03</rscale>
<asrwt>0</asrwt>
<pdfrwt beam="1">  1        1 0.22951923E-01 0.11185459E+03</pdfrwt>
<pdfrwt beam="2">  1       -1 0.16664334E-01 0.11185459E+03</pdfrwt>
<totfact> 0.54546952E+03</totfact>
</mgrwt>
</event>
<event>
 8    1  0.8174053E-004  0.1179837E+03  0.7546771E-02  0.1248731E+00
          1   -1    0    0  501    0  0.00000000000E+00  0.00000000000E+00  0.73184642916E+02  0.73184642916E+02  0.00000000000E+00 0. -1.
         -1   -1    0    0    0  501 -0.00000000000E+00 -0.00000000000E+00 -0.28412475760E+03  0.28412475760E+03  0.00000000000E+00 0.  1.
         23    2    1    2    0    0  0.64274388247E+02  0.77560791964E+01 -0.21418536160E+03  0.24453124681E+03  0.98634719005E+02 0.  0.
         23    2    1    2    0    0 -0.64274388247E+02 -0.77560791964E+01  0.32452469104E+01  0.11277815371E+03  0.92287737963E+02 0.  0.
          5    1    4    4  502    0  0.20924316774E+02  0.66286105586E+01 -0.11138878385E+02  0.25058533917E+02  0.47000000000E+01 0. -1.
         -5    1    3    3    0  503  0.41800523574E+02  0.46087263524E+02 -0.17244346278E+03  0.18338527063E+03  0.47000000000E+01 0.  1.
          5    1    3    3  503    0  0.22473864673E+02 -0.38331184328E+02 -0.41741898823E+02  0.61145976177E+02  0.47000000000E+01 0. -1.
         -5    1    4    4    0  502 -0.85198705021E+02 -0.14384689755E+02  0.14384125296E+02  0.87719619796E+02  0.47000000000E+01 0.  1.
<mgrwt>
<rscale>  0 0.11664816E+03</rscale>
<asrwt>0</asrwt>
<pdfrwt beam="1">  1        1 0.11259176E-01 0.11798373E+03</pdfrwt>
<pdfrwt beam="2">  1       -1 0.43711501E-01 0.11798373E+03</pdfrwt>
<totfact> 0.27577964E+03</totfact>
</mgrwt>
</event>
<event>
 8    1  0.8174053E-004  0.2296010E+03  0.7546771E-02  0.1127030E+00
          1   -1    0    0  501    0  0.00000000000E+00  0.00000000000E+00  0.12174564640E+03  0.12174564640E+03  0.00000000000E+00 0. -1.
         -1   -1    0    0    0  501 -0.00000000000E+00 -0.00000000000E+00 -0.54654244146E+03  0.54654244146E+03  0.00000000000E+00 0.  1.
         23    2    1    2    0    0 -0.20318227608E+03 -0.54468656716E+02 -0.59547371047E+02  0.23719717629E+03  0.92014885561E+02 0.  0.
         23    2    1    2    0    0  0.20318227608E+03  0.54468656716E+02 -0.36524942401E+03  0.43109091158E+03  0.90456400713E+02 0.  0.
          5    1    3    3  502    0 -0.17167923411E+02 -0.37925396951E+02 -0.19186544284E+02  0.46079136382E+02  0.47000000000E+01 0. -1.
         -5    1    4    4    0  503  0.11310942513E+03  0.14045362572E+02 -0.27306296012E+03  0.29593324324E+03  0.47000000000E+01 0.  1.
          5    1    4    4  503    0  0.90072850945E+02  0.40423294145E+02 -0.92186463889E+02  0.13515766834E+03  0.47000000000E+01 0. -1.
         -5    1    3    3    0  502 -0.18601435266E+03 -0.16543259766E+02 -0.40360826763E+02  0.19111803991E+03  0.47000000000E+01 0.  1.
<mgrwt>
<rscale>  0 0.22944579E+03</rscale>
<asrwt>0</asrwt>
<pdfrwt beam="1">  1        1 0.18730099E-01 0.22960098E+03</pdfrwt>
<pdfrwt beam="2">  1       -1 0.84083453E-01 0.22960098E+03</pdfrwt>
<totfact> 0.41040265E+02</totfact>
</mgrwt>
</event>
<event>
 8    1  0.8174053E-004  0.1000718E+03  0.7546771E-02  0.1282742E+00
          1   -1    0    0  501    0  0.00000000000E+00  0.00000000000E+00  0.73761571140E+02  0.73761571140E+02  0.00000000000E+00 0. -1.
         -1   -1    0    0    0  501 -0.00000000000E+00 -0.00000000000E+00 -0.25307763832E+03  0.25307763832E+03  0.00000000000E+00 0.  1.
         23    2    1    2    0    0 -0.15178129055E+02 -0.33215780714E+02 -0.20505150335E+03  0.22816765541E+03  0.93170254166E+02 0.  0.
         23    2    1    2    0    0  0.15178129055E+02  0.33215780714E+02  0.25735436174E+02  0.98671554041E+02  0.87977833638E+02 0.  0.
          5    1    4    4  502    0  0.36063440767E+02  0.32289629101E+02  0.47604259027E+02  0.68054738153E+02  0.47000000000E+01 0. -1.
         -5    1    4    4    0  502 -0.20885311712E+02  0.92615161287E+00 -0.21868822853E+02  0.30616815888E+02  0.47000000000E+01 0.  1.
          5    1    3    3  503    0 -0.14278986332E+02 -0.53254879217E+02 -0.59847863448E+02  0.81509682679E+02  0.47000000000E+01 0. -1.
         -5    1    3    3    0  503 -0.89914272323E+00  0.20039098502E+02 -0.14520363990E+03  0.14665797274E+03  0.47000000000E+01 0.  1.
<mgrwt>
<rscale>  0 0.98845551E+02</rscale>
<asrwt>0</asrwt>
<pdfrwt beam="1">  1        1 0.11347934E-01 0.10007177E+03</pdfrwt>
<pdfrwt beam="2">  1       -1 0.38935022E-01 0.10007177E+03</pdfrwt>
<totfact> 0.33114871E+03</totfact>
</mgrwt>
</event>
<event>
 8    1  0.8174053E-004  0.9486782E+02  0.7546771E-02  0.1291735E+00
          3   -1    0    0  501    0  0.00000000000E+00  0.00000000000E+00  0.82247703740E+02  0.82247703740E+02  0.00000000000E+00 0. -1.
         -3   -1    0    0    0  501 -0.00000000000E+00 -0.00000000000E+00 -0.40283135449E+03  0.40283135449E+03  0.00000000000E+00 0.  1.
         23    2    1    2    0    0 -0.37242114892E+01 -0.20714153875E+02 -0.36736662390E+03  0.37930311380E+03  0.92030809323E+02 0.  0.
         23    2    1    2    0    0  0.37242114892E+01  0.20714153875E+02  0.46782973148E+02  0.10577594443E+03  0.92503826522E+02 0.  0.
          5    1    4    4  502    0 -0.31360170682E+02  0.35644090326E+02  0.47540489004E+02  0.67350943387E+02  0.47000000000E+01 0. -1.
         -5    1    3    3    0  503 -0.12182622351E+02 -0.52757361357E+02 -0.28933519299E+03  0.29439548122E+03  0.47000000000E+01 0.  1.
          5    1    3    3  503    0  0.84584108613E+01  0.32043207483E+02 -0.78031430910E+02  0.84907632577E+02  0.47000000000E+01 0. -1.
         -5    1    4    4    0  502  0.35084382171E+02 -0.14929936451E+02 -0.75751585619E+00  0.38425001041E+02  0.47000000000E+01 0.  1.
<mgrwt>
<rscale>  0 0.94752319E+02</rscale>
<asrwt>0</asrwt>
<pdfrwt beam="1">  1        3 0.12653493E-01 0.94867823E+02</pdfrwt>
<pdfrwt beam="2">  1       -3 0.61974055E-01 0.94867823E+02</pdfrwt>
<totfact> 0.28294428E+02</totfact>
</mgrwt>
</event>
<event>
 8    1  0.8174053E-004  0.9579486E+02  0.7546771E-02  0.1289437E+00
         -2   -1    0    0    0  501 -0.00000000000E+00  0.00000000000E+00  0.68965831207E+02  0.68965831207E+02  0.00000000000E+00 0.  1.
          2   -1    0    0  501    0  0.00000000000E+00 -0.00000000000E+00 -0.21003152604E+03  0.21003152604E+03  0.00000000000E+00 0. -1.
         23    2    1    2    0    0  0.11570955223E+02 -0.26849399295E+02  0.13989020316E+02  0.96737600066E+02  0.91146548644E+02 0.  0.
         23    2    1    2    0    0 -0.11570955223E+02  0.26849399295E+02 -0.15505471515E+03  0.18225975719E+03  0.91224323240E+02 0.  0.
          5    1    3    3  502    0 -0.32937526302E+02 -0.11958684031E+01  0.27756338901E+02  0.43345300660E+02  0.47000000000E+01 0. -1.
         -5    1    3    3    0  502  0.44508481524E+02 -0.25653530892E+02 -0.13767318585E+02  0.53392299406E+02  0.47000000000E+01 0.  1.
          5    1    4    4  503    0 -0.21791887081E+02  0.66188272637E+01 -0.15729389487E+03  0.15900363071E+03  0.47000000000E+01 0. -1.
         -5    1    4    4    0  503  0.10220931858E+02  0.20230572032E+02  0.22391797137E+01  0.23256126474E+02  0.47000000000E+01 0.  1.
<mgrwt>
<rscale>  0 0.95776335E+02</rscale>
<asrwt>0</asrwt>
<pdfrwt beam="1">  1        2 0.32312542E-01 0.95794856E+02</pdfrwt>
<pdfrwt beam="2">  1       -2 0.10610128E-01 0.95794856E+02</pdfrwt>
<totfact> 0.89560048E+03</totfact>
</mgrwt>
</event>
<event>
 8    1  0.8174053E-004  0.1004663E+03  0.7546771E-02  0.1281776E+00
          1   -1    0    0  501    0  0.00000000000E+00  0.00000000000E+00  0.77619542368E+02  0.77619542368E+02  0.00000000000E+00 0. -1.
         -1   -1    0    0    0  501 -0.00000000000E+00 -0.00000000000E+00 -0.12743195016E+03  0.12743195016E+03  0.00000000000E+00 0.  1.
         23    2    1    2    0    0 -0.19781091203E+02  0.21072460258E+02 -0.41872337549E+02  0.10884286247E+03  0.96219207588E+02 0.  0.
         23    2    1    2    0    0  0.19781091203E+02 -0.21072460258E+02 -0.79400702398E+01  0.96208630051E+02  0.91420542716E+02 0.  0.
          5    1    3    3  502    0  0.32046665300E+02  0.20508562986E+02  0.51774270180E+01  0.38684436963E+02  0.47000000000E+01 0. -1.
         -5    1    3    3    0  502 -0.51827756503E+02  0.56389727157E+00 -0.47049764567E+02  0.70158425510E+02  0.47000000000E+01 0.  1.
          5    1    4    4  503    0 -0.73824582886E+00 -0.48514602611E+02 -0.28009509512E+02  0.56221297534E+02  0.47000000000E+01 0. -1.
         -5    1    4    4    0  503  0.20519337032E+02  0.27442142353E+02  0.20069439272E+02  0.39987332517E+02  0.47000000000E+01 0.  1.
<mgrwt>
<rscale>  0 0.99299662E+02</rscale>
<asrwt>0</asrwt>
<pdfrwt beam="1">  1        1 0.11941468E-01 0.10046629E+03</pdfrwt>
<pdfrwt beam="2">  1       -1 0.19604915E-01 0.10046629E+03</pdfrwt>
<totfact> 0.96336533E+03</totfact>
</mgrwt>
</event>
<event>
 8    1  0.8174053E-004  0.1309616E+03  0.7546771E-02  0.1226611E+00
          1   -1    0    0  501    0  0.00000000000E+00  0.00000000000E+00  0.12119871209E+02  0.12119871209E+02  0.00000000000E+00 0. -1.
         -1   -1    0    0    0  501 -0.00000000000E+00 -0.00000000000E+00 -0.15350964356E+04  0.15350964356E+04  0.00000000000E+00 0.  1.
         23    2    1    2    0    0 -0.65769917520E+02  0.54499863500E+02 -0.53473543881E+03  0.55053875617E+03  0.99272429977E+02 0.  0.
         23    2    1    2    0    0  0.65769917520E+02 -0.54499863500E+02 -0.98824112554E+03  0.99667755060E+03  0.97209569939E+02 0.  0.
          5    1    4    4  502    0  0.71939693037E+02 -0.76877874382E+02 -0.77782223013E+03  0.78492995782E+03  0.47000000000E+01 0. -1.
         -5    1    3    3    0  503 -0.28931492566E+02  0.79861728898E+02 -0.37966556214E+03  0.38907962691E+03  0.47000000000E+01 0.  1.
          5    1    3    3  503    0 -0.36838424954E+02 -0.25361865398E+02 -0.15506987668E+03  0.16145912926E+03  0.47000000000E+01 0. -1.
         -5    1    4    4    0  502 -0.61697755162E+01  0.22378010882E+02 -0.21041889541E+03  0.21174759277E+03  0.47000000000E+01 0.  1.
<mgrwt>
<rscale>  0 0.13057064E+03</rscale>
<asrwt>0</asrwt>
<pdfrwt beam="1">  1        1 0.18645943E-02 0.13096157E+03</pdfrwt>
<pdfrwt beam="2">  1       -1 0.23616884E+00 0.13096157E+03</pdfrwt>
<totfact> 0.64070522E+02</totfact>
</mgrwt>
</event>
<event>
 8    1  0.8174053E-004  0.1126291E+03  0.7546771E-02  0.1256087E+00
          1   -1    0    0  501    0  0.00000000000E+00  0.00000000000E+00  0.19787281663E+03  0.19787281663E+03  0.00000000000E+00 0. -1.
         -1   -1    0    0    0  501 -0.00000000000E+00 -0.00000000000E+00 -0.10861710581E+03  0.10861710581E+03  0.00000000000E+00 0.  1.
         23    2    1    2    0    0  0.64833253249E+02  0.93135295428E+01 -0.53979215714E+02  0.12427699335E+03  0.90779528460E+02 0.  0.
         23    2    1    2    0    0 -0.64833253249E+02 -0.93135295428E+01  0.14323492653E+03  0.18221292910E+03  0.91625404733E+02 0.  0.
          5    1    3    3  502    0  0.31924923484E+02  0.36329573014E+02  0.76840100211E+01  0.49195250023E+02  0.47000000000E+01 0. -1.
         -5    1    4    4    0  503 -0.80788189641E+01  0.36543457438E+02  0.34097479887E+02  0.50847022843E+02  0.47000000000E+01 0.  1.
          5    1    4    4  503    0 -0.56754434285E+02 -0.45856986981E+02  0.10913744665E+03  0.13136590626E+03  0.47000000000E+01 0. -1.
         -5    1    3    3    0  502  0.32908329765E+02 -0.27016043471E+02 -0.61663225735E+02  0.75081743326E+02  0.47000000000E+01 0.  1.
<mgrwt>
<rscale>  0 0.11245691E+03</rscale>
<asrwt>0</asrwt>
<pdfrwt beam="1">  1        1 0.30441972E-01 0.11262907E+03</pdfrwt>
<pdfrwt beam="2">  1       -1 0.16710324E-01 0.11262907E+03</pdfrwt>
<totfact> 0.38234872E+03</totfact>
</mgrwt>
</event>
<event>
 8    1  0.8174053E-004  0.1957383E+03  0.7546771E-02  0.1153492E+00
          1   -1    0    0  501    0  0.00000000000E+00  0.00000000000E+00  0.57333328108E+03  0.57333328108E+03  0.00000000000E+00 0. -1.
         -1   -1    0    0    0  501 -0.00000000000E+00 -0.00000000000E+00 -0.70626207398E+02  0.70626207398E+02  0.00000000000E+00 0.  1.
         23    2    1    2    0    0  0.61606969505E+02 -0.16114358113E+03  0.17474198207E+03  0.26202416825E+03  0.91428835820E+02 0.  0.
         23    2    1    2    0    0 -0.61606969505E+02  0.16114358113E+03  0.32796509162E+03  0.38193532023E+03  0.92470617413E+02 0.  0.
          5    1    3    3  502    0  0.50161385504E+02 -0.12901590327E+03  0.77159095743E+02  0.15854615715E+03  0.47000000000E+01 0. -1.
         -5    1    4    4    0  503  0.39744119004E+01  0.68857345322E+02  0.62091922631E+02  0.92922692657E+02  0.47000000000E+01 0.  1.
          5    1    4    4  503    0 -0.65581381406E+02  0.92286235813E+02  0.26587316899E+03  0.28901262757E+03  0.47000000000E+01 0. -1.
         -5    1    3    3    0  502  0.11445584001E+02 -0.32127677868E+02  0.97582886324E+02  0.10347801110E+03  0.47000000000E+01 0.  1.
<mgrwt>
<rscale>  0 0.19561570E+03</rscale>
<asrwt>0</asrwt>
<pdfrwt beam="1">  1        1 0.88205117E-01 0.19573831E+03</pdfrwt>
<pdfrwt beam="2">  1       -1 0.10865571E-01 0.19573831E+03</pdfrwt>
<totfact> 0.19914248E+03</totfact>
</mgrwt>
</event>
<event>
 8    1  0.8174053E-004  0.9918144E+02  0.7546771E-02  0.1282591E+00
          1   -1    0    0  501    0  0.00000000000E+00  0.00000000000E+00  0.59816254498E+03  0.59816254498E+03  0.00000000000E+00 0. -1.
         -1   -1    0    0    0  501 -0.00000000000E+00 -0.00000000000E+00 -0.16982364294E+02  0.16982364294E+02  0.00000000000E+00 0.  1.
         23    2    1    2    0    0 -0.35881430818E+02 -0.16015228265E+02  0.35205841042E+03  0.36547764177E+03  0.89915614161E+02 0.  0.
         23    2    1    2    0    0  0.35881430818E+02  0.16015228265E+02  0.22912177026E+03  0.24966726750E+03  0.91065878576E+02 0.  0.
          5    1    4    4  502    0  0.63117354708E+02 -0.60540958741E+01  0.13889420329E+03  0.15275517094E+03  0.47000000000E+01 0. -1.
         -5    1    4    4    0  502 -0.27235923890E+02  0.22069324139E+02  0.90227566977E+02  0.96912096565E+02  0.47000000000E+01 0.  1.
          5    1    3    3  503    0 -0.52843157650E+02 -0.41358855349E+02  0.24242105268E+03  0.25158102276E+03  0.47000000000E+01 0. -1.
         -5    1    3    3    0  503  0.16961726832E+02  0.25343627084E+02  0.10963735774E+03  0.11389661901E+03  0.47000000000E+01 0.  1.
<mgrwt>
<rscale>  0 0.98916614E+02</rscale>
<asrwt>0</asrwt>
<pdfrwt beam="1">  1        1 0.92024991E-01 0.99181444E+02</pdfrwt>
<pdfrwt beam="2">  1       -1 0.26126719E-02 0.99181444E+02</pdfrwt>
<totfact> 0.15098190E+04</totfact>
</mgrwt>
</event>
<event>
 8    1  0.8174053E-004  0.1002059E+03  0.7546771E-02  0.1280607E+00
         -1   -1    0    0    0  501 -0.00000000000E+00  0.00000000000E+00  0.13210477210E+02  0.13210477210E+02  0.00000000000E+00 0.  1.
          1   -1    0    0  501    0  0.00000000000E+00 -0.00000000000E+00 -0.97229644182E+03  0.97229644182E+03  0.00000000000E+00 0. -1.
         23    2    1    2    0    0  0.73906953532E+01  0.39009848386E+02 -0.71282122053E+03  0.71963562583E+03  0.90470718288E+02 0.  0.
         23    2    1    2    0    0 -0.73906953532E+01 -0.39009848386E+02 -0.24626474408E+03  0.26587129320E+03  0.92004509269E+02 0.  0.
          5    1    3    3  502    0  0.48228237179E+02  0.25766587589E+02 -0.44164624391E+03  0.44504311550E+03  0.47000000000E+01 0. -1.
         -5    1    4    4    0  503 -0.17111682674E+02  0.25596728772E+02 -0.49437593756E+02  0.58430881254E+02  0.47000000000E+01 0.  1.
          5    1    4    4  503    0  0.97209873206E+01 -0.64606577158E+02 -0.19682715032E+03  0.20744041195E+03  0.47000000000E+01 0. -1.
         -5    1    3    3    0  502 -0.40837541826E+02  0.13243260797E+02 -0.27117497662E+03  0.27459251032E+03  0.47000000000E+01 0.  1.
<mgrwt>
<rscale>  0 0.99852427E+02</rscale>
<asrwt>0</asrwt>
<pdfrwt beam="1">  1        1 0.14958406E+00 0.10020589E+03</pdfrwt>
<pdfrwt beam="2">  1       -1 0.20323812E-02 0.10020589E+03</pdfrwt>
<totfact> 0.10611996E+04</totfact>
</mgrwt>
</event>
<event>
 8    1  0.8174053E-004  0.1409877E+03  0.7546771E-02  0.1212242E+00
          1   -1    0    0  501    0  0.00000000000E+00  0.00000000000E+00  0.10732519439E+04  0.10732519439E+04  0.00000000000E+00 0. -1.
         -1   -1    0    0    0  501 -0.00000000000E+00 -0.00000000000E+00 -0.30595352996E+02  0.30595352996E+02  0.00000000000E+00 0.  1.
         23    2    1    2    0    0  0.10717182526E+03 -0.10966323935E+02  0.17248420940E+03  0.22232729247E+03  0.89847437895E+02 0.  0.
         23    2    1    2    0    0 -0.10717182526E+03  0.10966323935E+02  0.87017238147E+03  0.88152000438E+03  0.90947700770E+02 0.  0.
          5    1    3    3  502    0  0.90858100100E+02  0.25225035104E+02  0.14768627348E+03  0.17528497404E+03  0.47000000000E+01 0. -1.
         -5    1    3    3    0  502  0.16313725157E+02 -0.36191359039E+02  0.24797935918E+02  0.47042318431E+02  0.47000000000E+01 0.  1.
          5    1    4    4  503    0 -0.78188769851E+02 -0.32279509537E+02  0.63377955488E+03  0.63941697245E+03  0.47000000000E+01 0. -1.
         -5    1    4    4    0  503 -0.28983055406E+02  0.43245833471E+02  0.23639282658E+03  0.24210303194E+03  0.47000000000E+01 0.  1.
<mgrwt>
<rscale>  0 0.14081060E+03</rscale>
<asrwt>0</asrwt>
<pdfrwt beam="1">  1        1 0.16511565E+00 0.14098775E+03</pdfrwt>
<pdfrwt beam="2">  1       -1 0.47069782E-02 0.14098775E+03</pdfrwt>
<totfact> 0.26888348E+03</totfact>
</mgrwt>
</event>
<event>
 8    1  0.8174053E-004  0.1205788E+03  0.7546771E-02  0.1249324E+00
         -2   -1    0    0    0  501 -0.00000000000E+00  0.00000000000E+00  0.10227415781E+04  0.10227415781E+04  0.00000000000E+00 0.  1.
          2   -1    0    0  501    0  0.00000000000E+00 -0.00000000000E+00 -0.17206654599E+02  0.17206654599E+02  0.00000000000E+00 0. -1.
         23    2    1    2    0    0  0.43118343319E+02  0.40529472406E+02  0.20150590484E+03  0.22692799912E+03  0.85964279985E+02 0.  0.
         23    2    1    2    0    0 -0.43118343319E+02 -0.40529472406E+02  0.80402901868E+03  0.81302023360E+03  0.10505906768E+03 0.  0.
          5    1    3    3  502    0 -0.31266735199E+01 -0.22328492944E+02  0.25619088673E+02  0.34449461373E+02  0.47000000000E+01 0. -1.
         -5    1    4    4    0  503  0.13648734862E+02  0.27748364697E+02  0.23884682441E+03  0.24088618731E+03  0.47000000000E+01 0.  1.
          5    1    4    4  503    0 -0.56767078181E+02 -0.68277837102E+02  0.56518219427E+03  0.57213404629E+03  0.47000000000E+01 0. -1.
         -5    1    3    3    0  502  0.46245016839E+02  0.62857965349E+02  0.17588681617E+03  0.19247853775E+03  0.47000000000E+01 0.  1.
<mgrwt>
<rscale>  0 0.11630276E+03</rscale>
<asrwt>0</asrwt>
<pdfrwt beam="1">  1        2 0.26471784E-02 0.12057876E+03</pdfrwt>
<pdfrwt beam="2">  1       -2 0.15734481E+00 0.12057876E+03</pdfrwt>
<totfact> 0.10002502E+03</totfact>
</mgrwt>
</event>
<event>
 8    1  0.8174053E-004  0.1015059E+03  0.7546771E-02  0.1278393E+00
          1   -1    0    0  501    0  0.00000000000E+00  0.00000000000E+00  0.54837435851E+02  0.54837435851E+02  0.00000000000E+00 0. -1.
         -1   -1    0    0    0  501 -0.00000000000E+00 -0.00000000000E+00 -0.23355347538E+03  0.23355347538E+03  0.00000000000E+00 0.  1.
         23    2    1    2    0    0 -0.56246966479E+00 -0.43052832343E+02 -0.15690282138E+03  0.18687411651E+03  0.91921582447E+02 0.  0.
         23    2    1    2    0    0  0.56246966479E+00  0.43052832343E+02 -0.21813218151E+02  0.10151679472E+03  0.89308344402E+02 0.  0.
          5    1    4    4  502    0 -0.13717124618E+02  0.67221083378E+02 -0.61814163266E+01  0.69044431101E+02  0.47000000000E+01 0. -1.
         -5    1    3    3    0  503 -0.21077088051E+02 -0.59217943435E+02 -0.14436086204E+03  0.15752192531E+03  0.47000000000E+01 0.  1.
          5    1    3    3  503    0  0.20514618387E+02  0.16165111091E+02 -0.12541959345E+02  0.29352191202E+02  0.47000000000E+01 0. -1.
         -5    1    4    4    0  502  0.14279594282E+02 -0.24168251034E+02 -0.15631801824E+02  0.32472363622E+02  0.47000000000E+01 0.  1.
<mgrwt>
<rscale>  0 0.10091057E+03</rscale>
<asrwt>0</asrwt>
<pdfrwt beam="1">  1        1 0.84365285E-02 0.10150586E+03</pdfrwt>
<pdfrwt beam="2">  1       -1 0.35931304E-01 0.10150586E+03</pdfrwt>
<totfact> 0.56207023E+03</totfact>
</mgrwt>
</event>
<event>
 8    1  0.8174053E-004  0.1037184E+03  0.7546771E-02  0.1276425E+00
         -2   -1    0    0    0  501 -0.00000000000E+00  0.00000000000E+00  0.20010872717E+02  0.20010872717E+02  0.00000000000E+00 0.  1.
          2   -1    0    0  501    0  0.00000000000E+00 -0.00000000000E+00 -0.75008070699E+03  0.75008070699E+03  0.00000000000E+00 0. -1.
         23    2    1    2    0    0 -0.38540172638E+02  0.26582942479E+02 -0.13436723832E+03  0.16542713899E+03  0.84377638280E+02 0.  0.
         23    2    1    2    0    0  0.38540172638E+02 -0.26582942479E+02 -0.59570259596E+03  0.60466444072E+03  0.92550015177E+02 0.  0.
          5    1    4    4  502    0  0.38198636644E+02  0.24710891100E+02 -0.38726762523E+03  0.38995905879E+03  0.47000000000E+01 0. -1.
         -5    1    4    4    0  502  0.34153599392E+00 -0.51293833580E+02 -0.20843497072E+03  0.21470538193E+03  0.47000000000E+01 0.  1.
          5    1    3    3  503    0  0.14498783071E+02  0.25669320530E+02 -0.12373117713E+02  0.32315828459E+02  0.47000000000E+01 0. -1.
         -5    1    3    3    0  503 -0.53038955709E+02  0.91362194895E+00 -0.12199412061E+03  0.13311131053E+03  0.47000000000E+01 0.  1.
<mgrwt>
<rscale>  0 0.10186377E+03</rscale>
<asrwt>0</asrwt>
<pdfrwt beam="1">  1        2 0.11539703E+00 0.10371838E+03</pdfrwt>
<pdfrwt beam="2">  1       -2 0.30785958E-02 0.10371838E+03</pdfrwt>
<totfact> 0.14635979E+04</totfact>
</mgrwt>
</event>
<event>
 8    1  0.8174053E-004  0.1207244E+03  0.7546771E-02  0.1255710E+00
         -2   -1    0    0    0  501 -0.00000000000E+00  0.00000000000E+00  0.19291689547E+02  0.19291689547E+02  0.00000000000E+00 0.  1.
          2   -1    0    0  501    0  0.00000000000E+00 -0.00000000000E+00 -0.58948433366E+03  0.58948433366E+03  0.00000000000E+00 0. -1.
         23    2    1    2    0    0 -0.32864978603E+01 -0.92122432882E+00 -0.35271099952E+03  0.37279944922E+03  0.12067613862E+03 0.  0.
         23    2    1    2    0    0  0.32864978603E+01  0.92122432882E+00 -0.21748164459E+03  0.23597657399E+03  0.91515179146E+02 0.  0.
          5    1    3    3  502    0  0.50795177733E+02  0.28065564810E+02 -0.19501937901E+03  0.20352511933E+03  0.47000000000E+01 0. -1.
         -5    1    3    3    0  502 -0.54081675594E+02 -0.28986789138E+02 -0.15769162051E+03  0.16927432989E+03  0.47000000000E+01 0.  1.
          5    1    4    4  503    0  0.33710694419E+02  0.22551084975E+02 -0.51174554103E+02  0.65466688777E+02  0.47000000000E+01 0. -1.
         -5    1    4    4    0  503 -0.30424196559E+02 -0.21629860646E+02 -0.16630709049E+03  0.17050988521E+03  0.47000000000E+01 0.  1.
<mgrwt>
<rscale>  0 0.11266656E+03</rscale>
<asrwt>0</asrwt>
<pdfrwt beam="1">  1        2 0.90689888E-01 0.12072440E+03</pdfrwt>
<pdfrwt beam="2">  1       -2 0.29679525E-02 0.12072440E+03</pdfrwt>
<totfact> 0.20686890E+04</totfact>
</mgrwt>
</event>
<event>
 8    1  0.8174053E-004  0.1258053E+03  0.7546771E-02  0.1234825E+00
         -1   -1    0    0    0  501 -0.00000000000E+00  0.00000000000E+00  0.26913957503E+02  0.26913957503E+02  0.00000000000E+00 0.  1.
          1   -1    0    0  501    0  0.00000000000E+00 -0.00000000000E+00 -0.58175909868E+03  0.58175909868E+03  0.00000000000E+00 0. -1.
         23    2    1    2    0    0 -0.60716031618E+02 -0.58845653343E+02 -0.31032185841E+03  0.33485314780E+03  0.93154320177E+02 0.  0.
         23    2    1    2    0    0  0.60716031618E+02  0.58845653343E+02 -0.24452328276E+03  0.27381990838E+03  0.89646299435E+02 0.  0.
          5    1    3    3  502    0 -0.39075666348E+02 -0.54664465735E+02 -0.30410447125E+03  0.31147508881E+03  0.47000000000E+01 0. -1.
         -5    1    3    3    0  502 -0.21640365270E+02 -0.41811876081E+01 -0.62173871620E+01  0.23378058986E+02  0.47000000000E+01 0.  1.
          5    1    4    4  503    0  0.51564199475E+02 -0.10222788533E+02 -0.91818118839E+02  0.10590575537E+03  0.47000000000E+01 0. -1.
         -5    1    4    4    0  503  0.91518321436E+01  0.69068441876E+02 -0.15270516392E+03  0.16791415301E+03  0.47000000000E+01 0.  1.
<mgrwt>
<rscale>  0 0.12515655E+03</rscale>
<asrwt>0</asrwt>
<pdfrwt beam="1">  1        1 0.89501387E-01 0.12580531E+03</pdfrwt>
<pdfrwt beam="2">  1       -1 0.41406095E-02 0.12580531E+03</pdfrwt>
<totfact> 0.81761849E+03</totfact>
</mgrwt>
</event>
<event>
 8    1  0.8174053E-004  0.1214847E+03  0.7546771E-02  0.1240734E+00
         -1   -1    0    0    0  501 -0.00000000000E+00  0.00000000000E+00  0.22966762723E+03  0.22966762723E+03  0.00000000000E+00 0.  1.
          1   -1    0    0  501    0  0.00000000000E+00 -0.00000000000E+00 -0.64556871699E+02  0.64556871699E+02  0.00000000000E+00 0. -1.
         23    2    1    2    0    0  0.48625716147E+02  0.63918792979E+02  0.71281282017E+02  0.14085291107E+03  0.91150694046E+02 0.  0.
         23    2    1    2    0    0 -0.48625716147E+02 -0.63918792979E+02  0.93829473519E+02  0.15337158786E+03  0.90932950547E+02 0.  0.
          5    1    4    4  502    0 -0.59198212754E+02 -0.46292723489E+02  0.10523633993E+03  0.12939946631E+03  0.47000000000E+01 0. -1.
         -5    1    4    4    0  502  0.10572496606E+02 -0.17626069490E+02 -0.11406866408E+02  0.23972121546E+02  0.47000000000E+01 0.  1.
          5    1    3    3  503    0  0.51324129835E+02  0.17044413081E+02 -0.12787975005E+01  0.54299204816E+02  0.47000000000E+01 0. -1.
         -5    1    3    3    0  503 -0.26984136873E+01  0.46874379899E+02  0.72560079518E+02  0.86553706258E+02  0.47000000000E+01 0.  1.
<mgrwt>
<rscale>  0 0.12144381E+03</rscale>
<asrwt>0</asrwt>
<pdfrwt beam="1">  1        1 0.99318266E-02 0.12148465E+03</pdfrwt>
<pdfrwt beam="2">  1       -1 0.35333481E-01 0.12148465E+03</pdfrwt>
<totfact> 0.47214879E+03</totfact>
</mgrwt>
</event>
<event>
 8    1  0.8174053E-004  0.1180410E+03  0.7546771E-02  0.1247233E+00
         -1   -1    0    0    0  501 -0.00000000000E+00  0.00000000000E+00  0.72741633800E+02  0.72741633800E+02  0.00000000000E+00 0.  1.
          1   -1    0    0  501    0  0.00000000000E+00 -0.00000000000E+00 -0.63486552368E+03  0.63486552368E+03  0.00000000000E+00 0. -1.
         23    2    1    2    0    0  0.13995054605E+02  0.73759400872E+02  0.16409603992E+02  0.11715421902E+03  0.88428079021E+02 0.  0.
         23    2    1    2    0    0 -0.13995054605E+02 -0.73759400872E+02 -0.57853349388E+03  0.59045293847E+03  0.91089836098E+02 0.  0.
          5    1    4    4  502    0 -0.47705456082E+02 -0.48149056340E+02 -0.44859159616E+03  0.45370767275E+03  0.47000000000E+01 0. -1.
         -5    1    3    3    0  503  0.37993965231E+02  0.23293891270E+01 -0.49955618158E+01  0.38678328371E+02  0.47000000000E+01 0.  1.
          5    1    3    3  503    0 -0.23998910626E+02  0.71430011745E+02  0.21405165808E+02  0.78475890644E+02  0.47000000000E+01 0. -1.
         -5    1    4    4    0  502  0.33710401477E+02 -0.25610344532E+02 -0.12994189772E+03  0.13674526572E+03  0.47000000000E+01 0.  1.
<mgrwt>
<rscale>  0 0.11752720E+03</rscale>
<asrwt>0</asrwt>
<pdfrwt beam="1">  1        1 0.97671615E-01 0.11804096E+03</pdfrwt>
<pdfrwt beam="2">  1       -1 0.11191021E-01 0.11804096E+03</pdfrwt>
<totfact> 0.16373707E+03</totfact>
</mgrwt>
</event>
<event>
 8    1  0.8174053E-004  0.1097337E+03  0.7546771E-02  0.1262902E+00
         -1   -1    0    0    0  501 -0.00000000000E+00  0.00000000000E+00  0.46939808163E+02  0.46939808163E+02  0.00000000000E+00 0.  1.
          1   -1    0    0  501    0  0.00000000000E+00 -0.00000000000E+00 -0.32025045157E+03  0.32025045157E+03  0.00000000000E+00 0. -1.
         23    2    1    2    0    0  0.32860637884E+02  0.49769199998E+02 -0.47282661306E+02  0.11593314628E+03  0.87453127761E+02 0.  0.
         23    2    1    2    0    0 -0.32860637884E+02 -0.49769199998E+02 -0.22602798210E+03  0.25125711345E+03  0.92112396442E+02 0.  0.
          5    1    4    4  502    0 -0.59649673757E+02 -0.49678233498E+02 -0.13033427592E+03  0.15177326491E+03  0.47000000000E+01 0. -1.
         -5    1    4    4    0  502  0.26789035873E+02 -0.90966499937E-01 -0.95693706180E+02  0.99483848540E+02  0.47000000000E+01 0.  1.
          5    1    3    3  503    0 -0.18092063146E+02  0.43448095505E+02 -0.43460539532E+02  0.64233700254E+02  0.47000000000E+01 0. -1.
         -5    1    3    3    0  503  0.50952701031E+02  0.63211044931E+01 -0.38221217738E+01  0.51699446024E+02  0.47000000000E+01 0.  1.
<mgrwt>
<rscale>  0 0.10875038E+03</rscale>
<asrwt>0</asrwt>
<pdfrwt beam="1">  1        1 0.49269301E-01 0.10973372E+03</pdfrwt>
<pdfrwt beam="2">  1       -1 0.72215089E-02 0.10973372E+03</pdfrwt>
<totfact> 0.76111570E+03</totfact>
</mgrwt>
</event>
<event>
 8    1  0.8174053E-004  0.1028189E+03  0.7546771E-02  0.1278905E+00
          4   -1    0    0  501    0  0.00000000000E+00  0.00000000000E+00  0.75002955982E+02  0.75002955982E+02  0.00000000000E+00 0. -1.
         -4   -1    0    0    0  501 -0.00000000000E+00 -0.00000000000E+00 -0.16834433146E+03  0.16834433146E+03  0.00000000000E+00 0.  1.
         23    2    1    2    0    0  0.36163789874E+02 -0.18581781203E+02 -0.10337810836E+03  0.14003971390E+03  0.85270076176E+02 0.  0.
         23    2    1    2    0    0 -0.36163789874E+02  0.18581781203E+02  0.10036732879E+02  0.10330757354E+03  0.94438426786E+02 0.  0.
          5    1    4    4  502    0 -0.92427794785E+01 -0.33169925919E+02  0.25108110316E+02  0.42874003331E+02  0.47000000000E+01 0. -1.
         -5    1    3    3    0  503  0.42131622135E+02  0.25398139058E+02 -0.47731155830E+02  0.68705838822E+02  0.47000000000E+01 0.  1.
          5    1    3    3  503    0 -0.59678322618E+01 -0.43979920261E+02 -0.55646952532E+02  0.71333875082E+02  0.47000000000E+01 0. -1.
         -5    1    4    4    0  502 -0.26921010395E+02  0.51751707122E+02 -0.15071377437E+02  0.60433570212E+02  0.47000000000E+01 0.  1.
<mgrwt>
<rscale>  0 0.10066421E+03</rscale>
<asrwt>0</asrwt>
<pdfrwt beam="1">  1        4 0.11538916E-01 0.10281886E+03</pdfrwt>
<pdfrwt beam="2">  1       -4 0.25899128E-01 0.10281886E+03</pdfrwt>
<totfact> 0.12892131E+03</totfact>
</mgrwt>
</event>
<event>
 8    1  0.8174053E-004  0.1847982E+03  0.7546771E-02  0.1163526E+00
          2   -1    0    0  501    0  0.00000000000E+00  0.00000000000E+00  0.44851241896E+03  0.44851241896E+03  0.00000000000E+00 0. -1.
         -2   -1    0    0    0  501 -0.00000000000E+00 -0.00000000000E+00 -0.12797089007E+03  0.12797089007E+03  0.00000000000E+00 0.  1.
         23    2    1    2    0    0  0.13793500695E+03 -0.81162552278E+02  0.34491123985E+03  0.39129800368E+03  0.92395553322E+02 0.  0.
         23    2    1    2    0    0 -0.13793500695E+03  0.81162552278E+02 -0.24369710956E+02  0.18518530535E+03  0.89923792573E+02 0.  0.
          5    1    3    3  502    0  0.73976774228E+02 -0.93599615429E+02  0.22826171025E+03  0.25760230880E+03  0.47000000000E+01 0. -1.
         -5    1    3    3    0  502  0.63958232726E+02  0.12437063151E+02  0.11664952959E+03  0.13369569487E+03  0.47000000000E+01 0.  1.
          5    1    4    4  503    0 -0.78709243955E+02  0.34293425505E+01  0.13882231090E+02  0.80135583946E+02  0.47000000000E+01 0. -1.
         -5    1    4    4    0  503 -0.59225762999E+02  0.77733209727E+02 -0.38251942046E+02  0.10504972141E+03  0.47000000000E+01 0.  1.
<mgrwt>
<rscale>  0 0.18449157E+03</rscale>
<asrwt>0</asrwt>
<pdfrwt beam="1">  1        2 0.69001910E-01 0.18479817E+03</pdfrwt>
<pdfrwt beam="2">  1       -2 0.19687830E-01 0.18479817E+03</pdfrwt>
<totfact> 0.15082573E+03</totfact>
</mgrwt>
</event>
<event>
 8    1  0.8174053E-004  0.1143522E+03  0.7546771E-02  0.1253654E+00
          1   -1    0    0  501    0  0.00000000000E+00  0.00000000000E+00  0.59464002275E+02  0.59464002275E+02  0.00000000000E+00 0. -1.
         -1   -1    0    0    0  501 -0.00000000000E+00 -0.00000000000E+00 -0.30594926935E+03  0.30594926935E+03  0.00000000000E+00 0.  1.
         23    2    1    2    0    0  0.41785400711E+02  0.56643697729E+02 -0.22319367128E+03  0.25078247483E+03  0.90121621032E+02 0.  0.
         23    2    1    2    0    0 -0.41785400711E+02 -0.56643697729E+02 -0.23291595802E+02  0.11463079680E+03  0.87425356364E+02 0.  0.
          5    1    4    4  502    0 -0.24940807671E+02 -0.16465692527E+02  0.32029211376E+02  0.44058180841E+02  0.47000000000E+01 0. -1.
         -5    1    4    4    0  502 -0.16844593040E+02 -0.40178005201E+02 -0.55320807178E+02  0.70572615960E+02  0.47000000000E+01 0.  1.
          5    1    3    3  503    0 -0.21226469695E+02 -0.58973330443E+01 -0.71406522848E+02  0.74875383525E+02  0.47000000000E+01 0.  1.
         -5    1    3    3    0  503  0.63011870407E+02  0.62541030773E+02 -0.15178714843E+03  0.17590709130E+03  0.47000000000E+01 0.  1.
<mgrwt>
<rscale>  0 0.11382037E+03</rscale>
<asrwt>0</asrwt>
<pdfrwt beam="1">  1        1 0.91483082E-02 0.11435224E+03</pdfrwt>
<pdfrwt beam="2">  1       -1 0.47069118E-01 0.11435224E+03</pdfrwt>
<totfact> 0.31720177E+03</totfact>
</mgrwt>
</event>
<event>
 8    1  0.8174053E-004  0.1000057E+03  0.7546771E-02  0.1280772E+00
          2   -1    0    0  501    0  0.00000000000E+00  0.00000000000E+00  0.70106502118E+01  0.70106502118E+01  0.00000000000E+00 0. -1.
         -2   -1    0    0    0  501 -0.00000000000E+00 -0.00000000000E+00 -0.14471174452E+04  0.14471174452E+04  0.00000000000E+00 0.  1.
         23    2    1    2    0    0 -0.44090489812E+02 -0.59594374458E+01 -0.83428461460E+03  0.84025708403E+03  0.89563736585E+02 0.  0.
         23    2    1    2    0    0  0.44090489812E+02  0.59594374458E+01 -0.60582218038E+03  0.61387101138E+03  0.88530323522E+02 0.  0.
          5    1    4    4  502    0 -0.26268509205E+02  0.10480878541E+01 -0.12018650034E+03  0.12311790255E+03  0.47000000000E+01 0. -1.
         -5    1    4    4    0  502  0.70358999017E+02  0.49113495917E+01 -0.48563568004E+03  0.49075310883E+03  0.47000000000E+01 0.  1.
          5    1    3    3  503    0 -0.54924275304E+01 -0.43834290760E+02 -0.44372768134E+03  0.44594613688E+03  0.47000000000E+01 0. -1.
         -5    1    3    3    0  503 -0.38598062281E+02  0.37874853314E+02 -0.39055693326E+03  0.39431094715E+03  0.47000000000E+01 0.  1.
<mgrwt>
<rscale>  0 0.99773829E+02</rscale>
<asrwt>0</asrwt>
<pdfrwt beam="1">  1        2 0.10785610E-02 0.10000575E+03</pdfrwt>
<pdfrwt beam="2">  1       -2 0.22263358E+00 0.10000575E+03</pdfrwt>
<totfact> 0.12803724E+03</totfact>
</mgrwt>
</event>
<event>
 8    1  0.8174053E-004  0.1182063E+03  0.7546771E-02  0.1246790E+00
          2   -1    0    0  501    0  0.00000000000E+00  0.00000000000E+00  0.64706462203E+03  0.64706462203E+03  0.00000000000E+00 0. -1.
         -2   -1    0    0    0  501 -0.00000000000E+00 -0.00000000000E+00 -0.85015889697E+02  0.85015889697E+02  0.00000000000E+00 0.  1.
         23    2    1    2    0    0 -0.18463471562E+02 -0.71026506288E+02 -0.36378531666E+02  0.12209041152E+03  0.90537321821E+02 0.  0.
         23    2    1    2    0    0  0.18463471562E+02  0.71026506288E+02  0.59842726400E+03  0.60999010020E+03  0.92666432265E+02 0.  0.
          5    1    3    3  502    0 -0.51798121532E+02 -0.22222902056E+02 -0.11101661368E+02  0.57638872778E+02  0.47000000000E+01 0. -1.
         -5    1    3    3    0  502  0.33334649970E+02 -0.48803604233E+02 -0.25276870298E+02  0.64451538747E+02  0.47000000000E+01 0.  1.
          5    1    4    4  503    0  0.48942873880E+02  0.62100468303E+02  0.50561721884E+03  0.51178387534E+03  0.47000000000E+01 0. -1.
         -5    1    4    4    0  503 -0.30479402318E+02  0.89260379857E+01  0.92810045159E+02  0.98206224865E+02  0.47000000000E+01 0.  1.
<mgrwt>
<rscale>  0 0.11778870E+03</rscale>
<asrwt>0</asrwt>
<pdfrwt beam="1">  1        2 0.99548400E-01 0.11820631E+03</pdfrwt>
<pdfrwt beam="2">  1       -2 0.13079368E-01 0.11820631E+03</pdfrwt>
<totfact> 0.19459186E+03</totfact>
</mgrwt>
</event>
<event>
 8    1  0.8174053E-004  0.1097406E+03  0.7546771E-02  0.1262568E+00
         -1   -1    0    0    0  501 -0.00000000000E+00  0.00000000000E+00  0.22326609393E+03  0.22326609393E+03  0.00000000000E+00 0.  1.
          1   -1    0    0  501    0  0.00000000000E+00 -0.00000000000E+00 -0.66993157504E+02  0.66993157504E+02  0.00000000000E+00 0. -1.
         23    2    1    2    0    0  0.36295951279E+02  0.41356326302E+02  0.14502360797E+03  0.17994357994E+03  0.91214600198E+02 0.  0.
         23    2    1    2    0    0 -0.36295951279E+02 -0.41356326302E+02  0.11249328455E+02  0.11031567149E+03  0.94948713427E+02 0.  0.
          5    1    3    3  502    0 -0.98441468675E+01  0.39113647608E+02  0.17476557873E+02  0.44207518952E+02  0.47000000000E+01 0. -1.
         -5    1    4    4    0  503  0.11044099752E+02  0.20272478305E+02  0.21368699312E+02  0.31806553196E+02  0.47000000000E+01 0.  1.
          5    1    4    4  503    0 -0.47340051031E+02 -0.61628804607E+02 -0.10119370857E+02  0.78509118295E+02  0.47000000000E+01 0. -1.
         -5    1    3    3    0  502  0.46140098147E+02  0.22426786940E+01  0.12754705010E+03  0.13573606099E+03  0.47000000000E+01 0.  1.
<mgrwt>
<rscale>  0 0.10892804E+03</rscale>
<asrwt>0</asrwt>
<pdfrwt beam="1">  1        1 0.10306640E-01 0.10974060E+03</pdfrwt>
<pdfrwt beam="2">  1       -1 0.34348630E-01 0.10974060E+03</pdfrwt>
<totfact> 0.46865312E+03</totfact>
</mgrwt>
</event>
<event>
 8    1  0.8174053E-004  0.9917210E+02  0.7546771E-02  0.1282287E+00
         -1   -1    0    0    0  501 -0.00000000000E+00  0.00000000000E+00  0.13524023294E+03  0.13524023294E+03  0.00000000000E+00 0.  1.
          1   -1    0    0  501    0  0.00000000000E+00 -0.00000000000E+00 -0.95046428791E+02  0.95046428791E+02  0.00000000000E+00 0. -1.
         23    2    1    2    0    0 -0.14985165921E+02 -0.36439852432E+02  0.76345062258E+02  0.12515460166E+03  0.91009272835E+02 0.  0.
         23    2    1    2    0    0  0.14985165921E+02  0.36439852432E+02 -0.36151258110E+02  0.10513206007E+03  0.90517504102E+02 0.  0.
          5    1    3    3  502    0 -0.39845570966E+02 -0.51918407949E+02  0.67656960947E+02  0.94248315497E+02  0.47000000000E+01 0. -1.
         -5    1    3    3    0  502  0.24860405044E+02  0.15478555517E+02  0.86881013113E+01  0.30906286161E+02  0.47000000000E+01 0.  1.
          5    1    4    4  503    0  0.51368059832E+02  0.16416607842E+02 -0.32593147569E+02  0.63186912034E+02  0.47000000000E+01 0.  1.
         -5    1    4    4    0  503 -0.36382893910E+02  0.20023244590E+02 -0.35581105407E+01  0.41945148037E+02  0.47000000000E+01 0. -1.
<mgrwt>
<rscale>  0 0.99059134E+02</rscale>
<asrwt>0</asrwt>
<pdfrwt beam="1">  1        1 0.14622527E-01 0.99172102E+02</pdfrwt>
<pdfrwt beam="2">  1       -1 0.20806190E-01 0.99172102E+02</pdfrwt>
<totfact> 0.67366828E+03</totfact>
</mgrwt>
</event>
<event>
 8    1  0.8174053E-004  0.9510881E+02  0.7546771E-02  0.1291004E+00
          1   -1    0    0  501    0  0.00000000000E+00  0.00000000000E+00  0.12527485182E+03  0.12527485182E+03  0.00000000000E+00 0. -1.
         -1   -1    0    0    0  501 -0.00000000000E+00 -0.00000000000E+00 -0.87374634989E+02  0.87374634989E+02  0.00000000000E+00 0.  1.
         23    2    1    2    0    0 -0.48678881964E+01 -0.26347921493E+02 -0.25504100985E+02  0.98343784981E+02  0.91121520920E+02 0.  0.
         23    2    1    2    0    0  0.48678881964E+01  0.26347921493E+02  0.63404317814E+02  0.11430570183E+03  0.91256652636E+02 0.  0.
          5    1    4    4  502    0  0.39065696289E+02  0.18301769582E+02  0.65754317655E+02  0.78783270348E+02  0.47000000000E+01 0. -1.
         -5    1    3    3    0  503  0.24108029134E+02 -0.50983517159E+02 -0.16990683845E+02  0.59087134202E+02  0.47000000000E+01 0.  1.
          5    1    3    3  503    0 -0.28975917331E+02  0.24635595666E+02 -0.85134171400E+01  0.39256650779E+02  0.47000000000E+01 0. -1.
         -5    1    4    4    0  502 -0.34197808093E+02  0.80461519109E+01 -0.23499998413E+01  0.35522431479E+02  0.47000000000E+01 0.  1.
<mgrwt>
<rscale>  0 0.95076382E+02</rscale>
<asrwt>0</asrwt>
<pdfrwt beam="1">  1        1 0.19273054E-01 0.95108811E+02</pdfrwt>
<pdfrwt beam="2">  1       -1 0.13442252E-01 0.95108811E+02</pdfrwt>
<totfact> 0.93689077E+03</totfact>
</mgrwt>
</event>
<event>
 8    1  0.8174053E-004  0.9702674E+02  0.7546771E-02  0.1289920E+00
          1   -1    0    0  501    0  0.00000000000E+00  0.00000000000E+00  0.20632222271E+03  0.20632222271E+03  0.00000000000E+00 0. -1.
         -1   -1    0    0    0  501 -0.00000000000E+00 -0.00000000000E+00 -0.42976995020E+02  0.42976995020E+02  0.00000000000E+00 0.  1.
         23    2    1    2    0    0  0.10108018858E+01  0.13709037220E+02  0.85606009438E+02  0.12939310884E+03  0.96048052259E+02 0.  0.
         23    2    1    2    0    0 -0.10108018858E+01 -0.13709037220E+02  0.77739218251E+02  0.11990610888E+03  0.90250371031E+02 0.  0.
          5    1    3    3  502    0  0.14447507264E+02 -0.21367082855E+02  0.87646298015E+02  0.91483584601E+02  0.47000000000E+01 0. -1.
         -5    1    3    3    0  502 -0.13436705378E+02  0.35076120075E+02 -0.20402885767E+01  0.37909524244E+02  0.47000000000E+01 0.  1.
          5    1    4    4  503    0  0.38766147978E+02 -0.25337787696E+02  0.25557684535E+02  0.53104641541E+02  0.47000000000E+01 0. -1.
         -5    1    4    4    0  503 -0.39776949864E+02  0.11628750476E+02  0.52181533716E+02  0.66801467342E+02  0.47000000000E+01 0.  1.
<mgrwt>
<rscale>  0 0.95559933E+02</rscale>
<asrwt>0</asrwt>
<pdfrwt beam="1">  1        1 0.31741880E-01 0.97026737E+02</pdfrwt>
<pdfrwt beam="2">  1       -1 0.66118455E-02 0.97026737E+02</pdfrwt>
<totfact> 0.14724248E+04</totfact>
</mgrwt>
</event>
<event>
 8    1  0.8174053E-004  0.1003675E+03  0.7546771E-02  0.1281121E+00
          1   -1    0    0  501    0  0.00000000000E+00  0.00000000000E+00  0.38870511966E+03  0.38870511966E+03  0.00000000000E+00 0. -1.
         -1   -1    0    0    0  501 -0.00000000000E+00 -0.00000000000E+00 -0.25195407835E+02  0.25195407835E+02  0.00000000000E+00 0.  1.
         23    2    1    2    0    0 -0.22509858414E+02  0.33731917787E+02  0.18809429039E+03  0.21180105916E+03  0.88519436189E+02 0.  0.
         23    2    1    2    0    0  0.22509858414E+02 -0.33731917787E+02  0.17541542144E+03  0.20209946833E+03  0.91810070352E+02 0.  0.
          5    1    4    4  502    0  0.10752435634E+02 -0.59841410196E+02  0.15515472047E+03  0.16670838770E+03  0.47000000000E+01 0. -1.
         -5    1    3    3    0  503  0.56651681663E+01  0.58750882505E+02  0.12087780851E+03  0.13460050117E+03  0.47000000000E+01 0.  1.
          5    1    3    3  503    0 -0.28175026580E+02 -0.25018964718E+02  0.67216481874E+02  0.77200557989E+02  0.47000000000E+01 0. -1.
         -5    1    4    4    0  502  0.11757422780E+02  0.26109492409E+02  0.20260700966E+02  0.35391080626E+02  0.47000000000E+01 0.  1.
<mgrwt>
<rscale>  0 0.99608639E+02</rscale>
<asrwt>0</asrwt>
<pdfrwt beam="1">  1        1 0.59800783E-01 0.10036745E+03</pdfrwt>
<pdfrwt beam="2">  1       -1 0.38762169E-02 0.10036745E+03</pdfrwt>
<totfact> 0.14862279E+04</totfact>
</mgrwt>
</event>
<event>
 8    1  0.8174053E-004  0.1292210E+03  0.7546771E-02  0.1229324E+00
         -1   -1    0    0    0  501 -0.00000000000E+00  0.00000000000E+00  0.22339444207E+03  0.22339444207E+03  0.00000000000E+00 0.  1.
          1   -1    0    0  501    0  0.00000000000E+00 -0.00000000000E+00 -0.76637326883E+02  0.76637326883E+02  0.00000000000E+00 0. -1.
         23    2    1    2    0    0 -0.83764885450E+02  0.34844425474E+02  0.43321446429E+02  0.13451136516E+03  0.89363692938E+02 0.  0.
         23    2    1    2    0    0  0.83764885450E+02 -0.34844425474E+02  0.10343566876E+03  0.16552040379E+03  0.92018348597E+02 0.  0.
          5    1    4    4  502    0  0.12781253027E+02  0.22277230804E+02 -0.18861292644E+01  0.26177909100E+02  0.47000000000E+01 0. -1.
         -5    1    3    3    0  503  0.32926101046E+01  0.38815788520E+02  0.64352666376E+01  0.39761908611E+02  0.47000000000E+01 0.  1.
          5    1    3    3  503    0 -0.87057495555E+02 -0.39713630455E+01  0.36886179791E+02  0.94749456549E+02  0.47000000000E+01 0. -1.
         -5    1    4    4    0  502  0.70983632424E+02 -0.57121656279E+02  0.10532179802E+03  0.13934249469E+03  0.47000000000E+01 0.  1.
<mgrwt>
<rscale>  0 0.12874924E+03</rscale>
<asrwt>0</asrwt>
<pdfrwt beam="1">  1        1 0.11790358E-01 0.12922100E+03</pdfrwt>
<pdfrwt beam="2">  1       -1 0.34368375E-01 0.12922100E+03</pdfrwt>
<totfact> 0.39654086E+03</totfact>
</mgrwt>
</event>
<event>
 8    1  0.8174053E-004  0.1319470E+03  0.7546771E-02  0.1224984E+00
         -1   -1    0    0    0  501 -0.00000000000E+00  0.00000000000E+00  0.32497385584E+02  0.32497385584E+02  0.00000000000E+00 0.  1.
          1   -1    0    0  501    0  0.00000000000E+00 -0.00000000000E+00 -0.54498324848E+03  0.54498324848E+03  0.00000000000E+00 0. -1.
         23    2    1    2    0    0  0.56684218764E+02 -0.76366688987E+02 -0.20967291627E+03  0.24716911493E+03  0.89915892435E+02 0.  0.
         23    2    1    2    0    0 -0.56684218764E+02  0.76366688987E+02 -0.30281294662E+03  0.33031151914E+03  0.91460631900E+02 0.  0.
          5    1    4    4  502    0 -0.66426965875E+02  0.23124252709E+02 -0.11582497810E+03  0.13559051741E+03  0.47000000000E+01 0. -1.
         -5    1    4    4    0  502  0.97427471114E+01  0.53242436278E+02 -0.18698796852E+03  0.19472100173E+03  0.47000000000E+01 0.  1.
          5    1    3    3  503    0  0.18778888861E+02 -0.71759920985E+02 -0.18987031776E+03  0.20389938816E+03  0.47000000000E+01 0. -1.
         -5    1    3    3    0  503  0.37905329903E+02 -0.46067680027E+01 -0.19802598510E+02  0.43269726764E+02  0.47000000000E+01 0.  1.
<mgrwt>
<rscale>  0 0.13167972E+03</rscale>
<asrwt>0</asrwt>
<pdfrwt beam="1">  1        1 0.83843567E-01 0.13194703E+03</pdfrwt>
<pdfrwt beam="2">  1       -1 0.49995983E-02 0.13194703E+03</pdfrwt>
<totfact> 0.67794279E+03</totfact>
</mgrwt>
</event>
<event>
 8    1  0.8174053E-004  0.1030266E+03  0.7546771E-02  0.1276247E+00
          4   -1    0    0  501    0  0.00000000000E+00  0.00000000000E+00  0.13622591063E+03  0.13622591063E+03  0.00000000000E+00 0. -1.
         -4   -1    0    0    0  501 -0.00000000000E+00 -0.00000000000E+00 -0.17561892882E+03  0.17561892882E+03  0.00000000000E+00 0.  1.
         23    2    1    2    0    0 -0.32826903364E+02 -0.33290773500E+02  0.98287233229E+02  0.14238980642E+03  0.91807382996E+02 0.  0.
         23    2    1    2    0    0  0.32826903364E+02  0.33290773500E+02 -0.13768025142E+03  0.16945503303E+03  0.87024567805E+02 0.  0.
          5    1    4    4  502    0 -0.57654300741E+00  0.54430691247E+02 -0.54153785226E+02  0.76926945902E+02  0.47000000000E+01 0. -1.
         -5    1    4    4    0  502  0.33403446372E+02 -0.21139917746E+02 -0.83526466197E+02  0.92528087126E+02  0.47000000000E+01 0.  1.
          5    1    3    3  503    0 -0.14187538582E+02 -0.41203050248E+02  0.19907470509E+01  0.43875171505E+02  0.47000000000E+01 0. -1.
         -5    1    3    3    0  503 -0.18639364782E+02  0.79122767476E+01  0.96296486178E+02  0.98514634918E+02  0.47000000000E+01 0.  1.
<mgrwt>
<rscale>  0 0.10195030E+03</rscale>
<asrwt>0</asrwt>
<pdfrwt beam="1">  1        4 0.20957832E-01 0.10302658E+03</pdfrwt>
<pdfrwt beam="2">  1       -4 0.27018297E-01 0.10302658E+03</pdfrwt>
<totfact> 0.42150629E+02</totfact>
</mgrwt>
</event>
<event>
 8    1  0.8174053E-004  0.9484449E+02  0.7546771E-02  0.1291665E+00
          1   -1    0    0  501    0  0.00000000000E+00  0.00000000000E+00  0.27284880984E+03  0.27284880984E+03  0.00000000000E+00 0. -1.
         -1   -1    0    0    0  501 -0.00000000000E+00 -0.00000000000E+00 -0.39246216765E+02  0.39246216765E+02  0.00000000000E+00 0.  1.
         23    2    1    2    0    0 -0.22982895715E+02 -0.80130418394E+01  0.54097581719E+02  0.10918802629E+03  0.91668175513E+02 0.  0.
         23    2    1    2    0    0  0.22982895715E+02  0.80130418394E+01  0.17950501135E+03  0.20290700031E+03  0.91415421786E+02 0.  0.
          5    1    3    3  502    0 -0.20652183826E+02  0.22909470738E+02  0.68049049936E+02  0.74860668868E+02  0.47000000000E+01 0. -1.
         -5    1    3    3    0  502 -0.23307118889E+01 -0.30922512577E+02 -0.13951468217E+02  0.34327357420E+02  0.47000000000E+01 0.  1.
          5    1    4    4  503    0  0.50920599135E+02 -0.95776417704E+01  0.14858773009E+03  0.15743265916E+03  0.47000000000E+01 0. -1.
         -5    1    4    4    0  503 -0.27937703420E+02  0.17590683610E+02  0.30917281263E+02  0.45474341149E+02  0.47000000000E+01 0.  1.
<mgrwt>
<rscale>  0 0.94783361E+02</rscale>
<asrwt>0</asrwt>
<pdfrwt beam="1">  1        1 0.41976739E-01 0.94844487E+02</pdfrwt>
<pdfrwt beam="2">  1       -1 0.60378797E-02 0.94844487E+02</pdfrwt>
<totfact> 0.11936596E+04</totfact>
</mgrwt>
</event>
<event>
 8    1  0.9116227E-004  0.9812920E+02  0.7546771E-02  0.1286483E+00
         -1   -1    0    0    0  501 -0.00000000000E+00  0.00000000000E+00  0.10805787966E+03  0.10805787966E+03  0.00000000000E+00 0.  1.
          1   -1    0    0  501    0  0.00000000000E+00 -0.00000000000E+00 -0.20536213140E+03  0.20536213140E+03  0.00000000000E+00 0. -1.
         23    2    1    2    0    0 -0.66915451171E+01  0.13683387559E+01 -0.16877497054E+03  0.19522891711E+03  0.97891216495E+02 0.  0.
         23    2    1    2    0    0  0.66915451171E+01 -0.13683387559E+01  0.71470718811E+02  0.11819109395E+03  0.93885152795E+02 0.  0.
          5    1    4    4  502    0 -0.43251307996E+02  0.18713791124E+01  0.28343016383E+02  0.51957620046E+02  0.47000000000E+01 0. -1.
         -5    1    3    3    0  503 -0.70216116059E+01  0.49097210212E+02 -0.77751386003E+02  0.92342877936E+02  0.47000000000E+01 0.  1.
          5    1    3    3  503    0  0.33006648884E+00 -0.47728871456E+02 -0.91023584539E+02  0.10288603917E+03  0.47000000000E+01 0. -1.
         -5    1    4    4    0  502  0.49942853113E+02 -0.32397178683E+01  0.43127702428E+02  0.66233473906E+02  0.47000000000E+01 0.  1.
<mgrwt>
<rscale>  0 0.97114586E+02</rscale>
<asrwt>0</asrwt>
<pdfrwt beam="1">  1        1 0.31594174E-01 0.98129197E+02</pdfrwt>
<pdfrwt beam="2">  1       -1 0.16624289E-01 0.98129197E+02</pdfrwt>
<totfact> 0.36522358E+03</totfact>
</mgrwt>
</event>
<event>
 8    1  0.8174053E-004  0.1114475E+03  0.7546771E-02  0.1268059E+00
         -2   -1    0    0    0  501 -0.00000000000E+00  0.00000000000E+00  0.21422254687E+02  0.21422254687E+02  0.00000000000E+00 0.  1.
          2   -1    0    0  501    0  0.00000000000E+00 -0.00000000000E+00 -0.48438620415E+03  0.48438620415E+03  0.00000000000E+00 0. -1.
         23    2    1    2    0    0 -0.96901850987E+01  0.19550872101E+02 -0.23056123136E+03  0.25608403922E+03  0.10929051859E+03 0.  0.
         23    2    1    2    0    0  0.96901850987E+01 -0.19550872101E+02 -0.23240271811E+03  0.24972441961E+03  0.88741907123E+02 0.  0.
          5    1    4    4  502    0  0.95763861465E+01 -0.46809500237E+02 -0.20587497416E+03  0.21139874992E+03  0.47000000000E+01 0. -1.
         -5    1    3    3    0  503 -0.52509236933E+01  0.64654857012E+02 -0.15076396550E+03  0.16419404992E+03  0.47000000000E+01 0.  1.
          5    1    3    3  503    0 -0.44392614054E+01 -0.45103984911E+02 -0.79797265852E+02  0.91889989303E+02  0.47000000000E+01 0. -1.
         -5    1    4    4    0  502  0.11379895221E+00  0.27258628136E+02 -0.26527743945E+02  0.38325669686E+02  0.47000000000E+01 0.  1.
<mgrwt>
<rscale>  0 0.10605274E+03</rscale>
<asrwt>0</asrwt>
<pdfrwt beam="1">  1        2 0.74520955E-01 0.11144754E+03</pdfrwt>
<pdfrwt beam="2">  1       -2 0.32957315E-02 0.11144754E+03</pdfrwt>
<totfact> 0.21878762E+04</totfact>
</mgrwt>
</event>
<event>
 8    1  0.8174053E-004  0.1501002E+03  0.7546771E-02  0.1203503E+00
         -1   -1    0    0    0  501 -0.00000000000E+00  0.00000000000E+00  0.34508439083E+02  0.34508439083E+02  0.00000000000E+00 0.  1.
          1   -1    0    0  501    0  0.00000000000E+00 -0.00000000000E+00 -0.61245950839E+03  0.61245950839E+03  0.00000000000E+00 0. -1.
         23    2    1    2    0    0 -0.10553871092E+03 -0.19228069708E+01 -0.31702776117E+03  0.35076584875E+03  0.10671439735E+03 0.  0.
         23    2    1    2    0    0  0.10553871092E+03  0.19228069708E+01 -0.26092330813E+03  0.29620209873E+03  0.92263719152E+02 0.  0.
          5    1    3    3  502    0 -0.12594867196E+03 -0.30955171068E+01 -0.29235791111E+03  0.31838324137E+03  0.47000000000E+01 0.  1.
         -5    1    4    4    0  503  0.10771174672E+03 -0.26265430165E+02 -0.21752465237E+03  0.24419409819E+03  0.47000000000E+01 0.  1.
          5    1    4    4  503    0 -0.21730357950E+01  0.28188237136E+02 -0.43398655765E+02  0.52008000535E+02  0.47000000000E+01 0. -1.
         -5    1    3    3    0  502  0.20409961037E+02  0.11727101361E+01 -0.24669850066E+02  0.32382607382E+02  0.47000000000E+01 0. -1.
<mgrwt>
<rscale>  0 0.14756024E+03</rscale>
<asrwt>0</asrwt>
<pdfrwt beam="1">  1        1 0.94224538E-01 0.15010023E+03</pdfrwt>
<pdfrwt beam="2">  1       -1 0.53089908E-02 0.15010023E+03</pdfrwt>
<totfact> 0.53347522E+03</totfact>
</mgrwt>
</event>
<event>
 8    1  0.8174053E-004  0.1167708E+03  0.7546771E-02  0.1249879E+00
          1   -1    0    0  501    0  0.00000000000E+00  0.00000000000E+00  0.19323851756E+02  0.19323851756E+02  0.00000000000E+00 0. -1.
         -1   -1    0    0    0  501 -0.00000000000E+00 -0.00000000000E+00 -0.69355211752E+03  0.69355211752E+03  0.00000000000E+00 0.  1.
         23    2    1    2    0    0  0.68672947419E+02  0.22342707743E+02 -0.37668181456E+03  0.39436608626E+03  0.91761921697E+02 0.  0.
         23    2    1    2    0    0 -0.68672947419E+02 -0.22342707743E+02 -0.29754645120E+03  0.31850988301E+03  0.87746707402E+02 0.  0.
          5    1    3    3  502    0 -0.21647106333E+02 -0.67164526446E+00 -0.97950395926E+02  0.10042618375E+03  0.47000000000E+01 0. -1.
         -5    1    3    3    0  502  0.90320053752E+02  0.23014353008E+02 -0.27873141864E+03  0.29393990251E+03  0.47000000000E+01 0.  1.
          5    1    4    4  503    0 -0.59621078349E+02 -0.48202796468E+02 -0.15171002344E+03  0.17004765151E+03  0.47000000000E+01 0. -1.
         -5    1    4    4    0  503 -0.90518690695E+01  0.25860088725E+02 -0.14583642776E+03  0.14846223151E+03  0.47000000000E+01 0.  1.
<mgrwt>
<rscale>  0 0.11598079E+03</rscale>
<asrwt>0</asrwt>
<pdfrwt beam="1">  1        1 0.29729004E-02 0.11677080E+03</pdfrwt>
<pdfrwt beam="2">  1       -1 0.10670032E+00 0.11677080E+03</pdfrwt>
<totfact> 0.28697301E+03</totfact>
</mgrwt>
</event>
<event>
 8    1  0.8174053E-004  0.1107254E+03  0.7546771E-02  0.1260634E+00
          1   -1    0    0  501    0  0.00000000000E+00  0.00000000000E+00  0.92564268305E+03  0.92564268305E+03  0.00000000000E+00 0. -1.
         -1   -1    0    0    0  501 -0.00000000000E+00 -0.00000000000E+00 -0.14666312496E+02  0.14666312496E+02  0.00000000000E+00 0.  1.
         23    2    1    2    0    0 -0.15305670358E+02  0.54403315993E+02  0.28625558491E+03  0.30585160933E+03  0.91700396418E+02 0.  0.
         23    2    1    2    0    0  0.15305670358E+02 -0.54403315993E+02  0.62472078565E+03  0.63445738622E+03  0.95216230594E+02 0.  0.
          5    1    4    4  502    0  0.48541705147E+02 -0.58475112025E+02  0.39643857348E+03  0.40368461503E+03  0.47000000000E+01 0. -1.
         -5    1    3    3    0  503  0.16149684256E+01  0.22520076947E+02  0.68114603369E+01  0.24046787324E+02  0.47000000000E+01 0.  1.
          5    1    3    3  503    0 -0.16920638784E+02  0.31883239046E+02  0.27944412457E+03  0.28180482200E+03  0.47000000000E+01 0.  1.
         -5    1    4    4    0  502 -0.33236034789E+02  0.40717960321E+01  0.22828221216E+03  0.23077277119E+03  0.47000000000E+01 0.  1.
<mgrwt>
<rscale>  0 0.10996551E+03</rscale>
<asrwt>0</asrwt>
<pdfrwt beam="1">  1        1 0.14240652E+00 0.11072540E+03</pdfrwt>
<pdfrwt beam="2">  1       -1 0.22563565E-02 0.11072540E+03</pdfrwt>
<totfact> 0.99571187E+03</totfact>
</mgrwt>
</event>
<event>
 8    1  0.8174053E-004  0.9995042E+02  0.7546771E-02  0.1281641E+00
          1   -1    0    0  501    0  0.00000000000E+00  0.00000000000E+00  0.17967283225E+03  0.17967283225E+03  0.00000000000E+00 0. -1.
         -1   -1    0    0    0  501 -0.00000000000E+00 -0.00000000000E+00 -0.74479674780E+02  0.74479674780E+02  0.00000000000E+00 0.  1.
         23    2    1    2    0    0  0.34346302004E+02  0.28461717992E+01 -0.13070912989E+02  0.10080146425E+03  0.93820665494E+02 0.  0.
         23    2    1    2    0    0 -0.34346302004E+02 -0.28461717992E+01  0.11826407046E+03  0.15335104278E+03  0.91336645463E+02 0.  0.
          5    1    4    4  502    0 -0.20302197737E+02 -0.36213158340E+02  0.10743420034E+03  0.11527258769E+03  0.47000000000E+01 0. -1.
         -5    1    3    3    0  503  0.64430359415E+02 -0.12244175562E+02 -0.54715886610E+01  0.65978930971E+02  0.47000000000E+01 0.  1.
          5    1    3    3  503    0 -0.30084057412E+02  0.15090347361E+02 -0.75993243281E+01  0.34822533281E+02  0.47000000000E+01 0. -1.
         -5    1    4    4    0  502 -0.14044104267E+02  0.33366986540E+02  0.10829870125E+02  0.38078455095E+02  0.47000000000E+01 0.  1.
<mgrwt>
<rscale>  0 0.99363286E+02</rscale>
<asrwt>0</asrwt>
<pdfrwt beam="1">  1        1 0.27641974E-01 0.99950420E+02</pdfrwt>
<pdfrwt beam="2">  1       -1 0.11458412E-01 0.99950420E+02</pdfrwt>
<totfact> 0.76619931E+03</totfact>
</mgrwt>
</event>
<event>
 8    1  0.1188669E-003  0.9556406E+02  0.7546771E-02  0.1293770E+00
          2   -1    0    0  501    0  0.00000000000E+00  0.00000000000E+00  0.31539466761E+03  0.31539466761E+03  0.00000000000E+00 0. -1.
         -2   -1    0    0    0  501 -0.00000000000E+00 -0.00000000000E+00 -0.73705599609E+02  0.73705599609E+02  0.00000000000E+00 0.  1.
         23    2    1    2    0    0 -0.18186477098E+02  0.69977452793E+01  0.27412150195E+03  0.28818271343E+03  0.86758066495E+02 0.  0.
         23    2    1    2    0    0  0.18186477098E+02 -0.69977452793E+01 -0.32432433943E+02  0.10091755379E+03  0.93556258496E+02 0.  0.
          5    1    4    4  502    0  0.56123739544E+02 -0.98635782460E+01 -0.21045206798E+02  0.60927457237E+02  0.47000000000E+01 0. -1.
         -5    1    3    3    0  503 -0.52098939746E+02  0.10365295392E+02  0.18879999199E+03  0.19618681364E+03  0.47000000000E+01 0.  1.
          5    1    3    3  503    0  0.33912462649E+02 -0.33675501126E+01  0.85321509962E+02  0.91995899794E+02  0.47000000000E+01 0. -1.
         -5    1    4    4    0  502 -0.37937262446E+02  0.28658329667E+01 -0.11387227145E+02  0.39990096556E+02  0.47000000000E+01 0.  1.
<mgrwt>
<rscale>  0 0.93857765E+02</rscale>
<asrwt>0</asrwt>
<pdfrwt beam="1">  1        2 0.48522256E-01 0.95564062E+02</pdfrwt>
<pdfrwt beam="2">  1       -2 0.11339323E-01 0.95564062E+02</pdfrwt>
<totfact> 0.52582895E+03</totfact>
</mgrwt>
</event>
<event>
 8    1  0.8174053E-004  0.1342144E+03  0.7546771E-02  0.1231858E+00
          1   -1    0    0  501    0  0.00000000000E+00  0.00000000000E+00  0.46888221564E+03  0.46888221564E+03  0.00000000000E+00 0. -1.
         -1   -1    0    0    0  501 -0.00000000000E+00 -0.00000000000E+00 -0.31482884318E+02  0.31482884318E+02  0.00000000000E+00 0.  1.
         23    2    1    2    0    0  0.47943165187E+02  0.29056382055E+02  0.26393182040E+03  0.29609714730E+03  0.12194545663E+03 0.  0.
         23    2    1    2    0    0 -0.47943165187E+02 -0.29056382055E+02  0.17346751092E+03  0.20426795266E+03  0.92149870924E+02 0.  0.
          5    1    4    4  502    0 -0.32824518477E+02  0.18367878738E+02  0.13762607806E+03  0.14275102572E+03  0.47000000000E+01 0. -1.
         -5    1    4    4    0  502 -0.15118646710E+02 -0.47424260793E+02  0.35841432862E+02  0.61516926936E+02  0.47000000000E+01 0.  1.
          5    1    3    3  503    0  0.17452351054E+02  0.51585675658E+02  0.24924746351E+03  0.25517063811E+03  0.47000000000E+01 0. -1.
         -5    1    3    3    0  503  0.30490814133E+02 -0.22529293603E+02  0.14684356893E+02  0.40926509186E+02  0.47000000000E+01 0.  1.
<mgrwt>
<rscale>  0 0.12707716E+03</rscale>
<asrwt>0</asrwt>
<pdfrwt beam="1">  1        1 0.72135720E-01 0.13421444E+03</pdfrwt>
<pdfrwt beam="2">  1       -1 0.48435210E-02 0.13421444E+03</pdfrwt>
<totfact> 0.86567255E+03</totfact>
</mgrwt>
</event>
<event>
 8    1  0.8174053E-004  0.9858822E+02  0.7546771E-02  0.1284667E+00
          1   -1    0    0  501    0  0.00000000000E+00  0.00000000000E+00  0.13997027184E+03  0.13997027184E+03  0.00000000000E+00 0. -1.
         -1   -1    0    0    0  501 -0.00000000000E+00 -0.00000000000E+00 -0.71008653939E+02  0.71008653939E+02  0.00000000000E+00 0.  1.
         23    2    1    2    0    0  0.62526348359E+01 -0.37808074742E+02  0.12041587922E+02  0.99320879553E+02  0.90835517930E+02 0.  0.
         23    2    1    2    0    0 -0.62526348359E+01  0.37808074742E+02  0.56920029980E+02  0.11165804623E+03  0.88085660104E+02 0.  0.
          5    1    4    4  502    0 -0.32649277047E+02  0.55032331726E+02  0.39380991725E+02  0.75282702769E+02  0.47000000000E+01 0. -1.
         -5    1    4    4    0  502  0.26396642211E+02 -0.17224256985E+02  0.17539038255E+02  0.36375343457E+02  0.47000000000E+01 0.  1.
          5    1    3    3  503    0  0.17371486226E+02  0.25391112702E+02  0.15734603535E+02  0.34873268937E+02  0.47000000000E+01 0. -1.
         -5    1    3    3    0  503 -0.11118851390E+02 -0.63199187444E+02 -0.36930156130E+01  0.64447610616E+02  0.47000000000E+01 0.  1.
<mgrwt>
<rscale>  0 0.97950135E+02</rscale>
<asrwt>0</asrwt>
<pdfrwt beam="1">  1        1 0.21533888E-01 0.98588221E+02</pdfrwt>
<pdfrwt beam="2">  1       -1 0.10924408E-01 0.98588221E+02</pdfrwt>
<totfact> 0.11230366E+04</totfact>
</mgrwt>
</event>
<event>
 8    1  0.8174053E-004  0.9422589E+02  0.7546771E-02  0.1293688E+00
          1   -1    0    0  501    0  0.00000000000E+00  0.00000000000E+00  0.11408535262E+03  0.11408535262E+03  0.00000000000E+00 0. -1.
         -1   -1    0    0    0  501 -0.00000000000E+00 -0.00000000000E+00 -0.82541414416E+02  0.82541414416E+02  0.00000000000E+00 0.  1.
         23    2    1    2    0    0  0.37008066563E+01 -0.15944332747E+02 -0.10198724874E+02  0.94776227198E+02  0.92793327002E+02 0.  0.
         23    2    1    2    0    0 -0.37008066563E+01  0.15944332747E+02  0.41742663076E+02  0.10185053984E+03  0.91450340773E+02 0.  0.
          5    1    3    3  502    0 -0.36534608661E+02  0.18132654529E+02 -0.77626891868E+01  0.41784209143E+02  0.47000000000E+01 0. -1.
         -5    1    3    3    0  502  0.40235415318E+02 -0.34076987277E+02 -0.24360356872E+01  0.52992018055E+02  0.47000000000E+01 0.  1.
          5    1    4    4  503    0  0.27916208225E+02  0.42691472136E+02  0.23020027593E+02  0.56159488470E+02  0.47000000000E+01 0. -1.
         -5    1    4    4    0  503 -0.31617014882E+02 -0.26747139389E+02  0.18722635484E+02  0.45691051366E+02  0.47000000000E+01 0.  1.
<mgrwt>
<rscale>  0 0.93893572E+02</rscale>
<asrwt>0</asrwt>
<pdfrwt beam="1">  1        1 0.17551593E-01 0.94225895E+02</pdfrwt>
<pdfrwt beam="2">  1       -1 0.12698679E-01 0.94225895E+02</pdfrwt>
<totfact> 0.11498930E+04</totfact>
</mgrwt>
</event>
<event>
 8    1  0.8174053E-004  0.1038998E+03  0.7546771E-02  0.1273596E+00
         -2   -1    0    0    0  501 -0.00000000000E+00  0.00000000000E+00  0.74929845050E+02  0.74929845050E+02  0.00000000000E+00 0.  1.
          2   -1    0    0  501    0  0.00000000000E+00 -0.00000000000E+00 -0.14933389763E+03  0.14933389763E+03  0.00000000000E+00 0. -1.
         23    2    1    2    0    0  0.26731036696E+02  0.37509186543E+02 -0.64832272312E+02  0.12246789540E+03  0.93132563969E+02 0.  0.
         23    2    1    2    0    0 -0.26731036696E+02 -0.37509186543E+02 -0.95717802667E+01  0.10179584728E+03  0.90273407760E+02 0.  0.
          5    1    3    3  502    0 -0.18917107400E+02 -0.19593048612E+02 -0.54576563376E+01  0.28171271164E+02  0.47000000000E+01 0. -1.
         -5    1    4    4    0  503 -0.45112068520E+01  0.29624649231E+02 -0.53329437241E+01  0.30797745341E+02  0.47000000000E+01 0.  1.
          5    1    4    4  503    0 -0.22219829844E+02 -0.67133835775E+02 -0.42388365426E+01  0.70998101942E+02  0.47000000000E+01 0. -1.
         -5    1    3    3    0  502  0.45648144096E+02  0.57102235156E+02 -0.59374615974E+02  0.94296624231E+02  0.47000000000E+01 0.  1.
<mgrwt>
<rscale>  0 0.10325506E+03</rscale>
<asrwt>0</asrwt>
<pdfrwt beam="1">  1        2 0.22974446E-01 0.10389977E+03</pdfrwt>
<pdfrwt beam="2">  1       -2 0.11527669E-01 0.10389977E+03</pdfrwt>
<totfact> 0.11455218E+04</totfact>
</mgrwt>
</event>
<event>
 8    1  0.8174053E-004  0.1020338E+03  0.7546771E-02  0.1277979E+00
          1   -1    0    0  501    0  0.00000000000E+00  0.00000000000E+00  0.28042316313E+03  0.28042316313E+03  0.00000000000E+00 0. -1.
         -1   -1    0    0    0  501 -0.00000000000E+00 -0.00000000000E+00 -0.53693858830E+02  0.53693858830E+02  0.00000000000E+00 0.  1.
         23    2    1    2    0    0 -0.26698561542E+02  0.37400187951E+02  0.15590308557E+02  0.99616343897E+02  0.86998683917E+02 0.  0.
         23    2    1    2    0    0  0.26698561542E+02 -0.37400187951E+02  0.21113899574E+03  0.23450067806E+03  0.91100522727E+02 0.  0.
          5    1    3    3  502    0 -0.28440513102E+02  0.63680052587E+02  0.19521584574E+02  0.72575437631E+02  0.47000000000E+01 0. -1.
         -5    1    3    3    0  502  0.17419515606E+01 -0.26279864636E+02 -0.39312760171E+01  0.27040906266E+02  0.47000000000E+01 0.  1.
          5    1    4    4  503    0 -0.20872146792E+02 -0.20460176582E+02  0.15912182141E+03  0.16185212197E+03  0.47000000000E+01 0. -1.
         -5    1    4    4    0  503  0.47570708334E+02 -0.16940011369E+02  0.52017174332E+02  0.72648556091E+02  0.47000000000E+01 0.  1.
<mgrwt>
<rscale>  0 0.10111007E+03</rscale>
<asrwt>0</asrwt>
<pdfrwt beam="1">  1        1 0.43142024E-01 0.10203378E+03</pdfrwt>
<pdfrwt beam="2">  1       -1 0.82605938E-02 0.10203378E+03</pdfrwt>
<totfact> 0.72866875E+03</totfact>
</mgrwt>
</event>
<event>
 8    1  0.8174053E-004  0.1028719E+03  0.7546771E-02  0.1274500E+00
         -2   -1    0    0    0  501 -0.00000000000E+00  0.00000000000E+00  0.35204218812E+03  0.35204218812E+03  0.00000000000E+00 0.  1.
          2   -1    0    0  501    0  0.00000000000E+00 -0.00000000000E+00 -0.33529400632E+02  0.33529400632E+02  0.00000000000E+00 0. -1.
         23    2    1    2    0    0  0.10832263763E+02 -0.41570010218E+02  0.96760158527E+02  0.14122730241E+03  0.93473092286E+02 0.  0.
         23    2    1    2    0    0 -0.10832263763E+02  0.41570010218E+02  0.22175262896E+03  0.24434428634E+03  0.93190654717E+02 0.  0.
          5    1    4    4  502    0  0.92341181157E+01  0.29879355229E+02  0.12904586108E+02  0.34156451058E+02  0.47000000000E+01 0. -1.
         -5    1    3    3    0  503 -0.20551211846E+02 -0.49704138506E+02  0.93936182251E+02  0.10834643524E+03  0.47000000000E+01 0.  1.
          5    1    3    3  503    0  0.31383475609E+02  0.81341282883E+01  0.28239762762E+01  0.32880867177E+02  0.47000000000E+01 0. -1.
         -5    1    4    4    0  502 -0.20066381879E+02  0.11690654989E+02  0.20884804285E+03  0.21018783528E+03  0.47000000000E+01 0.  1.
<mgrwt>
<rscale>  0 0.10280767E+03</rscale>
<asrwt>0</asrwt>
<pdfrwt beam="1">  1        2 0.51583696E-02 0.10287188E+03</pdfrwt>
<pdfrwt beam="2">  1       -2 0.54160334E-01 0.10287188E+03</pdfrwt>
<totfact> 0.45742337E+03</totfact>
</mgrwt>
</event>
<event>
 8    1  0.8174053E-004  0.3277250E+03  0.7546771E-02  0.1072166E+00
          2   -1    0    0  501    0  0.00000000000E+00  0.00000000000E+00  0.14993869863E+04  0.14993869863E+04  0.00000000000E+00 0. -1.
         -2   -1    0    0    0  501 -0.00000000000E+00 -0.00000000000E+00 -0.78078194691E+02  0.78078194691E+02  0.00000000000E+00 0.  1.
         23    2    1    2    0    0 -0.96539900004E+02 -0.29947413024E+03  0.48355988897E+03  0.58415223807E+03  0.91645862148E+02 0.  0.
         23    2    1    2    0    0  0.96539900004E+02  0.29947413024E+03  0.93774890266E+03  0.99331294293E+03  0.91065312752E+02 0.  0.
          5    1    4    4  502    0  0.66166131558E+02  0.25180303295E+03  0.84857619344E+03  0.88762963585E+03  0.47000000000E+01 0. -1.
         -5    1    4    4    0  502  0.30373768446E+02  0.47671097295E+02  0.89172709222E+02  0.10568330709E+03  0.47000000000E+01 0.  1.
          5    1    3    3  503    0 -0.10856728956E+02 -0.33235747325E+02  0.12211323187E+03  0.12710709997E+03  0.47000000000E+01 0. -1.
         -5    1    3    3    0  503 -0.85683171048E+02 -0.26623838292E+03  0.36144665709E+03  0.45704513810E+03  0.47000000000E+01 0.  1.
<mgrwt>
<rscale>  0 0.32768452E+03</rscale>
<asrwt>0</asrwt>
<pdfrwt beam="1">  1        2 0.23067490E+00 0.32772499E+03</pdfrwt>
<pdfrwt beam="2">  1       -2 0.12012031E-01 0.32772499E+03</pdfrwt>
<totfact> 0.67202865E+02</totfact>
</mgrwt>
</event>
<event>
 8    1  0.8174053E-004  0.1107135E+03  0.7546771E-02  0.1261665E+00
         -1   -1    0    0    0  501 -0.00000000000E+00  0.00000000000E+00  0.12070212461E+02  0.12070212461E+02  0.00000000000E+00 0.  1.
          1   -1    0    0  501    0  0.00000000000E+00 -0.00000000000E+00 -0.97493807173E+03  0.97493807173E+03  0.00000000000E+00 0. -1.
         23    2    1    2    0    0 -0.31675158622E+02  0.56060744860E+02 -0.50828021258E+03  0.51913287389E+03  0.83690163493E+02 0.  0.
         23    2    1    2    0    0  0.31675158622E+02 -0.56060744860E+02 -0.45458764669E+03  0.46787541030E+03  0.90063023784E+02 0.  0.
          5    1    3    3  502    0  0.82577767577E+01  0.53816681791E+02 -0.39790995149E+03  0.40164517377E+03  0.47000000000E+01 0. -1.
         -5    1    3    3    0  502 -0.39932935380E+02  0.22440630691E+01 -0.11037026109E+03  0.11748770012E+03  0.47000000000E+01 0.  1.
          5    1    4    4  503    0  0.23956769075E+02 -0.79635346272E+02 -0.38339504367E+03  0.39233858423E+03  0.47000000000E+01 0. -1.
         -5    1    4    4    0  503  0.77183895473E+01  0.23574601412E+02 -0.71192603019E+02  0.75536826076E+02  0.47000000000E+01 0.  1.
<mgrwt>
<rscale>  0 0.10941088E+03</rscale>
<asrwt>0</asrwt>
<pdfrwt beam="1">  1        1 0.14999048E+00 0.11071346E+03</pdfrwt>
<pdfrwt beam="2">  1       -1 0.18569557E-02 0.11071346E+03</pdfrwt>
<totfact> 0.12104925E+04</totfact>
</mgrwt>
</event>
<event>
 8    1  0.8174053E-004  0.9400958E+02  0.7546771E-02  0.1293729E+00
          2   -1    0    0  501    0  0.00000000000E+00  0.00000000000E+00  0.28792830702E+02  0.28792830702E+02  0.00000000000E+00 0. -1.
         -2   -1    0    0    0  501 -0.00000000000E+00 -0.00000000000E+00 -0.37573471924E+03  0.37573471924E+03  0.00000000000E+00 0.  1.
         23    2    1    2    0    0 -0.87545713690E+01 -0.28046141912E+02 -0.86238812405E+02  0.12757324906E+03  0.89300462007E+02 0.  0.
         23    2    1    2    0    0  0.87545713690E+01  0.28046141912E+02 -0.26070307613E+03  0.27695430088E+03  0.88737603504E+02 0.  0.
          5    1    4    4  502    0 -0.13937453351E+02 -0.27446415307E+02 -0.11925248090E+03  0.12325097370E+03  0.47000000000E+01 0. -1.
         -5    1    3    3    0  503 -0.26345154314E+02  0.19467984247E+02 -0.63985019568E+02  0.72036395632E+02  0.47000000000E+01 0.  1.
          5    1    3    3  503    0  0.17590582945E+02 -0.47514126160E+02 -0.22253792837E+02  0.55536853428E+02  0.47000000000E+01 0. -1.
         -5    1    4    4    0  502  0.22692024720E+02  0.55492557219E+02 -0.14145059524E+03  0.15370332718E+03  0.47000000000E+01 0.  1.
<mgrwt>
<rscale>  0 0.93875669E+02</rscale>
<asrwt>0</asrwt>
<pdfrwt beam="1">  1        2 0.44296666E-02 0.94009580E+02</pdfrwt>
<pdfrwt beam="2">  1       -2 0.57805337E-01 0.94009580E+02</pdfrwt>
<totfact> 0.48502964E+03</totfact>
</mgrwt>
</event>
<event>
 8    1  0.8174053E-004  0.9412153E+02  0.7546771E-02  0.1294850E+00
         -2   -1    0    0    0  501 -0.00000000000E+00  0.00000000000E+00  0.42998912695E+02  0.42998912695E+02  0.00000000000E+00 0.  1.
          2   -1    0    0  501    0  0.00000000000E+00 -0.00000000000E+00 -0.22577136501E+03  0.22577136501E+03  0.00000000000E+00 0. -1.
         23    2    1    2    0    0 -0.29059469716E+01  0.57669914679E+01 -0.47010004009E+02  0.10520837557E+03  0.93899728934E+02 0.  0.
         23    2    1    2    0    0  0.29059469716E+01 -0.57669914679E+01 -0.13576244831E+03  0.16356190214E+03  0.90990937696E+02 0.  0.
          5    1    3    3  502    0 -0.26641799140E+01  0.49577200675E+02 -0.21630819388E+02  0.54359718807E+02  0.47000000000E+01 0. -1.
         -5    1    4    4    0  503  0.40468279615E+02 -0.20373954045E+02 -0.98281692241E+02  0.10832433101E+03  0.47000000000E+01 0.  1.
          5    1    4    4  503    0 -0.37562332643E+02  0.14606962577E+02 -0.37480756066E+02  0.55237571132E+02  0.47000000000E+01 0. -1.
         -5    1    3    3    0  502 -0.24176705765E+00 -0.43810209207E+02 -0.25379184621E+02  0.50848656759E+02  0.47000000000E+01 0.  1.
<mgrwt>
<rscale>  0 0.93387556E+02</rscale>
<asrwt>0</asrwt>
<pdfrwt beam="1">  1        2 0.34734057E-01 0.94121527E+02</pdfrwt>
<pdfrwt beam="2">  1       -2 0.66152172E-02 0.94121527E+02</pdfrwt>
<totfact> 0.17111038E+04</totfact>
</mgrwt>
</event>
<event>
 8    1  0.8174053E-004  0.1281577E+03  0.7546771E-02  0.1231034E+00
         -2   -1    0    0    0  501 -0.00000000000E+00  0.00000000000E+00  0.98520416025E+02  0.98520416025E+02  0.00000000000E+00 0.  1.
          2   -1    0    0  501    0  0.00000000000E+00 -0.00000000000E+00 -0.17901672311E+03  0.17901672311E+03  0.00000000000E+00 0. -1.
         23    2    1    2    0    0 -0.32797177110E+01  0.69332749657E+02  0.34819970485E+00  0.12601076381E+03  0.10517036003E+03 0.  0.
         23    2    1    2    0    0  0.32797177110E+01 -0.69332749657E+02 -0.80844506791E+02  0.15152637533E+03  0.10773403092E+03 0.  0.
          5    1    3    3  502    0 -0.20996821571E+02 -0.23069076266E+02 -0.34362664387E+01  0.31732423842E+02  0.47000000000E+01 0. -1.
         -5    1    4    4    0  503  0.36235464392E+02  0.25929740010E+01  0.22440881592E+01  0.36699568465E+02  0.47000000000E+01 0.  1.
          5    1    4    4  503    0 -0.32955746681E+02 -0.71925723658E+02 -0.83088594950E+02  0.11482680686E+03  0.47000000000E+01 0. -1.
         -5    1    3    3    0  502  0.17717103860E+02  0.92401825923E+02  0.37844661435E+01  0.94278339967E+02  0.47000000000E+01 0.  1.
<mgrwt>
<rscale>  0 0.12761747E+03</rscale>
<asrwt>0</asrwt>
<pdfrwt beam="1">  1        2 0.27541034E-01 0.12815775E+03</pdfrwt>
<pdfrwt beam="2">  1       -2 0.15156987E-01 0.12815775E+03</pdfrwt>
<totfact> 0.61510854E+03</totfact>
</mgrwt>
</event>
<event>
 8    1  0.8174053E-004  0.9721555E+02  0.7546771E-02  0.1288372E+00
          2   -1    0    0  501    0  0.00000000000E+00  0.00000000000E+00  0.66891718200E+03  0.66891718200E+03  0.00000000000E+00 0. -1.
         -2   -1    0    0    0  501 -0.00000000000E+00 -0.00000000000E+00 -0.35197136893E+02  0.35197136893E+02  0.00000000000E+00 0.  1.
         23    2    1    2    0    0  0.19035742583E+02 -0.21069873106E+02  0.43429873275E+02  0.10647543200E+03  0.92976151122E+02 0.  0.
         23    2    1    2    0    0 -0.19035742583E+02  0.21069873106E+02  0.59029017184E+03  0.59763888690E+03  0.89013780526E+02 0.  0.
          5    1    4    4  502    0 -0.51254108269E+02  0.25741182104E+02  0.44290109958E+03  0.44662407692E+03  0.47000000000E+01 0. -1.
         -5    1    4    4    0  502  0.32218365686E+02 -0.46713089971E+01  0.14738907225E+03  0.15101480998E+03  0.47000000000E+01 0.  1.
          5    1    3    3  503    0 -0.11901279935E+02 -0.51672318053E+02  0.20312326549E+02  0.56976745492E+02  0.47000000000E+01 0. -1.
         -5    1    3    3    0  503  0.30937022518E+02  0.30602444946E+02  0.23117546726E+02  0.49498686504E+02  0.47000000000E+01 0.  1.
<mgrwt>
<rscale>  0 0.96255832E+02</rscale>
<asrwt>0</asrwt>
<pdfrwt beam="1">  1        2 0.10291033E+00 0.97215553E+02</pdfrwt>
<pdfrwt beam="2">  1       -2 0.54149446E-02 0.97215553E+02</pdfrwt>
<totfact> 0.72423157E+03</totfact>
</mgrwt>
</event>
<event>
 8    1  0.8174053E-004  0.1134264E+03  0.7546771E-02  0.1259992E+00
         -2   -1    0    0    0  501 -0.00000000000E+00  0.00000000000E+00  0.11986122385E+02  0.11986122385E+02  0.00000000000E+00 0.  1.
          2   -1    0    0  501    0  0.00000000000E+00 -0.00000000000E+00 -0.10288546167E+04  0.10288546167E+04  0.00000000000E+00 0. -1.
         23    2    1    2    0    0  0.11962539775E+02  0.50056806880E+02 -0.35074654157E+03  0.36513073710E+03  0.87455888755E+02 0.  0.
         23    2    1    2    0    0 -0.11962539775E+02 -0.50056806880E+02 -0.66612195275E+03  0.67571000199E+03  0.10107801236E+03 0.  0.
          5    1    3    3  502    0  0.28050490516E+02  0.69745956164E+02 -0.24842772146E+03  0.25959536054E+03  0.47000000000E+01 0. -1.
         -5    1    4    4    0  503 -0.36814165741E+02 -0.63790217627E+02 -0.58494428030E+03  0.58958152594E+03  0.47000000000E+01 0.  1.
          5    1    4    4  503    0  0.24851625966E+02  0.13733410747E+02 -0.81177672443E+02  0.86128476053E+02  0.47000000000E+01 0. -1.
         -5    1    3    3    0  502 -0.16087950742E+02 -0.19689149284E+02 -0.10231882011E+03  0.10553537656E+03  0.47000000000E+01 0.  1.
<mgrwt>
<rscale>  0 0.11031287E+03</rscale>
<asrwt>0</asrwt>
<pdfrwt beam="1">  1        2 0.15828536E+00 0.11342641E+03</pdfrwt>
<pdfrwt beam="2">  1       -2 0.18440185E-02 0.11342641E+03</pdfrwt>
<totfact> 0.20662326E+04</totfact>
</mgrwt>
</event>
<event>
 8    1  0.8174053E-004  0.1040005E+03  0.7546771E-02  0.1272111E+00
          1   -1    0    0  501    0  0.00000000000E+00  0.00000000000E+00  0.16485290417E+02  0.16485290417E+02  0.00000000000E+00 0. -1.
         -1   -1    0    0    0  501 -0.00000000000E+00 -0.00000000000E+00 -0.65956807082E+03  0.65956807082E+03  0.00000000000E+00 0.  1.
         23    2    1    2    0    0 -0.48925936052E+02  0.22487118742E+01 -0.34647889775E+03  0.36175091224E+03  0.91745800976E+02 0.  0.
         23    2    1    2    0    0  0.48925936052E+02 -0.22487118742E+01 -0.29660388265E+03  0.31430244900E+03  0.91724382349E+02 0.  0.
          5    1    4    4  502    0  0.21925251683E+02  0.19700382235E+02 -0.21058895721E+02  0.36529287025E+02  0.47000000000E+01 0. -1.
         -5    1    3    3    0  503 -0.78552756829E+01  0.40489250535E+02 -0.21082191809E+03  0.21486985808E+03  0.47000000000E+01 0. -1.
          5    1    3    3  503    0 -0.41070660369E+02 -0.38240538660E+02 -0.13565697966E+03  0.14688105416E+03  0.47000000000E+01 0.  1.
         -5    1    4    4    0  502  0.27000684368E+02 -0.21949094109E+02 -0.27554498693E+03  0.27777316197E+03  0.47000000000E+01 0.  1.
<mgrwt>
<rscale>  0 0.10399574E+03</rscale>
<asrwt>0</asrwt>
<pdfrwt beam="1">  1        1 0.25361984E-02 0.10400046E+03</pdfrwt>
<pdfrwt beam="2">  1       -1 0.10147202E+00 0.10400046E+03</pdfrwt>
<totfact> 0.39630095E+03</totfact>
</mgrwt>
</event>
<event>
 8    1  0.8174053E-004  0.1133289E+03  0.7546771E-02  0.1255170E+00
          1   -1    0    0  501    0  0.00000000000E+00  0.00000000000E+00  0.17186603745E+04  0.17186603745E+04  0.00000000000E+00 0. -1.
         -1   -1    0    0    0  501 -0.00000000000E+00 -0.00000000000E+00 -0.81482388028E+01  0.81482388028E+01  0.00000000000E+00 0.  1.
         23    2    1    2    0    0 -0.32100780012E+02  0.58772555818E+02  0.11255611383E+04  0.11312520992E+04  0.91426268084E+02 0.  0.
         23    2    1    2    0    0  0.32100780012E+02 -0.58772555818E+02  0.58495099738E+03  0.59555651409E+03  0.89639381639E+02 0.  0.
          5    1    4    4  502    0  0.14144832849E+02  0.23104559919E+02  0.16832287171E+03  0.17055373384E+03  0.47000000000E+01 0. -1.
         -5    1    4    4    0  502  0.17955947163E+02 -0.81877115737E+02  0.41662812567E+03  0.42500278025E+03  0.47000000000E+01 0.  1.
          5    1    3    3  503    0  0.31351059534E+02  0.29431626403E+02  0.42380708270E+03  0.42600897046E+03  0.47000000000E+01 0.  1.
         -5    1    3    3    0  503 -0.63451839546E+02  0.29340929415E+02  0.70175405561E+03  0.70524312875E+03  0.47000000000E+01 0. -1.
<mgrwt>
<rscale>  0 0.11296802E+03</rscale>
<asrwt>0</asrwt>
<pdfrwt beam="1">  1        1 0.26440900E+00 0.11332888E+03</pdfrwt>
<pdfrwt beam="2">  1       -1 0.12535766E-02 0.11332888E+03</pdfrwt>
<totfact> 0.67897504E+03</totfact>
</mgrwt>
</event>
<event>
 8    1  0.8174053E-004  0.9772749E+02  0.7546771E-02  0.1285902E+00
          1   -1    0    0  501    0  0.00000000000E+00  0.00000000000E+00  0.77627777733E+02  0.77627777733E+02  0.00000000000E+00 0. -1.
         -1   -1    0    0    0  501 -0.00000000000E+00 -0.00000000000E+00 -0.14251599647E+03  0.14251599647E+03  0.00000000000E+00 0.  1.
         23    2    1    2    0    0 -0.28970939512E+02 -0.11059999371E+02 -0.74715679041E+02  0.12192340466E+03  0.91220858290E+02 0.  0.
         23    2    1    2    0    0  0.28970939512E+02  0.11059999371E+02  0.98274603022E+01  0.98220369545E+02  0.92676982554E+02 0.  0.
          5    1    4    4  502    0 -0.15447617267E+02  0.36283703371E+02  0.22137409997E+02  0.45467471129E+02  0.47000000000E+01 0. -1.
         -5    1    3    3    0  503  0.19780900401E+02 -0.10816960083E+02 -0.68844374500E+02  0.72594273510E+02  0.47000000000E+01 0.  1.
          5    1    3    3  503    0 -0.48751839913E+02 -0.24303928800E+00 -0.58713045405E+01  0.49329131150E+02  0.47000000000E+01 0. -1.
         -5    1    4    4    0  502  0.44418556779E+02 -0.25223704000E+02 -0.12309949695E+02  0.52752898416E+02  0.47000000000E+01 0.  1.
<mgrwt>
<rscale>  0 0.97380706E+02</rscale>
<asrwt>0</asrwt>
<pdfrwt beam="1">  1        1 0.11942735E-01 0.97727489E+02</pdfrwt>
<pdfrwt beam="2">  1       -1 0.21925538E-01 0.97727489E+02</pdfrwt>
<totfact> 0.80359480E+03</totfact>
</mgrwt>
</event>
<event>
 8    1  0.8174053E-004  0.1588868E+03  0.7546771E-02  0.1190247E+00
         -1   -1    0    0    0  501 -0.00000000000E+00  0.00000000000E+00  0.40969953491E+02  0.40969953491E+02  0.00000000000E+00 0.  1.
          1   -1    0    0  501    0  0.00000000000E+00 -0.00000000000E+00 -0.66958867089E+03  0.66958867089E+03  0.00000000000E+00 0. -1.
         23    2    1    2    0    0  0.71851563254E+02  0.10854366322E+03 -0.41732516704E+03  0.44619150864E+03  0.89343121572E+02 0.  0.
         23    2    1    2    0    0 -0.71851563254E+02 -0.10854366322E+03 -0.21129355036E+03  0.26436711574E+03  0.91107812474E+02 0.  0.
          5    1    3    3  502    0  0.82785068039E+02  0.82287770805E+02 -0.38744225730E+03  0.40467052952E+03  0.47000000000E+01 0. -1.
         -5    1    3    3    0  502 -0.10933504785E+02  0.26255892413E+02 -0.29882909739E+02  0.41520979128E+02  0.47000000000E+01 0.  1.
          5    1    4    4  503    0 -0.43502751945E+02 -0.11863427666E+03 -0.15207933761E+03  0.19777966517E+03  0.47000000000E+01 0. -1.
         -5    1    4    4    0  503 -0.28348811309E+02  0.10090613441E+02 -0.59214212747E+02  0.66587450570E+02  0.47000000000E+01 0.  1.
<mgrwt>
<rscale>  0 0.15863486E+03</rscale>
<asrwt>0</asrwt>
<pdfrwt beam="1">  1        1 0.10301364E+00 0.15888678E+03</pdfrwt>
<pdfrwt beam="2">  1       -1 0.63030701E-02 0.15888678E+03</pdfrwt>
<totfact> 0.36553465E+03</totfact>
</mgrwt>
</event>
<event>
 8    1  0.8174053E-004  0.1195519E+03  0.7546771E-02  0.1244315E+00
          1   -1    0    0  501    0  0.00000000000E+00  0.00000000000E+00  0.92009530230E+03  0.92009530230E+03  0.00000000000E+00 0. -1.
         -1   -1    0    0    0  501 -0.00000000000E+00 -0.00000000000E+00 -0.16956394309E+02  0.16956394309E+02  0.00000000000E+00 0.  1.
         23    2    1    2    0    0  0.21772035091E+02  0.71346219511E+02  0.59615073353E+03  0.60802002226E+03  0.93425616555E+02 0.  0.
         23    2    1    2    0    0 -0.21772035091E+02 -0.71346219511E+02  0.30698817446E+03  0.32903167435E+03  0.91955418088E+02 0.  0.
          5    1    4    4  502    0  0.27242865713E+02 -0.82568232632E+01  0.15078207744E+03  0.15351766588E+03  0.47000000000E+01 0. -1.
         -5    1    4    4    0  502 -0.49014900804E+02 -0.63089396248E+02  0.15620609703E+03  0.17551400847E+03  0.47000000000E+01 0.  1.
          5    1    3    3  503    0  0.33942782318E+02  0.47637332499E+02  0.55892682552E+03  0.56199885605E+03  0.47000000000E+01 0. -1.
         -5    1    3    3    0  503 -0.12170747227E+02  0.23708887012E+02  0.37223908012E+02  0.46021166208E+02  0.47000000000E+01 0.  1.
<mgrwt>
<rscale>  0 0.11926450E+03</rscale>
<asrwt>0</asrwt>
<pdfrwt beam="1">  1        1 0.14155308E+00 0.11955187E+03</pdfrwt>
<pdfrwt beam="2">  1       -1 0.26086768E-02 0.11955187E+03</pdfrwt>
<totfact> 0.81932868E+03</totfact>
</mgrwt>
</event>
<event>
 7    1  0.8174053E-004  0.1871090E+03  0.7546771E-02  0.1183943E+00
         -1   -1    0    0    0  501 -0.00000000000E+00  0.00000000000E+00  0.14808632615E+03  0.14808632615E+03  0.00000000000E+00 0.  1.
          1   -1    0    0  501    0  0.00000000000E+00 -0.00000000000E+00 -0.15651892671E+03  0.15651892671E+03  0.00000000000E+00 0. -1.
         23    2    1    2    0    0  0.48457917300E+02 -0.46990838270E+02 -0.32753857121E+02  0.11592218682E+03  0.88367582354E+02 0.  0.
          5    1    1    2  502    0 -0.80751973203E+02  0.22912929455E+02 -0.54394887404E+02  0.10013379693E+03  0.47000000000E+01 0. -1.
         -5    1    3    3    0  503  0.28740656279E+02  0.23118955799E+02 -0.18620502140E+02  0.41585148076E+02  0.47000000000E+01 0.  1.
          5    1    3    3  503    0  0.19717261021E+02 -0.70109794069E+02 -0.14133354981E+02  0.74337038747E+02  0.47000000000E+01 0. -1.
         -5    1    1    2    0  502  0.32294055903E+02  0.24077908815E+02  0.78716143957E+02  0.88549269105E+02  0.47000000000E+01 0.  1.
<mgrwt>
<rscale>  0 0.16428423E+03</rscale>
<asrwt>0</asrwt>
<pdfrwt beam="1">  1        1 0.24079835E-01 0.18710899E+03</pdfrwt>
<pdfrwt beam="2">  1       -1 0.22782512E-01 0.18710899E+03</pdfrwt>
<totfact> 0.31991966E+03</totfact>
</mgrwt>
</event>
<event>
 8    1  0.8174053E-004  0.2167825E+03  0.7546771E-02  0.1136710E+00
          1   -1    0    0  501    0  0.00000000000E+00  0.00000000000E+00  0.48228350938E+03  0.48228350938E+03  0.00000000000E+00 0. -1.
         -1   -1    0    0    0  501 -0.00000000000E+00 -0.00000000000E+00 -0.99380628768E+02  0.99380628768E+02  0.00000000000E+00 0.  1.
         23    2    1    2    0    0 -0.17567057484E+03 -0.85468910174E+02  0.24196425674E+03  0.32487126836E+03  0.93965706481E+02 0.  0.
         23    2    1    2    0    0  0.17567057484E+03  0.85468910174E+02  0.14093862387E+03  0.25679286979E+03  0.88959523403E+02 0.  0.
          5    1    3    3  502    0 -0.21026470943E+02 -0.34347386191E+01  0.91266864502E+02  0.93838374164E+02  0.47000000000E+01 0. -1.
         -5    1    4    4    0  503  0.13161495713E+03  0.89094182820E+02  0.14073153329E+03  0.21233870306E+03  0.47000000000E+01 0.  1.
          5    1    4    4  503    0  0.44055617706E+02 -0.36252726461E+01  0.20709058082E+00  0.44454166731E+02  0.47000000000E+01 0. -1.
         -5    1    3    3    0  502 -0.15464410390E+03 -0.82034171555E+02  0.15069739224E+03  0.23103289419E+03  0.47000000000E+01 0.  1.
<mgrwt>
<rscale>  0 0.21624987E+03</rscale>
<asrwt>0</asrwt>
<pdfrwt beam="1">  1        1 0.74197462E-01 0.21678247E+03</pdfrwt>
<pdfrwt beam="2">  1       -1 0.15289328E-01 0.21678247E+03</pdfrwt>
<totfact> 0.14723737E+03</totfact>
</mgrwt>
</event>
<event>
 8    1  0.8174053E-004  0.9369377E+02  0.7546771E-02  0.1294396E+00
          1   -1    0    0  501    0  0.00000000000E+00  0.00000000000E+00  0.30140279305E+02  0.30140279305E+02  0.00000000000E+00 0. -1.
         -1   -1    0    0    0  501 -0.00000000000E+00 -0.00000000000E+00 -0.31070174048E+03  0.31070174048E+03  0.00000000000E+00 0.  1.
         23    2    1    2    0    0 -0.17041031377E+02  0.92408635919E+01 -0.96491429385E+02  0.13449579377E+03  0.91666418531E+02 0.  0.
         23    2    1    2    0    0  0.17041031377E+02 -0.92408635919E+01 -0.18407003179E+03  0.20634622602E+03  0.91220601169E+02 0.  0.
          5    1    3    3  502    0 -0.12806694388E+02  0.50103220432E+02 -0.59968650223E+02  0.79326370951E+02  0.47000000000E+01 0. -1.
         -5    1    4    4    0  503  0.38829976443E+02 -0.21727214331E+02 -0.17266344457E+03  0.17836645987E+03  0.47000000000E+01 0.  1.
          5    1    4    4  503    0 -0.21788945066E+02  0.12486350739E+02 -0.11406587217E+02  0.27979766150E+02  0.47000000000E+01 0. -1.
         -5    1    3    3    0  502 -0.42343369886E+01 -0.40862356840E+02 -0.36522779163E+02  0.55169422817E+02  0.47000000000E+01 0.  1.
<mgrwt>
<rscale>  0 0.93584548E+02</rscale>
<asrwt>0</asrwt>
<pdfrwt beam="1">  1        1 0.46369661E-02 0.93693770E+02</pdfrwt>
<pdfrwt beam="2">  1       -1 0.47800267E-01 0.93693770E+02</pdfrwt>
<totfact> 0.75651780E+03</totfact>
</mgrwt>
</event>
<event>
 8    1  0.8174053E-004  0.1100370E+03  0.7546771E-02  0.1260985E+00
          4   -1    0    0  501    0  0.00000000000E+00  0.00000000000E+00  0.11562772291E+03  0.11562772291E+03  0.00000000000E+00 0. -1.
         -4   -1    0    0    0  501 -0.00000000000E+00 -0.00000000000E+00 -0.11971075092E+03  0.11971075092E+03  0.00000000000E+00 0.  1.
         23    2    1    2    0    0 -0.14397505816E+02 -0.53815863239E+02  0.40941880835E+02  0.11740692774E+03  0.94893170272E+02 0.  0.
         23    2    1    2    0    0  0.14397505816E+02  0.53815863239E+02 -0.45024908840E+02  0.11793154609E+03  0.93686561668E+02 0.  0.
          5    1    4    4  502    0  0.25774444466E+02 -0.19539400815E+02 -0.24270319880E+02  0.40709318329E+02  0.47000000000E+01 0. -1.
         -5    1    4    4    0  502 -0.11376938650E+02  0.73355264054E+02 -0.20754588961E+02  0.77222227761E+02  0.47000000000E+01 0.  1.
          5    1    3    3  503    0  0.29351178271E+02 -0.47900919251E+02 -0.92705613003E+00  0.56382081942E+02  0.47000000000E+01 0. -1.
         -5    1    3    3    0  503 -0.43748684087E+02 -0.59149439878E+01  0.41868936965E+02  0.61024845795E+02  0.47000000000E+01 0.  1.
<mgrwt>
<rscale>  0 0.10977640E+03</rscale>
<asrwt>0</asrwt>
<pdfrwt beam="1">  1        4 0.17788881E-01 0.11003704E+03</pdfrwt>
<pdfrwt beam="2">  1       -4 0.18417038E-01 0.11003704E+03</pdfrwt>
<totfact> 0.11478058E+03</totfact>
</mgrwt>
</event>
<event>
 8    1  0.8174053E-004  0.1000961E+03  0.7546771E-02  0.1281053E+00
          2   -1    0    0  501    0  0.00000000000E+00  0.00000000000E+00  0.18603553066E+03  0.18603553066E+03  0.00000000000E+00 0. -1.
         -2   -1    0    0    0  501 -0.00000000000E+00 -0.00000000000E+00 -0.53405280462E+02  0.53405280462E+02  0.00000000000E+00 0.  1.
         23    2    1    2    0    0 -0.30141578524E+02 -0.24714169285E+02  0.55133349032E+02  0.11427560831E+03  0.92195030022E+02 0.  0.
         23    2    1    2    0    0  0.30141578524E+02  0.24714169285E+02  0.77496901163E+02  0.12516520280E+03  0.90228894396E+02 0.  0.
          5    1    3    3  502    0 -0.21936846518E+02  0.21035639275E+01  0.75828860656E+02  0.79105981599E+02  0.47000000000E+01 0. -1.
         -5    1    4    4    0  503 -0.24538953590E+02  0.29181765152E+02  0.13451927535E+02  0.40703562683E+02  0.47000000000E+01 0.  1.
          5    1    4    4  503    0  0.54680532114E+02 -0.44675958675E+01  0.64044973627E+02  0.84461640122E+02  0.47000000000E+01 0. -1.
         -5    1    3    3    0  502 -0.82047320066E+01 -0.26817733212E+02 -0.20695511624E+02  0.35169626716E+02  0.47000000000E+01 0.  1.
<mgrwt>
<rscale>  0 0.99641013E+02</rscale>
<asrwt>0</asrwt>
<pdfrwt beam="1">  1        2 0.28620850E-01 0.10009610E+03</pdfrwt>
<pdfrwt beam="2">  1       -2 0.82161971E-02 0.10009610E+03</pdfrwt>
<totfact> 0.15217956E+04</totfact>
</mgrwt>
</event>
<event>
 8    1  0.8174053E-004  0.1175272E+03  0.7546771E-02  0.1247407E+00
         -2   -1    0    0    0  501 -0.00000000000E+00  0.00000000000E+00  0.73826254209E+02  0.73826254209E+02  0.00000000000E+00 0.  1.
          2   -1    0    0  501    0  0.00000000000E+00 -0.00000000000E+00 -0.19489029181E+03  0.19489029181E+03  0.00000000000E+00 0. -1.
         23    2    1    2    0    0 -0.73763536929E+02  0.52020517518E+01 -0.88401023659E+02  0.14673497109E+03  0.90820097088E+02 0.  0.
         23    2    1    2    0    0  0.73763536929E+02 -0.52020517518E+01 -0.32663013947E+02  0.12198157493E+03  0.91348297300E+02 0.  0.
          5    1    4    4  502    0  0.77324289662E+02 -0.35254578092E+02 -0.33182817088E+02  0.91351630517E+02  0.47000000000E+01 0. -1.
         -5    1    3    3    0  503 -0.57655285234E+02  0.41050456871E+02 -0.31963565376E+02  0.77801230300E+02  0.47000000000E+01 0.  1.
          5    1    3    3  503    0 -0.16108251695E+02 -0.35848405119E+02 -0.56437458283E+02  0.68933740793E+02  0.47000000000E+01 0. -1.
         -5    1    4    4    0  502 -0.35607527331E+01  0.30052526340E+02  0.51980314122E+00  0.30629944413E+02  0.47000000000E+01 0.  1.
<mgrwt>
<rscale>  0 0.11742450E+03</rscale>
<asrwt>0</asrwt>
<pdfrwt beam="1">  1        2 0.29983121E-01 0.11752715E+03</pdfrwt>
<pdfrwt beam="2">  1       -2 0.11357886E-01 0.11752715E+03</pdfrwt>
<totfact> 0.88637761E+03</totfact>
</mgrwt>
</event>
<event>
 8    1  0.8174053E-004  0.1057438E+03  0.7546771E-02  0.1268941E+00
          2   -1    0    0  501    0  0.00000000000E+00  0.00000000000E+00  0.72002626604E+02  0.72002626604E+02  0.00000000000E+00 0. -1.
         -2   -1    0    0    0  501 -0.00000000000E+00 -0.00000000000E+00 -0.16550047291E+03  0.16550047291E+03  0.00000000000E+00 0.  1.
         23    2    1    2    0    0 -0.32227192657E+02  0.41104079213E+02 -0.77304551418E+02  0.13052661171E+03  0.91285625478E+02 0.  0.
         23    2    1    2    0    0  0.32227192657E+02 -0.41104079213E+02 -0.16193294885E+02  0.10697648781E+03  0.91943509121E+02 0.  0.
          5    1    3    3  502    0 -0.24738645424E+02  0.86652661848E+01  0.16193232259E+02  0.31167261452E+02  0.47000000000E+01 0. -1.
         -5    1    3    3    0  502 -0.74885472327E+01  0.32438813028E+02 -0.93497783676E+02  0.99359350253E+02  0.47000000000E+01 0.  1.
          5    1    4    4  503    0 -0.28001184652E+02 -0.34434633965E+02 -0.26626543456E+01  0.44710066946E+02  0.47000000000E+01 0. -1.
         -5    1    4    4    0  503  0.60228377309E+02 -0.66694452483E+01 -0.13530640539E+02  0.62266420859E+02  0.47000000000E+01 0.  1.
<mgrwt>
<rscale>  0 0.10560060E+03</rscale>
<asrwt>0</asrwt>
<pdfrwt beam="1">  1        2 0.11077327E-01 0.10574378E+03</pdfrwt>
<pdfrwt beam="2">  1       -2 0.25461611E-01 0.10574378E+03</pdfrwt>
<totfact> 0.71817531E+03</totfact>
</mgrwt>
</event>
<event>
 8    1  0.8174053E-004  0.9322457E+02  0.7546771E-02  0.1295418E+00
         -2   -1    0    0    0  501 -0.00000000000E+00  0.00000000000E+00  0.25254920383E+02  0.25254920383E+02  0.00000000000E+00 0.  1.
          2   -1    0    0  501    0  0.00000000000E+00 -0.00000000000E+00 -0.44847786047E+03  0.44847786047E+03  0.00000000000E+00 0. -1.
         23    2    1    2    0    0  0.20630548196E+01 -0.21046577160E+02 -0.96972451347E+02  0.13451571501E+03  0.90794309623E+02 0.  0.
         23    2    1    2    0    0 -0.20630548196E+01  0.21046577160E+02 -0.32625048874E+03  0.33921706584E+03  0.90452317543E+02 0.  0.
          5    1    4    4  502    0  0.27112426839E+02 -0.25630627255E+02 -0.13713842255E+03  0.14220073727E+03  0.47000000000E+01 0. -1.
         -5    1    3    3    0  503 -0.31807204232E+02 -0.70973723120E+01 -0.24298689065E+01  0.33016135414E+02  0.47000000000E+01 0.  1.
          5    1    3    3  503    0  0.33870259052E+02 -0.13949204848E+02 -0.94542582441E+02  0.10149957960E+03  0.47000000000E+01 0. -1.
         -5    1    4    4    0  502 -0.29175481658E+02  0.46677204415E+02 -0.18911206620E+03  0.19701632857E+03  0.47000000000E+01 0.  1.
<mgrwt>
<rscale>  0 0.93141202E+02</rscale>
<asrwt>0</asrwt>
<pdfrwt beam="1">  1        2 0.68996600E-01 0.93224574E+02</pdfrwt>
<pdfrwt beam="2">  1       -2 0.38853720E-02 0.93224574E+02</pdfrwt>
<totfact> 0.18346508E+04</totfact>
</mgrwt>
</event>
<event>
 8    1  0.8174053E-004  0.9682510E+02  0.7546771E-02  0.1287991E+00
          2   -1    0    0  501    0  0.00000000000E+00  0.00000000000E+00  0.12917750003E+03  0.12917750003E+03  0.00000000000E+00 0. -1.
         -2   -1    0    0    0  501 -0.00000000000E+00 -0.00000000000E+00 -0.87626979228E+02  0.87626979228E+02  0.00000000000E+00 0.  1.
         23    2    1    2    0    0 -0.59034482535E+01 -0.30821495327E+02 -0.25735038004E+02  0.10018678930E+03  0.91598500500E+02 0.  0.
         23    2    1    2    0    0  0.59034482535E+01  0.30821495327E+02  0.67285558809E+02  0.11661768996E+03  0.89930661689E+02 0.  0.
          5    1    4    4  502    0 -0.10340586929E+02 -0.28117622771E+02  0.80821092090E+01  0.31383736832E+02  0.47000000000E+01 0. -1.
         -5    1    3    3    0  503 -0.32217691997E+02  0.20361545939E+02 -0.16126244017E+02  0.41649945699E+02  0.47000000000E+01 0.  1.
          5    1    3    3  503    0  0.26314243744E+02 -0.51183041266E+02 -0.96087939867E+01  0.58536843602E+02  0.47000000000E+01 0. -1.
         -5    1    4    4    0  502  0.16244035182E+02  0.58939118097E+02  0.59203449600E+02  0.85233953127E+02  0.47000000000E+01 0.  1.
<mgrwt>
<rscale>  0 0.96428605E+02</rscale>
<asrwt>0</asrwt>
<pdfrwt beam="1">  1        2 0.19873462E-01 0.96825103E+02</pdfrwt>
<pdfrwt beam="2">  1       -2 0.13481074E-01 0.96825103E+02</pdfrwt>
<totfact> 0.10424902E+04</totfact>
</mgrwt>
</event>
<event>
 8    1  0.8174053E-004  0.9821298E+02  0.7546771E-02  0.1284242E+00
          2   -1    0    0  501    0  0.00000000000E+00  0.00000000000E+00  0.26100226003E+02  0.26100226003E+02  0.00000000000E+00 0. -1.
         -2   -1    0    0    0  501 -0.00000000000E+00 -0.00000000000E+00 -0.55895152415E+03  0.55895152415E+03  0.00000000000E+00 0.  1.
         23    2    1    2    0    0 -0.27396890886E+01  0.36630896307E+02 -0.43738508646E+03  0.44827614623E+03  0.91084910732E+02 0.  0.
         23    2    1    2    0    0  0.27396890886E+01 -0.36630896307E+02 -0.95466211687E+02  0.13677560392E+03  0.90798897532E+02 0.  0.
          5    1    4    4  502    0 -0.15851560656E+02 -0.46092339745E+02 -0.11731482646E+02  0.50353683514E+02  0.47000000000E+01 0. -1.
         -5    1    4    4    0  502  0.18591249744E+02  0.94614434373E+01 -0.83734729041E+02  0.86421920405E+02  0.47000000000E+01 0.  1.
          5    1    3    3  503    0  0.20081744905E+02 -0.23635084406E+02 -0.10164864595E+03  0.10637871458E+03  0.47000000000E+01 0. -1.
         -5    1    3    3    0  503 -0.22821433994E+02  0.60265980713E+02 -0.33573644052E+03  0.34189743165E+03  0.47000000000E+01 0.  1.
<mgrwt>
<rscale>  0 0.98146614E+02</rscale>
<asrwt>0</asrwt>
<pdfrwt beam="1">  1        2 0.40154198E-02 0.98212980E+02</pdfrwt>
<pdfrwt beam="2">  1       -2 0.85992533E-01 0.98212980E+02</pdfrwt>
<totfact> 0.23894901E+03</totfact>
</mgrwt>
</event>
<event>
 8    1  0.8174053E-004  0.9857039E+02  0.7546771E-02  0.1285322E+00
         -1   -1    0    0    0  501 -0.00000000000E+00  0.00000000000E+00  0.48327894981E+02  0.48327894981E+02  0.00000000000E+00 0.  1.
          1   -1    0    0  501    0  0.00000000000E+00 -0.00000000000E+00 -0.30659957160E+03  0.30659957160E+03  0.00000000000E+00 0. -1.
         23    2    1    2    0    0 -0.10832992050E+02 -0.35050145665E+02 -0.23835136117E+03  0.25792924162E+03  0.91489102543E+02 0.  0.
         23    2    1    2    0    0  0.10832992050E+02  0.35050145665E+02 -0.19920315444E+02  0.96998224955E+02  0.87555526662E+02 0.  0.
          5    1    3    3  502    0 -0.78820865362E+01  0.26870467676E+02 -0.33824798311E+02  0.44162838474E+02  0.47000000000E+01 0.  1.
         -5    1    3    3    0  502 -0.29509055142E+01 -0.61920613341E+02 -0.20452656286E+03  0.21376640315E+03  0.47000000000E+01 0. -1.
          5    1    4    4  503    0  0.10309492454E+02 -0.26111923086E+02 -0.21439012558E+02  0.35634806319E+02  0.47000000000E+01 0. -1.
         -5    1    4    4    0  503  0.52349959634E+00  0.61162068751E+02  0.15186971141E+01  0.61363418636E+02  0.47000000000E+01 0.  1.
<mgrwt>
<rscale>  0 0.97647590E+02</rscale>
<asrwt>0</asrwt>
<pdfrwt beam="1">  1        1 0.47169165E-01 0.98570393E+02</pdfrwt>
<pdfrwt beam="2">  1       -1 0.74350608E-02 0.98570393E+02</pdfrwt>
<totfact> 0.76257323E+03</totfact>
</mgrwt>
</event>
<event>
 8    1  0.8174053E-004  0.1778012E+03  0.7546771E-02  0.1170113E+00
         -1   -1    0    0    0  501 -0.00000000000E+00  0.00000000000E+00  0.70734627340E+02  0.70734627340E+02  0.00000000000E+00 0.  1.
          1   -1    0    0  501    0  0.00000000000E+00 -0.00000000000E+00 -0.46406566262E+03  0.46406566262E+03  0.00000000000E+00 0. -1.
         23    2    1    2    0    0 -0.15159257712E+03  0.98633222208E+01 -0.25086692244E+03  0.30748574231E+03  0.92388713532E+02 0.  0.
         23    2    1    2    0    0  0.15159257712E+03 -0.98633222208E+01 -0.14246411284E+03  0.22731454764E+03  0.91094926096E+02 0.  0.
          5    1    4    4  502    0  0.64520676641E+02  0.16059375363E+02 -0.11170403777E+02  0.67584681488E+02  0.47000000000E+01 0. -1.
         -5    1    3    3    0  503 -0.14076457298E+02 -0.27966569189E+02 -0.25110105320E+02  0.40408947419E+02  0.47000000000E+01 0.  1.
          5    1    3    3  503    0 -0.13751611982E+03  0.37829891410E+02 -0.22575681712E+03  0.26707679489E+03  0.47000000000E+01 0. -1.
         -5    1    4    4    0  502  0.87071900480E+02 -0.25922697584E+02 -0.13129370906E+03  0.15972986616E+03  0.47000000000E+01 0.  1.
<mgrwt>
<rscale>  0 0.17763376E+03</rscale>
<asrwt>0</asrwt>
<pdfrwt beam="1">  1        1 0.71394718E-01 0.17780121E+03</pdfrwt>
<pdfrwt beam="2">  1       -1 0.10882250E-01 0.17780121E+03</pdfrwt>
<totfact> 0.26242190E+03</totfact>
</mgrwt>
</event>
<event>
 8    1  0.8174053E-004  0.1104598E+03  0.7546771E-02  0.1262690E+00
          1   -1    0    0  501    0  0.00000000000E+00  0.00000000000E+00  0.70753292499E+03  0.70753292499E+03  0.00000000000E+00 0. -1.
         -1   -1    0    0    0  501 -0.00000000000E+00 -0.00000000000E+00 -0.22399393177E+02  0.22399393177E+02  0.00000000000E+00 0.  1.
         23    2    1    2    0    0  0.51605845677E+02 -0.85753738286E+01  0.54047261125E+03  0.55164482493E+03  0.97286530509E+02 0.  0.
         23    2    1    2    0    0 -0.51605845677E+02  0.85753738286E+01  0.14466092057E+03  0.17828749324E+03  0.90127398505E+02 0.  0.
          5    1    3    3  502    0  0.28111544016E+02 -0.44801684519E+02  0.42446122740E+03  0.42776964994E+03  0.47000000000E+01 0. -1.
         -5    1    3    3    0  502  0.23494301661E+02  0.36226310690E+02  0.11601138384E+03  0.12387517499E+03  0.47000000000E+01 0.  1.
          5    1    4    4  503    0  0.21942546687E+02 -0.93522692331E+01  0.59342791150E+02  0.64129534197E+02  0.47000000000E+01 0.  1.
         -5    1    4    4    0  503 -0.73548392364E+02  0.17927643062E+02  0.85318129416E+02  0.11415795904E+03  0.47000000000E+01 0. -1.
<mgrwt>
<rscale>  0 0.10886297E+03</rscale>
<asrwt>0</asrwt>
<pdfrwt beam="1">  1        1 0.10885120E+00 0.11045981E+03</pdfrwt>
<pdfrwt beam="2">  1       -1 0.34460610E-02 0.11045981E+03</pdfrwt>
<totfact> 0.80886274E+03</totfact>
</mgrwt>
</event>
<event>
 8    1  0.8174053E-004  0.9797702E+02  0.7546771E-02  0.1287241E+00
          2   -1    0    0  501    0  0.00000000000E+00  0.00000000000E+00  0.69023158153E+03  0.69023158153E+03  0.00000000000E+00 0. -1.
         -2   -1    0    0    0  501 -0.00000000000E+00 -0.00000000000E+00 -0.17560296842E+02  0.17560296842E+02  0.00000000000E+00 0.  1.
         23    2    1    2    0    0  0.31867488156E+02  0.12795965191E+02  0.16718205000E+03  0.19377650854E+03  0.91761777962E+02 0.  0.
         23    2    1    2    0    0 -0.31867488156E+02 -0.12795965191E+02  0.50548923469E+03  0.51401536983E+03  0.86678489294E+02 0.  0.
          5    1    4    4  502    0 -0.14333934350E+02  0.35498730166E+02  0.15384769482E+03  0.15860903101E+03  0.47000000000E+01 0. -1.
         -5    1    4    4    0  502 -0.17533553807E+02 -0.48294695357E+02  0.35164153987E+03  0.35540633882E+03  0.47000000000E+01 0.  1.
          5    1    3    3  503    0  0.50789426839E+02  0.18321150201E+01  0.16327907751E+03  0.17107036470E+03  0.47000000000E+01 0. -1.
         -5    1    3    3    0  503 -0.18921938682E+02  0.10963850171E+02  0.39029724839E+01  0.22706143844E+02  0.47000000000E+01 0.  1.
<mgrwt>
<rscale>  0 0.96768913E+02</rscale>
<asrwt>0</asrwt>
<pdfrwt beam="1">  1        2 0.10618945E+00 0.97977025E+02</pdfrwt>
<pdfrwt beam="2">  1       -2 0.27015847E-02 0.97977025E+02</pdfrwt>
<totfact> 0.19437727E+04</totfact>
</mgrwt>
</event>
<event>
 8    1  0.8174053E-004  0.1085038E+03  0.7546771E-02  0.1263956E+00
          2   -1    0    0  501    0  0.00000000000E+00  0.00000000000E+00  0.18142057425E+03  0.18142057425E+03  0.00000000000E+00 0.  1.
         -2   -1    0    0    0  501 -0.00000000000E+00 -0.00000000000E+00 -0.71469106729E+02  0.71469106729E+02  0.00000000000E+00 0. -1.
         23    2    1    2    0    0  0.34908805030E+02 -0.44662651640E+02  0.14802025133E+02  0.10950874031E+03  0.92518577245E+02 0.  0.
         23    2    1    2    0    0 -0.34908805030E+02  0.44662651640E+02  0.95149442387E+02  0.14338094067E+03  0.91056579339E+02 0.  0.
          5    1    3    3  502    0 -0.29176467575E+02 -0.16437583996E+02 -0.96858683224E+01  0.35176220276E+02  0.47000000000E+01 0. -1.
         -5    1    4    4    0  503  0.25714218408E+02  0.24220808955E+02  0.61156360165E+02  0.70781770276E+02  0.47000000000E+01 0.  1.
          5    1    4    4  503    0 -0.60623023438E+02  0.20441842685E+02  0.33993082222E+02  0.72599170395E+02  0.47000000000E+01 0. -1.
         -5    1    3    3    0  502  0.64085272605E+02 -0.28225067644E+02  0.24487893455E+02  0.74332520031E+02  0.47000000000E+01 0.  1.
<mgrwt>
<rscale>  0 0.10819143E+03</rscale>
<asrwt>0</asrwt>
<pdfrwt beam="1">  1        2 0.27910857E-01 0.10850375E+03</pdfrwt>
<pdfrwt beam="2">  1       -2 0.10995247E-01 0.10850375E+03</pdfrwt>
<totfact> 0.10015276E+04</totfact>
</mgrwt>
</event>
<event>
 8    1  0.8174053E-004  0.1274555E+03  0.7546771E-02  0.1231676E+00
          1   -1    0    0  501    0  0.00000000000E+00  0.00000000000E+00  0.35304827633E+03  0.35304827633E+03  0.00000000000E+00 0. -1.
         -1   -1    0    0    0  501 -0.00000000000E+00 -0.00000000000E+00 -0.47380699593E+02  0.47380699593E+02  0.00000000000E+00 0.  1.
         23    2    1    2    0    0  0.39907257198E+01  0.89029821836E+02  0.19179360399E+03  0.23028173843E+03  0.91118919307E+02 0.  0.
         23    2    1    2    0    0 -0.39907257198E+01 -0.89029821836E+02  0.11387397275E+03  0.17014723750E+03  0.89669201454E+02 0.  0.
          5    1    3    3  502    0 -0.25644305954E+02  0.93048860034E+02  0.13648926576E+03  0.16723375990E+03  0.47000000000E+01 0. -1.
         -5    1    3    3    0  502  0.29635031674E+02 -0.40190381979E+01  0.55304338224E+02  0.63047978530E+02  0.47000000000E+01 0.  1.
          5    1    4    4  503    0  0.18441304040E+02 -0.29966447184E+02  0.98857071873E+02  0.10503751859E+03  0.47000000000E+01 0. -1.
         -5    1    4    4    0  503 -0.22432029760E+02 -0.59063374652E+02  0.15016900878E+02  0.65109718909E+02  0.47000000000E+01 0.  1.
<mgrwt>
<rscale>  0 0.12719658E+03</rscale>
<asrwt>0</asrwt>
<pdfrwt beam="1">  1        1 0.54315118E-01 0.12745545E+03</pdfrwt>
<pdfrwt beam="2">  1       -1 0.72893386E-02 0.12745545E+03</pdfrwt>
<totfact> 0.67205431E+03</totfact>
</mgrwt>
</event>
<event>
 8    1  0.8174053E-004  0.1084439E+03  0.7546771E-02  0.1264221E+00
          1   -1    0    0  501    0  0.00000000000E+00  0.00000000000E+00  0.23098032154E+03  0.23098032154E+03  0.00000000000E+00 0. -1.
         -1   -1    0    0    0  501 -0.00000000000E+00 -0.00000000000E+00 -0.78361808685E+02  0.78361808685E+02  0.00000000000E+00 0.  1.
         23    2    1    2    0    0 -0.43964831743E+02 -0.30585784270E+02 -0.16792013542E+02  0.10819542889E+03  0.92498013404E+02 0.  0.
         23    2    1    2    0    0  0.43964831743E+02  0.30585784270E+02  0.16941052640E+03  0.20114670134E+03  0.94295664668E+02 0.  0.
          5    1    3    3  502    0 -0.13276859559E+02  0.15147097781E+02  0.29546408877E+02  0.36066464319E+02  0.47000000000E+01 0. -1.
         -5    1    3    3    0  502 -0.30687972184E+02 -0.45732882051E+02 -0.46338422419E+02  0.72128964568E+02  0.47000000000E+01 0.  1.
          5    1    4    4  503    0  0.31773744547E+02  0.58428397887E+02  0.15158003457E+03  0.16559603075E+03  0.47000000000E+01 0. -1.
         -5    1    4    4    0  503  0.12191087195E+02 -0.27842613617E+02  0.17830491831E+02  0.35550670584E+02  0.47000000000E+01 0.  1.
<mgrwt>
<rscale>  0 0.10805187E+03</rscale>
<asrwt>0</asrwt>
<pdfrwt beam="1">  1        1 0.35535434E-01 0.10844385E+03</pdfrwt>
<pdfrwt beam="2">  1       -1 0.12055663E-01 0.10844385E+03</pdfrwt>
<totfact> 0.52337037E+03</totfact>
</mgrwt>
</event>
<event>
 8    1  0.8174053E-004  0.9665059E+02  0.7546771E-02  0.1288281E+00
         -2   -1    0    0    0  501 -0.00000000000E+00  0.00000000000E+00  0.63974941452E+03  0.63974941452E+03  0.00000000000E+00 0.  1.
          2   -1    0    0  501    0  0.00000000000E+00 -0.00000000000E+00 -0.16360867294E+02  0.16360867294E+02  0.00000000000E+00 0. -1.
         23    2    1    2    0    0  0.19693762868E+02 -0.19883434906E+02  0.42756296854E+03  0.43835080441E+03  0.92510217703E+02 0.  0.
         23    2    1    2    0    0 -0.19693762868E+02  0.19883434906E+02  0.19582557868E+03  0.21775947740E+03  0.91040306748E+02 0.  0.
          5    1    4    4  502    0 -0.51966151043E+02 -0.49352551924E+00  0.78230337747E+02  0.94036164137E+02  0.47000000000E+01 0. -1.
         -5    1    4    4    0  502  0.32272388175E+02  0.20376960426E+02  0.11759524094E+03  0.12372331327E+03  0.47000000000E+01 0.  1.
          5    1    3    3  503    0 -0.14241208699E+02  0.30116064736E+02  0.10903140360E+03  0.11410401549E+03  0.47000000000E+01 0. -1.
         -5    1    3    3    0  503  0.33934971568E+02 -0.49999499642E+02  0.31853156494E+03  0.32424678892E+03  0.47000000000E+01 0.  1.
<mgrwt>
<rscale>  0 0.96297154E+02</rscale>
<asrwt>0</asrwt>
<pdfrwt beam="1">  1        2 0.25170570E-02 0.96650585E+02</pdfrwt>
<pdfrwt beam="2">  1       -2 0.98422967E-01 0.96650585E+02</pdfrwt>
<totfact> 0.32759362E+03</totfact>
</mgrwt>
</event>
<event>
 8    1  0.8174053E-004  0.9638163E+02  0.7546771E-02  0.1288250E+00
         -1   -1    0    0    0  501 -0.00000000000E+00  0.00000000000E+00  0.18620854927E+02  0.18620854927E+02  0.00000000000E+00 0.  1.
          1   -1    0    0  501    0  0.00000000000E+00 -0.00000000000E+00 -0.51963360730E+03  0.51963360730E+03  0.00000000000E+00 0. -1.
         23    2    1    2    0    0 -0.24357636180E+02 -0.18927255640E+02 -0.19520812007E+03  0.21770537247E+03  0.91312012426E+02 0.  0.
         23    2    1    2    0    0  0.24357636180E+02  0.18927255640E+02 -0.30580463230E+03  0.32054908976E+03  0.91014890882E+02 0.  0.
          5    1    3    3  502    0  0.45560740783E+01  0.33670987811E+02 -0.92462747434E+02  0.98620195164E+02  0.47000000000E+01 0. -1.
         -5    1    3    3    0  502 -0.28913710258E+02 -0.52598243451E+02 -0.10274537264E+03  0.11908517730E+03  0.47000000000E+01 0.  1.
          5    1    4    4  503    0 -0.27230416787E+01  0.29017646033E+02 -0.27990848620E+03  0.28146099087E+03  0.47000000000E+01 0. -1.
         -5    1    4    4    0  503  0.27080677858E+02 -0.10090390393E+02 -0.25896146102E+02  0.39088098886E+02  0.47000000000E+01 0.  1.
<mgrwt>
<rscale>  0 0.96311194E+02</rscale>
<asrwt>0</asrwt>
<pdfrwt beam="1">  1        1 0.79943630E-01 0.96381632E+02</pdfrwt>
<pdfrwt beam="2">  1       -1 0.28647470E-02 0.96381632E+02</pdfrwt>
<totfact> 0.15880365E+04</totfact>
</mgrwt>
</event>
<event>
 8    1  0.8174053E-004  0.9644945E+02  0.7546771E-02  0.1288236E+00
         -1   -1    0    0    0  501 -0.00000000000E+00  0.00000000000E+00  0.25364031247E+03  0.25364031247E+03  0.00000000000E+00 0.  1.
          1   -1    0    0  501    0  0.00000000000E+00 -0.00000000000E+00 -0.10619963392E+03  0.10619963392E+03  0.00000000000E+00 0. -1.
         23    2    1    2    0    0  0.28628088011E+02 -0.77937414088E+00  0.21943442076E+03  0.23948382843E+03  0.91547060137E+02 0.  0.
         23    2    1    2    0    0 -0.28628088011E+02  0.77937414088E+00 -0.71993742208E+02  0.12035611796E+03  0.92099518811E+02 0.  0.
          5    1    3    3  502    0 -0.22238349022E+02 -0.38879921971E+01  0.12328668166E+02  0.26148550806E+02  0.47000000000E+01 0. -1.
         -5    1    3    3    0  502  0.50866437033E+02  0.31086180562E+01  0.20710575259E+03  0.21333527762E+03  0.47000000000E+01 0.  1.
          5    1    4    4  503    0 -0.44163610094E+02  0.34109673932E+02 -0.27335225318E+02  0.62315317985E+02  0.47000000000E+01 0. -1.
         -5    1    4    4    0  503  0.15535522083E+02 -0.33330299791E+02 -0.44658516891E+02  0.58040799973E+02  0.47000000000E+01 0.  1.
<mgrwt>
<rscale>  0 0.96317327E+02</rscale>
<asrwt>0</asrwt>
<pdfrwt beam="1">  1        1 0.16338405E-01 0.96449449E+02</pdfrwt>
<pdfrwt beam="2">  1       -1 0.39021586E-01 0.96449449E+02</pdfrwt>
<totfact> 0.20576407E+03</totfact>
</mgrwt>
</event>
<event>
 8    1  0.8174053E-004  0.1405960E+03  0.7546771E-02  0.1213273E+00
         -2   -1    0    0    0  501 -0.00000000000E+00  0.00000000000E+00  0.75498175998E+02  0.75498175998E+02  0.00000000000E+00 0.  1.
          2   -1    0    0  501    0  0.00000000000E+00 -0.00000000000E+00 -0.31873889311E+03  0.31873889311E+03  0.00000000000E+00 0. -1.
         23    2    1    2    0    0  0.88608123265E+02 -0.55770087980E+02 -0.20707716712E+03  0.24906465317E+03  0.90501635871E+02 0.  0.
         23    2    1    2    0    0 -0.88608123265E+02  0.55770087980E+02 -0.36163549994E+02  0.14517241594E+03  0.93837763075E+02 0.  0.
          5    1    4    4  502    0 -0.54223825031E+02  0.34329639900E+02  0.27160495785E+02  0.69846473840E+02  0.47000000000E+01 0.  1.
         -5    1    4    4    0  502 -0.34384298234E+02  0.21440448080E+02 -0.63324045779E+02  0.75325942097E+02  0.47000000000E+01 0. -1.
          5    1    3    3  503    0  0.79556596656E+02 -0.78538975437E+01 -0.16901392530E+03  0.18702602152E+03  0.47000000000E+01 0. -1.
         -5    1    3    3    0  503  0.90515266097E+01 -0.47916190436E+02 -0.38063241812E+02  0.62038631651E+02  0.47000000000E+01 0.  1.
<mgrwt>
<rscale>  0 0.14004162E+03</rscale>
<asrwt>0</asrwt>
<pdfrwt beam="1">  1        2 0.49036753E-01 0.14059597E+03</pdfrwt>
<pdfrwt beam="2">  1       -2 0.11615104E-01 0.14059597E+03</pdfrwt>
<totfact> 0.51266624E+03</totfact>
</mgrwt>
</event>
<event>
 8    1  0.8174053E-004  0.1049358E+03  0.7546771E-02  0.1270579E+00
          1   -1    0    0  501    0  0.00000000000E+00  0.00000000000E+00  0.10260975308E+04  0.10260975308E+04  0.00000000000E+00 0. -1.
         -1   -1    0    0    0  501 -0.00000000000E+00 -0.00000000000E+00 -0.10711044550E+02  0.10711044550E+02  0.00000000000E+00 0.  1.
         23    2    1    2    0    0  0.44664947035E+02  0.28723077239E+02  0.47451429843E+03  0.48597875092E+03  0.90507205611E+02 0.  0.
         23    2    1    2    0    0 -0.44664947035E+02 -0.28723077239E+02  0.54087218779E+03  0.55082982440E+03  0.89726246258E+02 0.  0.
          5    1    4    4  502    0  0.21316966967E+02 -0.25636024191E+02  0.11457901904E+03  0.11942386872E+03  0.47000000000E+01 0. -1.
         -5    1    4    4    0  502 -0.65981914002E+02 -0.30870530473E+01  0.42629316875E+03  0.43140595568E+03  0.47000000000E+01 0.  1.
          5    1    3    3  503    0  0.38399985558E+02 -0.23201057597E+02  0.31059620481E+03  0.31385496715E+03  0.47000000000E+01 0. -1.
         -5    1    3    3    0  503  0.62649614771E+01  0.51924134836E+02  0.16391809362E+03  0.17212378377E+03  0.47000000000E+01 0.  1.
<mgrwt>
<rscale>  0 0.10476721E+03</rscale>
<asrwt>0</asrwt>
<pdfrwt beam="1">  1        1 0.15786108E+00 0.10493582E+03</pdfrwt>
<pdfrwt beam="2">  1       -1 0.16478538E-02 0.10493582E+03</pdfrwt>
<totfact> 0.13134716E+04</totfact>
</mgrwt>
</event>
<event>
 8    1  0.8174053E-004  0.2750757E+03  0.7546771E-02  0.1098655E+00
         -1   -1    0    0    0  501 -0.00000000000E+00  0.00000000000E+00  0.88073590788E+02  0.88073590788E+02  0.00000000000E+00 0.  1.
          1   -1    0    0  501    0  0.00000000000E+00 -0.00000000000E+00 -0.11715216403E+04  0.11715216403E+04  0.00000000000E+00 0. -1.
         23    2    1    2    0    0 -0.20532781632E+03 -0.15677020402E+03 -0.87104205296E+03  0.91344450954E+03  0.94499761779E+02 0.  0.
         23    2    1    2    0    0  0.20532781632E+03  0.15677020402E+03 -0.21240599655E+03  0.34615072153E+03  0.89261445347E+02 0.  0.
          5    1    4    4  502    0  0.56581589378E+02  0.29979644101E+01 -0.64694497069E+02  0.86127417227E+02  0.47000000000E+01 0. -1.
         -5    1    3    3    0  503 -0.39608238384E+02  0.67085402543E+01 -0.17017727425E+03  0.17491772847E+03  0.47000000000E+01 0.  1.
          5    1    3    3  503    0 -0.16571957794E+03 -0.16347874428E+03 -0.70086477870E+03  0.73852678108E+03  0.47000000000E+01 0. -1.
         -5    1    4    4    0  502  0.14874622694E+03  0.15377223961E+03 -0.14771149948E+03  0.26002330431E+03  0.47000000000E+01 0.  1.
<mgrwt>
<rscale>  0 0.27463577E+03</rscale>
<asrwt>0</asrwt>
<pdfrwt beam="1">  1        1 0.18023408E+00 0.27507565E+03</pdfrwt>
<pdfrwt beam="2">  1       -1 0.13549784E-01 0.27507565E+03</pdfrwt>
<totfact> 0.45506743E+02</totfact>
</mgrwt>
</event>
<event>
 8    1  0.8174053E-004  0.1267256E+03  0.7546771E-02  0.1232849E+00
         -2   -1    0    0    0  501 -0.00000000000E+00  0.00000000000E+00  0.96032069765E+03  0.96032069765E+03  0.00000000000E+00 0.  1.
          2   -1    0    0  501    0  0.00000000000E+00 -0.00000000000E+00 -0.17620459662E+02  0.17620459662E+02  0.00000000000E+00 0. -1.
         23    2    1    2    0    0  0.62266627187E+02 -0.60324165013E+02  0.34982900640E+03  0.37167745807E+03  0.90816635991E+02 0.  0.
         23    2    1    2    0    0 -0.62266627187E+02  0.60324165013E+02  0.59287123159E+03  0.60626369924E+03  0.92429638249E+02 0.  0.
          5    1    4    4  502    0  0.17819369937E+02  0.39790107834E+02  0.19611315906E+03  0.20095582545E+03  0.47000000000E+01 0. -1.
         -5    1    4    4    0  502 -0.80085997124E+02  0.20534057179E+02  0.39675807253E+03  0.40530787379E+03  0.47000000000E+01 0.  1.
          5    1    3    3  503    0  0.36278559846E+02 -0.55038473256E+02  0.96734061942E+02  0.11715347277E+03  0.47000000000E+01 0. -1.
         -5    1    3    3    0  503  0.25988067341E+02 -0.52856917568E+01  0.25309494445E+03  0.25452398529E+03  0.47000000000E+01 0.  1.
<mgrwt>
<rscale>  0 0.12643167E+03</rscale>
<asrwt>0</asrwt>
<pdfrwt beam="1">  1        2 0.27108407E-02 0.12672559E+03</pdfrwt>
<pdfrwt beam="2">  1       -2 0.14774160E+00 0.12672559E+03</pdfrwt>
<totfact> 0.11417001E+03</totfact>
</mgrwt>
</event>
<event>
 8    1  0.8174053E-004  0.1067425E+03  0.7546771E-02  0.1274875E+00
          1   -1    0    0  501    0  0.00000000000E+00  0.00000000000E+00  0.19411762342E+03  0.19411762342E+03  0.00000000000E+00 0. -1.
         -1   -1    0    0    0  501 -0.00000000000E+00 -0.00000000000E+00 -0.10894820275E+03  0.10894820275E+03  0.00000000000E+00 0.  1.
         23    2    1    2    0    0  0.40893719267E+02  0.32878613170E+02 -0.69835314855E+02  0.11486266657E+03  0.74586603966E+02 0.  0.
         23    2    1    2    0    0 -0.40893719267E+02 -0.32878613170E+02  0.15500473553E+03  0.18820315961E+03  0.92955159998E+02 0.  0.
          5    1    4    4  502    0 -0.13748410072E+02  0.14803436667E+02  0.12252809669E+03  0.12427141664E+03  0.47000000000E+01 0. -1.
         -5    1    4    4    0  502 -0.27145309195E+02 -0.47682049837E+02  0.32476638841E+02  0.63931742963E+02  0.47000000000E+01 0.  1.
          5    1    3    3  503    0 -0.10846121498E+02  0.19861291577E+02  0.41942145154E+01  0.23490225415E+02  0.47000000000E+01 0. -1.
         -5    1    3    3    0  503  0.51739840765E+02  0.13017321594E+02 -0.74029529370E+02  0.91372441155E+02  0.47000000000E+01 0.  1.
<mgrwt>
<rscale>  0 0.10262315E+03</rscale>
<asrwt>0</asrwt>
<pdfrwt beam="1">  1        1 0.29864250E-01 0.10674250E+03</pdfrwt>
<pdfrwt beam="2">  1       -1 0.16761262E-01 0.10674250E+03</pdfrwt>
<totfact> 0.38840996E+03</totfact>
</mgrwt>
</event>
<event>
 8    1  0.8174053E-004  0.1061506E+03  0.7546771E-02  0.1268881E+00
          1   -1    0    0  501    0  0.00000000000E+00  0.00000000000E+00  0.66748139910E+03  0.66748139910E+03  0.00000000000E+00 0. -1.
         -1   -1    0    0    0  501 -0.00000000000E+00 -0.00000000000E+00 -0.26935677115E+02  0.26935677115E+02  0.00000000000E+00 0.  1.
         23    2    1    2    0    0 -0.30289006624E+02  0.36622284023E+02  0.53774442541E+03  0.54812135665E+03  0.94917537641E+02 0.  0.
         23    2    1    2    0    0  0.30289006624E+02 -0.36622284023E+02  0.10280129658E+03  0.14629571957E+03  0.92605158472E+02 0.  0.
          5    1    3    3  502    0 -0.52438146185E+02 -0.10665640123E+02  0.26988447181E+03  0.27517854782E+03  0.47000000000E+01 0. -1.
         -5    1    3    3    0  502  0.22149139562E+02  0.47287924146E+02  0.26785995360E+03  0.27294280883E+03  0.47000000000E+01 0.  1.
          5    1    4    4  503    0 -0.21798880589E+02  0.16304884164E+01 -0.26623888333E+01  0.22517282290E+02  0.47000000000E+01 0. -1.
         -5    1    4    4    0  503  0.52087887213E+02 -0.38252772440E+02  0.10546368542E+03  0.12377843728E+03  0.47000000000E+01 0.  1.
<mgrwt>
<rscale>  0 0.10563119E+03</rscale>
<asrwt>0</asrwt>
<pdfrwt beam="1">  1        1 0.10268943E+00 0.10615062E+03</pdfrwt>
<pdfrwt beam="2">  1       -1 0.41439508E-02 0.10615062E+03</pdfrwt>
<totfact> 0.66945921E+03</totfact>
</mgrwt>
</event>
<event>
 8    1  0.8174053E-004  0.1546638E+03  0.7546771E-02  0.1194858E+00
          1   -1    0    0  501    0  0.00000000000E+00  0.00000000000E+00  0.17670064008E+03  0.17670064008E+03  0.00000000000E+00 0. -1.
         -1   -1    0    0    0  501 -0.00000000000E+00 -0.00000000000E+00 -0.13565927863E+03  0.13565927863E+03  0.00000000000E+00 0.  1.
         23    2    1    2    0    0  0.11466256798E+03  0.49543769213E+02  0.13309190220E+02  0.15522947512E+03  0.91197400392E+02 0.  0.
         23    2    1    2    0    0 -0.11466256798E+03 -0.49543769213E+02  0.27732171232E+02  0.15713044359E+03  0.91207529400E+02 0.  0.
          5    1    4    4  502    0 -0.11642879547E+03 -0.23329368198E+02  0.27256477063E+00  0.11883639226E+03  0.47000000000E+01 0. -1.
         -5    1    4    4    0  502  0.17662274906E+01 -0.26214401015E+02  0.27459606462E+02  0.38294051328E+02  0.47000000000E+01 0.  1.
          5    1    3    3  503    0  0.51654933077E+02  0.52891842585E+02  0.42656193319E+02  0.85483448408E+02  0.47000000000E+01 0. -1.
         -5    1    3    3    0  503  0.63007634901E+02 -0.33480733717E+01 -0.29347003099E+02  0.69746026711E+02  0.47000000000E+01 0.  1.
<mgrwt>
<rscale>  0 0.15466235E+03</rscale>
<asrwt>0</asrwt>
<pdfrwt beam="1">  1        1 0.27184714E-01 0.15466384E+03</pdfrwt>
<pdfrwt beam="2">  1       -1 0.20870658E-01 0.15466384E+03</pdfrwt>
<totfact> 0.31392960E+03</totfact>
</mgrwt>
</event>
<event>
 8    1  0.8174053E-004  0.1577190E+03  0.7546771E-02  0.1191614E+00
         -1   -1    0    0    0  501 -0.00000000000E+00  0.00000000000E+00  0.58265605288E+03  0.58265605288E+03  0.00000000000E+00 0.  1.
          1   -1    0    0  501    0  0.00000000000E+00 -0.00000000000E+00 -0.53696461543E+02  0.53696461543E+02  0.00000000000E+00 0. -1.
         23    2    1    2    0    0 -0.17380800307E+02  0.12648317247E+03  0.40971247272E+03  0.43862756703E+03  0.90717953665E+02 0.  0.
         23    2    1    2    0    0  0.17380800307E+02 -0.12648317247E+03  0.11924711862E+03  0.19772494740E+03  0.92602345466E+02 0.  0.
          5    1    4    4  502    0 -0.28889534597E+02 -0.76630144158E+02  0.34582637470E+02  0.89021531201E+02  0.47000000000E+01 0. -1.
         -5    1    3    3    0  503 -0.41897163889E+02  0.10053914477E+03  0.36655657781E+03  0.38242555708E+03  0.47000000000E+01 0.  1.
          5    1    3    3  503    0  0.24516363582E+02  0.25944027702E+02  0.43155894911E+02  0.56202009949E+02  0.47000000000E+01 0. -1.
         -5    1    4    4    0  502  0.46270334904E+02 -0.49853028315E+02  0.84664481149E+02  0.10870341620E+03  0.47000000000E+01 0.  1.
<mgrwt>
<rscale>  0 0.15744353E+03</rscale>
<asrwt>0</asrwt>
<pdfrwt beam="1">  1        1 0.82609945E-02 0.15771899E+03</pdfrwt>
<pdfrwt beam="2">  1       -1 0.89639388E-01 0.15771899E+03</pdfrwt>
<totfact> 0.10534108E+03</totfact>
</mgrwt>
</event>
<event>
 8    1  0.8174053E-004  0.1043129E+03  0.7546771E-02  0.1279680E+00
         -3   -1    0    0    0  501 -0.00000000000E+00  0.00000000000E+00  0.38621068239E+03  0.38621068239E+03  0.00000000000E+00 0.  1.
          3   -1    0    0  501    0  0.00000000000E+00 -0.00000000000E+00 -0.26490977765E+02  0.26490977765E+02  0.00000000000E+00 0. -1.
         23    2    1    2    0    0 -0.80954568077E+01  0.64424818862E+01  0.10678072041E+03  0.13909736627E+03  0.88537636392E+02 0.  0.
         23    2    1    2    0    0  0.80954568077E+01 -0.64424818862E+01  0.25293898422E+03  0.27360429389E+03  0.10379854481E+03 0.  0.
          5    1    3    3  502    0  0.37006759058E+02 -0.70986144573E+01  0.27944730022E+02  0.47147518272E+02  0.47000000000E+01 0. -1.
         -5    1    4    4    0  503 -0.23536922727E+02  0.38944799155E+02  0.14762639293E+03  0.15455201714E+03  0.47000000000E+01 0.  1.
          5    1    4    4  503    0  0.31632379535E+02 -0.45387281042E+02  0.10531259129E+03  0.11905227675E+03  0.47000000000E+01 0. -1.
         -5    1    3    3    0  502 -0.45102215866E+02  0.13541096344E+02  0.78835990392E+02  0.91949848000E+02  0.47000000000E+01 0.  1.
<mgrwt>
<rscale>  0 0.10029326E+03</rscale>
<asrwt>0</asrwt>
<pdfrwt beam="1">  1        3 0.40755353E-02 0.10431289E+03</pdfrwt>
<pdfrwt beam="2">  1       -3 0.59417024E-01 0.10431289E+03</pdfrwt>
<totfact> 0.19359402E+03</totfact>
</mgrwt>
</event>
<event>
 8    1  0.8174053E-004  0.3140371E+03  0.7546771E-02  0.1078582E+00
         -3   -1    0    0    0  501 -0.00000000000E+00  0.00000000000E+00  0.18972920033E+03  0.18972920033E+03  0.00000000000E+00 0.  1.
          3   -1    0    0  501    0  0.00000000000E+00 -0.00000000000E+00 -0.54912536583E+03  0.54912536583E+03  0.00000000000E+00 0. -1.
         23    2    1    2    0    0  0.71369072865E+02  0.29081451913E+03 -0.90851131414E+02  0.32565272671E+03  0.90161750407E+02 0.  0.
         23    2    1    2    0    0 -0.71369072865E+02 -0.29081451913E+03 -0.26854503409E+03  0.41320183945E+03  0.94618685739E+02 0.  0.
          5    1    3    3  502    0  0.38747013691E+02  0.21978853973E+03 -0.10398444931E+03  0.24625837846E+03  0.47000000000E+01 0. -1.
         -5    1    4    4    0  503 -0.13385799934E+02 -0.22777868883E+03 -0.19222185188E+03  0.29838505503E+03  0.47000000000E+01 0.  1.
          5    1    4    4  503    0 -0.57983272932E+02 -0.63035830296E+02 -0.76323182208E+02  0.11481678441E+03  0.47000000000E+01 0. -1.
         -5    1    3    3    0  502  0.32622059174E+02  0.71025979402E+02  0.13133317893E+02  0.79394348248E+02  0.47000000000E+01 0.  1.
<mgrwt>
<rscale>  0 0.31370813E+03</rscale>
<asrwt>0</asrwt>
<pdfrwt beam="1">  1        3 0.84480825E-01 0.31403714E+03</pdfrwt>
<pdfrwt beam="2">  1       -3 0.29189108E-01 0.31403714E+03</pdfrwt>
<totfact> 0.37557208E+01</totfact>
</mgrwt>
</event>
<event>
 8    1  0.8174053E-004  0.1070579E+03  0.7546771E-02  0.1266220E+00
         -1   -1    0    0    0  501 -0.00000000000E+00  0.00000000000E+00  0.20789087167E+02  0.20789087167E+02  0.00000000000E+00 0.  1.
          1   -1    0    0  501    0  0.00000000000E+00 -0.00000000000E+00 -0.62936745230E+03  0.62936745230E+03  0.00000000000E+00 0. -1.
         23    2    1    2    0    0 -0.48675451858E+02  0.20975533256E+02 -0.18927381377E+03  0.21745338277E+03  0.93016796813E+02 0.  0.
         23    2    1    2    0    0  0.48675451858E+02 -0.20975533256E+02 -0.41930455136E+03  0.43270315670E+03  0.92770913624E+02 0.  0.
          5    1    3    3  502    0 -0.16863781153E+02  0.51629564113E+02 -0.14421726040E+03  0.15417751847E+03  0.47000000000E+01 0. -1.
         -5    1    3    3    0  502 -0.31811670706E+02 -0.30654030857E+02 -0.45056553377E+02  0.63275864302E+02  0.47000000000E+01 0.  1.
          5    1    4    4  503    0  0.69582744418E+02  0.61388740953E+01 -0.31961249874E+03  0.32719059193E+03  0.47000000000E+01 0. -1.
         -5    1    4    4    0  503 -0.20907292560E+02 -0.27114407352E+02 -0.99692052618E+02  0.10551256477E+03  0.47000000000E+01 0.  1.
<mgrwt>
<rscale>  0 0.10700448E+03</rscale>
<asrwt>0</asrwt>
<pdfrwt beam="1">  1        1 0.96825776E-01 0.10705791E+03</pdfrwt>
<pdfrwt beam="2">  1       -1 0.31983206E-02 0.10705791E+03</pdfrwt>
<totfact> 0.10588996E+04</totfact>
</mgrwt>
</event>
<event>
 8    1  0.8174053E-004  0.1239506E+03  0.7546771E-02  0.1238421E+00
         -3   -1    0    0    0  501 -0.00000000000E+00  0.00000000000E+00  0.62008687550E+03  0.62008687550E+03  0.00000000000E+00 0.  1.
          3   -1    0    0  501    0  0.00000000000E+00 -0.00000000000E+00 -0.66302882551E+02  0.66302882551E+02  0.00000000000E+00 0. -1.
         23    2    1    2    0    0  0.74029854994E+02 -0.41755955183E+02  0.84054084140E+00  0.11972387781E+03  0.84315604633E+02 0.  0.
         23    2    1    2    0    0 -0.74029854994E+02  0.41755955183E+02  0.55294345211E+03  0.56666588024E+03  0.90220725893E+02 0.  0.
          5    1    4    4  502    0 -0.34502504794E+02 -0.16673064260E+02  0.84305519856E+02  0.92724994403E+02  0.47000000000E+01 0. -1.
         -5    1    4    4    0  502 -0.39527350200E+02  0.58429019443E+02  0.46863793225E+03  0.47394088584E+03  0.47000000000E+01 0.  1.
          5    1    3    3  503    0  0.91795019585E+01 -0.36316778366E+02  0.30034948004E+02  0.48242717053E+02  0.47000000000E+01 0. -1.
         -5    1    3    3    0  503  0.64850353036E+02 -0.54391768175E+01 -0.29194407162E+02  0.71481160755E+02  0.47000000000E+01 0.  1.
<mgrwt>
<rscale>  0 0.12287940E+03</rscale>
<asrwt>0</asrwt>
<pdfrwt beam="1">  1        3 0.10200444E-01 0.12395063E+03</pdfrwt>
<pdfrwt beam="2">  1       -3 0.95397977E-01 0.12395063E+03</pdfrwt>
<totfact> 0.16646428E+02</totfact>
</mgrwt>
</event>
<event>
 8    1  0.8174053E-004  0.9584670E+02  0.7546771E-02  0.1289361E+00
          2   -1    0    0  501    0  0.00000000000E+00  0.00000000000E+00  0.15465752981E+03  0.15465752981E+03  0.00000000000E+00 0. -1.
         -2   -1    0    0    0  501 -0.00000000000E+00 -0.00000000000E+00 -0.61393386957E+02  0.61393386957E+02  0.00000000000E+00 0.  1.
         23    2    1    2    0    0  0.25384486428E+02  0.13958917606E+02  0.66568179404E+02  0.11669580923E+03  0.91363919858E+02 0.  0.
         23    2    1    2    0    0 -0.25384486428E+02 -0.13958917606E+02  0.26695963447E+02  0.99355107531E+02  0.91211509121E+02 0.  0.
          5    1    4    4  502    0 -0.30801554299E+02  0.33693193655E+02  0.22134592520E+02  0.50950929647E+02  0.47000000000E+01 0. -1.
         -5    1    4    4    0  502  0.54170678707E+01 -0.47652111260E+02  0.45613709269E+01  0.48404177884E+02  0.47000000000E+01 0.  1.
          5    1    3    3  503    0  0.80598183064E+01 -0.22427197290E+02  0.71789897018E+02  0.75787988251E+02  0.47000000000E+01 0. -1.
         -5    1    3    3    0  503  0.17324668122E+02  0.36386114896E+02 -0.52217176138E+01  0.40907820983E+02  0.47000000000E+01 0.  1.
<mgrwt>
<rscale>  0 0.95810359E+02</rscale>
<asrwt>0</asrwt>
<pdfrwt beam="1">  1        2 0.23793466E-01 0.95846697E+02</pdfrwt>
<pdfrwt beam="2">  1       -2 0.94451365E-02 0.95846697E+02</pdfrwt>
<totfact> 0.14939239E+04</totfact>
</mgrwt>
</event>
<event>
 8    1  0.8174053E-004  0.9798746E+02  0.7546771E-02  0.1284650E+00
          3   -1    0    0  501    0  0.00000000000E+00  0.00000000000E+00  0.34666555208E+03  0.34666555208E+03  0.00000000000E+00 0. -1.
         -3   -1    0    0    0  501 -0.00000000000E+00 -0.00000000000E+00 -0.28048797921E+02  0.28048797921E+02  0.00000000000E+00 0.  1.
         23    2    1    2    0    0 -0.41242628485E+02 -0.75156331397E+01  0.13743531957E+03  0.16878983586E+03  0.88566937841E+02 0.  0.
         23    2    1    2    0    0  0.41242628485E+02  0.75156331397E+01  0.18118143458E+03  0.20592451414E+03  0.88435027782E+02 0.  0.
          5    1    3    3  502    0  0.21056552522E+02  0.82611055063E+00  0.82178970843E+02  0.84967841631E+02  0.47000000000E+01 0. -1.
         -5    1    3    3    0  502 -0.62299181007E+02 -0.83417436904E+01  0.55256348730E+02  0.83821994231E+02  0.47000000000E+01 0.  1.
          5    1    4    4  503    0  0.29101428213E+02 -0.38915054053E+02  0.10449717349E+03  0.11533873514E+03  0.47000000000E+01 0. -1.
         -5    1    4    4    0  503  0.12141200272E+02  0.46430687193E+02  0.76684261097E+02  0.90585779001E+02  0.47000000000E+01 0.  1.
<mgrwt>
<rscale>  0 0.97957640E+02</rscale>
<asrwt>0</asrwt>
<pdfrwt beam="1">  1        3 0.53333159E-01 0.97987456E+02</pdfrwt>
<pdfrwt beam="2">  1       -3 0.43151999E-02 0.97987456E+02</pdfrwt>
<totfact> 0.21780630E+03</totfact>
</mgrwt>
</event>
<event>
 8    1  0.8174053E-004  0.1045606E+03  0.7546771E-02  0.1271328E+00
          1   -1    0    0  501    0  0.00000000000E+00  0.00000000000E+00  0.44304434261E+02  0.44304434261E+02  0.00000000000E+00 0. -1.
         -1   -1    0    0    0  501 -0.00000000000E+00 -0.00000000000E+00 -0.24579298881E+03  0.24579298881E+03  0.00000000000E+00 0.  1.
         23    2    1    2    0    0 -0.45922566890E+02 -0.20266158424E+02 -0.93029880657E+02  0.13944482204E+03  0.90943391026E+02 0.  0.
         23    2    1    2    0    0  0.45922566890E+02  0.20266158424E+02 -0.10845867389E+03  0.15065260103E+03  0.91724167636E+02 0.  0.
          5    1    4    4  502    0 -0.13344163356E+02  0.19226952057E+02 -0.82298420342E+02  0.85690503393E+02  0.47000000000E+01 0. -1.
         -5    1    3    3    0  503  0.10239631358E+02 -0.40106211491E+02 -0.53486814837E+02  0.67795926219E+02  0.47000000000E+01 0.  1.
          5    1    3    3  503    0 -0.56162198248E+02  0.19840053067E+02 -0.39543065821E+02  0.71648895820E+02  0.47000000000E+01 0. -1.
         -5    1    4    4    0  502  0.59266730246E+02  0.10392063673E+01 -0.26160253552E+02  0.64962097641E+02  0.47000000000E+01 0.  1.
<mgrwt>
<rscale>  0 0.10438913E+03</rscale>
<asrwt>0</asrwt>
<pdfrwt beam="1">  1        1 0.68160669E-02 0.10456062E+03</pdfrwt>
<pdfrwt beam="2">  1       -1 0.37814305E-01 0.10456062E+03</pdfrwt>
<totfact> 0.68588924E+03</totfact>
</mgrwt>
</event>
<event>
 8    1  0.8174053E-004  0.9236527E+02  0.7546771E-02  0.1298927E+00
          4   -1    0    0  501    0  0.00000000000E+00  0.00000000000E+00  0.75071946149E+03  0.75071946149E+03  0.00000000000E+00 0. -1.
         -4   -1    0    0    0  501 -0.00000000000E+00 -0.00000000000E+00 -0.12385291730E+02  0.12385291730E+02  0.00000000000E+00 0.  1.
         23    2    1    2    0    0  0.80123877057E+01  0.10106320143E+02  0.24741218538E+03  0.26409114452E+03  0.91460412603E+02 0.  0.
         23    2    1    2    0    0 -0.80123877057E+01 -0.10106320143E+02  0.49092198438E+03  0.49901360870E+03  0.88565517339E+02 0.  0.
          5    1    3    3  502    0  0.38380015805E+02  0.21300180994E+02  0.20914238587E+03  0.21375067460E+03  0.47000000000E+01 0. -1.
         -5    1    4    4    0  503 -0.43810040428E+02  0.55246451508E-01  0.36425031896E+03  0.36690558398E+03  0.47000000000E+01 0.  1.
          5    1    4    4  503    0  0.35797652722E+02 -0.10161566594E+02  0.12667166542E+03  0.13210802472E+03  0.47000000000E+01 0. -1.
         -5    1    3    3    0  502 -0.30367628099E+02 -0.11193860852E+02  0.38269799514E+02  0.50340469922E+02  0.47000000000E+01 0.  1.
<mgrwt>
<rscale>  0 0.91640376E+02</rscale>
<asrwt>0</asrwt>
<pdfrwt beam="1">  1        4 0.11549527E+00 0.92365270E+02</pdfrwt>
<pdfrwt beam="2">  1       -4 0.19054301E-02 0.92365270E+02</pdfrwt>
<totfact> 0.10125146E+03</totfact>
</mgrwt>
</event>
<event>
 8    1  0.8174053E-004  0.1179807E+03  0.7546771E-02  0.1246973E+00
          1   -1    0    0  501    0  0.00000000000E+00  0.00000000000E+00  0.93885993979E+02  0.93885993979E+02  0.00000000000E+00 0. -1.
         -1   -1    0    0    0  501 -0.00000000000E+00 -0.00000000000E+00 -0.15214891658E+03  0.15214891658E+03  0.00000000000E+00 0.  1.
         23    2    1    2    0    0 -0.67236004829E+02 -0.29579591559E+02 -0.61263589013E+01  0.11813967686E+03  0.92324527584E+02 0.  0.
         23    2    1    2    0    0  0.67236004829E+02  0.29579591559E+02 -0.52136563701E+02  0.12789523370E+03  0.90792824309E+02 0.  0.
          5    1    4    4  502    0  0.85835103839E+02  0.12664381526E+02 -0.24585726058E+02  0.90302821309E+02  0.47000000000E+01 0. -1.
         -5    1    3    3    0  503 -0.37711688949E+02 -0.20121673604E+02 -0.48890839696E+02  0.65111116088E+02  0.47000000000E+01 0.  1.
          5    1    3    3  503    0 -0.29524315880E+02 -0.94579179549E+01  0.42764480795E+02  0.53028560775E+02  0.47000000000E+01 0. -1.
         -5    1    4    4    0  502 -0.18599099010E+02  0.16915210033E+02 -0.27550837643E+02  0.37592412390E+02  0.47000000000E+01 0.  1.
<mgrwt>
<rscale>  0 0.11768090E+03</rscale>
<asrwt>0</asrwt>
<pdfrwt beam="1">  1        1 0.14443999E-01 0.11798072E+03</pdfrwt>
<pdfrwt beam="2">  1       -1 0.23407526E-01 0.11798072E+03</pdfrwt>
<totfact> 0.57357408E+03</totfact>
</mgrwt>
</event>
<event>
 8    1  0.8174053E-004  0.9378784E+02  0.7546771E-02  0.1293961E+00
          2   -1    0    0  501    0  0.00000000000E+00  0.00000000000E+00  0.10953302171E+03  0.10953302171E+03  0.00000000000E+00 0. -1.
         -2   -1    0    0    0  501 -0.00000000000E+00 -0.00000000000E+00 -0.91951956813E+02  0.91951956813E+02  0.00000000000E+00 0.  1.
         23    2    1    2    0    0 -0.14171071433E+02  0.20729556604E+02 -0.27131327539E+02  0.97633335573E+02  0.90363850618E+02 0.  0.
         23    2    1    2    0    0  0.14171071433E+02 -0.20729556604E+02  0.44712392441E+02  0.10385164295E+03  0.90307430060E+02 0.  0.
          5    1    4    4  502    0  0.36720330730E+01 -0.52548027139E+02  0.72628398703E+01  0.53381811753E+02  0.47000000000E+01 0. -1.
         -5    1    4    4    0  502  0.10499038360E+02  0.31818470535E+02  0.37449552571E+02  0.50469831201E+02  0.47000000000E+01 0.  1.
          5    1    3    3  503    0  0.24527222208E+01 -0.24194859834E+02 -0.40683497851E+02  0.47630285387E+02  0.47000000000E+01 0. -1.
         -5    1    3    3    0  503 -0.16623793654E+02  0.44924416438E+02  0.13552170311E+02  0.50003050186E+02  0.47000000000E+01 0.  1.
<mgrwt>
<rscale>  0 0.93774249E+02</rscale>
<asrwt>0</asrwt>
<pdfrwt beam="1">  1        2 0.16851234E-01 0.93787842E+02</pdfrwt>
<pdfrwt beam="2">  1       -2 0.14146455E-01 0.93787842E+02</pdfrwt>
<totfact> 0.11593067E+04</totfact>
</mgrwt>
</event>
<event>
 8    1  0.8174053E-004  0.9273592E+02  0.7546771E-02  0.1297017E+00
          2   -1    0    0  501    0  0.00000000000E+00  0.00000000000E+00  0.37698224048E+03  0.37698224048E+03  0.00000000000E+00 0. -1.
         -2   -1    0    0    0  501 -0.00000000000E+00 -0.00000000000E+00 -0.33926506236E+02  0.33926506236E+02  0.00000000000E+00 0.  1.
         23    2    1    2    0    0 -0.16091016611E+01  0.45432959566E+01  0.51790539159E+02  0.10523675851E+03  0.91483794456E+02 0.  0.
         23    2    1    2    0    0  0.16091016611E+01 -0.45432959566E+01  0.29126519508E+03  0.30567198821E+03  0.92610581266E+02 0.  0.
          5    1    4    4  502    0  0.21747790206E+02  0.19523850328E+02  0.28814294634E+02  0.41309813432E+02  0.47000000000E+01 0. -1.
         -5    1    4    4    0  502 -0.20138688545E+02 -0.24067146284E+02  0.26245090045E+03  0.26436217478E+03  0.47000000000E+01 0.  1.
          5    1    3    3  503    0  0.13638889064E+02  0.20370016338E+02  0.71258208140E+02  0.75503503811E+02  0.47000000000E+01 0. -1.
         -5    1    3    3    0  503 -0.15247990725E+02 -0.15826720381E+02 -0.19467668980E+02  0.29733254694E+02  0.47000000000E+01 0.  1.
<mgrwt>
<rscale>  0 0.92453318E+02</rscale>
<asrwt>0</asrwt>
<pdfrwt beam="1">  1        2 0.57997265E-01 0.92735918E+02</pdfrwt>
<pdfrwt beam="2">  1       -2 0.52194628E-02 0.92735918E+02</pdfrwt>
<totfact> 0.14236660E+04</totfact>
</mgrwt>
</event>
<event>
 8    1  0.8174053E-004  0.1066133E+03  0.7546771E-02  0.1269581E+00
         -1   -1    0    0    0  501 -0.00000000000E+00  0.00000000000E+00  0.23059376860E+02  0.23059376860E+02  0.00000000000E+00 0.  1.
          1   -1    0    0  501    0  0.00000000000E+00 -0.00000000000E+00 -0.56172508123E+03  0.56172508123E+03  0.00000000000E+00 0. -1.
         23    2    1    2    0    0 -0.11272428175E+02  0.42893616007E+02 -0.14482490173E+03  0.17676854740E+03  0.91136914895E+02 0.  0.
         23    2    1    2    0    0  0.11272428175E+02 -0.42893616007E+02 -0.39384080264E+03  0.40801591069E+03  0.96950892851E+02 0.  0.
          5    1    3    3  502    0  0.11127450053E+02  0.57282100496E+02 -0.13643117001E+03  0.14846081413E+03  0.47000000000E+01 0. -1.
         -5    1    4    4    0  503 -0.23672975954E+02 -0.46645302998E+02 -0.10917981021E+03  0.12115492165E+03  0.47000000000E+01 0.  1.
          5    1    4    4  503    0  0.34945404128E+02  0.37516869902E+01 -0.28466099243E+03  0.28686098904E+03  0.47000000000E+01 0. -1.
         -5    1    3    3    0  502 -0.22399878227E+02 -0.14388484489E+02 -0.83937317203E+01  0.28307733266E+02  0.47000000000E+01 0.  1.
<mgrwt>
<rscale>  0 0.10527376E+03</rscale>
<asrwt>0</asrwt>
<pdfrwt beam="1">  1        1 0.86419242E-01 0.10661335E+03</pdfrwt>
<pdfrwt beam="2">  1       -1 0.35475965E-02 0.10661335E+03</pdfrwt>
<totfact> 0.10612994E+04</totfact>
</mgrwt>
</event>
<event>
 8    1  0.8174053E-004  0.1128966E+03  0.7546771E-02  0.1257091E+00
         -1   -1    0    0    0  501 -0.00000000000E+00  0.00000000000E+00  0.41220044799E+02  0.41220044799E+02  0.00000000000E+00 0.  1.
          1   -1    0    0  501    0  0.00000000000E+00 -0.00000000000E+00 -0.35794114067E+03  0.35794114067E+03  0.00000000000E+00 0. -1.
         23    2    1    2    0    0  0.29583641751E+02  0.52004020944E+02 -0.74719254920E+02  0.13212088318E+03  0.91067835495E+02 0.  0.
         23    2    1    2    0    0 -0.29583641751E+02 -0.52004020944E+02 -0.24200184095E+03  0.26704030230E+03  0.95739343908E+02 0.  0.
          5    1    3    3  502    0 -0.31519481687E+02  0.14207867934E+02 -0.36926273873E+02  0.50803355590E+02  0.47000000000E+01 0. -1.
         -5    1    4    4    0  503 -0.32072977607E+01  0.21701268467E+02 -0.15295602695E+02  0.27152850197E+02  0.47000000000E+01 0.  1.
          5    1    4    4  503    0 -0.26376343990E+02 -0.73705289411E+02 -0.22670623826E+03  0.23988745210E+03  0.47000000000E+01 0. -1.
         -5    1    3    3    0  502  0.61103123438E+02  0.37796153010E+02 -0.37792981047E+02  0.81317527586E+02  0.47000000000E+01 0.  1.
<mgrwt>
<rscale>  0 0.11190008E+03</rscale>
<asrwt>0</asrwt>
<pdfrwt beam="1">  1        1 0.55067866E-01 0.11289655E+03</pdfrwt>
<pdfrwt beam="2">  1       -1 0.63415456E-02 0.11289655E+03</pdfrwt>
<totfact> 0.80654644E+03</totfact>
</mgrwt>
</event>
<event>
 8    1  0.8174053E-004  0.1052473E+03  0.7546771E-02  0.1271025E+00
          2   -1    0    0  501    0  0.00000000000E+00  0.00000000000E+00  0.33975600293E+03  0.33975600293E+03  0.00000000000E+00 0. -1.
         -2   -1    0    0    0  501 -0.00000000000E+00 -0.00000000000E+00 -0.45690764591E+02  0.45690764591E+02  0.00000000000E+00 0.  1.
         23    2    1    2    0    0  0.45694262009E+02 -0.25135797374E+02  0.25213320394E+03  0.27215382047E+03  0.88186028232E+02 0.  0.
         23    2    1    2    0    0 -0.45694262009E+02  0.25135797374E+02  0.41932034392E+02  0.11329294705E+03  0.91417845371E+02 0.  0.
          5    1    4    4  502    0 -0.65161717201E+01 -0.33459488789E+02  0.10535341753E+02  0.35987238152E+02  0.47000000000E+01 0. -1.
         -5    1    3    3    0  503  0.62681034934E+02  0.76807464678E+01  0.18264437419E+03  0.19331053627E+03  0.47000000000E+01 0.  1.
          5    1    3    3  503    0 -0.16986772925E+02 -0.32816543842E+02  0.69488829749E+02  0.78843284204E+02  0.47000000000E+01 0. -1.
         -5    1    4    4    0  502 -0.39178090289E+02  0.58595286163E+02  0.31396692640E+02  0.77305708896E+02  0.47000000000E+01 0.  1.
<mgrwt>
<rscale>  0 0.10454158E+03</rscale>
<asrwt>0</asrwt>
<pdfrwt beam="1">  1        2 0.52270153E-01 0.10524731E+03</pdfrwt>
<pdfrwt beam="2">  1       -2 0.70293486E-02 0.10524731E+03</pdfrwt>
<totfact> 0.10258474E+04</totfact>
</mgrwt>
</event>
<event>
 8    1  0.8174053E-004  0.1038051E+03  0.7546771E-02  0.1273699E+00
          1   -1    0    0  501    0  0.00000000000E+00  0.00000000000E+00  0.16287290414E+03  0.16287290414E+03  0.00000000000E+00 0. -1.
         -1   -1    0    0    0  501 -0.00000000000E+00 -0.00000000000E+00 -0.66981916027E+02  0.66981916027E+02  0.00000000000E+00 0.  1.
         23    2    1    2    0    0  0.36227803029E+02 -0.16408879967E+02  0.68854807597E+02  0.12258666746E+03  0.93299525479E+02 0.  0.
         23    2    1    2    0    0 -0.36227803029E+02  0.16408879967E+02  0.27036180517E+02  0.10726815271E+03  0.95884286905E+02 0.  0.
          5    1    3    3  502    0 -0.98589813467E+01 -0.43191336643E+02  0.47073893964E+02  0.64813058616E+02  0.47000000000E+01 0. -1.
         -5    1    3    3    0  502  0.46086784375E+02  0.26782456677E+02  0.21780913634E+02  0.57773608840E+02  0.47000000000E+01 0.  1.
          5    1    4    4  503    0 -0.38944474368E+02 -0.34686263194E+02  0.11833929362E+02  0.53683710959E+02  0.47000000000E+01 0. -1.
         -5    1    4    4    0  503  0.27166713392E+01  0.51095143161E+02  0.15202251155E+02  0.53584441753E+02  0.47000000000E+01 0.  1.
<mgrwt>
<rscale>  0 0.10320424E+03</rscale>
<asrwt>0</asrwt>
<pdfrwt beam="1">  1        1 0.25057370E-01 0.10380511E+03</pdfrwt>
<pdfrwt beam="2">  1       -1 0.10304910E-01 0.10380511E+03</pdfrwt>
<totfact> 0.10203627E+04</totfact>
</mgrwt>
</event>
<event>
 8    1  0.8174053E-004  0.1096020E+03  0.7546771E-02  0.1266058E+00
         -1   -1    0    0    0  501 -0.00000000000E+00  0.00000000000E+00  0.19951614615E+02  0.19951614615E+02  0.00000000000E+00 0.  1.
          1   -1    0    0  501    0  0.00000000000E+00 -0.00000000000E+00 -0.60532559181E+03  0.60532559181E+03  0.00000000000E+00 0. -1.
         23    2    1    2    0    0 -0.14522674259E+02  0.37069599713E+02 -0.37485460963E+03  0.38793569440E+03  0.91613652544E+02 0.  0.
         23    2    1    2    0    0  0.14522674259E+02 -0.37069599713E+02 -0.21051936756E+03  0.23734151203E+03  0.10211525803E+03 0.  0.
          5    1    3    3  502    0 -0.40266227000E+02  0.35849733972E+02 -0.34028286921E+03  0.34455927435E+03  0.47000000000E+01 0. -1.
         -5    1    4    4    0  503  0.58390918426E+02 -0.26059880517E+02 -0.12123291747E+03  0.13714272495E+03  0.47000000000E+01 0.  1.
          5    1    4    4  503    0 -0.43868244167E+02 -0.11009719196E+02 -0.89286450094E+02  0.10019878709E+03  0.47000000000E+01 0. -1.
         -5    1    3    3    0  502  0.25743552741E+02  0.12198657406E+01 -0.34571740427E+02  0.43376420049E+02  0.47000000000E+01 0.  1.
<mgrwt>
<rscale>  0 0.10708900E+03</rscale>
<asrwt>0</asrwt>
<pdfrwt beam="1">  1        1 0.93127006E-01 0.10960196E+03</pdfrwt>
<pdfrwt beam="2">  1       -1 0.30694795E-02 0.10960196E+03</pdfrwt>
<totfact> 0.11872194E+04</totfact>
</mgrwt>
</event>
<event>
 8    1  0.8174053E-004  0.1999671E+03  0.7546771E-02  0.1149792E+00
         -2   -1    0    0    0  501 -0.00000000000E+00  0.00000000000E+00  0.19563116729E+03  0.19563116729E+03  0.00000000000E+00 0.  1.
          2   -1    0    0  501    0  0.00000000000E+00 -0.00000000000E+00 -0.44020822323E+03  0.44020822323E+03  0.00000000000E+00 0. -1.
         23    2    1    2    0    0 -0.41471354426E+02 -0.17231108712E+03  0.11047497707E+03  0.22834854737E+03  0.92343676258E+02 0.  0.
         23    2    1    2    0    0  0.41471354426E+02  0.17231108712E+03 -0.35505203301E+03  0.40749084314E+03  0.92605923769E+02 0.  0.
          5    1    4    4  502    0  0.53092911424E+02  0.12463828164E+03 -0.17821020586E+03  0.22390740490E+03  0.47000000000E+01 0. -1.
         -5    1    4    4    0  502 -0.11621556998E+02  0.47672805483E+02 -0.17684182715E+03  0.18358343825E+03  0.47000000000E+01 0.  1.
          5    1    3    3  503    0 -0.81605076366E+01 -0.19421963890E+02  0.60160100908E+02  0.63915055406E+02  0.47000000000E+01 0. -1.
         -5    1    3    3    0  503 -0.33310846789E+02 -0.15288912323E+03  0.50314876160E+02  0.16443349197E+03  0.47000000000E+01 0.  1.
<mgrwt>
<rscale>  0 0.19993676E+03</rscale>
<asrwt>0</asrwt>
<pdfrwt beam="1">  1        2 0.67724342E-01 0.19996710E+03</pdfrwt>
<pdfrwt beam="2">  1       -2 0.30097103E-01 0.19996710E+03</pdfrwt>
<totfact> 0.73189024E+02</totfact>
</mgrwt>
</event>
<event>
 7    1  0.8174053E-004  0.1756566E+03  0.7546771E-02  0.1184609E+00
          2   -1    0    0  501    0  0.00000000000E+00  0.00000000000E+00  0.59919426441E+03  0.59919426441E+03  0.00000000000E+00 0. -1.
         -2   -1    0    0    0  501 -0.00000000000E+00 -0.00000000000E+00 -0.40337094998E+02  0.40337094998E+02  0.00000000000E+00 0.  1.
         23    2    1    2    0    0 -0.94962091279E+02 -0.93590235266E+01  0.28378018162E+03  0.31315338509E+03  0.91806650149E+02 0.  0.
          5    1    1    2  502    0  0.11625644826E+02  0.29787942632E+02  0.22419207145E+03  0.22650971733E+03  0.47000000000E+01 0. -1.
         -5    1    1    2    0  502  0.83336446453E+02 -0.20428919105E+02  0.50884916349E+02  0.99868256994E+02  0.47000000000E+01 0.  1.
          5    1    3    3  503    0 -0.44171276696E+02 -0.48128832948E+02  0.11106943856E+03  0.12894183351E+03  0.47000000000E+01 0. -1.
         -5    1    3    3    0  503 -0.50790814583E+02  0.38769809422E+02  0.17271074306E+03  0.18421155158E+03  0.47000000000E+01 0.  1.
<mgrwt>
<rscale>  0 0.16367524E+03</rscale>
<asrwt>0</asrwt>
<pdfrwt beam="1">  1        2 0.92183727E-01 0.17565658E+03</pdfrwt>
<pdfrwt beam="2">  1       -2 0.62057073E-02 0.17565658E+03</pdfrwt>
<totfact> 0.69213610E+03</totfact>
</mgrwt>
</event>
<event>
 8    1  0.8174053E-004  0.1115359E+03  0.7546771E-02  0.1257763E+00
         -2   -1    0    0    0  501 -0.00000000000E+00  0.00000000000E+00  0.32286431546E+02  0.32286431546E+02  0.00000000000E+00 0.  1.
          2   -1    0    0  501    0  0.00000000000E+00 -0.00000000000E+00 -0.42861865148E+03  0.42861865148E+03  0.00000000000E+00 0. -1.
         23    2    1    2    0    0  0.26580620547E+02  0.58130457799E+02 -0.27151522661E+03  0.29353156547E+03  0.91403403305E+02 0.  0.
         23    2    1    2    0    0 -0.26580620547E+02 -0.58130457799E+02 -0.12481699333E+03  0.16737351755E+03  0.91372496097E+02 0.  0.
          5    1    3    3  502    0  0.39581261873E+02  0.30223713521E+02 -0.25169205842E+03  0.25661475293E+03  0.47000000000E+01 0. -1.
         -5    1    3    3    0  502 -0.13000641326E+02  0.27906744278E+02 -0.19823168187E+02  0.36916812539E+02  0.47000000000E+01 0.  1.
          5    1    4    4  503    0  0.31707236126E+02 -0.35294375670E+02 -0.42656335494E+02  0.63974172401E+02  0.47000000000E+01 0. -1.
         -5    1    4    4    0  503 -0.58287856673E+02 -0.22836082129E+02 -0.82160657833E+02  0.10339934515E+03  0.47000000000E+01 0.  1.
<mgrwt>
<rscale>  0 0.11152959E+03</rscale>
<asrwt>0</asrwt>
<pdfrwt beam="1">  1        2 0.65941333E-01 0.11153592E+03</pdfrwt>
<pdfrwt beam="2">  1       -2 0.49671431E-02 0.11153592E+03</pdfrwt>
<totfact> 0.13602118E+04</totfact>
</mgrwt>
</event>
<event>
 8    1  0.8174053E-004  0.1323932E+03  0.7546771E-02  0.1235500E+00
         -1   -1    0    0    0  501 -0.00000000000E+00  0.00000000000E+00  0.11255230746E+03  0.11255230746E+03  0.00000000000E+00 0.  1.
          1   -1    0    0  501    0  0.00000000000E+00 -0.00000000000E+00 -0.16954488091E+03  0.16954488091E+03  0.00000000000E+00 0. -1.
         23    2    1    2    0    0  0.57639978742E+02 -0.29642640941E+02  0.46375023191E+02  0.11413050188E+03  0.81695014365E+02 0.  0.
         23    2    1    2    0    0 -0.57639978742E+02  0.29642640941E+02 -0.10336759664E+03  0.16796668650E+03  0.11544216919E+03 0.  0.
          5    1    3    3  502    0  0.23699606064E+02 -0.20436873659E+02 -0.21003776490E+02  0.37981387012E+02  0.47000000000E+01 0. -1.
         -5    1    3    3    0  502  0.33940372678E+02 -0.92057672825E+01  0.67378799681E+02  0.76149114868E+02  0.47000000000E+01 0.  1.
          5    1    4    4  503    0  0.47824521465E+01 -0.38952951063E+02 -0.31258315673E+02  0.50392227018E+02  0.47000000000E+01 0.  1.
         -5    1    4    4    0  503 -0.62422430889E+02  0.68595592005E+02 -0.72109280967E+02  0.11757445948E+03  0.47000000000E+01 0. -1.
<mgrwt>
<rscale>  0 0.12472498E+03</rscale>
<asrwt>0</asrwt>
<pdfrwt beam="1">  1        1 0.26083828E-01 0.13239316E+03</pdfrwt>
<pdfrwt beam="2">  1       -1 0.17315740E-01 0.13239316E+03</pdfrwt>
<totfact> 0.44217559E+03</totfact>
</mgrwt>
</event>
<event>
 8    1  0.8174053E-004  0.9267044E+02  0.7546771E-02  0.1297116E+00
          1   -1    0    0  501    0  0.00000000000E+00  0.00000000000E+00  0.50395852763E+02  0.50395852763E+02  0.00000000000E+00 0. -1.
         -1   -1    0    0    0  501 -0.00000000000E+00 -0.00000000000E+00 -0.17060069999E+03  0.17060069999E+03  0.00000000000E+00 0.  1.
         23    2    1    2    0    0  0.27704790470E+02  0.84383782169E+00 -0.47541799607E+02  0.10323523008E+03  0.87344275955E+02 0.  0.
         23    2    1    2    0    0 -0.27704790470E+02 -0.84383782169E+00 -0.72663047618E+02  0.11776132267E+03  0.88428180755E+02 0.  0.
          5    1    4    4  502    0  0.10827983174E+02 -0.37347582836E+02 -0.26839159922E+02  0.47481761432E+02  0.47000000000E+01 0. -1.
         -5    1    4    4    0  502 -0.38532773644E+02  0.36503745015E+02 -0.45823887696E+02  0.70279561243E+02  0.47000000000E+01 0.  1.
          5    1    3    3  503    0  0.41665489964E+01 -0.21883702739E+02  0.18530653441E+02  0.29355266871E+02  0.47000000000E+01 0. -1.
         -5    1    3    3    0  503  0.23538241473E+02  0.22727540561E+02 -0.66072453048E+02  0.73879963207E+02  0.47000000000E+01 0.  1.
<mgrwt>
<rscale>  0 0.92410925E+02</rscale>
<asrwt>0</asrwt>
<pdfrwt beam="1">  1        1 0.77532082E-02 0.92670441E+02</pdfrwt>
<pdfrwt beam="2">  1       -1 0.26246261E-01 0.92670441E+02</pdfrwt>
<totfact> 0.10542248E+04</totfact>
</mgrwt>
</event>
<event>
 8    1  0.8174053E-004  0.1465804E+03  0.7546771E-02  0.1213988E+00
         -1   -1    0    0    0  501 -0.00000000000E+00  0.00000000000E+00  0.52324766045E+03  0.52324766045E+03  0.00000000000E+00 0.  1.
          1   -1    0    0  501    0  0.00000000000E+00 -0.00000000000E+00 -0.65436681956E+02  0.65436681956E+02  0.00000000000E+00 0. -1.
         23    2    1    2    0    0  0.73415942551E+02 -0.21708225955E+02  0.44404542401E+03  0.46761324620E+03  0.12499864695E+03 0.  0.
         23    2    1    2    0    0 -0.73415942551E+02  0.21708225955E+02  0.13765554483E+02  0.12107109621E+03  0.92777002280E+02 0.  0.
          5    1    3    3  502    0 -0.22854277300E+02 -0.41552091573E+02  0.12697856284E+03  0.13562647133E+03  0.47000000000E+01 0. -1.
         -5    1    4    4    0  503 -0.18644696342E+02  0.53333670439E+02  0.97268026948E+01  0.57522220010E+02  0.47000000000E+01 0.  1.
          5    1    4    4  503    0 -0.54771246209E+02 -0.31625444484E+02  0.40387517882E+01  0.63548876199E+02  0.47000000000E+01 0. -1.
         -5    1    3    3    0  502  0.96270219850E+02  0.19843865618E+02  0.31706686117E+03  0.33198677487E+03  0.47000000000E+01 0. -1.
<mgrwt>
<rscale>  0 0.13951171E+03</rscale>
<asrwt>0</asrwt>
<pdfrwt beam="1">  1        1 0.10067182E-01 0.14658039E+03</pdfrwt>
<pdfrwt beam="2">  1       -1 0.80499637E-01 0.14658039E+03</pdfrwt>
<totfact> 0.10106797E+03</totfact>
</mgrwt>
</event>
<event>
 8    1  0.8174053E-004  0.9843082E+02  0.7546771E-02  0.1284925E+00
          2   -1    0    0  501    0  0.00000000000E+00  0.00000000000E+00  0.11104937586E+03  0.11104937586E+03  0.00000000000E+00 0. -1.
         -2   -1    0    0    0  501 -0.00000000000E+00 -0.00000000000E+00 -0.16861671866E+03  0.16861671866E+03  0.00000000000E+00 0.  1.
         23    2    1    2    0    0  0.13483560640E+02  0.28718510191E+02  0.69771763814E+02  0.11871928677E+03  0.90662069194E+02 0.  0.
         23    2    1    2    0    0 -0.13483560640E+02 -0.28718510191E+02 -0.12733910661E+03  0.16094680775E+03  0.93177613280E+02 0.  0.
          5    1    4    4  502    0 -0.30397946058E+02 -0.43843148863E+02 -0.31045773703E+02  0.61904659692E+02  0.47000000000E+01 0. -1.
         -5    1    3    3    0  503 -0.18577573535E+02  0.14993181419E+02  0.78731794757E+02  0.82405747574E+02  0.47000000000E+01 0.  1.
          5    1    3    3  503    0  0.32061134176E+02  0.13725328772E+02 -0.89600309429E+01  0.36313539197E+02  0.47000000000E+01 0. -1.
         -5    1    4    4    0  502  0.16914385417E+02  0.15124638672E+02 -0.96293332907E+02  0.99042148055E+02  0.47000000000E+01 0.  1.
<mgrwt>
<rscale>  0 0.97830893E+02</rscale>
<asrwt>0</asrwt>
<pdfrwt beam="1">  1        2 0.17084519E-01 0.98430823E+02</pdfrwt>
<pdfrwt beam="2">  1       -2 0.25941034E-01 0.98430823E+02</pdfrwt>
<totfact> 0.41594788E+03</totfact>
</mgrwt>
</event>
<event>
 8    1  0.8174053E-004  0.1030677E+03  0.7546771E-02  0.1274182E+00
          2   -1    0    0  501    0  0.00000000000E+00  0.00000000000E+00  0.23793680387E+03  0.23793680387E+03  0.00000000000E+00 0. -1.
         -2   -1    0    0    0  501 -0.00000000000E+00 -0.00000000000E+00 -0.45408737339E+02  0.45408737339E+02  0.00000000000E+00 0.  1.
         23    2    1    2    0    0 -0.39334575790E+02 -0.27926987735E+02  0.76060470849E+02  0.12809426021E+03  0.91081385452E+02 0.  0.
         23    2    1    2    0    0  0.39334575790E+02  0.27926987735E+02  0.11646759568E+03  0.15525128100E+03  0.90615307272E+02 0.  0.
          5    1    3    3  502    0  0.12527147940E+02 -0.22935650460E+02  0.70682661315E+02  0.75505642889E+02  0.47000000000E+01 0. -1.
         -5    1    4    4    0  503  0.22605346720E+02 -0.29868463507E+02  0.23682320799E+02  0.44565335531E+02  0.47000000000E+01 0.  1.
          5    1    4    4  503    0  0.16729229070E+02  0.57795451241E+02  0.92785274880E+02  0.11068594547E+03  0.47000000000E+01 0. -1.
         -5    1    3    3    0  502 -0.51861723730E+02 -0.49913372747E+01  0.53778095336E+01  0.52588617318E+02  0.47000000000E+01 0.  1.
<mgrwt>
<rscale>  0 0.10296460E+03</rscale>
<asrwt>0</asrwt>
<pdfrwt beam="1">  1        2 0.36605661E-01 0.10306767E+03</pdfrwt>
<pdfrwt beam="2">  1       -2 0.69859597E-02 0.10306767E+03</pdfrwt>
<totfact> 0.15035859E+04</totfact>
</mgrwt>
</event>
<event>
 8    1  0.8174053E-004  0.1027913E+03  0.7546771E-02  0.1276001E+00
         -1   -1    0    0    0  501 -0.00000000000E+00  0.00000000000E+00  0.12216683790E+02  0.12216683790E+02  0.00000000000E+00 0.  1.
          1   -1    0    0  501    0  0.00000000000E+00 -0.00000000000E+00 -0.89148078624E+03  0.89148078624E+03  0.00000000000E+00 0. -1.
         23    2    1    2    0    0  0.22921637990E+02  0.34535816657E+02 -0.55293357561E+03  0.56240696082E+03  0.94063416975E+02 0.  0.
         23    2    1    2    0    0 -0.22921637990E+02 -0.34535816657E+02 -0.32633052683E+03  0.34129050921E+03  0.90936652755E+02 0.  0.
          5    1    3    3  502    0  0.54214485665E+02  0.10472040552E+02 -0.42048411288E+03  0.42412009299E+03  0.47000000000E+01 0. -1.
         -5    1    4    4    0  503  0.13305691254E+02  0.21978568075E+02 -0.45064076905E+02  0.52086081651E+02  0.47000000000E+01 0.  1.
          5    1    4    4  503    0 -0.36227329244E+02 -0.56514384732E+02 -0.28126644993E+03  0.28920442756E+03  0.47000000000E+01 0. -1.
         -5    1    3    3    0  502 -0.31292847675E+02  0.24063776104E+02 -0.13244946273E+03  0.13828686783E+03  0.47000000000E+01 0.  1.
<mgrwt>
<rscale>  0 0.10207042E+03</rscale>
<asrwt>0</asrwt>
<pdfrwt beam="1">  1        1 0.13715089E+00 0.10279130E+03</pdfrwt>
<pdfrwt beam="2">  1       -1 0.18794898E-02 0.10279130E+03</pdfrwt>
<totfact> 0.13663397E+04</totfact>
</mgrwt>
</event>
<event>
 8    1  0.8174053E-004  0.1279742E+03  0.7546771E-02  0.1231316E+00
         -2   -1    0    0    0  501 -0.00000000000E+00  0.00000000000E+00  0.56568233571E+02  0.56568233571E+02  0.00000000000E+00 0.  1.
          2   -1    0    0  501    0  0.00000000000E+00 -0.00000000000E+00 -0.29670138485E+03  0.29670138485E+03  0.00000000000E+00 0. -1.
         23    2    1    2    0    0 -0.64256422625E+02 -0.61237955460E+02 -0.15466652726E+03  0.19938021568E+03  0.89172645542E+02 0.  0.
         23    2    1    2    0    0  0.64256422625E+02  0.61237955460E+02 -0.85466624023E+02  0.15388940274E+03  0.92186926498E+02 0.  0.
          5    1    4    4  502    0  0.74910155146E+02  0.17967197971E+02 -0.75537458592E+02  0.10799235713E+03  0.47000000000E+01 0. -1.
         -5    1    4    4    0  502 -0.10653732521E+02  0.43270757488E+02 -0.99291654312E+01  0.45897045618E+02  0.47000000000E+01 0.  1.
          5    1    3    3  503    0 -0.83011711363E+02 -0.51938243658E+02 -0.14680770299E+03  0.17653078212E+03  0.47000000000E+01 0. -1.
         -5    1    3    3    0  503  0.18755288738E+02 -0.92997118016E+01 -0.78588242676E+01  0.22849433562E+02  0.47000000000E+01 0.  1.
<mgrwt>
<rscale>  0 0.12743231E+03</rscale>
<asrwt>0</asrwt>
<pdfrwt beam="1">  1        2 0.45646367E-01 0.12797423E+03</pdfrwt>
<pdfrwt beam="2">  1       -2 0.87028051E-02 0.12797423E+03</pdfrwt>
<totfact> 0.86536939E+03</totfact>
</mgrwt>
</event>
<event>
 8    1  0.8174053E-004  0.9602619E+02  0.7546771E-02  0.1291484E+00
         -1   -1    0    0    0  501 -0.00000000000E+00  0.00000000000E+00  0.83095861794E+02  0.83095861794E+02  0.00000000000E+00 0.  1.
          1   -1    0    0  501    0  0.00000000000E+00 -0.00000000000E+00 -0.10796042544E+03  0.10796042544E+03  0.00000000000E+00 0. -1.
         23    2    1    2    0    0 -0.64926031457E+01 -0.50441079351E+01  0.92827037754E+00  0.96030674381E+02  0.95673569055E+02 0.  0.
         23    2    1    2    0    0  0.64926031457E+01  0.50441079351E+01 -0.25792834022E+02  0.95025612852E+02  0.91087869064E+02 0.  0.
          5    1    4    4  502    0  0.44642119557E+02  0.28907090576E+01 -0.33090086201E+02  0.55841909371E+02  0.47000000000E+01 0. -1.
         -5    1    4    4    0  502 -0.38149516411E+02  0.21533988775E+01  0.72972521790E+01  0.39183703481E+02  0.47000000000E+01 0.  1.
          5    1    3    3  503    0  0.18379885434E+02  0.20683557699E+02 -0.35162101103E+02  0.44989922223E+02  0.47000000000E+01 0. -1.
         -5    1    3    3    0  503 -0.24872488580E+02 -0.25727665634E+02  0.36090371481E+02  0.51040752157E+02  0.47000000000E+01 0.  1.
<mgrwt>
<rscale>  0 0.94863227E+02</rscale>
<asrwt>0</asrwt>
<pdfrwt beam="1">  1        1 0.16609296E-01 0.96026188E+02</pdfrwt>
<pdfrwt beam="2">  1       -1 0.12783979E-01 0.96026188E+02</pdfrwt>
<totfact> 0.12229810E+04</totfact>
</mgrwt>
</event>
<event>
 8    1  0.8174053E-004  0.1111542E+03  0.7546771E-02  0.1260284E+00
         -2   -1    0    0    0  501 -0.00000000000E+00  0.00000000000E+00  0.85517707881E+02  0.85517707881E+02  0.00000000000E+00 0.  1.
          2   -1    0    0  501    0  0.00000000000E+00 -0.00000000000E+00 -0.18188170839E+03  0.18188170839E+03  0.00000000000E+00 0. -1.
         23    2    1    2    0    0 -0.62734135890E+02 -0.11591432698E+02  0.17096319315E+02  0.10856462774E+03  0.86162991739E+02 0.  0.
         23    2    1    2    0    0  0.62734135890E+02  0.11591432698E+02 -0.11346031982E+03  0.15883478852E+03  0.91023693364E+02 0.  0.
          5    1    3    3  502    0 -0.48489790539E+02 -0.28197240051E+02 -0.24454332839E+02  0.61371398286E+02  0.47000000000E+01 0. -1.
         -5    1    4    4    0  503  0.11441354196E+02 -0.37484626230E+02 -0.48119669921E+02  0.62238207098E+02  0.47000000000E+01 0.  1.
          5    1    4    4  503    0  0.51292781693E+02  0.49076058928E+02 -0.65340649900E+02  0.96596581426E+02  0.47000000000E+01 0. -1.
         -5    1    3    3    0  502 -0.14244345351E+02  0.16605807353E+02  0.41550652154E+02  0.47193229459E+02  0.47000000000E+01 0.  1.
<mgrwt>
<rscale>  0 0.11015473E+03</rscale>
<asrwt>0</asrwt>
<pdfrwt beam="1">  1        2 0.27981801E-01 0.11115415E+03</pdfrwt>
<pdfrwt beam="2">  1       -2 0.13156571E-01 0.11115415E+03</pdfrwt>
<totfact> 0.75246110E+03</totfact>
</mgrwt>
</event>
<event>
 8    1  0.8174053E-004  0.9879127E+02  0.7546771E-02  0.1284556E+00
         -1   -1    0    0    0  501 -0.00000000000E+00  0.00000000000E+00  0.88955584245E+02  0.88955584245E+02  0.00000000000E+00 0.  1.
          1   -1    0    0  501    0  0.00000000000E+00 -0.00000000000E+00 -0.11247003264E+03  0.11247003264E+03  0.00000000000E+00 0. -1.
         23    2    1    2    0    0 -0.24766130827E+02  0.10078554105E+02  0.11698599116E+02  0.99481516883E+02  0.95104029836E+02 0.  0.
         23    2    1    2    0    0  0.24766130827E+02 -0.10078554105E+02 -0.35213047508E+02  0.10194410000E+03  0.91856966642E+02 0.  0.
          5    1    3    3  502    0  0.64954317939E+01  0.36575138416E+02 -0.24379771594E+02  0.44681032299E+02  0.47000000000E+01 0. -1.
         -5    1    4    4    0  503  0.63170227894E+01 -0.49064539097E+02 -0.30492164613E+02  0.58301765638E+02  0.47000000000E+01 0.  1.
          5    1    4    4  503    0  0.18449108038E+02  0.38985984992E+02 -0.47208828947E+01  0.43642334361E+02  0.47000000000E+01 0. -1.
         -5    1    3    3    0  502 -0.31261562621E+02 -0.26496584310E+02  0.36078370710E+02  0.54800484585E+02  0.47000000000E+01 0.  1.
<mgrwt>
<rscale>  0 0.98001388E+02</rscale>
<asrwt>0</asrwt>
<pdfrwt beam="1">  1        1 0.17303082E-01 0.98791270E+02</pdfrwt>
<pdfrwt beam="2">  1       -1 0.13685475E-01 0.98791270E+02</pdfrwt>
<totfact> 0.10481461E+04</totfact>
</mgrwt>
</event>
<event>
 8    1  0.8174053E-004  0.1146218E+03  0.7546771E-02  0.1252449E+00
         -2   -1    0    0    0  501 -0.00000000000E+00  0.00000000000E+00  0.59625599511E+02  0.59625599511E+02  0.00000000000E+00 0.  1.
          2   -1    0    0  501    0  0.00000000000E+00 -0.00000000000E+00 -0.21947338958E+03  0.21947338958E+03  0.00000000000E+00 0. -1.
         23    2    1    2    0    0  0.43560525229E+02 -0.52413366006E+02 -0.78080662539E+02  0.13830115140E+03  0.91574769023E+02 0.  0.
         23    2    1    2    0    0 -0.43560525229E+02  0.52413366006E+02 -0.81767127527E+02  0.14079783769E+03  0.92160119681E+02 0.  0.
          5    1    3    3  502    0  0.71560243846E+02 -0.45471205738E+02 -0.58828860949E+02  0.10330258434E+03  0.47000000000E+01 0. -1.
         -5    1    4    4    0  503 -0.57713740023E+02  0.15044014301E+02 -0.13151604243E+02  0.61255635234E+02  0.47000000000E+01 0.  1.
          5    1    4    4  503    0  0.14153214794E+02  0.37369351705E+02 -0.68615523284E+02  0.79542202455E+02  0.47000000000E+01 0. -1.
         -5    1    3    3    0  502 -0.27999718617E+02 -0.69421602685E+01 -0.19251801590E+02  0.34998567061E+02  0.47000000000E+01 0.  1.
<mgrwt>
<rscale>  0 0.11450414E+03</rscale>
<asrwt>0</asrwt>
<pdfrwt beam="1">  1        2 0.33765136E-01 0.11462185E+03</pdfrwt>
<pdfrwt beam="2">  1       -2 0.91731693E-02 0.11462185E+03</pdfrwt>
<totfact> 0.10886065E+04</totfact>
</mgrwt>
</event>
<event>
 8    1  0.8174053E-004  0.9224549E+02  0.7546771E-02  0.1301233E+00
          3   -1    0    0  501    0  0.00000000000E+00  0.00000000000E+00  0.22886652466E+03  0.22886652466E+03  0.00000000000E+00 0. -1.
         -3   -1    0    0    0  501 -0.00000000000E+00 -0.00000000000E+00 -0.38480124721E+02  0.38480124721E+02  0.00000000000E+00 0.  1.
         23    2    1    2    0    0  0.11114470006E+02  0.11604538540E+02  0.13975832094E+03  0.16745631735E+03  0.90835197966E+02 0.  0.
         23    2    1    2    0    0 -0.11114470006E+02 -0.11604538540E+02  0.50628078995E+02  0.99890332030E+02  0.84597158889E+02 0.  0.
          5    1    4    4  502    0  0.20619578217E+02 -0.28109209822E+02  0.53137984048E+02  0.63726211493E+02  0.47000000000E+01 0. -1.
         -5    1    3    3    0  503 -0.26572027164E+02  0.22863594411E+02  0.18546395943E+02  0.39935890868E+02  0.47000000000E+01 0.  1.
          5    1    3    3  503    0  0.37686497170E+02 -0.11259055871E+02  0.12121192500E+03  0.12752042648E+03  0.47000000000E+01 0. -1.
         -5    1    4    4    0  502 -0.31734048224E+02  0.16504671282E+02 -0.25099050526E+01  0.36164120536E+02  0.47000000000E+01 0.  1.
<mgrwt>
<rscale>  0 0.90671716E+02</rscale>
<asrwt>0</asrwt>
<pdfrwt beam="1">  1        3 0.35210234E-01 0.92245487E+02</pdfrwt>
<pdfrwt beam="2">  1       -3 0.59200193E-02 0.92245487E+02</pdfrwt>
<totfact> 0.29247096E+03</totfact>
</mgrwt>
</event>
<event>
 8    1  0.8174053E-004  0.1148089E+03  0.7546771E-02  0.1256580E+00
         -2   -1    0    0    0  501 -0.00000000000E+00  0.00000000000E+00  0.20653342722E+02  0.20653342722E+02  0.00000000000E+00 0.  1.
          2   -1    0    0  501    0  0.00000000000E+00 -0.00000000000E+00 -0.90565467123E+03  0.90565467123E+03  0.00000000000E+00 0. -1.
         23    2    1    2    0    0 -0.53283385427E+02 -0.44543793859E+02 -0.17943159012E+03  0.21301828162E+03  0.91421135599E+02 0.  0.
         23    2    1    2    0    0  0.53283385427E+02  0.44543793859E+02 -0.70556973839E+03  0.71328973234E+03  0.78296346008E+02 0.  0.
          5    1    4    4  502    0  0.65006944262E+02  0.14741556977E+02 -0.57028624106E+03  0.57418786389E+03  0.47000000000E+01 0. -1.
         -5    1    4    4    0  502 -0.11723558835E+02  0.29802236882E+02 -0.13528349733E+03  0.13910186845E+03  0.47000000000E+01 0.  1.
          5    1    3    3  503    0 -0.35995331588E+02 -0.21404501749E+02 -0.17885059427E+03  0.18374831064E+03  0.47000000000E+01 0. -1.
         -5    1    3    3    0  503 -0.17288053839E+02 -0.23139292110E+02 -0.58099585318E+00  0.29269970978E+02  0.47000000000E+01 0.  1.
<mgrwt>
<rscale>  0 0.11218281E+03</rscale>
<asrwt>0</asrwt>
<pdfrwt beam="1">  1        2 0.13933150E+00 0.11480894E+03</pdfrwt>
<pdfrwt beam="2">  1       -2 0.31774370E-02 0.11480894E+03</pdfrwt>
<totfact> 0.11127206E+04</totfact>
</mgrwt>
</event>
<event>
 8    1  0.8174053E-004  0.1629450E+03  0.7546771E-02  0.1185835E+00
          2   -1    0    0  501    0  0.00000000000E+00  0.00000000000E+00  0.22518664350E+03  0.22518664350E+03  0.00000000000E+00 0. -1.
         -2   -1    0    0    0  501 -0.00000000000E+00 -0.00000000000E+00 -0.12522550535E+04  0.12522550535E+04  0.00000000000E+00 0.  1.
         23    2    1    2    0    0  0.85594237422E+02  0.10455146276E+03  0.19011674444E+03  0.24939822296E+03  0.88304672875E+02 0.  0.
         23    2    1    2    0    0 -0.85594237422E+02 -0.10455146276E+03 -0.12171851544E+04  0.12280434740E+04  0.91069710069E+02 0.  0.
          5    1    4    4  502    0 -0.30999519457E+02 -0.10264967878E+03 -0.74678768405E+03  0.75446130571E+03  0.47000000000E+01 0. -1.
         -5    1    4    4    0  502 -0.54594717965E+02 -0.19017839837E+01 -0.47039747035E+03  0.47358216829E+03  0.47000000000E+01 0.  1.
          5    1    3    3  503    0  0.38933444705E+02 -0.17545505851E+00  0.85728890383E+02  0.94272883415E+02  0.47000000000E+01 0. -1.
         -5    1    3    3    0  503  0.46660792717E+02  0.10472691782E+03  0.10438785406E+03  0.15512533954E+03  0.47000000000E+01 0.  1.
<mgrwt>
<rscale>  0 0.16256138E+03</rscale>
<asrwt>0</asrwt>
<pdfrwt beam="1">  1        2 0.34644098E-01 0.16294500E+03</pdfrwt>
<pdfrwt beam="2">  1       -2 0.19265463E+00 0.16294500E+03</pdfrwt>
<totfact> 0.24870400E+01</totfact>
</mgrwt>
</event>
<event>
 8    1  0.8174053E-004  0.1256819E+03  0.7546771E-02  0.1236031E+00
          3   -1    0    0  501    0  0.00000000000E+00  0.00000000000E+00  0.48541207045E+02  0.48541207045E+02  0.00000000000E+00 0. -1.
         -3   -1    0    0    0  501 -0.00000000000E+00 -0.00000000000E+00 -0.46135018205E+03  0.46135018205E+03  0.00000000000E+00 0.  1.
         23    2    1    2    0    0 -0.21268842614E+02 -0.83071911358E+02 -0.34837982131E+03  0.36865732433E+03  0.84772735968E+02 0.  0.
         23    2    1    2    0    0  0.21268842614E+02  0.83071911358E+02 -0.64429153703E+02  0.14123406477E+03  0.91883834717E+02 0.  0.
          5    1    3    3  502    0 -0.20959253572E+01 -0.96543658498E+02 -0.27983339026E+03  0.29606399174E+03  0.47000000000E+01 0. -1.
         -5    1    3    3    0  502 -0.19172917257E+02  0.13471747140E+02 -0.68546431049E+02  0.72593332591E+02  0.47000000000E+01 0.  1.
          5    1    4    4  503    0  0.34954393780E+02  0.43629359910E+01 -0.47688614380E+02  0.59473849687E+02  0.47000000000E+01 0. -1.
         -5    1    4    4    0  503 -0.13685551166E+02  0.78708975367E+02 -0.16740539322E+02  0.81760215086E+02  0.47000000000E+01 0.  1.
<mgrwt>
<rscale>  0 0.12438675E+03</rscale>
<asrwt>0</asrwt>
<pdfrwt beam="1">  1        3 0.74678778E-02 0.12568192E+03</pdfrwt>
<pdfrwt beam="2">  1       -3 0.70976953E-01 0.12568192E+03</pdfrwt>
<totfact> 0.52862547E+02</totfact>
</mgrwt>
</event>
<event>
 8    1  0.8174053E-004  0.1431424E+03  0.7546771E-02  0.1215053E+00
          2   -1    0    0  501    0  0.00000000000E+00  0.00000000000E+00  0.31168849239E+03  0.31168849239E+03  0.00000000000E+00 0. -1.
         -2   -1    0    0    0  501 -0.00000000000E+00 -0.00000000000E+00 -0.59762017289E+02  0.59762017289E+02  0.00000000000E+00 0.  1.
         23    2    1    2    0    0  0.87431913794E+02 -0.10394700018E+02  0.88525607023E+02  0.15421885805E+03  0.90522283119E+02 0.  0.
         23    2    1    2    0    0 -0.87431913794E+02  0.10394700018E+02  0.16340086808E+03  0.21723165163E+03  0.11285990184E+03 0.  0.
          5    1    4    4  502    0 -0.76512423798E+02 -0.42951014620E+02  0.90763866848E+02  0.12632937179E+03  0.47000000000E+01 0. -1.
         -5    1    4    4    0  502 -0.10919489996E+02  0.53345714638E+02  0.72637001234E+02  0.90902279841E+02  0.47000000000E+01 0.  1.
          5    1    3    3  503    0  0.35492409024E+02 -0.25441625325E+02  0.89755822253E+02  0.99925897673E+02  0.47000000000E+01 0. -1.
         -5    1    3    3    0  503  0.51939504770E+02  0.15046925306E+02 -0.12302152292E+01  0.54292960377E+02  0.47000000000E+01 0.  1.
<mgrwt>
<rscale>  0 0.13872668E+03</rscale>
<asrwt>0</asrwt>
<pdfrwt beam="1">  1        2 0.47952075E-01 0.14314240E+03</pdfrwt>
<pdfrwt beam="2">  1       -2 0.91941567E-02 0.14314240E+03</pdfrwt>
<totfact> 0.75988978E+03</totfact>
</mgrwt>
</event>
<event>
 8    1  0.8174053E-004  0.3272393E+03  0.7546771E-02  0.1072444E+00
         -1   -1    0    0    0  501 -0.00000000000E+00  0.00000000000E+00  0.10005954197E+04  0.10005954197E+04  0.00000000000E+00 0.  1.
          1   -1    0    0  501    0  0.00000000000E+00 -0.00000000000E+00 -0.12398597026E+03  0.12398597026E+03  0.00000000000E+00 0. -1.
         23    2    1    2    0    0  0.12633925437E+03 -0.28748964112E+03  0.22850087796E+03  0.39854401351E+03  0.89514124767E+02 0.  0.
         23    2    1    2    0    0 -0.12633925437E+03  0.28748964112E+03  0.64810857147E+03  0.72603737644E+03  0.92052434158E+02 0.  0.
          5    1    3    3  502    0  0.95616876888E+02 -0.16019210392E+03  0.87686332367E+02  0.20619185287E+03  0.47000000000E+01 0. -1.
         -5    1    4    4    0  503 -0.39639063384E+02  0.82320722901E+02  0.29185981033E+03  0.30586303414E+03  0.47000000000E+01 0.  1.
          5    1    4    4  503    0 -0.86700190987E+02  0.20516891821E+03  0.35624876114E+03  0.42017434230E+03  0.47000000000E+01 0. -1.
         -5    1    3    3    0  502  0.30722377484E+02 -0.12729753719E+03  0.14081454559E+03  0.19235216064E+03  0.47000000000E+01 0.  1.
<mgrwt>
<rscale>  0 0.32706291E+03</rscale>
<asrwt>0</asrwt>
<pdfrwt beam="1">  1        1 0.19074765E-01 0.32723929E+03</pdfrwt>
<pdfrwt beam="2">  1       -1 0.15393775E+00 0.32723929E+03</pdfrwt>
<totfact> 0.95669850E+01</totfact>
</mgrwt>
</event>
<event>
 8    1  0.8174053E-004  0.1246518E+03  0.7546771E-02  0.1239893E+00
          1   -1    0    0  501    0  0.00000000000E+00  0.00000000000E+00  0.31055660086E+02  0.31055660086E+02  0.00000000000E+00 0. -1.
         -1   -1    0    0    0  501 -0.00000000000E+00 -0.00000000000E+00 -0.47295490941E+03  0.47295490941E+03  0.00000000000E+00 0.  1.
         23    2    1    2    0    0 -0.53328872926E+02  0.24746203878E+02 -0.27291078133E+03  0.30003059011E+03  0.10991686468E+03 0.  0.
         23    2    1    2    0    0  0.53328872926E+02 -0.24746203878E+02 -0.16898846799E+03  0.20397997938E+03  0.97950938646E+02 0.  0.
          5    1    3    3  502    0 -0.71750853932E+02 -0.79448568206E+01 -0.10239794745E+03  0.12537438108E+03  0.47000000000E+01 0. -1.
         -5    1    4    4    0  503  0.76795469907E+02 -0.90464477090E-01 -0.93844254878E+02  0.12135232406E+03  0.47000000000E+01 0.  1.
          5    1    4    4  503    0 -0.23466596982E+02 -0.24655739401E+02 -0.75144213113E+02  0.82627655320E+02  0.47000000000E+01 0. -1.
         -5    1    3    3    0  502  0.18421981007E+02  0.32691060698E+02 -0.17051283388E+03  0.17465620903E+03  0.47000000000E+01 0.  1.
<mgrwt>
<rscale>  0 0.12196301E+03</rscale>
<asrwt>0</asrwt>
<pdfrwt beam="1">  1        1 0.47777942E-02 0.12465176E+03</pdfrwt>
<pdfrwt beam="2">  1       -1 0.72762288E-01 0.12465176E+03</pdfrwt>
<totfact> 0.33638456E+03</totfact>
</mgrwt>
</event>
<event>
 8    1  0.8174053E-004  0.2673361E+03  0.7546771E-02  0.1103419E+00
          1   -1    0    0  501    0  0.00000000000E+00  0.00000000000E+00  0.26004009707E+03  0.26004009707E+03  0.00000000000E+00 0. -1.
         -1   -1    0    0    0  501 -0.00000000000E+00 -0.00000000000E+00 -0.35454385673E+03  0.35454385673E+03  0.00000000000E+00 0.  1.
         23    2    1    2    0    0  0.15073980347E+03 -0.20006053377E+03 -0.19705460667E+03  0.33211310782E+03  0.93391074783E+02 0.  0.
         23    2    1    2    0    0 -0.15073980347E+03  0.20006053377E+03  0.10255084701E+03  0.28247084598E+03  0.80786119367E+02 0.  0.
          5    1    3    3  502    0  0.52396590449E+02 -0.16056201385E+02 -0.20298907161E+02  0.58628831862E+02  0.47000000000E+01 0. -1.
         -5    1    3    3    0  502  0.98343213025E+02 -0.18400433239E+03 -0.17675569951E+03  0.27348427595E+03  0.47000000000E+01 0.  1.
          5    1    4    4  503    0 -0.69585774704E+02  0.15460782355E+03  0.74070449939E+02  0.18507912010E+03  0.47000000000E+01 0. -1.
         -5    1    4    4    0  503 -0.81154028770E+02  0.45452710222E+02  0.28480397069E+02  0.97391725877E+02  0.47000000000E+01 0.  1.
<mgrwt>
<rscale>  0 0.26629549E+03</rscale>
<asrwt>0</asrwt>
<pdfrwt beam="1">  1        1 0.40006169E-01 0.26733611E+03</pdfrwt>
<pdfrwt beam="2">  1       -1 0.54545209E-01 0.26733611E+03</pdfrwt>
<totfact> 0.36864736E+02</totfact>
</mgrwt>
</event>
<event>
 8    1  0.8174053E-004  0.9192981E+02  0.7546771E-02  0.1298284E+00
         -3   -1    0    0    0  501 -0.00000000000E+00  0.00000000000E+00  0.35309058124E+03  0.35309058124E+03  0.00000000000E+00 0.  1.
          3   -1    0    0  501    0  0.00000000000E+00 -0.00000000000E+00 -0.24299125602E+02  0.24299125602E+02  0.00000000000E+00 0. -1.
         23    2    1    2    0    0  0.14695955159E+02 -0.11814785259E+02  0.14067734212E+03  0.16801442337E+03  0.89906460420E+02 0.  0.
         23    2    1    2    0    0 -0.14695955159E+02  0.11814785259E+02  0.18811411351E+03  0.20937528347E+03  0.89975159774E+02 0.  0.
          5    1    3    3  502    0  0.26859220269E+02 -0.40374778350E+02  0.41541941355E+02  0.64026270638E+02  0.47000000000E+01 0. -1.
         -5    1    4    4    0  503 -0.47586372714E+02  0.11063527130E+02  0.15449103272E+03  0.16210007307E+03  0.47000000000E+01 0.  1.
          5    1    4    4  503    0  0.32890417555E+02  0.75125812912E+00  0.33623080799E+02  0.47275210398E+02  0.47000000000E+01 0. -1.
         -5    1    3    3    0  502 -0.12163265110E+02  0.28559993091E+02  0.99135400767E+02  0.10398815273E+03  0.47000000000E+01 0.  1.
<mgrwt>
<rscale>  0 0.91912994E+02</rscale>
<asrwt>0</asrwt>
<pdfrwt beam="1">  1        3 0.37383273E-02 0.91929808E+02</pdfrwt>
<pdfrwt beam="2">  1       -3 0.54321624E-01 0.91929808E+02</pdfrwt>
<totfact> 0.25882284E+03</totfact>
</mgrwt>
</event>
<event>
 8    1  0.8174053E-004  0.1055332E+03  0.7546771E-02  0.1276867E+00
          4   -1    0    0  501    0  0.00000000000E+00  0.00000000000E+00  0.28912324440E+02  0.28912324440E+02  0.00000000000E+00 0. -1.
         -4   -1    0    0    0  501 -0.00000000000E+00 -0.00000000000E+00 -0.36440248388E+03  0.36440248388E+03  0.00000000000E+00 0.  1.
         23    2    1    2    0    0  0.45817707223E+02 -0.31325625323E+02 -0.23643560400E+03  0.25891901008E+03  0.89759132354E+02 0.  0.
         23    2    1    2    0    0 -0.45817707223E+02  0.31325625323E+02 -0.99054555440E+02  0.13439579825E+03  0.71901797866E+02 0.  0.
          5    1    4    4  502    0 -0.35321115222E+02  0.54050932706E+02 -0.63709028972E+02  0.90829592532E+02  0.47000000000E+01 0. -1.
         -5    1    4    4    0  502 -0.10496592001E+02 -0.22725307382E+02 -0.35345526468E+02  0.43566205717E+02  0.47000000000E+01 0.  1.
          5    1    3    3  503    0 -0.21033874622E+02  0.34334294099E+01 -0.19660456566E+02  0.29374068011E+02  0.47000000000E+01 0. -1.
         -5    1    3    3    0  503  0.66851581844E+02 -0.34759054733E+02 -0.21677514744E+03  0.22954494206E+03  0.47000000000E+01 0.  1.
<mgrwt>
<rscale>  0 0.10164860E+03</rscale>
<asrwt>0</asrwt>
<pdfrwt beam="1">  1        4 0.44480502E-02 0.10553321E+03</pdfrwt>
<pdfrwt beam="2">  1       -4 0.56061917E-01 0.10553321E+03</pdfrwt>
<totfact> 0.13740243E+03</totfact>
</mgrwt>
</event>
<event>
 8    1  0.8174053E-004  0.1164595E+03  0.7546771E-02  0.1251765E+00
          1   -1    0    0  501    0  0.00000000000E+00  0.00000000000E+00  0.12699182421E+03  0.12699182421E+03  0.00000000000E+00 0. -1.
         -1   -1    0    0    0  501 -0.00000000000E+00 -0.00000000000E+00 -0.10706491384E+03  0.10706491384E+03  0.00000000000E+00 0.  1.
         23    2    1    2    0    0 -0.68751095089E+02 -0.13899012386E+02 -0.17556010837E+02  0.11171381376E+03  0.85157894800E+02 0.  0.
         23    2    1    2    0    0  0.68751095089E+02  0.13899012386E+02  0.37482921206E+02  0.12234292429E+03  0.92967338995E+02 0.  0.
          5    1    3    3  502    0 -0.43057385243E+02  0.33978197908E+02 -0.23751967021E+01  0.55101614464E+02  0.47000000000E+01 0. -1.
         -5    1    4    4    0  503  0.26733066931E+02  0.25357968077E+02 -0.25908691952E+02  0.45288339904E+02  0.47000000000E+01 0.  1.
          5    1    4    4  503    0  0.42018028158E+02 -0.11458955691E+02  0.63391613158E+02  0.77054584384E+02  0.47000000000E+01 0. -1.
         -5    1    3    3    0  502 -0.25693709846E+02 -0.47877210295E+02 -0.15180814135E+02  0.56612199295E+02  0.47000000000E+01 0.  1.
<mgrwt>
<rscale>  0 0.11489482E+03</rscale>
<asrwt>0</asrwt>
<pdfrwt beam="1">  1        1 0.19537204E-01 0.11645953E+03</pdfrwt>
<pdfrwt beam="2">  1       -1 0.16471525E-01 0.11645953E+03</pdfrwt>
<totfact> 0.68250972E+03</totfact>
</mgrwt>
</event>
<event>
 8    1  0.8174053E-004  0.1033039E+03  0.7546771E-02  0.1275476E+00
          1   -1    0    0  501    0  0.00000000000E+00  0.00000000000E+00  0.14772539362E+02  0.14772539362E+02  0.00000000000E+00 0. -1.
         -1   -1    0    0    0  501 -0.00000000000E+00 -0.00000000000E+00 -0.91597291807E+03  0.91597291807E+03  0.00000000000E+00 0.  1.
         23    2    1    2    0    0 -0.15688486698E+02  0.38152227068E+02 -0.68526534220E+03  0.69300814493E+03  0.94709971345E+02 0.  0.
         23    2    1    2    0    0  0.15688486698E+02 -0.38152227068E+02 -0.21593503651E+03  0.23773731251E+03  0.90495130918E+02 0.  0.
          5    1    3    3  502    0 -0.20573519513E+02 -0.28958589416E+02 -0.23141415993E+03  0.23417188777E+03  0.47000000000E+01 0. -1.
         -5    1    3    3    0  502  0.48850328143E+01  0.67110816484E+02 -0.45385118227E+03  0.45883625716E+03  0.47000000000E+01 0.  1.
          5    1    4    4  503    0  0.50875400999E+02 -0.32735692456E+02 -0.10665422384E+03  0.12270756069E+03  0.47000000000E+01 0. -1.
         -5    1    4    4    0  503 -0.35186914301E+02 -0.54165346118E+01 -0.10928081267E+03  0.11502975181E+03  0.47000000000E+01 0.  1.
<mgrwt>
<rscale>  0 0.10232768E+03</rscale>
<asrwt>0</asrwt>
<pdfrwt beam="1">  1        1 0.22726983E-02 0.10330392E+03</pdfrwt>
<pdfrwt beam="2">  1       -1 0.14091892E+00 0.10330392E+03</pdfrwt>
<totfact> 0.21394321E+03</totfact>
</mgrwt>
</event>
<event>
 8    1  0.8174053E-004  0.1843880E+03  0.7546771E-02  0.1163895E+00
          3   -1    0    0  501    0  0.00000000000E+00  0.00000000000E+00  0.67907598694E+03  0.67907598694E+03  0.00000000000E+00 0. -1.
         -3   -1    0    0    0  501 -0.00000000000E+00 -0.00000000000E+00 -0.57559160329E+02  0.57559160329E+02  0.00000000000E+00 0.  1.
         23    2    1    2    0    0  0.33484940272E+01  0.15768054158E+03  0.44555735293E+03  0.48176130781E+03  0.93264341221E+02 0.  0.
         23    2    1    2    0    0 -0.33484940272E+01 -0.15768054158E+03  0.17595947367E+03  0.25487383946E+03  0.95522625900E+02 0.  0.
          5    1    3    3  502    0  0.29659682249E+02  0.56061391787E+02  0.26799881483E+03  0.27544152038E+03  0.47000000000E+01 0. -1.
         -5    1    3    3    0  502 -0.26311188222E+02  0.10161914979E+03  0.17755853810E+03  0.20631978743E+03  0.47000000000E+01 0.  1.
          5    1    4    4  503    0  0.24526297269E+02 -0.13543741017E+03  0.16938538376E+03  0.21830787792E+03  0.47000000000E+01 0. -1.
         -5    1    4    4    0  503 -0.27874791297E+02 -0.22243131413E+02  0.65740899130E+01  0.36565961536E+02  0.47000000000E+01 0.  1.
<mgrwt>
<rscale>  0 0.18409739E+03</rscale>
<asrwt>0</asrwt>
<pdfrwt beam="1">  1        3 0.10447322E+00 0.18438801E+03</pdfrwt>
<pdfrwt beam="2">  1       -3 0.88552559E-02 0.18438801E+03</pdfrwt>
<totfact> 0.17925737E+02</totfact>
</mgrwt>
</event>
<event>
 8    1  0.8174053E-004  0.8897038E+02  0.7546771E-02  0.1305400E+00
         -1   -1    0    0    0  501 -0.00000000000E+00  0.00000000000E+00  0.35476594310E+02  0.35476594310E+02  0.00000000000E+00 0.  1.
          1   -1    0    0  501    0  0.00000000000E+00 -0.00000000000E+00 -0.31299542231E+03  0.31299542231E+03  0.00000000000E+00 0. -1.
         23    2    1    2    0    0 -0.56191233369E+01  0.73530779715E+01 -0.23223115738E+03  0.24869064839E+03  0.88487772242E+02 0.  0.
         23    2    1    2    0    0  0.56191233369E+01 -0.73530779715E+01 -0.45287670623E+02  0.99781368232E+02  0.88429101732E+02 0.  0.
          5    1    4    4  502    0  0.30338138375E+02 -0.20148583632E+01 -0.61925788577E+02  0.69147346914E+02  0.47000000000E+01 0. -1.
         -5    1    4    4    0  502 -0.24719015038E+02 -0.53382196083E+01  0.16638117955E+02  0.30634021318E+02  0.47000000000E+01 0.  1.
          5    1    3    3  503    0  0.14706406242E+01 -0.30712327853E+02 -0.31737898199E+02  0.44438654886E+02  0.47000000000E+01 0. -1.
         -5    1    3    3    0  503 -0.70897639610E+01  0.38065405825E+02 -0.20049325918E+03  0.20425199351E+03  0.47000000000E+01 0.  1.
<mgrwt>
<rscale>  0 0.88955786E+02</rscale>
<asrwt>0</asrwt>
<pdfrwt beam="1">  1        1 0.48153143E-01 0.88970378E+02</pdfrwt>
<pdfrwt beam="2">  1       -1 0.54579375E-02 0.88970378E+02</pdfrwt>
<totfact> 0.11643516E+04</totfact>
</mgrwt>
</event>
<event>
 8    1  0.8174053E-004  0.9358748E+02  0.7546771E-02  0.1295572E+00
         -2   -1    0    0    0  501 -0.00000000000E+00  0.00000000000E+00  0.46765072600E+02  0.46765072600E+02  0.00000000000E+00 0.  1.
          2   -1    0    0  501    0  0.00000000000E+00 -0.00000000000E+00 -0.70363754294E+03  0.70363754294E+03  0.00000000000E+00 0. -1.
         23    2    1    2    0    0  0.28254794315E+01  0.22581708956E+02 -0.48321727668E+01  0.91680241692E+02  0.88679196600E+02 0.  0.
         23    2    1    2    0    0 -0.28254794315E+01 -0.22581708956E+02 -0.65204029757E+03  0.65872237385E+03  0.90778297169E+02 0.  0.
          5    1    4    4  502    0  0.37461232094E+02 -0.31424156862E+02 -0.43350773102E+03  0.43628186348E+03  0.47000000000E+01 0. -1.
         -5    1    4    4    0  502 -0.40286711526E+02  0.88424479062E+01 -0.21853256655E+03  0.22244051037E+03  0.47000000000E+01 0.  1.
          5    1    3    3  503    0 -0.25199855072E+02  0.10933663253E+01 -0.36092710482E+02  0.44283201053E+02  0.47000000000E+01 0. -1.
         -5    1    3    3    0  503  0.28025334503E+02  0.21488342631E+02  0.31260537715E+02  0.47397040639E+02  0.47000000000E+01 0.  1.
<mgrwt>
<rscale>  0 0.93074611E+02</rscale>
<asrwt>0</asrwt>
<pdfrwt beam="1">  1        2 0.10825192E+00 0.93587479E+02</pdfrwt>
<pdfrwt beam="2">  1       -2 0.71946272E-02 0.93587479E+02</pdfrwt>
<totfact> 0.44415434E+03</totfact>
</mgrwt>
</event>
<event>
 8    1  0.8174053E-004  0.1176740E+03  0.7546771E-02  0.1247426E+00
          1   -1    0    0  501    0  0.00000000000E+00  0.00000000000E+00  0.19912297123E+03  0.19912297123E+03  0.00000000000E+00 0. -1.
         -1   -1    0    0    0  501 -0.00000000000E+00 -0.00000000000E+00 -0.39343552540E+03  0.39343552540E+03  0.00000000000E+00 0.  1.
         23    2    1    2    0    0  0.63238457859E+02  0.52164382245E+02 -0.36630859206E+03  0.38474556525E+03  0.84421206105E+02 0.  0.
         23    2    1    2    0    0 -0.63238457859E+02 -0.52164382245E+02  0.17199603789E+03  0.20781293138E+03  0.82965969362E+02 0.  0.
          5    1    4    4  502    0 -0.82218412359E+02 -0.32225838339E+02  0.13660053357E+03  0.16272728032E+03  0.47000000000E+01 0. -1.
         -5    1    3    3    0  503  0.18822175932E+02  0.39480751803E+02 -0.30332312954E+03  0.30649635395E+03  0.47000000000E+01 0.  1.
          5    1    3    3  503    0  0.44416281926E+02  0.12683630443E+02 -0.62985462514E+02  0.78249211303E+02  0.47000000000E+01 0. -1.
         -5    1    4    4    0  502  0.18979954500E+02 -0.19938543907E+02  0.35395504315E+02  0.45085651062E+02  0.47000000000E+01 0.  1.
<mgrwt>
<rscale>  0 0.11741321E+03</rscale>
<asrwt>0</asrwt>
<pdfrwt beam="1">  1        1 0.30634303E-01 0.11767398E+03</pdfrwt>
<pdfrwt beam="2">  1       -1 0.60528542E-01 0.11767398E+03</pdfrwt>
<totfact> 0.42509988E+02</totfact>
</mgrwt>
</event>
<event>
 8    1  0.8174053E-004  0.9342535E+02  0.7546771E-02  0.1295840E+00
         -4   -1    0    0    0  501 -0.00000000000E+00  0.00000000000E+00  0.55308412609E+02  0.55308412609E+02  0.00000000000E+00 0.  1.
          4   -1    0    0  501    0  0.00000000000E+00 -0.00000000000E+00 -0.16088245605E+03  0.16088245605E+03  0.00000000000E+00 0. -1.
         23    2    1    2    0    0  0.29743929996E+01  0.19473384058E+02 -0.32107162031E+02  0.98788487556E+02  0.91324891019E+02 0.  0.
         23    2    1    2    0    0 -0.29743929996E+01 -0.19473384058E+02 -0.73466881406E+02  0.11740238110E+03  0.89430848838E+02 0.  0.
          5    1    4    4  502    0 -0.40534555255E+02  0.11651918046E+02 -0.37234178530E+02  0.56456101661E+02  0.47000000000E+01 0. -1.
         -5    1    4    4    0  502  0.37560162256E+02 -0.31125302104E+02 -0.36232702876E+02  0.60946279439E+02  0.47000000000E+01 0.  1.
          5    1    3    3  503    0 -0.43832218615E+02  0.82893288588E+01 -0.12098878270E+02  0.46459113391E+02  0.47000000000E+01 0. -1.
         -5    1    3    3    0  503  0.46806611614E+02  0.11184055199E+02 -0.20008283761E+02  0.52329374166E+02  0.47000000000E+01 0.  1.
<mgrwt>
<rscale>  0 0.92959223E+02</rscale>
<asrwt>0</asrwt>
<pdfrwt beam="1">  1        4 0.24751147E-01 0.93425347E+02</pdfrwt>
<pdfrwt beam="2">  1       -4 0.85089867E-02 0.93425347E+02</pdfrwt>
<totfact> 0.22764130E+03</totfact>
</mgrwt>
</event>
<event>
 8    1  0.8174053E-004  0.1157869E+03  0.7546771E-02  0.1255822E+00
         -2   -1    0    0    0  501 -0.00000000000E+00  0.00000000000E+00  0.21047255052E+03  0.21047255052E+03  0.00000000000E+00 0.  1.
          2   -1    0    0  501    0  0.00000000000E+00 -0.00000000000E+00 -0.75586577686E+02  0.75586577686E+02  0.00000000000E+00 0. -1.
         23    2    1    2    0    0  0.44622509876E+02  0.24227633833E+02  0.14083010721E+03  0.18231766110E+03  0.10405990497E+03 0.  0.
         23    2    1    2    0    0 -0.44622509876E+02 -0.24227633833E+02 -0.59441343771E+01  0.10374146711E+03  0.90270773981E+02 0.  0.
          5    1    4    4  502    0 -0.17570004506E+02 -0.48196863423E+02 -0.30431518728E+02  0.59831513722E+02  0.47000000000E+01 0. -1.
         -5    1    3    3    0  503  0.73718872067E+01  0.23494122772E+02  0.14253815045E+03  0.14472571596E+03  0.47000000000E+01 0.  1.
          5    1    3    3  503    0  0.37250622669E+02  0.73351106185E+00 -0.17080432407E+01  0.37591945140E+02  0.47000000000E+01 0. -1.
         -5    1    4    4    0  502 -0.27052505369E+02  0.23969229590E+02  0.24487384351E+02  0.43909953384E+02  0.47000000000E+01 0.  1.
<mgrwt>
<rscale>  0 0.11260410E+03</rscale>
<asrwt>0</asrwt>
<pdfrwt beam="1">  1        2 0.11628704E-01 0.11578692E+03</pdfrwt>
<pdfrwt beam="2">  1       -2 0.32380392E-01 0.11578692E+03</pdfrwt>
<totfact> 0.44498226E+03</totfact>
</mgrwt>
</event>
<event>
 8    1  0.8174053E-004  0.1397723E+03  0.7546771E-02  0.1213678E+00
         -1   -1    0    0    0  501 -0.00000000000E+00  0.00000000000E+00  0.30101555609E+02  0.30101555609E+02  0.00000000000E+00 0.  1.
          1   -1    0    0  501    0  0.00000000000E+00 -0.00000000000E+00 -0.75578484772E+03  0.75578484772E+03  0.00000000000E+00 0. -1.
         23    2    1    2    0    0 -0.45468927979E+02 -0.95336099708E+02 -0.21460649139E+03  0.25604133706E+03  0.91350012674E+02 0.  0.
         23    2    1    2    0    0  0.45468927979E+02  0.95336099708E+02 -0.51107680072E+03  0.52984506627E+03  0.91541808482E+02 0.  0.
          5    1    4    4  502    0  0.20224455570E+02 -0.15128771420E+02 -0.11613251153E+03  0.11894014698E+03  0.47000000000E+01 0. -1.
         -5    1    4    4    0  502  0.25244472409E+02  0.11046487113E+03 -0.39494428918E+03  0.41090491929E+03  0.47000000000E+01 0.  1.
          5    1    3    3  503    0  0.24382899767E+02 -0.49746127901E+02 -0.75280211749E+02  0.93586341542E+02  0.47000000000E+01 0. -1.
         -5    1    3    3    0  503 -0.69851827746E+02 -0.45589971807E+02 -0.13932627964E+03  0.16245499551E+03  0.47000000000E+01 0.  1.
<mgrwt>
<rscale>  0 0.13974091E+03</rscale>
<asrwt>0</asrwt>
<pdfrwt beam="1">  1        1 0.11627459E+00 0.13977231E+03</pdfrwt>
<pdfrwt beam="2">  1       -1 0.46310086E-02 0.13977231E+03</pdfrwt>
<totfact> 0.48293562E+03</totfact>
</mgrwt>
</event>
<event>
 8    1  0.8174053E-004  0.1024145E+03  0.7546771E-02  0.1275550E+00
         -1   -1    0    0    0  501 -0.00000000000E+00  0.00000000000E+00  0.77473308423E+02  0.77473308423E+02  0.00000000000E+00 0.  1.
          1   -1    0    0  501    0  0.00000000000E+00 -0.00000000000E+00 -0.13499145665E+03  0.13499145665E+03  0.00000000000E+00 0. -1.
         23    2    1    2    0    0 -0.16377753800E+02 -0.42026988011E+02 -0.33312098631E+02  0.10722854327E+03  0.91398938925E+02 0.  0.
         23    2    1    2    0    0  0.16377753800E+02  0.42026988011E+02 -0.24206049600E+02  0.10523622180E+03  0.91946892289E+02 0.  0.
          5    1    4    4  502    0 -0.33335350382E+02  0.79858692397E+01 -0.28249458714E+02  0.44667008074E+02  0.47000000000E+01 0. -1.
         -5    1    4    4    0  502  0.49713104182E+02  0.34041118771E+02  0.40434091139E+01  0.60569213730E+02  0.47000000000E+01 0.  1.
          5    1    3    3  503    0 -0.19876936197E+02  0.24827182759E+02  0.34520120057E+00  0.32151061572E+02  0.47000000000E+01 0. -1.
         -5    1    3    3    0  503  0.34991823974E+01 -0.66854170770E+02 -0.33657299831E+02  0.75077481702E+02  0.47000000000E+01 0.  1.
<mgrwt>
<rscale>  0 0.10229136E+03</rscale>
<asrwt>0</asrwt>
<pdfrwt beam="1">  1        1 0.20767916E-01 0.10241450E+03</pdfrwt>
<pdfrwt beam="2">  1       -1 0.11918971E-01 0.10241450E+03</pdfrwt>
<totfact> 0.10325418E+04</totfact>
</mgrwt>
</event>
<event>
 8    1  0.8174053E-004  0.1161778E+03  0.7546771E-02  0.1249898E+00
          1   -1    0    0  501    0  0.00000000000E+00  0.00000000000E+00  0.16716570520E+03  0.16716570520E+03  0.00000000000E+00 0. -1.
         -1   -1    0    0    0  501 -0.00000000000E+00 -0.00000000000E+00 -0.10329935678E+03  0.10329935678E+03  0.00000000000E+00 0.  1.
         23    2    1    2    0    0 -0.67124873148E+02 -0.21352263929E+02 -0.31972818072E+02  0.12049702835E+03  0.92388337872E+02 0.  0.
         23    2    1    2    0    0  0.67124873148E+02  0.21352263929E+02  0.95839166492E+02  0.14996803363E+03  0.91343294810E+02 0.  0.
          5    1    4    4  502    0  0.36678377215E+02  0.33580387996E+01  0.10645521291E+03  0.11274476545E+03  0.47000000000E+01 0. -1.
         -5    1    4    4    0  502  0.30446495934E+02  0.17994225129E+02 -0.10616046419E+02  0.37223268183E+02  0.47000000000E+01 0.  1.
          5    1    3    3  503    0 -0.32496992597E+02 -0.62681335311E+01  0.31859304543E+02  0.46178450730E+02  0.47000000000E+01 0. -1.
         -5    1    3    3    0  503 -0.34627880551E+02 -0.15084130398E+02 -0.63832122615E+02  0.74318577616E+02  0.47000000000E+01 0.  1.
<mgrwt>
<rscale>  0 0.11596988E+03</rscale>
<asrwt>0</asrwt>
<pdfrwt beam="1">  1        1 0.25717801E-01 0.11617776E+03</pdfrwt>
<pdfrwt beam="2">  1       -1 0.15892209E-01 0.11617776E+03</pdfrwt>
<totfact> 0.51098964E+03</totfact>
</mgrwt>
</event>
<event>
 8    1  0.8174053E-004  0.1140689E+03  0.7546771E-02  0.1253323E+00
          1   -1    0    0  501    0  0.00000000000E+00  0.00000000000E+00  0.11978378751E+03  0.11978378751E+03  0.00000000000E+00 0. -1.
         -1   -1    0    0    0  501 -0.00000000000E+00 -0.00000000000E+00 -0.24902632771E+03  0.24902632771E+03  0.00000000000E+00 0.  1.
         23    2    1    2    0    0  0.26685083563E+02  0.61012775024E+02 -0.20322933647E+03  0.23305337868E+03  0.92612427419E+02 0.  0.
         23    2    1    2    0    0 -0.26685083563E+02 -0.61012775024E+02  0.73986796275E+02  0.13575673654E+03  0.92310308702E+02 0.  0.
          5    1    3    3  502    0 -0.17035601221E+02  0.17622145564E+02 -0.50418966475E+01  0.25460998508E+02  0.47000000000E+01 0. -1.
         -5    1    3    3    0  502  0.43720684784E+02  0.43390629460E+02 -0.19818743982E+03  0.20759238018E+03  0.47000000000E+01 0.  1.
          5    1    4    4  503    0 -0.49069048837E+02 -0.54843154999E+01  0.51850329468E+02  0.71752323560E+02  0.47000000000E+01 0. -1.
         -5    1    4    4    0  503  0.22383965275E+02 -0.55528459524E+02  0.22136466807E+02  0.64004412982E+02  0.47000000000E+01 0.  1.
<mgrwt>
<rscale>  0 0.11400756E+03</rscale>
<asrwt>0</asrwt>
<pdfrwt beam="1">  1        1 0.18428275E-01 0.11406890E+03</pdfrwt>
<pdfrwt beam="2">  1       -1 0.38311742E-01 0.11406890E+03</pdfrwt>
<totfact> 0.18360706E+03</totfact>
</mgrwt>
</event>
<event>
 8    1  0.8174053E-004  0.1003520E+03  0.7546771E-02  0.1280732E+00
          1   -1    0    0  501    0  0.00000000000E+00  0.00000000000E+00  0.17027221401E+03  0.17027221401E+03  0.00000000000E+00 0. -1.
         -1   -1    0    0    0  501 -0.00000000000E+00 -0.00000000000E+00 -0.58092826098E+02  0.58092826098E+02  0.00000000000E+00 0.  1.
         23    2    1    2    0    0 -0.10655375841E+02 -0.34752437664E+02  0.47989611803E+02  0.10923968157E+03  0.91153915055E+02 0.  0.
         23    2    1    2    0    0  0.10655375841E+02  0.34752437664E+02  0.64189776105E+02  0.11912535854E+03  0.93537450963E+02 0.  0.
          5    1    3    3  502    0 -0.47486898837E+02 -0.30308320775E+02  0.12952836084E+02  0.57995394920E+02  0.47000000000E+01 0. -1.
         -5    1    4    4    0  503 -0.23095119074E+02  0.78724293564E+01 -0.14853967524E+02  0.28949784459E+02  0.47000000000E+01 0.  1.
          5    1    4    4  503    0  0.33750494915E+02  0.26880008308E+02  0.79043743629E+02  0.90175574080E+02  0.47000000000E+01 0. -1.
         -5    1    3    3    0  502  0.36831522995E+02 -0.44441168892E+01  0.35036775719E+02  0.51244286646E+02  0.47000000000E+01 0.  1.
<mgrwt>
<rscale>  0 0.99792873E+02</rscale>
<asrwt>0</asrwt>
<pdfrwt beam="1">  1        1 0.26195725E-01 0.10035200E+03</pdfrwt>
<pdfrwt beam="2">  1       -1 0.89373579E-02 0.10035200E+03</pdfrwt>
<totfact> 0.11937083E+04</totfact>
</mgrwt>
</event>
<event>
 8    1  0.8174053E-004  0.9674464E+02  0.7546771E-02  0.1289497E+00
          1   -1    0    0  501    0  0.00000000000E+00  0.00000000000E+00  0.21482107656E+03  0.21482107656E+03  0.00000000000E+00 0. -1.
         -1   -1    0    0    0  501 -0.00000000000E+00 -0.00000000000E+00 -0.55168347824E+02  0.55168347824E+02  0.00000000000E+00 0.  1.
         23    2    1    2    0    0  0.18712938308E+02 -0.45269951647E+01  0.14746562058E+03  0.17636789670E+03  0.94809588051E+02 0.  0.
         23    2    1    2    0    0 -0.18712938308E+02  0.45269951647E+01  0.12187108154E+02  0.93621527685E+02  0.90806371449E+02 0.  0.
          5    1    4    4  502    0  0.24056066998E+02 -0.19734329833E+02 -0.17484925429E+02  0.35999315975E+02  0.47000000000E+01 0. -1.
         -5    1    3    3    0  503  0.40432401204E+02  0.23730205753E+02  0.36136647896E+02  0.59378860324E+02  0.47000000000E+01 0.  1.
          5    1    3    3  503    0 -0.21719462897E+02 -0.28257200918E+02  0.11132897268E+03  0.11698903637E+03  0.47000000000E+01 0. -1.
         -5    1    4    4    0  502 -0.42769005306E+02  0.24261324998E+02  0.29672033583E+02  0.57622211711E+02  0.47000000000E+01 0.  1.
<mgrwt>
<rscale>  0 0.95749459E+02</rscale>
<asrwt>0</asrwt>
<pdfrwt beam="1">  1        1 0.33049396E-01 0.96744642E+02</pdfrwt>
<pdfrwt beam="2">  1       -1 0.84874382E-02 0.96744642E+02</pdfrwt>
<totfact> 0.96550066E+03</totfact>
</mgrwt>
</event>
<event>
 8    1  0.8174053E-004  0.1012477E+03  0.7546771E-02  0.1278330E+00
          1   -1    0    0  501    0  0.00000000000E+00  0.00000000000E+00  0.11377094164E+03  0.11377094164E+03  0.00000000000E+00 0. -1.
         -1   -1    0    0    0  501 -0.00000000000E+00 -0.00000000000E+00 -0.17061319305E+03  0.17061319305E+03  0.00000000000E+00 0.  1.
         23    2    1    2    0    0 -0.29320463382E+02  0.25819897347E+02  0.69820747659E+02  0.12298792022E+03  0.93406290175E+02 0.  0.
         23    2    1    2    0    0  0.29320463382E+02 -0.25819897347E+02 -0.12666299906E+03  0.16139621447E+03  0.92080758259E+02 0.  0.
          5    1    3    3  502    0 -0.18594936692E+02  0.60290485349E+02  0.33612595240E+02  0.71642242099E+02  0.47000000000E+01 0. -1.
         -5    1    3    3    0  502 -0.10725526690E+02 -0.34470588002E+02  0.36208152419E+02  0.51345678120E+02  0.47000000000E+01 0.  1.
          5    1    4    4  503    0  0.34661584084E+02  0.28555447242E+02 -0.55145356912E+02  0.71273693376E+02  0.47000000000E+01 0. -1.
         -5    1    4    4    0  503 -0.53411207024E+01 -0.54375344589E+02 -0.71517642151E+02  0.90122521094E+02  0.47000000000E+01 0.  1.
<mgrwt>
<rscale>  0 0.10094089E+03</rscale>
<asrwt>0</asrwt>
<pdfrwt beam="1">  1        1 0.17503222E-01 0.10124768E+03</pdfrwt>
<pdfrwt beam="2">  1       -1 0.26248183E-01 0.10124768E+03</pdfrwt>
<totfact> 0.36818035E+03</totfact>
</mgrwt>
</event>
<event>
 8    1  0.8174053E-004  0.9320248E+02  0.7546771E-02  0.1299369E+00
          1   -1    0    0  501    0  0.00000000000E+00  0.00000000000E+00  0.29889535363E+03  0.29889535363E+03  0.00000000000E+00 0. -1.
         -1   -1    0    0    0  501 -0.00000000000E+00 -0.00000000000E+00 -0.44936634778E+02  0.44936634778E+02  0.00000000000E+00 0.  1.
         23    2    1    2    0    0  0.50260771877E+01 -0.20038278563E+02  0.15466585041E+02  0.87774962381E+02  0.83895379542E+02 0.  0.
         23    2    1    2    0    0 -0.50260771877E+01  0.20038278563E+02  0.23849213381E+03  0.25605702602E+03  0.90884039457E+02 0.  0.
          5    1    4    4  502    0 -0.38025924362E+02  0.36095206229E+02  0.17306170611E+03  0.18089024008E+03  0.47000000000E+01 0. -1.
         -5    1    3    3    0  503 -0.18421648902E+02 -0.43387525638E+02 -0.64502426773E+01  0.47807218700E+02  0.47000000000E+01 0.  1.
          5    1    3    3  503    0  0.23447726090E+02  0.23349247075E+02  0.21916827718E+02  0.39967743681E+02  0.47000000000E+01 0. -1.
         -5    1    4    4    0  502  0.32999847175E+02 -0.16056927666E+02  0.65430427700E+02  0.75166785941E+02  0.47000000000E+01 0.  1.
<mgrwt>
<rscale>  0 0.91453641E+02</rscale>
<asrwt>0</asrwt>
<pdfrwt beam="1">  1        1 0.45983899E-01 0.93202482E+02</pdfrwt>
<pdfrwt beam="2">  1       -1 0.69133286E-02 0.93202482E+02</pdfrwt>
<totfact> 0.87272169E+03</totfact>
</mgrwt>
</event>
<event>
 8    1  0.8174053E-004  0.1769721E+03  0.7546771E-02  0.1171375E+00
          2   -1    0    0  501    0  0.00000000000E+00  0.00000000000E+00  0.83201979106E+03  0.83201979106E+03  0.00000000000E+00 0. -1.
         -2   -1    0    0    0  501 -0.00000000000E+00 -0.00000000000E+00 -0.52237726408E+02  0.52237726408E+02  0.00000000000E+00 0.  1.
         23    2    1    2    0    0  0.85571444756E+02 -0.12298984981E+03  0.15400904340E+03  0.23460159782E+03  0.94181468127E+02 0.  0.
         23    2    1    2    0    0 -0.85571444756E+02  0.12298984981E+03  0.62577302125E+03  0.64965591965E+03  0.89509577649E+02 0.  0.
          5    1    3    3  502    0 -0.15237703895E+02 -0.17365957709E+02  0.49978102324E+02  0.55259974838E+02  0.47000000000E+01 0. -1.
         -5    1    4    4    0  503 -0.37642643854E+02  0.57628654282E+02  0.12898825848E+03  0.14628086429E+03  0.47000000000E+01 0.  1.
          5    1    4    4  503    0 -0.47928800902E+02  0.65361195526E+02  0.49678476277E+03  0.50337505536E+03  0.47000000000E+01 0. -1.
         -5    1    3    3    0  502  0.10080914865E+03 -0.10562389210E+03  0.10403094108E+03  0.17934162299E+03  0.47000000000E+01 0.  1.
<mgrwt>
<rscale>  0 0.17635855E+03</rscale>
<asrwt>0</asrwt>
<pdfrwt beam="1">  1        2 0.12800304E+00 0.17697210E+03</pdfrwt>
<pdfrwt beam="2">  1       -2 0.80365739E-02 0.17697210E+03</pdfrwt>
<totfact> 0.31278034E+03</totfact>
</mgrwt>
</event>
<event>
 8    1  0.8174053E-004  0.1037690E+03  0.7546771E-02  0.1273699E+00
         -1   -1    0    0    0  501 -0.00000000000E+00  0.00000000000E+00  0.73523580262E+02  0.73523580262E+02  0.00000000000E+00 0.  1.
          1   -1    0    0  501    0  0.00000000000E+00 -0.00000000000E+00 -0.17941795475E+03  0.17941795475E+03  0.00000000000E+00 0. -1.
         23    2    1    2    0    0  0.32101526213E+02 -0.48739597259E+01  0.42482122426E+01  0.10161604898E+03  0.96195169502E+02 0.  0.
         23    2    1    2    0    0 -0.32101526213E+02  0.48739597259E+01 -0.11014258673E+03  0.15132548602E+03  0.98558357538E+02 0.  0.
          5    1    4    4  502    0 -0.14730152932E+02 -0.41985165968E+02 -0.82925436446E+02  0.94225525079E+02  0.47000000000E+01 0. -1.
         -5    1    3    3    0  503 -0.61215390888E+01  0.32278546133E+02  0.27664204358E+02  0.43206203073E+02  0.47000000000E+01 0.  1.
          5    1    3    3  503    0  0.38223065302E+02 -0.37152505859E+02 -0.23415992115E+02  0.58409845911E+02  0.47000000000E+01 0. -1.
         -5    1    4    4    0  502 -0.17371373280E+02  0.46859125694E+02 -0.27217150283E+02  0.57099960945E+02  0.47000000000E+01 0.  1.
<mgrwt>
<rscale>  0 0.10320398E+03</rscale>
<asrwt>0</asrwt>
<pdfrwt beam="1">  1        1 0.27602762E-01 0.10376904E+03</pdfrwt>
<pdfrwt beam="2">  1       -1 0.11311320E-01 0.10376904E+03</pdfrwt>
<totfact> 0.78519867E+03</totfact>
</mgrwt>
</event>
<event>
 8    1  0.8174053E-004  0.1216330E+03  0.7546771E-02  0.1240575E+00
         -1   -1    0    0    0  501 -0.00000000000E+00  0.00000000000E+00  0.61250471108E+03  0.61250471108E+03  0.00000000000E+00 0.  1.
          1   -1    0    0  501    0  0.00000000000E+00 -0.00000000000E+00 -0.26703235333E+02  0.26703235333E+02  0.00000000000E+00 0. -1.
         23    2    1    2    0    0  0.44750512524E+02  0.64830237619E+02  0.19316251724E+03  0.22826814361E+03  0.92676961762E+02 0.  0.
         23    2    1    2    0    0 -0.44750512524E+02 -0.64830237619E+02  0.39263895850E+03  0.41093980280E+03  0.92198707726E+02 0.  0.
          5    1    3    3  502    0  0.50567314337E+02  0.81200756024E+01  0.14377328055E+03  0.15269523604E+03  0.47000000000E+01 0. -1.
         -5    1    3    3    0  502 -0.58168018131E+01  0.56710162017E+02  0.49389236688E+02  0.75572907579E+02  0.47000000000E+01 0.  1.
          5    1    4    4  503    0  0.11812997570E+02 -0.60625395830E+02  0.16356901919E+03  0.17490540178E+03  0.47000000000E+01 0. -1.
         -5    1    4    4    0  503 -0.56563510094E+02 -0.42048417896E+01  0.22906993931E+03  0.23603440102E+03  0.47000000000E+01 0.  1.
<mgrwt>
<rscale>  0 0.12154190E+03</rscale>
<asrwt>0</asrwt>
<pdfrwt beam="1">  1        1 0.41081905E-02 0.12163300E+03</pdfrwt>
<pdfrwt beam="2">  1       -1 0.94231483E-01 0.12163300E+03</pdfrwt>
<totfact> 0.24216664E+03</totfact>
</mgrwt>
</event>
<event>
 8    1  0.8174053E-004  0.9439157E+02  0.7546771E-02  0.1292941E+00
         -3   -1    0    0    0  501 -0.00000000000E+00  0.00000000000E+00  0.10985034339E+03  0.10985034339E+03  0.00000000000E+00 0.  1.
          3   -1    0    0  501    0  0.00000000000E+00 -0.00000000000E+00 -0.14200984584E+03  0.14200984584E+03  0.00000000000E+00 0. -1.
         23    2    1    2    0    0  0.12337578939E+02 -0.22602460959E+02  0.66750045398E+02  0.11560855465E+03  0.90811245191E+02 0.  0.
         23    2    1    2    0    0 -0.12337578939E+02  0.22602460959E+02 -0.98909547852E+02  0.13625163457E+03  0.90101732347E+02 0.  0.
          5    1    3    3  502    0  0.36531396630E+02  0.21697475961E+02  0.38740732570E+02  0.57691054444E+02  0.47000000000E+01 0. -1.
         -5    1    3    3    0  502 -0.24193817691E+02 -0.44299936920E+02  0.28009312828E+02  0.57917500211E+02  0.47000000000E+01 0.  1.
          5    1    4    4  503    0  0.20864007776E+02  0.34891476763E+02 -0.90847066377E+02  0.99639356886E+02  0.47000000000E+01 0. -1.
         -5    1    4    4    0  503 -0.33201586715E+02 -0.12289015805E+02 -0.80624814745E+01  0.36612277687E+02  0.47000000000E+01 0.  1.
<mgrwt>
<rscale>  0 0.94220510E+02</rscale>
<asrwt>0</asrwt>
<pdfrwt beam="1">  1        3 0.21847669E-01 0.94391575E+02</pdfrwt>
<pdfrwt beam="2">  1       -3 0.16900053E-01 0.94391575E+02</pdfrwt>
<totfact> 0.12486442E+03</totfact>
</mgrwt>
</event>
<event>
 8    1  0.8174053E-004  0.1090493E+03  0.7546771E-02  0.1262395E+00
          1   -1    0    0  501    0  0.00000000000E+00  0.00000000000E+00  0.28120659945E+02  0.28120659945E+02  0.00000000000E+00 0. -1.
         -1   -1    0    0    0  501 -0.00000000000E+00 -0.00000000000E+00 -0.42523723260E+03  0.42523723260E+03  0.00000000000E+00 0.  1.
         23    2    1    2    0    0 -0.48873751374E+02 -0.33098086880E+02 -0.21706273688E+03  0.24291560618E+03  0.91693146198E+02 0.  0.
         23    2    1    2    0    0  0.48873751374E+02  0.33098086880E+02 -0.18005383578E+03  0.21044228636E+03  0.91555694424E+02 0.  0.
          5    1    4    4  502    0 -0.23417115987E+02 -0.78405785008E+01 -0.33078602793E+02  0.41546599802E+02  0.47000000000E+01 0. -1.
         -5    1    3    3    0  503 -0.16575170366E+02 -0.60732132174E+02 -0.99717628729E+02  0.11802043734E+03  0.47000000000E+01 0.  1.
          5    1    3    3  503    0 -0.32298581007E+02  0.27634045293E+02 -0.11734510815E+03  0.12489516884E+03  0.47000000000E+01 0. -1.
         -5    1    4    4    0  502  0.72290867360E+02  0.40938665381E+02 -0.14697523299E+03  0.16889568656E+03  0.47000000000E+01 0.  1.
<mgrwt>
<rscale>  0 0.10902045E+03</rscale>
<asrwt>0</asrwt>
<pdfrwt beam="1">  1        1 0.43262557E-02 0.10904935E+03</pdfrwt>
<pdfrwt beam="2">  1       -1 0.65421108E-01 0.10904935E+03</pdfrwt>
<totfact> 0.47012620E+03</totfact>
</mgrwt>
</event>
<event>
 8    1  0.8174053E-004  0.1010625E+03  0.7546771E-02  0.1278289E+00
         -1   -1    0    0    0  501 -0.00000000000E+00  0.00000000000E+00  0.26309089457E+02  0.26309089457E+02  0.00000000000E+00 0.  1.
          1   -1    0    0  501    0  0.00000000000E+00 -0.00000000000E+00 -0.75043986955E+03  0.75043986955E+03  0.00000000000E+00 0. -1.
         23    2    1    2    0    0  0.14074940766E+02  0.37421371710E+02 -0.63284539684E+03  0.64086419475E+03  0.92817868919E+02 0.  0.
         23    2    1    2    0    0 -0.14074940766E+02 -0.37421371710E+02 -0.91285383256E+02  0.13588476426E+03  0.92375239887E+02 0.  0.
          5    1    4    4  502    0  0.27751219996E+02 -0.41428469247E+02 -0.75812051949E+02  0.90862563777E+02  0.47000000000E+01 0. -1.
         -5    1    3    3    0  503  0.40801077858E+02  0.54374132279E+02 -0.38819267789E+03  0.39412804947E+03  0.47000000000E+01 0.  1.
          5    1    3    3  503    0 -0.26726137092E+02 -0.16952760569E+02 -0.24465271895E+03  0.24673614528E+03  0.47000000000E+01 0. -1.
         -5    1    4    4    0  502 -0.41826160762E+02  0.40070975371E+01 -0.15473331307E+02  0.45022200485E+02  0.47000000000E+01 0.  1.
<mgrwt>
<rscale>  0 0.10096071E+03</rscale>
<asrwt>0</asrwt>
<pdfrwt beam="1">  1        1 0.11545230E+00 0.10106245E+03</pdfrwt>
<pdfrwt beam="2">  1       -1 0.40475517E-02 0.10106245E+03</pdfrwt>
<totfact> 0.58494984E+03</totfact>
</mgrwt>
</event>
<event>
 8    1  0.8174053E-004  0.9832707E+02  0.7546771E-02  0.1285390E+00
         -3   -1    0    0    0  501 -0.00000000000E+00  0.00000000000E+00  0.41889938058E+02  0.41889938058E+02  0.00000000000E+00 0.  1.
          3   -1    0    0  501    0  0.00000000000E+00 -0.00000000000E+00 -0.25095601190E+03  0.25095601190E+03  0.00000000000E+00 0. -1.
         23    2    1    2    0    0 -0.32773406566E+02 -0.18629136936E+01 -0.55410762313E+02  0.11042290601E+03  0.89695590560E+02 0.  0.
         23    2    1    2    0    0  0.32773406566E+02  0.18629136936E+01 -0.15365531153E+03  0.18242304395E+03  0.92685735564E+02 0.  0.
          5    1    3    3  502    0 -0.41935098464E+02 -0.31005509290E+02 -0.67799028063E+01  0.52801052751E+02  0.47000000000E+01 0. -1.
         -5    1    3    3    0  502  0.91616918975E+01  0.29142595597E+02 -0.48630859507E+02  0.57621853258E+02  0.47000000000E+01 0.  1.
          5    1    4    4  503    0  0.20885245104E+02 -0.28651602376E+02 -0.14338966628E+03  0.14778292925E+03  0.47000000000E+01 0. -1.
         -5    1    4    4    0  503  0.11888161462E+02  0.30514516069E+02 -0.10265645247E+02  0.34640114697E+02  0.47000000000E+01 0.  1.
<mgrwt>
<rscale>  0 0.97616049E+02</rscale>
<asrwt>0</asrwt>
<pdfrwt beam="1">  1        3 0.38608618E-01 0.98327067E+02</pdfrwt>
<pdfrwt beam="2">  1       -3 0.64446058E-02 0.98327067E+02</pdfrwt>
<totfact> 0.21758997E+03</totfact>
</mgrwt>
</event>
<event>
 8    1  0.8174053E-004  0.9189452E+02  0.7546771E-02  0.1298876E+00
         -3   -1    0    0    0  501 -0.00000000000E+00  0.00000000000E+00  0.97442648826E+02  0.97442648826E+02  0.00000000000E+00 0.  1.
          3   -1    0    0  501    0  0.00000000000E+00 -0.00000000000E+00 -0.12692400709E+03  0.12692400709E+03  0.00000000000E+00 0. -1.
         23    2    1    2    0    0 -0.88050201568E+01 -0.12235714172E+01  0.49173312160E+02  0.10340732211E+03  0.90531950883E+02 0.  0.
         23    2    1    2    0    0  0.88050201568E+01  0.12235714172E+01 -0.78654670425E+02  0.12095933380E+03  0.91463532338E+02 0.  0.
          5    1    4    4  502    0  0.17997788398E+02 -0.40068782578E+02 -0.59947348337E+02  0.74466115094E+02  0.47000000000E+01 0. -1.
         -5    1    3    3    0  503  0.27492261552E+02  0.15072298960E+00  0.59193297800E+02  0.65435339589E+02  0.47000000000E+01 0.  1.
          5    1    3    3  503    0 -0.36297281709E+02 -0.13742944068E+01 -0.10019985640E+02  0.37971982524E+02  0.47000000000E+01 0. -1.
         -5    1    4    4    0  502 -0.91927682410E+01  0.41292353995E+02 -0.18707322088E+02  0.46493218711E+02  0.47000000000E+01 0.  1.
<mgrwt>
<rscale>  0 0.91661848E+02</rscale>
<asrwt>0</asrwt>
<pdfrwt beam="1">  1        3 0.19526770E-01 0.91894522E+02</pdfrwt>
<pdfrwt beam="2">  1       -3 0.14991177E-01 0.91894522E+02</pdfrwt>
<totfact> 0.18552534E+03</totfact>
</mgrwt>
</event>
<event>
 8    1  0.8174053E-004  0.9217731E+02  0.7546771E-02  0.1298309E+00
          4   -1    0    0  501    0  0.00000000000E+00  0.00000000000E+00  0.88612000437E+02  0.88612000437E+02  0.00000000000E+00 0. -1.
         -4   -1    0    0    0  501 -0.00000000000E+00 -0.00000000000E+00 -0.10061900387E+03  0.10061900387E+03  0.00000000000E+00 0.  1.
         23    2    1    2    0    0 -0.11261569794E+02  0.28673905125E+00  0.16811599254E+02  0.93697845897E+02  0.91486344789E+02 0.  0.
         23    2    1    2    0    0  0.11261569794E+02 -0.28673905125E+00 -0.28818602686E+02  0.95533158410E+02  0.90383446059E+02 0.  0.
          5    1    3    3  502    0  0.37518258525E+02 -0.13935935580E+02  0.13746404927E+02  0.42577971672E+02  0.47000000000E+01 0. -1.
         -5    1    4    4    0  503 -0.30544124568E+02 -0.59224812714E+01 -0.40710913667E+02  0.51453744486E+02  0.47000000000E+01 0.  1.
          5    1    4    4  503    0  0.41805694362E+02  0.56357422201E+01  0.11892310980E+02  0.44079413924E+02  0.47000000000E+01 0. -1.
         -5    1    3    3    0  502 -0.48779828320E+02  0.14222674631E+02  0.30651943266E+01  0.51119874225E+02  0.47000000000E+01 0.  1.
<mgrwt>
<rscale>  0 0.91902450E+02</rscale>
<asrwt>0</asrwt>
<pdfrwt beam="1">  1        4 0.13632615E-01 0.92177310E+02</pdfrwt>
<pdfrwt beam="2">  1       -4 0.15479847E-01 0.92177310E+02</pdfrwt>
<totfact> 0.23684640E+03</totfact>
</mgrwt>
</event>
<event>
 8    1  0.8174053E-004  0.9755968E+02  0.7546771E-02  0.1286467E+00
          4   -1    0    0  501    0  0.00000000000E+00  0.00000000000E+00  0.21385391507E+02  0.21385391507E+02  0.00000000000E+00 0. -1.
         -4   -1    0    0    0  501 -0.00000000000E+00 -0.00000000000E+00 -0.49100050343E+03  0.49100050343E+03  0.00000000000E+00 0.  1.
         23    2    1    2    0    0  0.14678177713E+02  0.21058534945E+02 -0.32151628446E+03  0.33599198212E+03  0.94122155088E+02 0.  0.
         23    2    1    2    0    0 -0.14678177713E+02 -0.21058534945E+02 -0.14809882746E+03  0.17639391282E+03  0.92318140087E+02 0.  0.
          5    1    3    3  502    0  0.10578722426E+02 -0.17853770810E+02 -0.12928230463E+02  0.24897703573E+02  0.47000000000E+01 0. -1.
         -5    1    3    3    0  502  0.40994552873E+01  0.38912305755E+02 -0.30858805400E+03  0.31109427854E+03  0.47000000000E+01 0.  1.
          5    1    4    4  503    0 -0.48226676466E+02 -0.31391431660E+02 -0.11091726640E+03  0.12504384947E+03  0.47000000000E+01 0. -1.
         -5    1    4    4    0  503  0.33548498753E+02  0.10332896714E+02 -0.37181561066E+02  0.51350063353E+02  0.47000000000E+01 0.  1.
<mgrwt>
<rscale>  0 0.97121922E+02</rscale>
<asrwt>0</asrwt>
<pdfrwt beam="1">  1        4 0.32900603E-02 0.97559679E+02</pdfrwt>
<pdfrwt beam="2">  1       -4 0.75538539E-01 0.97559679E+02</pdfrwt>
<totfact> 0.11532334E+03</totfact>
</mgrwt>
</event>
<event>
 8    1  0.8174053E-004  0.1264897E+03  0.7546771E-02  0.1232904E+00
         -1   -1    0    0    0  501 -0.00000000000E+00  0.00000000000E+00  0.63066471719E+03  0.63066471719E+03  0.00000000000E+00 0.  1.
          1   -1    0    0  501    0  0.00000000000E+00 -0.00000000000E+00 -0.35764390141E+02  0.35764390141E+02  0.00000000000E+00 0. -1.
         23    2    1    2    0    0  0.54154959476E+02 -0.69731621390E+02  0.11747267331E+03  0.17262527441E+03  0.90578130556E+02 0.  0.
         23    2    1    2    0    0 -0.54154959476E+02  0.69731621390E+02  0.47742765374E+03  0.49380383292E+03  0.90054440141E+02 0.  0.
          5    1    4    4  502    0 -0.61976979024E+02  0.17750455856E+02  0.16990982918E+03  0.18179016658E+03  0.47000000000E+01 0. -1.
         -5    1    4    4    0  502  0.78220195484E+01  0.51981165533E+02  0.30751782456E+03  0.31201366634E+03  0.47000000000E+01 0.  1.
          5    1    3    3  503    0  0.61793224808E+02 -0.29984280487E+02  0.28017474295E+02  0.74327172517E+02  0.47000000000E+01 0. -1.
         -5    1    3    3    0  503 -0.76382653323E+01 -0.39747340902E+02  0.89455199014E+02  0.98298101898E+02  0.47000000000E+01 0.  1.
<mgrwt>
<rscale>  0 0.12639602E+03</rscale>
<asrwt>0</asrwt>
<pdfrwt beam="1">  1        1 0.55022144E-02 0.12648975E+03</pdfrwt>
<pdfrwt beam="2">  1       -1 0.97025332E-01 0.12648975E+03</pdfrwt>
<totfact> 0.15285920E+03</totfact>
</mgrwt>
</event>
<event>
 8    1  0.8174053E-004  0.1258145E+03  0.7546771E-02  0.1234170E+00
         -1   -1    0    0    0  501 -0.00000000000E+00  0.00000000000E+00  0.10782463649E+03  0.10782463649E+03  0.00000000000E+00 0.  1.
          1   -1    0    0  501    0  0.00000000000E+00 -0.00000000000E+00 -0.16216969715E+03  0.16216969715E+03  0.00000000000E+00 0. -1.
         23    2    1    2    0    0  0.20995071082E+02 -0.82854732080E+02 -0.70096190756E+02  0.14319769294E+03  0.91029685639E+02 0.  0.
         23    2    1    2    0    0 -0.20995071082E+02  0.82854732080E+02  0.15751130093E+02  0.12679664069E+03  0.92323292587E+02 0.  0.
          5    1    3    3  502    0  0.45443542883E+02 -0.82758178925E+02 -0.71094039064E+02  0.11828137706E+03  0.47000000000E+01 0. -1.
         -5    1    4    4    0  503 -0.48559858337E+02  0.77888707243E+02 -0.43391963348E+01  0.92008853827E+02  0.47000000000E+01 0.  1.
          5    1    4    4  503    0  0.27564787255E+02  0.49660248372E+01  0.20090326428E+02  0.34787786867E+02  0.47000000000E+01 0. -1.
         -5    1    3    3    0  502 -0.24448471801E+02 -0.96553155280E-01  0.99784830786E+00  0.24916315882E+02  0.47000000000E+01 0.  1.
<mgrwt>
<rscale>  0 0.12557730E+03</rscale>
<asrwt>0</asrwt>
<pdfrwt beam="1">  1        1 0.24949184E-01 0.12581451E+03</pdfrwt>
<pdfrwt beam="2">  1       -1 0.16588406E-01 0.12581451E+03</pdfrwt>
<totfact> 0.49870596E+03</totfact>
</mgrwt>
</event>
<event>
 8    1  0.8174053E-004  0.9954585E+02  0.7546771E-02  0.1282666E+00
         -1   -1    0    0    0  501 -0.00000000000E+00  0.00000000000E+00  0.66970391715E+02  0.66970391715E+02  0.00000000000E+00 0.  1.
          1   -1    0    0  501    0  0.00000000000E+00 -0.00000000000E+00 -0.15419922784E+03  0.15419922784E+03  0.00000000000E+00 0. -1.
         23    2    1    2    0    0 -0.11871793860E+02  0.24417799084E+02 -0.14743113359E+02  0.98029226385E+02  0.93033335061E+02 0.  0.
         23    2    1    2    0    0  0.11871793860E+02 -0.24417799084E+02 -0.72485722766E+02  0.12314039317E+03  0.95771645195E+02 0.  0.
          5    1    3    3  502    0 -0.34582252536E+02  0.14199620390E+01 -0.42609015142E+02  0.55095976750E+02  0.47000000000E+01 0. -1.
         -5    1    3    3    0  502  0.22710458676E+02  0.22997837045E+02  0.27865901784E+02  0.42933249635E+02  0.47000000000E+01 0.  1.
          5    1    4    4  503    0  0.23649377319E+02 -0.47989374874E+02 -0.79062253076E+02  0.95578255946E+02  0.47000000000E+01 0. -1.
         -5    1    4    4    0  503 -0.11777583459E+02  0.23571575790E+02  0.65765303097E+01  0.27562137223E+02  0.47000000000E+01 0.  1.
<mgrwt>
<rscale>  0 0.98881323E+02</rscale>
<asrwt>0</asrwt>
<pdfrwt beam="1">  1        1 0.23722958E-01 0.99545851E+02</pdfrwt>
<pdfrwt beam="2">  1       -1 0.10303137E-01 0.99545851E+02</pdfrwt>
<totfact> 0.10885327E+04</totfact>
</mgrwt>
</event>
<event>
 8    1  0.8174053E-004  0.1222697E+03  0.7546771E-02  0.1239571E+00
          2   -1    0    0  501    0  0.00000000000E+00  0.00000000000E+00  0.17545960972E+03  0.17545960972E+03  0.00000000000E+00 0. -1.
         -2   -1    0    0    0  501 -0.00000000000E+00 -0.00000000000E+00 -0.16967636233E+03  0.16967636233E+03  0.00000000000E+00 0.  1.
         23    2    1    2    0    0 -0.23496922812E+01  0.81702003374E+02 -0.11908460612E+03  0.17037370083E+03  0.90362138706E+02 0.  0.
         23    2    1    2    0    0  0.23496922812E+01 -0.81702003374E+02  0.12486785351E+03  0.17476227121E+03  0.90934768876E+02 0.  0.
          5    1    3    3  502    0  0.52269812468E+01  0.33246287041E+02  0.72725258117E+01  0.34750777929E+02  0.47000000000E+01 0. -1.
         -5    1    3    3    0  502 -0.75766735280E+01  0.48455716332E+02 -0.12635713193E+03  0.13562292290E+03  0.47000000000E+01 0.  1.
          5    1    4    4  503    0 -0.24347717323E+02 -0.60098403476E+02  0.26044598009E+02  0.70035994493E+02  0.47000000000E+01 0. -1.
         -5    1    4    4    0  503  0.26697409604E+02 -0.21603599898E+02  0.98823255498E+02  0.10472627672E+03  0.47000000000E+01 0.  1.
<mgrwt>
<rscale>  0 0.12216321E+03</rscale>
<asrwt>0</asrwt>
<pdfrwt beam="1">  1        2 0.26993786E-01 0.12226966E+03</pdfrwt>
<pdfrwt beam="2">  1       -2 0.26104056E-01 0.12226966E+03</pdfrwt>
<totfact> 0.25023369E+03</totfact>
</mgrwt>
</event>
<event>
 8    1  0.8174053E-004  0.1737085E+03  0.7546771E-02  0.1174683E+00
         -2   -1    0    0    0  501 -0.00000000000E+00  0.00000000000E+00  0.35689022165E+02  0.35689022165E+02  0.00000000000E+00 0.  1.
          2   -1    0    0  501    0  0.00000000000E+00 -0.00000000000E+00 -0.90870167855E+03  0.90870167855E+03  0.00000000000E+00 0. -1.
         23    2    1    2    0    0 -0.99207782381E+02 -0.10840015609E+03 -0.57556877858E+03  0.60121050904E+03  0.92638433584E+02 0.  0.
         23    2    1    2    0    0  0.99207782381E+02  0.10840015609E+03 -0.29744387781E+03  0.34318019168E+03  0.87789552854E+02 0.  0.
          5    1    3    3  502    0 -0.94253696791E+02 -0.45330475934E+02 -0.42733423718E+03  0.43997187600E+03  0.47000000000E+01 0. -1.
         -5    1    4    4    0  503  0.64288664582E+02  0.32593089648E+02 -0.68881458990E+02  0.99810256382E+02  0.47000000000E+01 0.  1.
          5    1    4    4  503    0  0.34919117799E+02  0.75807066443E+02 -0.22856241882E+03  0.24336993530E+03  0.47000000000E+01 0. -1.
         -5    1    3    3    0  502 -0.49540855896E+01 -0.63069680157E+02 -0.14823454140E+03  0.16123863303E+03  0.47000000000E+01 0.  1.
<mgrwt>
<rscale>  0 0.17307085E+03</rscale>
<asrwt>0</asrwt>
<pdfrwt beam="1">  1        2 0.13980025E+00 0.17370854E+03</pdfrwt>
<pdfrwt beam="2">  1       -2 0.54906191E-02 0.17370854E+03</pdfrwt>
<totfact> 0.50028279E+03</totfact>
</mgrwt>
</event>
<event>
 8    1  0.8174053E-004  0.9742982E+02  0.7546771E-02  0.1288005E+00
          1   -1    0    0  501    0  0.00000000000E+00  0.00000000000E+00  0.13354974705E+03  0.13354974705E+03  0.00000000000E+00 0. -1.
         -1   -1    0    0    0  501 -0.00000000000E+00 -0.00000000000E+00 -0.73716377957E+02  0.73716377957E+02  0.00000000000E+00 0.  1.
         23    2    1    2    0    0  0.22746233562E+02  0.20409412464E+02  0.21803834262E+01  0.97454210179E+02  0.92512884245E+02 0.  0.
         23    2    1    2    0    0 -0.22746233562E+02 -0.20409412464E+02  0.57652985668E+02  0.10981191483E+03  0.88322446883E+02 0.  0.
          5    1    3    3  502    0 -0.20295097215E+02  0.32417357271E+02 -0.24053295552E+02  0.45424960653E+02  0.47000000000E+01 0. -1.
         -5    1    3    3    0  502  0.43041330777E+02 -0.12007944807E+02  0.26233678978E+02  0.52029249527E+02  0.47000000000E+01 0.  1.
          5    1    4    4  503    0 -0.70019764929E+01 -0.54747420626E+02  0.34311785009E+02  0.65159008053E+02  0.47000000000E+01 0. -1.
         -5    1    4    4    0  503 -0.15744257069E+02  0.34338008162E+02  0.23341200659E+02  0.44652906775E+02  0.47000000000E+01 0.  1.
<mgrwt>
<rscale>  0 0.96421852E+02</rscale>
<asrwt>0</asrwt>
<pdfrwt beam="1">  1        1 0.20546115E-01 0.97429816E+02</pdfrwt>
<pdfrwt beam="2">  1       -1 0.11340981E-01 0.97429816E+02</pdfrwt>
<totfact> 0.11239849E+04</totfact>
</mgrwt>
</event>
<event>
 8    1  0.1058294E-003  0.9582269E+02  0.7546771E-02  0.1290358E+00
          4   -1    0    0  501    0  0.00000000000E+00  0.00000000000E+00  0.57428555197E+03  0.57428555197E+03  0.00000000000E+00 0. -1.
         -4   -1    0    0    0  501 -0.00000000000E+00 -0.00000000000E+00 -0.41371606383E+02  0.41371606383E+02  0.00000000000E+00 0.  1.
         23    2    1    2    0    0 -0.22538678170E+02 -0.61097735505E+01  0.50803350513E+03  0.51665703125E+03  0.91055610818E+02 0.  0.
         23    2    1    2    0    0  0.22538678170E+02  0.61097735505E+01  0.24880440456E+02  0.99000127099E+02  0.92933672595E+02 0.  0.
          5    1    4    4  502    0  0.31699015369E+02 -0.29096541245E+02  0.40364877491E+02  0.59184876638E+02  0.47000000000E+01 0. -1.
         -5    1    3    3    0  503  0.75966680888E+01  0.32930765286E+02  0.10074057622E+03  0.10636210963E+03  0.47000000000E+01 0.  1.
          5    1    3    3  503    0 -0.30135346258E+02 -0.39040538837E+02  0.40729292891E+03  0.41029492162E+03  0.47000000000E+01 0. -1.
         -5    1    4    4    0  502 -0.91603371994E+01  0.35206314795E+02 -0.15484437035E+02  0.39815250462E+02  0.47000000000E+01 0.  1.
<mgrwt>
<rscale>  0 0.95364335E+02</rscale>
<asrwt>0</asrwt>
<pdfrwt beam="1">  1        4 0.88351618E-01 0.95822695E+02</pdfrwt>
<pdfrwt beam="2">  1       -4 0.63648629E-02 0.95822695E+02</pdfrwt>
<totfact> 0.28512313E+02</totfact>
</mgrwt>
</event>
<event>
 8    1  0.8174053E-004  0.1499244E+03  0.7546771E-02  0.1201464E+00
         -2   -1    0    0    0  501 -0.00000000000E+00  0.00000000000E+00  0.14327622513E+03  0.14327622513E+03  0.00000000000E+00 0.  1.
          2   -1    0    0  501    0  0.00000000000E+00 -0.00000000000E+00 -0.20494367822E+03  0.20494367822E+03  0.00000000000E+00 0. -1.
         23    2    1    2    0    0 -0.11889049145E+03  0.64868215750E+01  0.56304046048E+02  0.15744621965E+03  0.86267831016E+02 0.  0.
         23    2    1    2    0    0  0.11889049145E+03 -0.64868215750E+01 -0.11797149913E+03  0.19077368370E+03  0.91105960147E+02 0.  0.
          5    1    4    4  502    0  0.11734881119E+03 -0.33506693728E+02 -0.10102533800E+03  0.15849811018E+03  0.47000000000E+01 0. -1.
         -5    1    3    3    0  503 -0.68418277942E+02 -0.84949830948E+01 -0.12968761366E+02  0.70310058069E+02  0.47000000000E+01 0. -1.
          5    1    3    3  503    0 -0.50472213512E+02  0.14981804670E+02  0.69272807414E+02  0.87136161581E+02  0.47000000000E+01 0.  1.
         -5    1    4    4    0  502  0.15416802626E+01  0.27019872153E+02 -0.16946161135E+02  0.32275573526E+02  0.47000000000E+01 0.  1.
<mgrwt>
<rscale>  0 0.14919666E+03</rscale>
<asrwt>0</asrwt>
<pdfrwt beam="1">  1        2 0.31529796E-01 0.14992439E+03</pdfrwt>
<pdfrwt beam="2">  1       -2 0.22042496E-01 0.14992439E+03</pdfrwt>
<totfact> 0.28626447E+03</totfact>
</mgrwt>
</event>
<event>
 8    1  0.8174053E-004  0.9266356E+02  0.7546771E-02  0.1305829E+00
          1   -1    0    0  501    0  0.00000000000E+00  0.00000000000E+00  0.10692136130E+03  0.10692136130E+03  0.00000000000E+00 0. -1.
         -1   -1    0    0    0  501 -0.00000000000E+00 -0.00000000000E+00 -0.21995262314E+03  0.21995262314E+03  0.00000000000E+00 0.  1.
         23    2    1    2    0    0 -0.54666517723E+01  0.13572719795E+02 -0.19063457049E+03  0.20600707623E+03  0.76702496611E+02 0.  0.
         23    2    1    2    0    0  0.54666517723E+01 -0.13572719795E+02  0.77603308662E+02  0.12086690821E+03  0.91500999885E+02 0.  0.
          5    1    3    3  502    0  0.17680115143E+01  0.37968119552E+02 -0.49845793859E+02  0.62860139456E+02  0.47000000000E+01 0. -1.
         -5    1    4    4    0  503 -0.17574405690E+02  0.30359076019E+02  0.56680620180E+02  0.66823019507E+02  0.47000000000E+01 0.  1.
          5    1    4    4  503    0  0.23041057463E+02 -0.43931795814E+02  0.20922688482E+02  0.54043888699E+02  0.47000000000E+01 0. -1.
         -5    1    3    3    0  502 -0.72346632866E+01 -0.24395399757E+02 -0.14078877663E+03  0.14314693678E+03  0.47000000000E+01 0.  1.
<mgrwt>
<rscale>  0 0.88781938E+02</rscale>
<asrwt>0</asrwt>
<pdfrwt beam="1">  1        1 0.16449440E-01 0.92663563E+02</pdfrwt>
<pdfrwt beam="2">  1       -1 0.33838865E-01 0.92663563E+02</pdfrwt>
<totfact> 0.25973990E+03</totfact>
</mgrwt>
</event>
<event>
 7    1  0.8174053E-004  0.1414393E+03  0.7546771E-02  0.1226999E+00
         -2   -1    0    0    0  501 -0.00000000000E+00  0.00000000000E+00  0.26903639248E+02  0.26903639248E+02  0.00000000000E+00 0.  1.
          2   -1    0    0  501    0  0.00000000000E+00 -0.00000000000E+00 -0.68215709935E+03  0.68215709935E+03  0.00000000000E+00 0. -1.
         23    2    1    2    0    0  0.15162096763E+02 -0.42417957689E+02 -0.43892066609E+03  0.45059420000E+03  0.91403553760E+02 0.  0.
          5    1    3    3  502    0  0.36141818913E+02 -0.50331285126E+02 -0.40450622686E+03  0.40925156922E+03  0.47000000000E+01 0. -1.
         -5    1    1    2    0  503 -0.70553242147E+01  0.87648890029E+02 -0.17741307281E+03  0.19806462058E+03  0.47000000000E+01 0.  1.
          5    1    1    2  503    0 -0.81067725482E+01 -0.45230932340E+02 -0.38919721204E+02  0.60401918016E+02  0.47000000000E+01 0. -1.
         -5    1    3    3    0  502 -0.20979722150E+02  0.79133274369E+01 -0.34414439226E+02  0.41342630780E+02  0.47000000000E+01 0.  1.
<mgrwt>
<rscale>  0 0.13030828E+03</rscale>
<asrwt>0</asrwt>
<pdfrwt beam="1">  1        2 0.10494724E+00 0.14143929E+03</pdfrwt>
<pdfrwt beam="2">  1       -2 0.41390217E-02 0.14143929E+03</pdfrwt>
<totfact> 0.10827943E+04</totfact>
</mgrwt>
</event>
<event>
 8    1  0.8174053E-004  0.2085908E+03  0.7546771E-02  0.1144157E+00
         -2   -1    0    0    0  501 -0.00000000000E+00  0.00000000000E+00  0.86749727244E+03  0.86749727244E+03  0.00000000000E+00 0.  1.
          2   -1    0    0  501    0  0.00000000000E+00 -0.00000000000E+00 -0.53275621508E+02  0.53275621508E+02  0.00000000000E+00 0. -1.
         23    2    1    2    0    0  0.16279819029E+03 -0.78680918600E+02  0.55239795680E+03  0.59046898082E+03  0.10400085061E+03 0.  0.
         23    2    1    2    0    0 -0.16279819029E+03  0.78680918600E+02  0.26182369414E+03  0.33030391312E+03  0.88628948438E+02 0.  0.
          5    1    4    4  502    0 -0.19465647755E+02  0.39497837336E+02  0.25481162393E+02  0.51091782448E+02  0.47000000000E+01 0. -1.
         -5    1    3    3    0  503 -0.58031275249E+01 -0.29739151279E+02  0.54905206791E+02  0.62886923447E+02  0.47000000000E+01 0.  1.
          5    1    3    3  503    0  0.16860131781E+03 -0.48941767321E+02  0.49749275001E+03  0.52758205738E+03  0.47000000000E+01 0. -1.
         -5    1    4    4    0  502 -0.14333254253E+03  0.39183081264E+02  0.23634253174E+03  0.27921213068E+03  0.47000000000E+01 0.  1.
<mgrwt>
<rscale>  0 0.20676113E+03</rscale>
<asrwt>0</asrwt>
<pdfrwt beam="1">  1        2 0.81962501E-02 0.20859078E+03</pdfrwt>
<pdfrwt beam="2">  1       -2 0.13346111E+00 0.20859078E+03</pdfrwt>
<totfact> 0.35087735E+02</totfact>
</mgrwt>
</event>
<event>
 8    1  0.8174053E-004  0.1063116E+03  0.7546771E-02  0.1268788E+00
         -2   -1    0    0    0  501 -0.00000000000E+00  0.00000000000E+00  0.46401894392E+02  0.46401894392E+02  0.00000000000E+00 0.  1.
          2   -1    0    0  501    0  0.00000000000E+00 -0.00000000000E+00 -0.42802080251E+03  0.42802080251E+03  0.00000000000E+00 0. -1.
         23    2    1    2    0    0  0.36461054677E+02  0.31656464185E+02 -0.31436417971E+02  0.10845829549E+03  0.91888047385E+02 0.  0.
         23    2    1    2    0    0 -0.36461054677E+02 -0.31656464185E+02 -0.35018249015E+03  0.36596440142E+03  0.94713391158E+02 0.  0.
          5    1    3    3  502    0 -0.74605308269E+01 -0.27396500042E+02 -0.16633628363E+02  0.33241469993E+02  0.47000000000E+01 0. -1.
         -5    1    3    3    0  502  0.43921585504E+02  0.59052964228E+02 -0.14802789608E+02  0.75216825494E+02  0.47000000000E+01 0.  1.
          5    1    4    4  503    0 -0.57793471263E+02  0.76306236444E+01 -0.23870563865E+03  0.24576570888E+03  0.47000000000E+01 0. -1.
         -5    1    4    4    0  503  0.21332416587E+02 -0.39287087830E+02 -0.11147685151E+03  0.12019869254E+03  0.47000000000E+01 0.  1.
<mgrwt>
<rscale>  0 0.10567873E+03</rscale>
<asrwt>0</asrwt>
<pdfrwt beam="1">  1        2 0.65849355E-01 0.10631165E+03</pdfrwt>
<pdfrwt beam="2">  1       -2 0.71387529E-02 0.10631165E+03</pdfrwt>
<totfact> 0.78558280E+03</totfact>
</mgrwt>
</event>
<event>
 8    1  0.8174053E-004  0.9000307E+02  0.7546771E-02  0.1304749E+00
         -1   -1    0    0    0  501 -0.00000000000E+00  0.00000000000E+00  0.11077330273E+02  0.11077330273E+02  0.00000000000E+00 0.  1.
          1   -1    0    0  501    0  0.00000000000E+00 -0.00000000000E+00 -0.71780009927E+03  0.71780009927E+03  0.00000000000E+00 0. -1.
         23    2    1    2    0    0  0.27433741948E+01  0.15706851245E+02 -0.31350337976E+03  0.32616701607E+03  0.88579466983E+02 0.  0.
         23    2    1    2    0    0 -0.27433741948E+01 -0.15706851245E+02 -0.39321938923E+03  0.40271041347E+03  0.85439790332E+02 0.  0.
          5    1    3    3  502    0  0.35282034227E+02  0.28271447074E+02 -0.24468020428E+03  0.24886660890E+03  0.47000000000E+01 0. -1.
         -5    1    4    4    0  503 -0.16440596413E+02  0.30528021513E+02 -0.22306482551E+03  0.22579251468E+03  0.47000000000E+01 0.  1.
          5    1    4    4  503    0  0.13697222219E+02 -0.46234872758E+02 -0.17015456372E+03  0.17691789879E+03  0.47000000000E+01 0. -1.
         -5    1    3    3    0  502 -0.32538660032E+02 -0.12564595829E+02 -0.68823175483E+02  0.77300407170E+02  0.47000000000E+01 0.  1.
<mgrwt>
<rscale>  0 0.89220877E+02</rscale>
<asrwt>0</asrwt>
<pdfrwt beam="1">  1        1 0.11043083E+00 0.90003074E+02</pdfrwt>
<pdfrwt beam="2">  1       -1 0.17042040E-02 0.90003074E+02</pdfrwt>
<totfact> 0.21440194E+04</totfact>
</mgrwt>
</event>
<event>
 8    1  0.8174053E-004  0.1402137E+03  0.7546771E-02  0.1213695E+00
         -1   -1    0    0    0  501 -0.00000000000E+00  0.00000000000E+00  0.28133750653E+02  0.28133750653E+02  0.00000000000E+00 0.  1.
          1   -1    0    0  501    0  0.00000000000E+00 -0.00000000000E+00 -0.71972456609E+03  0.71972456609E+03  0.00000000000E+00 0. -1.
         23    2    1    2    0    0 -0.40628608711E+02  0.94162882791E+02 -0.26649881935E+03  0.30023895129E+03  0.92760308404E+02 0.  0.
         23    2    1    2    0    0  0.40628608711E+02 -0.94162882791E+02 -0.42509199609E+03  0.44761936545E+03  0.95616728927E+02 0.  0.
          5    1    4    4  502    0  0.30188932977E+02 -0.46292032097E+02 -0.36835539870E+03  0.37250787060E+03  0.47000000000E+01 0. -1.
         -5    1    4    4    0  502  0.10439675734E+02 -0.47870850695E+02 -0.56736597388E+02  0.75111494851E+02  0.47000000000E+01 0.  1.
          5    1    3    3  503    0 -0.28310931969E+02  0.24865740126E+02 -0.19905671178E+03  0.20264619021E+03  0.47000000000E+01 0. -1.
         -5    1    3    3    0  503 -0.12317676742E+02  0.69297142666E+02 -0.67442107566E+02  0.97592761079E+02  0.47000000000E+01 0.  1.
<mgrwt>
<rscale>  0 0.13972819E+03</rscale>
<asrwt>0</asrwt>
<pdfrwt beam="1">  1        1 0.11072685E+00 0.14021373E+03</pdfrwt>
<pdfrwt beam="2">  1       -1 0.43282696E-02 0.14021373E+03</pdfrwt>
<totfact> 0.57309318E+03</totfact>
</mgrwt>
</event>
<event>
 8    1  0.8174053E-004  0.1146571E+03  0.7546771E-02  0.1252343E+00
         -1   -1    0    0    0  501 -0.00000000000E+00  0.00000000000E+00  0.65890361273E+02  0.65890361273E+02  0.00000000000E+00 0.  1.
          1   -1    0    0  501    0  0.00000000000E+00 -0.00000000000E+00 -0.22787631119E+03  0.22787631119E+03  0.00000000000E+00 0. -1.
         23    2    1    2    0    0 -0.70686974744E+02  0.19967219447E+01 -0.28477016519E+02  0.11778121754E+03  0.89782177733E+02 0.  0.
         23    2    1    2    0    0  0.70686974744E+02 -0.19967219447E+01 -0.13350893340E+03  0.17598545493E+03  0.90253031810E+02 0.  0.
          5    1    3    3  502    0 -0.82642410887E+02  0.20810668257E+02 -0.56615518191E+01  0.85539436282E+02  0.47000000000E+01 0. -1.
         -5    1    4    4    0  503  0.89818754367E+02 -0.94874689489E+01 -0.12231708546E+03  0.15212159643E+03  0.47000000000E+01 0.  1.
          5    1    4    4  503    0 -0.19131779623E+02  0.74907470042E+01 -0.11191847938E+02  0.23863858500E+02  0.47000000000E+01 0. -1.
         -5    1    3    3    0  502  0.11955436143E+02 -0.18813946313E+02 -0.22815464700E+02  0.32241781258E+02  0.47000000000E+01 0.  1.
<mgrwt>
<rscale>  0 0.11456440E+03</rscale>
<asrwt>0</asrwt>
<pdfrwt beam="1">  1        1 0.35057894E-01 0.11465708E+03</pdfrwt>
<pdfrwt beam="2">  1       -1 0.10136979E-01 0.11465708E+03</pdfrwt>
<totfact> 0.69609958E+03</totfact>
</mgrwt>
</event>
<event>
 8    1  0.8174053E-004  0.9570578E+02  0.7546771E-02  0.1298769E+00
          4   -1    0    0  501    0  0.00000000000E+00  0.00000000000E+00  0.26259523365E+03  0.26259523365E+03  0.00000000000E+00 0. -1.
         -4   -1    0    0    0  501 -0.00000000000E+00 -0.00000000000E+00 -0.30160774955E+02  0.30160774955E+02  0.00000000000E+00 0.  1.
         23    2    1    2    0    0 -0.13412100671E+02 -0.27529585121E+02  0.10643904601E+03  0.14313932436E+03  0.90674324710E+02 0.  0.
         23    2    1    2    0    0  0.13412100671E+02  0.27529585121E+02  0.12599541269E+03  0.14961668425E+03  0.74649485497E+02 0.  0.
          5    1    3    3  502    0  0.56448213189E+01 -0.20204915661E+02  0.11749861097E+03  0.11944922019E+03  0.47000000000E+01 0. -1.
         -5    1    3    3    0  502 -0.19056921990E+02 -0.73246694594E+01 -0.11059564960E+02  0.23690104169E+02  0.47000000000E+01 0.  1.
          5    1    4    4  503    0 -0.22996728500E+02  0.28554558706E+02  0.32694687260E+02  0.49348200774E+02  0.47000000000E+01 0. -1.
         -5    1    4    4    0  503  0.36408829171E+02 -0.10249735854E+01  0.93300725427E+02  0.10026848347E+03  0.47000000000E+01 0.  1.
<mgrwt>
<rscale>  0 0.91707279E+02</rscale>
<asrwt>0</asrwt>
<pdfrwt beam="1">  1        4 0.40399265E-01 0.95705777E+02</pdfrwt>
<pdfrwt beam="2">  1       -4 0.46401194E-02 0.95705777E+02</pdfrwt>
<totfact> 0.24209616E+03</totfact>
</mgrwt>
</event>
<event>
 8    1  0.8174053E-004  0.9344326E+02  0.7546771E-02  0.1296943E+00
          3   -1    0    0  501    0  0.00000000000E+00  0.00000000000E+00  0.20803320664E+02  0.20803320664E+02  0.00000000000E+00 0. -1.
         -3   -1    0    0    0  501 -0.00000000000E+00 -0.00000000000E+00 -0.57880533338E+03  0.57880533338E+03  0.00000000000E+00 0.  1.
         23    2    1    2    0    0  0.19017266485E+02  0.14742818823E+01 -0.44823629278E+03  0.45787270797E+03  0.91475748745E+02 0.  0.
         23    2    1    2    0    0 -0.19017266485E+02 -0.14742818823E+01 -0.10976571994E+03  0.14173594607E+03  0.87616980114E+02 0.  0.
          5    1    4    4  502    0  0.32516717178E+02  0.39725973672E+01 -0.22112428239E+02  0.39801606858E+02  0.47000000000E+01 0. -1.
         -5    1    3    3    0  503 -0.30549757600E+02 -0.22451030809E+02 -0.18205319788E+03  0.18601826075E+03  0.47000000000E+01 0.  1.
          5    1    3    3  503    0  0.49567024085E+02  0.23925312692E+02 -0.26618309490E+03  0.27185444723E+03  0.47000000000E+01 0. -1.
         -5    1    4    4    0  502 -0.51533983663E+02 -0.54468792495E+01 -0.87653291698E+02  0.10193433922E+03  0.47000000000E+01 0.  1.
<mgrwt>
<rscale>  0 0.92485107E+02</rscale>
<asrwt>0</asrwt>
<pdfrwt beam="1">  1        3 0.32005111E-02 0.93443258E+02</pdfrwt>
<pdfrwt beam="2">  1       -3 0.89046969E-01 0.93443258E+02</pdfrwt>
<totfact> 0.11695359E+03</totfact>
</mgrwt>
</event>
<event>
 8    1  0.8174053E-004  0.1037046E+03  0.7546771E-02  0.1272854E+00
          2   -1    0    0  501    0  0.00000000000E+00  0.00000000000E+00  0.11616626326E+03  0.11616626326E+03  0.00000000000E+00 0. -1.
         -2   -1    0    0    0  501 -0.00000000000E+00 -0.00000000000E+00 -0.13181530985E+03  0.13181530985E+03  0.00000000000E+00 0.  1.
         23    2    1    2    0    0  0.13534734201E+01 -0.46227038931E+02 -0.75708891788E+02  0.12814073030E+03  0.92463178874E+02 0.  0.
         23    2    1    2    0    0 -0.13534734201E+01  0.46227038931E+02  0.60059845199E+02  0.11984084281E+03  0.92821719342E+02 0.  0.
          5    1    3    3  502    0 -0.41945902784E+02 -0.31678150025E+02 -0.59288508260E+02  0.79373680531E+02  0.47000000000E+01 0. -1.
         -5    1    4    4    0  503  0.27548552151E+02 -0.15415084436E+02  0.53212438212E+01  0.32356656033E+02  0.47000000000E+01 0.  1.
          5    1    4    4  503    0 -0.28902025572E+02  0.61642123368E+02  0.54738601378E+02  0.87484186778E+02  0.47000000000E+01 0. -1.
         -5    1    3    3    0  502  0.43299376204E+02 -0.14548888906E+02 -0.16420383528E+02  0.48767049770E+02  0.47000000000E+01 0.  1.
<mgrwt>
<rscale>  0 0.10362430E+03</rscale>
<asrwt>0</asrwt>
<pdfrwt beam="1">  1        2 0.17871733E-01 0.10370459E+03</pdfrwt>
<pdfrwt beam="2">  1       -2 0.20279278E-01 0.10370459E+03</pdfrwt>
<totfact> 0.60478562E+03</totfact>
</mgrwt>
</event>
<event>
 8    1  0.8174053E-004  0.9810663E+02  0.7546771E-02  0.1284530E+00
         -1   -1    0    0    0  501 -0.00000000000E+00  0.00000000000E+00  0.34187559784E+03  0.34187559784E+03  0.00000000000E+00 0.  1.
          1   -1    0    0  501    0  0.00000000000E+00 -0.00000000000E+00 -0.55262409667E+02  0.55262409667E+02  0.00000000000E+00 0. -1.
         23    2    1    2    0    0  0.23715252144E+01  0.35579120321E+02  0.38180392947E+01  0.97808746504E+02  0.90997118273E+02 0.  0.
         23    2    1    2    0    0 -0.23715252144E+01 -0.35579120321E+02  0.28279514888E+03  0.29932926101E+03  0.91397003939E+02 0.  0.
          5    1    3    3  502    0  0.41769240145E+02  0.36227505002E+02 -0.87665582206E+01  0.56178679977E+02  0.47000000000E+01 0. -1.
         -5    1    4    4    0  503 -0.15612390144E+02 -0.61779940696E+02  0.14647245175E+03  0.15980230574E+03  0.47000000000E+01 0.  1.
          5    1    4    4  503    0  0.13240864929E+02  0.26200820376E+02  0.13632269713E+03  0.13952695526E+03  0.47000000000E+01 0. -1.
         -5    1    3    3    0  502 -0.39397714930E+02 -0.64838468132E+00  0.12584597515E+02  0.41630066527E+02  0.47000000000E+01 0.  1.
<mgrwt>
<rscale>  0 0.98013387E+02</rscale>
<asrwt>0</asrwt>
<pdfrwt beam="1">  1        1 0.85019094E-02 0.98106627E+02</pdfrwt>
<pdfrwt beam="2">  1       -1 0.52596245E-01 0.98106627E+02</pdfrwt>
<totfact> 0.28323419E+03</totfact>
</mgrwt>
</event>
<event>
 8    1  0.8174053E-004  0.1312049E+03  0.7546771E-02  0.1225919E+00
          1   -1    0    0  501    0  0.00000000000E+00  0.00000000000E+00  0.13394044489E+03  0.13394044489E+03  0.00000000000E+00 0. -1.
         -1   -1    0    0    0  501 -0.00000000000E+00 -0.00000000000E+00 -0.13135754230E+03  0.13135754230E+03  0.00000000000E+00 0.  1.
         23    2    1    2    0    0  0.17910820874E+02  0.91632989190E+02  0.22851675641E+02  0.13253672292E+03  0.91249008934E+02 0.  0.
         23    2    1    2    0    0 -0.17910820874E+02 -0.91632989190E+02 -0.20268773048E+02  0.13276126426E+03  0.92180952017E+02 0.  0.
          5    1    4    4  502    0 -0.52937960080E+02 -0.67176413292E+02 -0.25728160771E+02  0.89437835265E+02  0.47000000000E+01 0. -1.
         -5    1    3    3    0  503  0.40667425021E+02  0.63928997758E+02 -0.17961994830E+02  0.78009483208E+02  0.47000000000E+01 0.  1.
          5    1    3    3  503    0 -0.22756604147E+02  0.27703991432E+02  0.40813670471E+02  0.54527239715E+02  0.47000000000E+01 0. -1.
         -5    1    4    4    0  502  0.35027139206E+02 -0.24456575898E+02  0.54593877229E+01  0.43323428996E+02  0.47000000000E+01 0.  1.
<mgrwt>
<rscale>  0 0.13104134E+03</rscale>
<asrwt>0</asrwt>
<pdfrwt beam="1">  1        1 0.20606222E-01 0.13120492E+03</pdfrwt>
<pdfrwt beam="2">  1       -1 0.20208853E-01 0.13120492E+03</pdfrwt>
<totfact> 0.46480117E+03</totfact>
</mgrwt>
</event>
<event>
 8    1  0.8174053E-004  0.9674695E+02  0.7546771E-02  0.1287320E+00
          1   -1    0    0  501    0  0.00000000000E+00  0.00000000000E+00  0.15718720877E+03  0.15718720877E+03  0.00000000000E+00 0. -1.
         -1   -1    0    0    0  501 -0.00000000000E+00 -0.00000000000E+00 -0.16789090222E+03  0.16789090222E+03  0.00000000000E+00 0.  1.
         23    2    1    2    0    0  0.27927402128E+02  0.70281200257E+01  0.12524079180E+03  0.15822226160E+03  0.92302187814E+02 0.  0.
         23    2    1    2    0    0 -0.27927402128E+02 -0.70281200257E+01 -0.13594448526E+03  0.16685584939E+03  0.92361448365E+02 0.  0.
          5    1    4    4  502    0 -0.12228000608E+01  0.22452246365E+02  0.21481139795E+01  0.23071692623E+02  0.47000000000E+01 0. -1.
         -5    1    4    4    0  502 -0.26704602067E+02 -0.29480366391E+02 -0.13809259923E+03  0.14378415677E+03  0.47000000000E+01 0.  1.
          5    1    3    3  503    0 -0.71826088354E+00 -0.40501064835E+02  0.58234118360E+02  0.71092578323E+02  0.47000000000E+01 0. -1.
         -5    1    3    3    0  503  0.28645663011E+02  0.47529184861E+02  0.67006673442E+02  0.87129683281E+02  0.47000000000E+01 0.  1.
<mgrwt>
<rscale>  0 0.96732799E+02</rscale>
<asrwt>0</asrwt>
<pdfrwt beam="1">  1        1 0.24182647E-01 0.96746945E+02</pdfrwt>
<pdfrwt beam="2">  1       -1 0.25829370E-01 0.96746945E+02</pdfrwt>
<totfact> 0.25113847E+03</totfact>
</mgrwt>
</event>
<event>
 8    1  0.8174053E-004  0.1846433E+03  0.7546771E-02  0.1163458E+00
          2   -1    0    0  501    0  0.00000000000E+00  0.00000000000E+00  0.15299596221E+04  0.15299596221E+04  0.00000000000E+00 0. -1.
         -2   -1    0    0    0  501 -0.00000000000E+00 -0.00000000000E+00 -0.23548028773E+02  0.23548028773E+02  0.00000000000E+00 0.  1.
         23    2    1    2    0    0  0.15159755484E+03 -0.50766925104E+02  0.56990388127E+03  0.59897120048E+03  0.91744023263E+02 0.  0.
         23    2    1    2    0    0 -0.15159755484E+03  0.50766925104E+02  0.93650771202E+03  0.95453645036E+03  0.92379873688E+02 0.  0.
          5    1    3    3  502    0  0.14275868102E+02  0.23158273053E+02  0.10576585136E+03  0.10930970376E+03  0.47000000000E+01 0. -1.
         -5    1    4    4    0  503 -0.64010084290E+02  0.67827249952E+02  0.40997648708E+03  0.42047667793E+03  0.47000000000E+01 0.  1.
          5    1    4    4  503    0 -0.87587470548E+02 -0.17060324849E+02  0.52653122494E+03  0.53405977243E+03  0.47000000000E+01 0. -1.
         -5    1    3    3    0  502  0.13732168674E+03 -0.73925198156E+02  0.46413802990E+03  0.48966149672E+03  0.47000000000E+01 0.  1.
<mgrwt>
<rscale>  0 0.18456390E+03</rscale>
<asrwt>0</asrwt>
<pdfrwt beam="1">  1        2 0.23537833E+00 0.18464328E+03</pdfrwt>
<pdfrwt beam="2">  1       -2 0.36227749E-02 0.18464328E+03</pdfrwt>
<totfact> 0.41755924E+03</totfact>
</mgrwt>
</event>
<event>
 8    1  0.8174053E-004  0.1593463E+03  0.7546771E-02  0.1189803E+00
         -1   -1    0    0    0  501 -0.00000000000E+00  0.00000000000E+00  0.44227801967E+02  0.44227801967E+02  0.00000000000E+00 0.  1.
          1   -1    0    0  501    0  0.00000000000E+00 -0.00000000000E+00 -0.85816851413E+03  0.85816851413E+03  0.00000000000E+00 0. -1.
         23    2    1    2    0    0  0.19721606822E+02 -0.12937700656E+03 -0.14636907001E+03  0.21636809166E+03  0.90905966990E+02 0.  0.
         23    2    1    2    0    0 -0.19721606822E+02  0.12937700656E+03 -0.66757164216E+03  0.68602822444E+03  0.88631121540E+02 0.  0.
          5    1    3    3  502    0 -0.31832299467E+02 -0.72073116336E+02 -0.95495865752E+02  0.12389261384E+03  0.47000000000E+01 0. -1.
         -5    1    4    4    0  503 -0.39240857081E+02  0.30122224101E+02 -0.13366358299E+03  0.14260167133E+03  0.47000000000E+01 0.  1.
          5    1    4    4  503    0  0.19519250258E+02  0.99254782456E+02 -0.53390805917E+03  0.54342655310E+03  0.47000000000E+01 0. -1.
         -5    1    3    3    0  502  0.51553906289E+02 -0.57303890220E+02 -0.50873204254E+02  0.92475477826E+02  0.47000000000E+01 0.  1.
<mgrwt>
<rscale>  0 0.15902365E+03</rscale>
<asrwt>0</asrwt>
<pdfrwt beam="1">  1        1 0.13202592E+00 0.15934631E+03</pdfrwt>
<pdfrwt beam="2">  1       -1 0.68042777E-02 0.15934631E+03</pdfrwt>
<totfact> 0.22546165E+03</totfact>
</mgrwt>
</event>
<event>
 8    1  0.8174053E-004  0.1004839E+03  0.7546771E-02  0.1280542E+00
         -1   -1    0    0    0  501 -0.00000000000E+00  0.00000000000E+00  0.10211994016E+03  0.10211994016E+03  0.00000000000E+00 0.  1.
          1   -1    0    0  501    0  0.00000000000E+00 -0.00000000000E+00 -0.10293389165E+03  0.10293389165E+03  0.00000000000E+00 0. -1.
         23    2    1    2    0    0  0.12467739328E+02  0.40219865144E+02  0.25138979744E+02  0.10127244991E+03  0.88606200306E+02 0.  0.
         23    2    1    2    0    0 -0.12467739328E+02 -0.40219865144E+02 -0.25952931236E+02  0.10378138190E+03  0.91235620862E+02 0.  0.
          5    1    4    4  502    0 -0.36006913146E+02 -0.55304460345E+02 -0.33898430736E+02  0.74338918035E+02  0.47000000000E+01 0. -1.
         -5    1    3    3    0  503  0.85450801305E+01  0.67556796230E+02  0.87475079139E+01  0.68815318106E+02  0.47000000000E+01 0.  1.
          5    1    3    3  503    0  0.39226591978E+01 -0.27336931086E+02  0.16391471830E+02  0.32457131807E+02  0.47000000000E+01 0. -1.
         -5    1    4    4    0  502  0.23539173818E+02  0.15084595200E+02  0.79454994999E+01  0.29442463869E+02  0.47000000000E+01 0.  1.
<mgrwt>
<rscale>  0 0.99883261E+02</rscale>
<asrwt>0</asrwt>
<pdfrwt beam="1">  1        1 0.15835983E-01 0.10048393E+03</pdfrwt>
<pdfrwt beam="2">  1       -1 0.15710760E-01 0.10048393E+03</pdfrwt>
<totfact> 0.94868983E+03</totfact>
</mgrwt>
</event>
<event>
 8    1  0.8174053E-004  0.1218705E+03  0.7546771E-02  0.1242897E+00
         -1   -1    0    0    0  501 -0.00000000000E+00  0.00000000000E+00  0.15364664205E+03  0.15364664205E+03  0.00000000000E+00 0.  1.
          1   -1    0    0  501    0  0.00000000000E+00 -0.00000000000E+00 -0.11183174058E+03  0.11183174058E+03  0.00000000000E+00 0. -1.
         23    2    1    2    0    0  0.36892914059E+01 -0.70728500126E+02  0.78243347857E+02  0.14482551038E+03  0.99177998419E+02 0.  0.
         23    2    1    2    0    0 -0.36892914059E+01  0.70728500126E+02 -0.36428446381E+02  0.12065287225E+03  0.90630857198E+02 0.  0.
          5    1    4    4  502    0  0.25037070098E+02  0.23040133003E+02 -0.52301300029E+02  0.62571707605E+02  0.47000000000E+01 0. -1.
         -5    1    4    4    0  502 -0.28726361504E+02  0.47688367123E+02  0.15872853648E+02  0.58081164649E+02  0.47000000000E+01 0.  1.
          5    1    3    3  503    0 -0.25487681022E+02  0.13675866005E+02  0.61177523293E+01  0.29936066682E+02  0.47000000000E+01 0. -1.
         -5    1    3    3    0  503  0.29176972428E+02 -0.84404366130E+02  0.72125595528E+02  0.11488944369E+03  0.47000000000E+01 0.  1.
<mgrwt>
<rscale>  0 0.12012106E+03</rscale>
<asrwt>0</asrwt>
<pdfrwt beam="1">  1        1 0.17204883E-01 0.12187045E+03</pdfrwt>
<pdfrwt beam="2">  1       -1 0.23637945E-01 0.12187045E+03</pdfrwt>
<totfact> 0.45180741E+03</totfact>
</mgrwt>
</event>
<event>
 8    1  0.8174053E-004  0.1112845E+03  0.7546771E-02  0.1265837E+00
          1   -1    0    0  501    0  0.00000000000E+00  0.00000000000E+00  0.46125961879E+03  0.46125961879E+03  0.00000000000E+00 0. -1.
         -1   -1    0    0    0  501 -0.00000000000E+00 -0.00000000000E+00 -0.25040225869E+02  0.25040225869E+02  0.00000000000E+00 0.  1.
         23    2    1    2    0    0  0.21355417676E+02  0.21391022255E+02  0.16839330630E+03  0.20184288272E+03  0.10710095237E+03 0.  0.
         23    2    1    2    0    0 -0.21355417676E+02 -0.21391022255E+02  0.26782608662E+03  0.28445696194E+03  0.90946802172E+02 0.  0.
          5    1    3    3  502    0 -0.14055169464E+02 -0.36402692938E+02  0.37281463559E+02  0.54172884056E+02  0.47000000000E+01 0. -1.
         -5    1    4    4    0  503 -0.47132783823E+02 -0.37789009941E+02  0.21372116374E+03  0.22214485008E+03  0.47000000000E+01 0. -1.
          5    1    4    4  503    0  0.25777366147E+02  0.16397987686E+02  0.54104922873E+02  0.62312111862E+02  0.47000000000E+01 0.  1.
         -5    1    3    3    0  502  0.35410587140E+02  0.57793715194E+02  0.13111184274E+03  0.14766999866E+03  0.47000000000E+01 0.  1.
<mgrwt>
<rscale>  0 0.10720392E+03</rscale>
<asrwt>0</asrwt>
<pdfrwt beam="1">  1        1 0.70963012E-01 0.11128452E+03</pdfrwt>
<pdfrwt beam="2">  1       -1 0.38523428E-02 0.11128452E+03</pdfrwt>
<totfact> 0.12200570E+04</totfact>
</mgrwt>
</event>
<event>
 8    1  0.8174053E-004  0.9571113E+02  0.7546771E-02  0.1292396E+00
         -2   -1    0    0    0  501 -0.00000000000E+00  0.00000000000E+00  0.35478962219E+03  0.35478962219E+03  0.00000000000E+00 0.  1.
          2   -1    0    0  501    0  0.00000000000E+00 -0.00000000000E+00 -0.49266057104E+02  0.49266057104E+02  0.00000000000E+00 0. -1.
         23    2    1    2    0    0  0.28900249251E+02  0.10556220492E+02  0.75860008175E+01  0.91122119625E+02  0.85434390492E+02 0.  0.
         23    2    1    2    0    0 -0.28900249251E+02 -0.10556220492E+02  0.29793756427E+03  0.31293355967E+03  0.90630912867E+02 0.  0.
          5    1    3    3  502    0  0.23961956970E+02  0.34056313120E+02 -0.26188117168E+02  0.49415739659E+02  0.47000000000E+01 0. -1.
         -5    1    4    4    0  503 -0.44118351150E+02 -0.36537491898E+02  0.24679804955E+03  0.25340241610E+03  0.47000000000E+01 0.  1.
          5    1    4    4  503    0  0.15218101899E+02  0.25981271406E+02  0.51139514718E+02  0.59531143571E+02  0.47000000000E+01 0. -1.
         -5    1    3    3    0  502  0.49382922811E+01 -0.23500092629E+02  0.33774117986E+02  0.41706379967E+02  0.47000000000E+01 0.  1.
<mgrwt>
<rscale>  0 0.94460498E+02</rscale>
<asrwt>0</asrwt>
<pdfrwt beam="1">  1        2 0.75793936E-02 0.95711131E+02</pdfrwt>
<pdfrwt beam="2">  1       -2 0.54583017E-01 0.95711131E+02</pdfrwt>
<totfact> 0.27463481E+03</totfact>
</mgrwt>
</event>
<event>
 8    1  0.8174053E-004  0.1081676E+03  0.7546771E-02  0.1264486E+00
         -1   -1    0    0    0  501 -0.00000000000E+00  0.00000000000E+00  0.32523706534E+03  0.32523706534E+03  0.00000000000E+00 0.  1.
          1   -1    0    0  501    0  0.00000000000E+00 -0.00000000000E+00 -0.35636580123E+02  0.35636580123E+02  0.00000000000E+00 0. -1.
         23    2    1    2    0    0 -0.47406667543E+02  0.32233618963E+02  0.14444584621E+03  0.17984851453E+03  0.90523407864E+02 0.  0.
         23    2    1    2    0    0  0.47406667543E+02 -0.32233618963E+02  0.14515463901E+03  0.18102513094E+03  0.91726934355E+02 0.  0.
          5    1    4    4  502    0  0.21079071370E+02  0.19716039593E+02  0.56569435131E+01  0.29784903508E+02  0.47000000000E+01 0. -1.
         -5    1    3    3    0  503 -0.11769074386E+02 -0.28260487487E+02  0.19947125686E+02  0.36839436587E+02  0.47000000000E+01 0.  1.
          5    1    3    3  503    0 -0.35637593156E+02  0.60494106450E+02  0.12449872052E+03  0.14300907794E+03  0.47000000000E+01 0. -1.
         -5    1    4    4    0  502  0.26327596173E+02 -0.51949658556E+02  0.13949769550E+03  0.15124022743E+03  0.47000000000E+01 0.  1.
<mgrwt>
<rscale>  0 0.10791202E+03</rscale>
<asrwt>0</asrwt>
<pdfrwt beam="1">  1        1 0.54825510E-02 0.10816760E+03</pdfrwt>
<pdfrwt beam="2">  1       -1 0.50036470E-01 0.10816760E+03</pdfrwt>
<totfact> 0.56204227E+03</totfact>
</mgrwt>
</event>
<event>
 8    1  0.8174053E-004  0.9328446E+02  0.7546771E-02  0.1296317E+00
         -1   -1    0    0    0  501 -0.00000000000E+00  0.00000000000E+00  0.42293634274E+02  0.42293634274E+02  0.00000000000E+00 0.  1.
          1   -1    0    0  501    0  0.00000000000E+00 -0.00000000000E+00 -0.48011162599E+03  0.48011162599E+03  0.00000000000E+00 0. -1.
         23    2    1    2    0    0 -0.10212170997E+02  0.36094353681E+01 -0.41696553264E+03  0.42681856605E+03  0.90534614697E+02 0.  0.
         23    2    1    2    0    0  0.10212170997E+02 -0.36094353681E+01 -0.20852459080E+02  0.95586694215E+02  0.92653519097E+02 0.  0.
          5    1    4    4  502    0  0.47428826636E+02  0.14606682669E+02 -0.20457215791E+02  0.53883545286E+02  0.47000000000E+01 0. -1.
         -5    1    4    4    0  502 -0.37216655639E+02 -0.18216118037E+02 -0.39524328859E+00  0.41703148928E+02  0.47000000000E+01 0.  1.
          5    1    3    3  503    0  0.16963062842E+02 -0.29356236800E+02 -0.30453670351E+03  0.30645428358E+03  0.47000000000E+01 0. -1.
         -5    1    3    3    0  503 -0.27175233839E+02  0.32965672168E+02 -0.11242882912E+03  0.12036428247E+03  0.47000000000E+01 0.  1.
<mgrwt>
<rscale>  0 0.92753893E+02</rscale>
<asrwt>0</asrwt>
<pdfrwt beam="1">  1        1 0.73863330E-01 0.93284463E+02</pdfrwt>
<pdfrwt beam="2">  1       -1 0.65067127E-02 0.93284463E+02</pdfrwt>
<totfact> 0.53007368E+03</totfact>
</mgrwt>
</event>
<event>
 8    1  0.8174053E-004  0.1069973E+03  0.7546771E-02  0.1266480E+00
         -2   -1    0    0    0  501 -0.00000000000E+00  0.00000000000E+00  0.69557016462E+02  0.69557016462E+02  0.00000000000E+00 0.  1.
          2   -1    0    0  501    0  0.00000000000E+00 -0.00000000000E+00 -0.24895385964E+03  0.24895385964E+03  0.00000000000E+00 0. -1.
         23    2    1    2    0    0 -0.27577889339E+02  0.49317952722E+02  0.35802295616E+01  0.10654619757E+03  0.90257818123E+02 0.  0.
         23    2    1    2    0    0  0.27577889339E+02 -0.49317952722E+02 -0.18297707274E+03  0.21196467853E+03  0.90860416875E+02 0.  0.
          5    1    3    3  502    0 -0.20126390417E+01  0.54519697741E+02 -0.31038314866E+02  0.62943745895E+02  0.47000000000E+01 0. -1.
         -5    1    4    4    0  503 -0.61811392968E+01 -0.66801741549E+02 -0.99230405531E+02  0.11987260963E+03  0.47000000000E+01 0.  1.
          5    1    4    4  503    0  0.33759028635E+02  0.17483788827E+02 -0.83746667208E+02  0.92092068901E+02  0.47000000000E+01 0. -1.
         -5    1    3    3    0  502 -0.25565250297E+02 -0.52017450188E+01  0.34618544427E+02  0.43602451677E+02  0.47000000000E+01 0.  1.
<mgrwt>
<rscale>  0 0.10686923E+03</rscale>
<asrwt>0</asrwt>
<pdfrwt beam="1">  1        2 0.38300593E-01 0.10699727E+03</pdfrwt>
<pdfrwt beam="2">  1       -2 0.10701080E-01 0.10699727E+03</pdfrwt>
<totfact> 0.74442179E+03</totfact>
</mgrwt>
</event>
<event>
 8    1  0.8174053E-004  0.9346904E+02  0.7546771E-02  0.1295431E+00
         -2   -1    0    0    0  501 -0.00000000000E+00  0.00000000000E+00  0.10173766299E+02  0.10173766299E+02  0.00000000000E+00 0.  1.
          2   -1    0    0  501    0  0.00000000000E+00 -0.00000000000E+00 -0.84856212870E+03  0.84856212870E+03  0.00000000000E+00 0. -1.
         23    2    1    2    0    0  0.15965584416E+02 -0.38302574832E+01 -0.39543004012E+03  0.40602347320E+03  0.90667377844E+02 0.  0.
         23    2    1    2    0    0 -0.15965584416E+02  0.38302574832E+01 -0.44295832228E+03  0.45271242180E+03  0.92015709593E+02 0.  0.
          5    1    3    3  502    0  0.49156874662E+02 -0.21782344666E+02 -0.24302929789E+03  0.24895019280E+03  0.47000000000E+01 0. -1.
         -5    1    4    4    0  503 -0.69942063566E+00  0.47077742066E+02 -0.21702207576E+03  0.22212040508E+03  0.47000000000E+01 0.  1.
          5    1    4    4  503    0 -0.15266163780E+02 -0.43247484583E+02 -0.22593624653E+03  0.23059201672E+03  0.47000000000E+01 0. -1.
         -5    1    3    3    0  502 -0.33191290246E+02  0.17952087183E+02 -0.15240074223E+03  0.15707328040E+03  0.47000000000E+01 0.  1.
<mgrwt>
<rscale>  0 0.93135494E+02</rscale>
<asrwt>0</asrwt>
<pdfrwt beam="1">  1        2 0.13054803E+00 0.93469041E+02</pdfrwt>
<pdfrwt beam="2">  1       -2 0.15651947E-02 0.93469041E+02</pdfrwt>
<totfact> 0.33099355E+04</totfact>
</mgrwt>
</event>
<event>
 8    1  0.8174053E-004  0.1251184E+03  0.7546771E-02  0.1238176E+00
         -1   -1    0    0    0  501 -0.00000000000E+00  0.00000000000E+00  0.15257701476E+03  0.15257701476E+03  0.00000000000E+00 0.  1.
          1   -1    0    0  501    0  0.00000000000E+00 -0.00000000000E+00 -0.12739918220E+03  0.12739918220E+03  0.00000000000E+00 0. -1.
         23    2    1    2    0    0  0.85397072260E+02 -0.23142891859E+01 -0.57156000222E+02  0.13019808878E+03  0.79916944858E+02 0.  0.
         23    2    1    2    0    0 -0.85397072260E+02  0.23142891859E+01  0.82333832786E+02  0.14977810818E+03  0.91414472514E+02 0.  0.
          5    1    4    4  502    0 -0.52434385712E+02 -0.22467571081E+02 -0.37398168993E+00  0.57239727616E+02  0.47000000000E+01 0. -1.
         -5    1    3    3    0  503  0.95863095844E+01  0.29920827218E+02 -0.39387248405E+01  0.32011822601E+02  0.47000000000E+01 0.  1.
          5    1    3    3  503    0  0.75810762676E+02 -0.32235116404E+02 -0.53217275382E+02  0.98186266179E+02  0.47000000000E+01 0. -1.
         -5    1    4    4    0  502 -0.32962686548E+02  0.24781860267E+02  0.82707814476E+02  0.92538380568E+02  0.47000000000E+01 0.  1.
<mgrwt>
<rscale>  0 0.12303269E+03</rscale>
<asrwt>0</asrwt>
<pdfrwt beam="1">  1        1 0.19599874E-01 0.12511843E+03</pdfrwt>
<pdfrwt beam="2">  1       -1 0.23473387E-01 0.12511843E+03</pdfrwt>
<totfact> 0.38766434E+03</totfact>
</mgrwt>
</event>
<event>
 8    1  0.8174053E-004  0.9836080E+02  0.7546771E-02  0.1287355E+00
         -2   -1    0    0    0  501 -0.00000000000E+00  0.00000000000E+00  0.13100376857E+02  0.13100376857E+02  0.00000000000E+00 0.  1.
          2   -1    0    0  501    0  0.00000000000E+00 -0.00000000000E+00 -0.83135693728E+03  0.83135693728E+03  0.00000000000E+00 0. -1.
         23    2    1    2    0    0 -0.57421064488E+01 -0.36993111627E+02 -0.22436238568E+03  0.24247298029E+03  0.83983355313E+02 0.  0.
         23    2    1    2    0    0  0.57421064488E+01  0.36993111627E+02 -0.59389417475E+03  0.60198433385E+03  0.90958151402E+02 0.  0.
          5    1    4    4  502    0  0.39052721241E+02  0.47772672494E+02 -0.42042559958E+03  0.42495543067E+03  0.47000000000E+01 0. -1.
         -5    1    3    3    0  503 -0.42280838372E+02 -0.65891336430E+01 -0.87532423630E+02  0.97545380015E+02  0.47000000000E+01 0.  1.
          5    1    3    3  503    0  0.36538731923E+02 -0.30403977984E+02 -0.13682996205E+03  0.14492760028E+03  0.47000000000E+01 0. -1.
         -5    1    4    4    0  502 -0.33310614792E+02 -0.10779560866E+02 -0.17346857517E+03  0.17702890318E+03  0.47000000000E+01 0.  1.
<mgrwt>
<rscale>  0 0.96717175E+02</rscale>
<asrwt>0</asrwt>
<pdfrwt beam="1">  1        2 0.12790109E+00 0.98360802E+02</pdfrwt>
<pdfrwt beam="2">  1       -2 0.20154423E-02 0.98360802E+02</pdfrwt>
<totfact> 0.23745663E+04</totfact>
</mgrwt>
</event>
<event>
 8    1  0.8174053E-004  0.9535879E+02  0.7546771E-02  0.1290958E+00
         -1   -1    0    0    0  501 -0.00000000000E+00  0.00000000000E+00  0.60167892678E+02  0.60167892678E+02  0.00000000000E+00 0.  1.
          1   -1    0    0  501    0  0.00000000000E+00 -0.00000000000E+00 -0.17032312220E+03  0.17032312220E+03  0.00000000000E+00 0. -1.
         23    2    1    2    0    0  0.70787995406E+01  0.22392705570E+02 -0.95122762793E+02  0.13395462487E+03  0.91345272766E+02 0.  0.
         23    2    1    2    0    0 -0.70787995406E+01 -0.22392705570E+02 -0.15032466733E+02  0.96536390014E+02  0.92421625581E+02 0.  0.
          5    1    3    3  502    0 -0.25140258446E+02  0.18384651484E+02 -0.96104075682E+02  0.10113412563E+03  0.47000000000E+01 0. -1.
         -5    1    3    3    0  502  0.32219057986E+02  0.40080540863E+01  0.98131288895E+00  0.32820499235E+02  0.47000000000E+01 0.  1.
          5    1    4    4  503    0 -0.20207759988E+02  0.13573750931E+02 -0.42484886007E+02  0.49189997124E+02  0.47000000000E+01 0. -1.
         -5    1    4    4    0  503  0.13128960447E+02 -0.35966456500E+02  0.27452419274E+02  0.47346392889E+02  0.47000000000E+01 0.  1.
<mgrwt>
<rscale>  0 0.95097011E+02</rscale>
<asrwt>0</asrwt>
<pdfrwt beam="1">  1        1 0.26203557E-01 0.95358794E+02</pdfrwt>
<pdfrwt beam="2">  1       -1 0.92565988E-02 0.95358794E+02</pdfrwt>
<totfact> 0.11265505E+04</totfact>
</mgrwt>
</event>
<event>
 8    1  0.8174053E-004  0.1768849E+03  0.7546771E-02  0.1171622E+00
         -1   -1    0    0    0  501 -0.00000000000E+00  0.00000000000E+00  0.36089771291E+02  0.36089771291E+02  0.00000000000E+00 0.  1.
          1   -1    0    0  501    0  0.00000000000E+00 -0.00000000000E+00 -0.89162787909E+03  0.89162787909E+03  0.00000000000E+00 0. -1.
         23    2    1    2    0    0  0.74150928525E+02  0.12834181802E+03 -0.52923806926E+03  0.55801540878E+03  0.96531238637E+02 0.  0.
         23    2    1    2    0    0 -0.74150928525E+02 -0.12834181802E+03 -0.32630003854E+03  0.36970224160E+03  0.90763703295E+02 0.  0.
          5    1    4    4  502    0 -0.24365574332E+00 -0.39038234399E+02 -0.17321925312E+03  0.17762613199E+03  0.47000000000E+01 0. -1.
         -5    1    4    4    0  502 -0.73907272782E+02 -0.89303583626E+02 -0.15308078542E+03  0.19207610961E+03  0.47000000000E+01 0.  1.
          5    1    3    3  503    0  0.94715201989E+02  0.11339487120E+03 -0.48209125633E+03  0.50424541221E+03  0.47000000000E+01 0. -1.
         -5    1    3    3    0  503 -0.20564273464E+02  0.14946946825E+02 -0.47146812921E+02  0.53769996570E+02  0.47000000000E+01 0.  1.
<mgrwt>
<rscale>  0 0.17610973E+03</rscale>
<asrwt>0</asrwt>
<pdfrwt beam="1">  1        1 0.13717352E+00 0.17688488E+03</pdfrwt>
<pdfrwt beam="2">  1       -1 0.55522726E-02 0.17688488E+03</pdfrwt>
<totfact> 0.28849541E+03</totfact>
</mgrwt>
</event>
<event>
 8    1  0.8174053E-004  0.1336517E+03  0.7546771E-02  0.1222185E+00
          2   -1    0    0  501    0  0.00000000000E+00  0.00000000000E+00  0.10409279671E+03  0.10409279671E+03  0.00000000000E+00 0. -1.
         -2   -1    0    0    0  501 -0.00000000000E+00 -0.00000000000E+00 -0.20309971411E+03  0.20309971411E+03  0.00000000000E+00 0.  1.
         23    2    1    2    0    0  0.55609264089E+02  0.80651741906E+02 -0.11018084892E+03  0.17321259247E+03  0.90915834677E+02 0.  0.
         23    2    1    2    0    0 -0.55609264089E+02 -0.80651741906E+02  0.11173931514E+02  0.13397991835E+03  0.90712006105E+02 0.  0.
          5    1    4    4  502    0 -0.77653695276E+02 -0.70796830069E+02  0.21394589090E+02  0.10734107313E+03  0.47000000000E+01 0. -1.
         -5    1    3    3    0  503  0.54016472646E+02  0.35235664483E+02 -0.10991501875E+03  0.12752541988E+03  0.47000000000E+01 0.  1.
          5    1    3    3  503    0  0.15927914427E+01  0.45416077423E+02 -0.26583016886E+00  0.45687172584E+02  0.47000000000E+01 0. -1.
         -5    1    4    4    0  502  0.22044431187E+02 -0.98549118363E+01 -0.10220657576E+02  0.26638845226E+02  0.47000000000E+01 0.  1.
<mgrwt>
<rscale>  0 0.13361707E+03</rscale>
<asrwt>0</asrwt>
<pdfrwt beam="1">  1        2 0.16014277E-01 0.13365172E+03</pdfrwt>
<pdfrwt beam="2">  1       -2 0.31246109E-01 0.13365172E+03</pdfrwt>
<totfact> 0.32831695E+03</totfact>
</mgrwt>
</event>
<event>
 8    1  0.8174053E-004  0.9372384E+02  0.7546771E-02  0.1294600E+00
         -2   -1    0    0    0  501 -0.00000000000E+00  0.00000000000E+00  0.85459177756E+02  0.85459177756E+02  0.00000000000E+00 0.  1.
          2   -1    0    0  501    0  0.00000000000E+00 -0.00000000000E+00 -0.34820222832E+03  0.34820222832E+03  0.00000000000E+00 0. -1.
         23    2    1    2    0    0 -0.10918983120E+02  0.13363156840E+02  0.51218334818E+02  0.10600929051E+03  0.91196785580E+02 0.  0.
         23    2    1    2    0    0  0.10918983120E+02 -0.13363156840E+02 -0.31396138538E+03  0.32765211557E+03  0.92121437083E+02 0.  0.
          5    1    4    4  502    0  0.40591449294E+02 -0.32875263657E+02 -0.23740688528E+03  0.24313076296E+03  0.47000000000E+01 0. -1.
         -5    1    3    3    0  503  0.24753119834E+02  0.39464060780E+02  0.35875615643E+02  0.58985412031E+02  0.47000000000E+01 0.  1.
          5    1    3    3  503    0 -0.35672102953E+02 -0.26100903940E+02  0.15342719175E+02  0.47023878480E+02  0.47000000000E+01 0. -1.
         -5    1    4    4    0  502 -0.29672466174E+02  0.19512106817E+02 -0.76554500102E+02  0.84521352611E+02  0.47000000000E+01 0.  1.
<mgrwt>
<rscale>  0 0.93495833E+02</rscale>
<asrwt>0</asrwt>
<pdfrwt beam="1">  1        2 0.53569574E-01 0.93723835E+02</pdfrwt>
<pdfrwt beam="2">  1       -2 0.13147566E-01 0.93723835E+02</pdfrwt>
<totfact> 0.37451372E+03</totfact>
</mgrwt>
</event>
<event>
 8    1  0.8174053E-004  0.9221338E+02  0.7546771E-02  0.1298181E+00
         -3   -1    0    0    0  501 -0.00000000000E+00  0.00000000000E+00  0.19068363423E+03  0.19068363423E+03  0.00000000000E+00 0.  1.
          3   -1    0    0  501    0  0.00000000000E+00 -0.00000000000E+00 -0.44291314117E+02  0.44291314117E+02  0.00000000000E+00 0. -1.
         23    2    1    2    0    0 -0.65921095920E+01 -0.73714557083E+01  0.65906431574E+02  0.11334445348E+03  0.91681585635E+02 0.  0.
         23    2    1    2    0    0  0.65921095920E+01  0.73714557083E+01  0.80485888539E+02  0.12163049486E+03  0.90654314617E+02 0.  0.
          5    1    3    3  502    0 -0.30793304216E+02 -0.40246806276E+02  0.32488208337E+02  0.60378859552E+02  0.47000000000E+01 0. -1.
         -5    1    4    4    0  503 -0.47832355182E+01  0.36528328007E+02  0.22166336170E+01  0.37204859274E+02  0.47000000000E+01 0.  1.
          5    1    4    4  503    0  0.11375345110E+02 -0.29156872299E+02  0.78269254922E+02  0.84425635590E+02  0.47000000000E+01 0. -1.
         -5    1    3    3    0  502  0.24201194624E+02  0.32875350567E+02  0.33418223237E+02  0.52965593931E+02  0.47000000000E+01 0.  1.
<mgrwt>
<rscale>  0 0.91956992E+02</rscale>
<asrwt>0</asrwt>
<pdfrwt beam="1">  1        3 0.68140484E-02 0.92213380E+02</pdfrwt>
<pdfrwt beam="2">  1       -3 0.29335943E-01 0.92213380E+02</pdfrwt>
<totfact> 0.32778327E+03</totfact>
</mgrwt>
</event>
<event>
 8    1  0.8174053E-004  0.9574059E+02  0.7546771E-02  0.1290613E+00
          1   -1    0    0  501    0  0.00000000000E+00  0.00000000000E+00  0.35946427116E+03  0.35946427116E+03  0.00000000000E+00 0. -1.
         -1   -1    0    0    0  501 -0.00000000000E+00 -0.00000000000E+00 -0.20185535402E+03  0.20185535402E+03  0.00000000000E+00 0.  1.
         23    2    1    2    0    0 -0.24061831488E+02 -0.78901914458E+01 -0.18381086847E+03  0.20725032193E+03  0.92331109155E+02 0.  0.
         23    2    1    2    0    0  0.24061831488E+02  0.78901914458E+01  0.34141978561E+03  0.35406930326E+03  0.90312649430E+02 0.  0.
          5    1    4    4  502    0  0.15638680320E+02  0.34202907285E+02  0.30857177877E+03  0.31089072009E+03  0.47000000000E+01 0. -1.
         -5    1    4    4    0  502  0.84231511675E+01 -0.26312715839E+02  0.32848006842E+02  0.43178583163E+02  0.47000000000E+01 0.  1.
          5    1    3    3  503    0  0.14946378943E+02  0.26251133641E+02 -0.23091350183E+02  0.38312096187E+02  0.47000000000E+01 0. -1.
         -5    1    3    3    0  503 -0.39008210431E+02 -0.34141325087E+02 -0.16071951828E+03  0.16893822574E+03  0.47000000000E+01 0.  1.
<mgrwt>
<rscale>  0 0.95250576E+02</rscale>
<asrwt>0</asrwt>
<pdfrwt beam="1">  1        1 0.55302195E-01 0.95740590E+02</pdfrwt>
<pdfrwt beam="2">  1       -1 0.31054670E-01 0.95740590E+02</pdfrwt>
<totfact> 0.67023867E+02</totfact>
</mgrwt>
</event>
<event>
 8    1  0.8174053E-004  0.1043548E+03  0.7546771E-02  0.1272360E+00
          2   -1    0    0  501    0  0.00000000000E+00  0.00000000000E+00  0.70254355393E+03  0.70254355393E+03  0.00000000000E+00 0. -1.
         -2   -1    0    0    0  501 -0.00000000000E+00 -0.00000000000E+00 -0.18230192748E+02  0.18230192748E+02  0.00000000000E+00 0.  1.
         23    2    1    2    0    0 -0.51905268715E+02  0.16659883604E+01  0.19828996962E+03  0.22407328763E+03  0.90515157513E+02 0.  0.
         23    2    1    2    0    0  0.51905268715E+02 -0.16659883604E+01  0.48602339156E+03  0.49670045905E+03  0.88293127917E+02 0.  0.
          5    1    4    4  502    0  0.38534137726E+02  0.34827221153E+02  0.38219128209E+03  0.38573317360E+03  0.47000000000E+01 0. -1.
         -5    1    4    4    0  502  0.13371130989E+02 -0.36493209513E+02  0.10383210947E+03  0.11096728545E+03  0.47000000000E+01 0.  1.
          5    1    3    3  503    0 -0.24573086533E+02  0.14898213106E+02  0.19003847939E+03  0.19225635746E+03  0.47000000000E+01 0. -1.
         -5    1    3    3    0  503 -0.27332182182E+02 -0.13232224746E+02  0.82514902360E+01  0.31816930173E+02  0.47000000000E+01 0.  1.
<mgrwt>
<rscale>  0 0.10387111E+03</rscale>
<asrwt>0</asrwt>
<pdfrwt beam="1">  1        2 0.10808360E+00 0.10435481E+03</pdfrwt>
<pdfrwt beam="2">  1       -2 0.28046456E-02 0.10435481E+03</pdfrwt>
<totfact> 0.18131713E+04</totfact>
</mgrwt>
</event>
<event>
 8    1  0.8174053E-004  0.9343848E+02  0.7546771E-02  0.1296328E+00
         -1   -1    0    0    0  501 -0.00000000000E+00  0.00000000000E+00  0.10396180738E+02  0.10396180738E+02  0.00000000000E+00 0.  1.
          1   -1    0    0  501    0  0.00000000000E+00 -0.00000000000E+00 -0.85251423172E+03  0.85251423172E+03  0.00000000000E+00 0. -1.
         23    2    1    2    0    0  0.18126751173E+02 -0.16406720855E+02 -0.50502877907E+03  0.51311057373E+03  0.87353497872E+02 0.  0.
         23    2    1    2    0    0 -0.18126751173E+02  0.16406720855E+02 -0.33708927191E+03  0.34979983873E+03  0.90183093404E+02 0.  0.
          5    1    3    3  502    0  0.49606844109E+02  0.16915589926E+01 -0.21098410357E+03  0.21679502373E+03  0.47000000000E+01 0. -1.
         -5    1    3    3    0  502 -0.31480092935E+02 -0.18098279847E+02 -0.29404467550E+03  0.29631555000E+03  0.47000000000E+01 0.  1.
          5    1    4    4  503    0 -0.30478906017E+02  0.43546756090E+02 -0.28179001779E+03  0.28679781695E+03  0.47000000000E+01 0. -1.
         -5    1    4    4    0  503  0.12352154844E+02 -0.27140035235E+02 -0.55299254122E+02  0.63002021780E+02  0.47000000000E+01 0.  1.
<mgrwt>
<rscale>  0 0.92748888E+02</rscale>
<asrwt>0</asrwt>
<pdfrwt beam="1">  1        1 0.13115601E+00 0.93438482E+02</pdfrwt>
<pdfrwt beam="2">  1       -1 0.15994127E-02 0.93438482E+02</pdfrwt>
<totfact> 0.18285707E+04</totfact>
</mgrwt>
</event>
<event>
 8    1  0.8174053E-004  0.1000829E+03  0.7546771E-02  0.1280245E+00
          2   -1    0    0  501    0  0.00000000000E+00  0.00000000000E+00  0.61983514807E+03  0.61983514807E+03  0.00000000000E+00 0. -1.
         -2   -1    0    0    0  501 -0.00000000000E+00 -0.00000000000E+00 -0.16195920279E+02  0.16195920279E+02  0.00000000000E+00 0.  1.
         23    2    1    2    0    0  0.41352042165E+02 -0.20780640762E+01  0.32290473967E+03  0.33799005352E+03  0.90859758083E+02 0.  0.
         23    2    1    2    0    0 -0.41352042165E+02  0.20780640762E+01  0.28073448813E+03  0.29804101483E+03  0.91116869761E+02 0.  0.
          5    1    3    3  502    0  0.48853753972E+02  0.22695223574E+02  0.29389639630E+03  0.29882928941E+03  0.47000000000E+01 0. -1.
         -5    1    4    4    0  503 -0.17189011691E+02  0.44867323522E+02  0.10616395568E+03  0.11662510162E+03  0.47000000000E+01 0.  1.
          5    1    4    4  503    0 -0.24163030474E+02 -0.42789259446E+02  0.17457053245E+03  0.18141591321E+03  0.47000000000E+01 0. -1.
         -5    1    3    3    0  502 -0.75017118068E+01 -0.24773287650E+02  0.29008343364E+02  0.39160764111E+02  0.47000000000E+01 0.  1.
<mgrwt>
<rscale>  0 0.10002438E+03</rscale>
<asrwt>0</asrwt>
<pdfrwt beam="1">  1        2 0.95359235E-01 0.10008293E+03</pdfrwt>
<pdfrwt beam="2">  1       -2 0.24916805E-02 0.10008293E+03</pdfrwt>
<totfact> 0.24781197E+04</totfact>
</mgrwt>
</event>
<event>
 8    1  0.8174053E-004  0.9368751E+02  0.7546771E-02  0.1294287E+00
         -1   -1    0    0    0  501 -0.00000000000E+00  0.00000000000E+00  0.24783630107E+02  0.24783630107E+02  0.00000000000E+00 0.  1.
          1   -1    0    0  501    0  0.00000000000E+00 -0.00000000000E+00 -0.41387861177E+03  0.41387861177E+03  0.00000000000E+00 0. -1.
         23    2    1    2    0    0 -0.70142499068E+00 -0.16161349372E+02 -0.11045645736E+03  0.14469493496E+03  0.92056037379E+02 0.  0.
         23    2    1    2    0    0  0.70142499068E+00  0.16161349372E+02 -0.27863852430E+03  0.29396730692E+03  0.92280383096E+02 0.  0.
          5    1    3    3  502    0 -0.22627343126E+02 -0.33219974989E+02 -0.10923875231E+03  0.11649359812E+03  0.47000000000E+01 0. -1.
         -5    1    4    4    0  503 -0.83994262591E+01 -0.26335628717E+02 -0.21464344918E+03  0.21646712447E+03  0.47000000000E+01 0.  1.
          5    1    4    4  503    0  0.91008512497E+01  0.42496978089E+02 -0.63995075121E+02  0.77500182451E+02  0.47000000000E+01 0. -1.
         -5    1    3    3    0  502  0.21925918136E+02  0.17058625617E+02 -0.12177050531E+01  0.28201336841E+02  0.47000000000E+01 0.  1.
<mgrwt>
<rscale>  0 0.93632223E+02</rscale>
<asrwt>0</asrwt>
<pdfrwt beam="1">  1        1 0.63673633E-01 0.93687514E+02</pdfrwt>
<pdfrwt beam="2">  1       -1 0.38128661E-02 0.93687514E+02</pdfrwt>
<totfact> 0.13988756E+04</totfact>
</mgrwt>
</event>
<event>
 8    1  0.8174053E-004  0.9855106E+02  0.7546771E-02  0.1285031E+00
         -3   -1    0    0    0  501 -0.00000000000E+00  0.00000000000E+00  0.55815671237E+02  0.55815671237E+02  0.00000000000E+00 0.  1.
          3   -1    0    0  501    0  0.00000000000E+00 -0.00000000000E+00 -0.16868232520E+03  0.16868232520E+03  0.00000000000E+00 0. -1.
         23    2    1    2    0    0  0.69509123258E+00  0.29176003135E+02 -0.56166088805E+02  0.11079986655E+03  0.90940962083E+02 0.  0.
         23    2    1    2    0    0 -0.69509123258E+00 -0.29176003135E+02 -0.56700565157E+02  0.11369812989E+03  0.94130698182E+02 0.  0.
          5    1    3    3  502    0  0.38365104398E+02  0.29371978101E+02 -0.54235013222E+02  0.72788192670E+02  0.47000000000E+01 0. -1.
         -5    1    3    3    0  502 -0.37670013165E+02 -0.19597496609E+00 -0.19310755835E+01  0.38011673878E+02  0.47000000000E+01 0.  1.
          5    1    4    4  503    0 -0.82782345387E+00  0.22820334709E+02  0.12937081505E+02  0.26662915178E+02  0.47000000000E+01 0. -1.
         -5    1    4    4    0  503  0.13273222129E+00 -0.51996337845E+02 -0.69637646662E+02  0.87035214710E+02  0.47000000000E+01 0.  1.
<mgrwt>
<rscale>  0 0.97781593E+02</rscale>
<asrwt>0</asrwt>
<pdfrwt beam="1">  1        3 0.25951126E-01 0.98551056E+02</pdfrwt>
<pdfrwt beam="2">  1       -3 0.85870266E-02 0.98551056E+02</pdfrwt>
<totfact> 0.28617464E+03</totfact>
</mgrwt>
</event>
<event>
 8    1  0.8174053E-004  0.1019188E+03  0.7546771E-02  0.1276431E+00
          1   -1    0    0  501    0  0.00000000000E+00  0.00000000000E+00  0.93674492650E+02  0.93674492650E+02  0.00000000000E+00 0. -1.
         -1   -1    0    0    0  501 -0.00000000000E+00 -0.00000000000E+00 -0.14125028745E+03  0.14125028745E+03  0.00000000000E+00 0.  1.
         23    2    1    2    0    0  0.11491166363E+02 -0.43582215164E+02 -0.78494491518E+02  0.12864227138E+03  0.91411117510E+02 0.  0.
         23    2    1    2    0    0 -0.11491166363E+02  0.43582215164E+02  0.30918696716E+02  0.10628250872E+03  0.91151245031E+02 0.  0.
          5    1    4    4  502    0  0.15131002240E+02  0.38416375020E+02 -0.21714985180E+02  0.46887052369E+02  0.47000000000E+01 0. -1.
         -5    1    3    3    0  503  0.17286627152E+02 -0.68082420030E+02 -0.74880040507E+02  0.10277720497E+03  0.47000000000E+01 0.  1.
          5    1    3    3  503    0 -0.57954607893E+01  0.24500204867E+02 -0.36144510117E+01  0.25865066410E+02  0.47000000000E+01 0. -1.
         -5    1    4    4    0  502 -0.26622168603E+02  0.51658401436E+01  0.52633681896E+02  0.59395456353E+02  0.47000000000E+01 0.  1.
<mgrwt>
<rscale>  0 0.10186053E+03</rscale>
<asrwt>0</asrwt>
<pdfrwt beam="1">  1        1 0.14411460E-01 0.10191883E+03</pdfrwt>
<pdfrwt beam="2">  1       -1 0.21730813E-01 0.10191883E+03</pdfrwt>
<totfact> 0.64157632E+03</totfact>
</mgrwt>
</event>
<event>
 8    1  0.8174053E-004  0.9005373E+02  0.7546771E-02  0.1310103E+00
         -2   -1    0    0    0  501 -0.00000000000E+00  0.00000000000E+00  0.81849237381E+02  0.81849237381E+02  0.00000000000E+00 0.  1.
          2   -1    0    0  501    0  0.00000000000E+00 -0.00000000000E+00 -0.20726848168E+03  0.20726848168E+03  0.00000000000E+00 0. -1.
         23    2    1    2    0    0 -0.20291755196E+00 -0.91863214024E+01  0.49078671371E+02  0.92752762533E+02  0.78166036727E+02 0.  0.
         23    2    1    2    0    0  0.20291755196E+00  0.91863214024E+01 -0.17449791567E+03  0.19636495653E+03  0.89583725659E+02 0.  0.
          5    1    4    4  502    0 -0.29840044622E+02  0.13524420523E+02 -0.19630840729E+02  0.38481139813E+02  0.47000000000E+01 0. -1.
         -5    1    3    3    0  503 -0.33681795043E+02  0.14950188417E+02  0.22237901241E+02  0.43296486031E+02  0.47000000000E+01 0.  1.
          5    1    3    3  503    0  0.33478877491E+02 -0.24136509819E+02  0.26840770129E+02  0.49456276502E+02  0.47000000000E+01 0. -1.
         -5    1    4    4    0  502  0.30042962174E+02 -0.43380991210E+01 -0.15486707494E+03  0.15788381672E+03  0.47000000000E+01 0.  1.
<mgrwt>
<rscale>  0 0.87071457E+02</rscale>
<asrwt>0</asrwt>
<pdfrwt beam="1">  1        2 0.31887459E-01 0.90053726E+02</pdfrwt>
<pdfrwt beam="2">  1       -2 0.12592190E-01 0.90053726E+02</pdfrwt>
<totfact> 0.68996510E+03</totfact>
</mgrwt>
</event>
<event>
 8    1  0.8174053E-004  0.1650727E+03  0.7546771E-02  0.1183494E+00
         -2   -1    0    0    0  501 -0.00000000000E+00  0.00000000000E+00  0.20609241656E+02  0.20609241656E+02  0.00000000000E+00 0.  1.
          2   -1    0    0  501    0  0.00000000000E+00 -0.00000000000E+00 -0.17797510064E+04  0.17797510064E+04  0.00000000000E+00 0. -1.
         23    2    1    2    0    0  0.41427139128E+02  0.12908441858E+03 -0.13448911380E+04  0.13549838243E+04  0.94180656655E+02 0.  0.
         23    2    1    2    0    0 -0.41427139128E+02 -0.12908441858E+03 -0.41425062676E+03  0.44537642376E+03  0.91529132512E+02 0.  0.
          5    1    3    3  502    0  0.74875404402E+01  0.13042055904E+03 -0.10803457465E+04  0.10882254396E+04  0.47000000000E+01 0. -1.
         -5    1    3    3    0  502  0.33939598688E+02 -0.13361404650E+01 -0.26454539148E+03  0.26675838466E+03  0.47000000000E+01 0.  1.
          5    1    4    4  503    0 -0.32542061909E+02 -0.25937588213E+02 -0.23174716359E+03  0.23550070511E+03  0.47000000000E+01 0. -1.
         -5    1    4    4    0  503 -0.88850772192E+01 -0.10314683036E+03 -0.18250346317E+03  0.20987571865E+03  0.47000000000E+01 0.  1.
<mgrwt>
<rscale>  0 0.16469683E+03</rscale>
<asrwt>0</asrwt>
<pdfrwt beam="1">  1        2 0.27380794E+00 0.16507268E+03</pdfrwt>
<pdfrwt beam="2">  1       -2 0.31706515E-02 0.16507268E+03</pdfrwt>
<totfact> 0.37700263E+03</totfact>
</mgrwt>
</event>
<event>
 8    1  0.8174053E-004  0.9790614E+02  0.7546771E-02  0.1285960E+00
          1   -1    0    0  501    0  0.00000000000E+00  0.00000000000E+00  0.48446832379E+03  0.48446832379E+03  0.00000000000E+00 0. -1.
         -1   -1    0    0    0  501 -0.00000000000E+00 -0.00000000000E+00 -0.31959099688E+02  0.31959099688E+02  0.00000000000E+00 0.  1.
         23    2    1    2    0    0 -0.15032443730E+02  0.24352318713E+02  0.62496640097E+02  0.11431372291E+03  0.91338860470E+02 0.  0.
         23    2    1    2    0    0  0.15032443730E+02 -0.24352318713E+02  0.39001258401E+03  0.40211370057E+03  0.93630137820E+02 0.  0.
          5    1    3    3  502    0  0.17665882168E+02 -0.27739692250E+02  0.14940473587E+02  0.36426387000E+02  0.47000000000E+01 0. -1.
         -5    1    3    3    0  502 -0.32698325898E+02  0.52092010963E+02  0.47556166511E+02  0.77887335915E+02  0.47000000000E+01 0.  1.
          5    1    4    4  503    0  0.12976648268E+02  0.25785771797E+02  0.27489756097E+03  0.27644901602E+03  0.47000000000E+01 0. -1.
         -5    1    4    4    0  503  0.20557954616E+01 -0.50138090510E+02  0.11511502303E+03  0.12566468455E+03  0.47000000000E+01 0.  1.
<mgrwt>
<rscale>  0 0.97354277E+02</rscale>
<asrwt>0</asrwt>
<pdfrwt beam="1">  1        1 0.74533583E-01 0.97906141E+02</pdfrwt>
<pdfrwt beam="2">  1       -1 0.49167849E-02 0.97906141E+02</pdfrwt>
<totfact> 0.79410852E+03</totfact>
</mgrwt>
</event>
<event>
 8    1  0.8174053E-004  0.9444354E+02  0.7546771E-02  0.1293495E+00
         -1   -1    0    0    0  501 -0.00000000000E+00  0.00000000000E+00  0.28894647308E+02  0.28894647308E+02  0.00000000000E+00 0.  1.
          1   -1    0    0  501    0  0.00000000000E+00 -0.00000000000E+00 -0.30663735041E+03  0.30663735041E+03  0.00000000000E+00 0. -1.
         23    2    1    2    0    0 -0.95204045030E+01 -0.13903099537E+01 -0.12116750449E+03  0.15362664560E+03  0.93952174159E+02 0.  0.
         23    2    1    2    0    0  0.95204045030E+01  0.13903099537E+01 -0.15657519860E+03  0.18190535211E+03  0.92093394151E+02 0.  0.
          5    1    3    3  502    0 -0.35976269925E+02 -0.30556731640E+02 -0.94795647332E+02  0.10600146508E+03  0.47000000000E+01 0. -1.
         -5    1    4    4    0  503  0.13228146811E+02  0.40842382121E+02 -0.12089004763E+03  0.12837280733E+03  0.47000000000E+01 0.  1.
          5    1    4    4  503    0 -0.37077423085E+01 -0.39452072167E+02 -0.35685150976E+02  0.53532544788E+02  0.47000000000E+01 0. -1.
         -5    1    3    3    0  502  0.26455865422E+02  0.29166421687E+02 -0.26371857162E+02  0.47625180518E+02  0.47000000000E+01 0.  1.
<mgrwt>
<rscale>  0 0.93977878E+02</rscale>
<asrwt>0</asrwt>
<pdfrwt beam="1">  1        1 0.47174978E-01 0.94443539E+02</pdfrwt>
<pdfrwt beam="2">  1       -1 0.44453302E-02 0.94443539E+02</pdfrwt>
<totfact> 0.16211937E+04</totfact>
</mgrwt>
</event>
<event>
 8    1  0.8174053E-004  0.2269965E+03  0.7546771E-02  0.1129280E+00
          1   -1    0    0  501    0  0.00000000000E+00  0.00000000000E+00  0.76669237668E+03  0.76669237668E+03  0.00000000000E+00 0. -1.
         -1   -1    0    0    0  501 -0.00000000000E+00 -0.00000000000E+00 -0.71383682490E+02  0.71383682490E+02  0.00000000000E+00 0.  1.
         23    2    1    2    0    0  0.17499794448E+03  0.11160423999E+03  0.23868221458E+03  0.32938821011E+03  0.91910861397E+02 0.  0.
         23    2    1    2    0    0 -0.17499794448E+03 -0.11160423999E+03  0.45662647960E+03  0.50868784906E+03  0.84710087660E+02 0.  0.
          5    1    4    4  502    0 -0.32259911331E+02  0.57963311987E+01  0.34331382537E+02  0.47697307695E+02  0.47000000000E+01 0. -1.
         -5    1    3    3    0  503  0.82608693332E+02  0.27214116760E+02  0.43168239316E+02  0.97213122832E+02  0.47000000000E+01 0.  1.
          5    1    3    3  503    0  0.92389251150E+02  0.84390123227E+02  0.19551397527E+03  0.23217508727E+03  0.47000000000E+01 0. -1.
         -5    1    4    4    0  502 -0.14273803315E+03 -0.11740057119E+03  0.42229509707E+03  0.46099054136E+03  0.47000000000E+01 0.  1.
<mgrwt>
<rscale>  0 0.22628843E+03</rscale>
<asrwt>0</asrwt>
<pdfrwt beam="1">  1        1 0.11795267E+00 0.22699646E+03</pdfrwt>
<pdfrwt beam="2">  1       -1 0.10982106E-01 0.22699646E+03</pdfrwt>
<totfact> 0.12954536E+03</totfact>
</mgrwt>
</event>
<event>
 8    1  0.8174053E-004  0.1303254E+03  0.7546771E-02  0.1238846E+00
         -2   -1    0    0    0  501 -0.00000000000E+00  0.00000000000E+00  0.54319857718E+03  0.54319857718E+03  0.00000000000E+00 0.  1.
          2   -1    0    0  501    0  0.00000000000E+00 -0.00000000000E+00 -0.33444106988E+02  0.33444106988E+02  0.00000000000E+00 0. -1.
         23    2    1    2    0    0 -0.16236388075E+02 -0.45575831121E+02  0.37710118713E+03  0.39068137850E+03  0.89921396202E+02 0.  0.
         23    2    1    2    0    0  0.16236388075E+02  0.45575831121E+02  0.13265328306E+03  0.18596130566E+03  0.12101213582E+03 0.  0.
          5    1    3    3  502    0  0.19170327827E+02  0.19281811733E+02  0.11995171992E+03  0.12308450286E+03  0.47000000000E+01 0. -1.
         -5    1    4    4    0  503  0.50835226377E+02  0.32597739552E+02  0.13568141612E+03  0.14858791857E+03  0.47000000000E+01 0.  1.
          5    1    4    4  503    0 -0.34598838302E+02  0.12978091569E+02 -0.30281330638E+01  0.37373387088E+02  0.47000000000E+01 0. -1.
         -5    1    3    3    0  502 -0.35406715902E+02 -0.64857642854E+02  0.25714946721E+03  0.26759687564E+03  0.47000000000E+01 0.  1.
<mgrwt>
<rscale>  0 0.12261394E+03</rscale>
<asrwt>0</asrwt>
<pdfrwt beam="1">  1        2 0.51452477E-02 0.13032541E+03</pdfrwt>
<pdfrwt beam="2">  1       -2 0.83569005E-01 0.13032541E+03</pdfrwt>
<totfact> 0.18773163E+03</totfact>
</mgrwt>
</event>
<event>
 8    1  0.8174053E-004  0.2255968E+03  0.7546771E-02  0.1129985E+00
         -2   -1    0    0    0  501 -0.00000000000E+00  0.00000000000E+00  0.34034137557E+02  0.34034137557E+02  0.00000000000E+00 0.  1.
          2   -1    0    0  501    0  0.00000000000E+00 -0.00000000000E+00 -0.15087277639E+04  0.15087277639E+04  0.00000000000E+00 0. -1.
         23    2    1    2    0    0  0.13719309614E+03 -0.15227316697E+03 -0.83003808867E+03  0.86014948492E+03  0.94259454453E+02 0.  0.
         23    2    1    2    0    0 -0.13719309614E+03  0.15227316697E+03 -0.64465553768E+03  0.68261241655E+03  0.91487080818E+02 0.  0.
          5    1    3    3  502    0  0.14550555095E+03 -0.12166968800E+03 -0.75646103989E+03  0.77989151374E+03  0.47000000000E+01 0. -1.
         -5    1    3    3    0  502 -0.83124548163E+01 -0.30603478965E+02 -0.73577048785E+02  0.80257971178E+02  0.47000000000E+01 0.  1.
          5    1    4    4  503    0  0.41293126973E+01  0.44515449475E+02 -0.16702871498E+03  0.17297213097E+03  0.47000000000E+01 0. -1.
         -5    1    4    4    0  503 -0.14132240883E+03  0.10775771749E+03 -0.47762682270E+03  0.50964028558E+03  0.47000000000E+01 0.  1.
<mgrwt>
<rscale>  0 0.22531018E+03</rscale>
<asrwt>0</asrwt>
<pdfrwt beam="1">  1        2 0.23211193E+00 0.22559678E+03</pdfrwt>
<pdfrwt beam="2">  1       -2 0.52360219E-02 0.22559678E+03</pdfrwt>
<totfact> 0.24634012E+03</totfact>
</mgrwt>
</event>
<event>
 8    1  0.8174053E-004  0.1607963E+03  0.7546771E-02  0.1187855E+00
          1   -1    0    0  501    0  0.00000000000E+00  0.00000000000E+00  0.11551311042E+04  0.11551311042E+04  0.00000000000E+00 0. -1.
         -1   -1    0    0    0  501 -0.00000000000E+00 -0.00000000000E+00 -0.24427283526E+02  0.24427283526E+02  0.00000000000E+00 0.  1.
         23    2    1    2    0    0  0.11738191006E+03  0.60310505685E+02  0.73738789111E+03  0.75471607440E+03  0.91867192694E+02 0.  0.
         23    2    1    2    0    0 -0.11738191006E+03 -0.60310505685E+02  0.39331592955E+03  0.42484231331E+03  0.91529781153E+02 0.  0.
          5    1    3    3  502    0  0.90323280671E+02  0.83368946411E+02  0.61509300014E+03  0.62727200247E+03  0.47000000000E+01 0. -1.
         -5    1    4    4    0  503 -0.46749154340E+02 -0.60014845793E+02  0.11725930688E+03  0.13985385299E+03  0.47000000000E+01 0.  1.
          5    1    4    4  503    0 -0.70632755723E+02 -0.29565989268E+00  0.27605662267E+03  0.28498846032E+03  0.47000000000E+01 0. -1.
         -5    1    3    3    0  502  0.27058629392E+02 -0.23058440725E+02  0.12229489097E+03  0.12744407194E+03  0.47000000000E+01 0.  1.
<mgrwt>
<rscale>  0 0.16074815E+03</rscale>
<asrwt>0</asrwt>
<pdfrwt beam="1">  1        1 0.17771244E+00 0.16079630E+03</pdfrwt>
<pdfrwt beam="2">  1       -1 0.37580445E-02 0.16079630E+03</pdfrwt>
<totfact> 0.32911051E+03</totfact>
</mgrwt>
</event>
<event>
 8    1  0.8174053E-004  0.1031126E+03  0.7546771E-02  0.1276437E+00
          1   -1    0    0  501    0  0.00000000000E+00  0.00000000000E+00  0.14362430229E+02  0.14362430229E+02  0.00000000000E+00 0. -1.
         -1   -1    0    0    0  501 -0.00000000000E+00 -0.00000000000E+00 -0.75671362062E+03  0.75671362062E+03  0.00000000000E+00 0.  1.
         23    2    1    2    0    0  0.18294851202E+02 -0.30360075254E+02 -0.27919718876E+03  0.29762942645E+03  0.96828557383E+02 0.  0.
         23    2    1    2    0    0 -0.18294851202E+02  0.30360075254E+02 -0.46315400163E+03  0.47344662440E+03  0.91562225739E+02 0.  0.
          5    1    3    3  502    0 -0.38258491509E+02 -0.23526091089E+02 -0.14180650492E+03  0.14882326421E+03  0.47000000000E+01 0. -1.
         -5    1    3    3    0  502  0.56553342710E+02 -0.68339841644E+01 -0.13739068384E+03  0.14880616223E+03  0.47000000000E+01 0.  1.
          5    1    4    4  503    0  0.14635796496E+02 -0.26500075687E+02 -0.10926741769E+03  0.11348091963E+03  0.47000000000E+01 0. -1.
         -5    1    4    4    0  503 -0.32930647697E+02  0.56860150940E+02 -0.35388658394E+03  0.35996570477E+03  0.47000000000E+01 0.  1.
<mgrwt>
<rscale>  0 0.10185769E+03</rscale>
<asrwt>0</asrwt>
<pdfrwt beam="1">  1        1 0.22096053E-02 0.10311259E+03</pdfrwt>
<pdfrwt beam="2">  1       -1 0.11641745E+00 0.10311259E+03</pdfrwt>
<totfact> 0.35167789E+03</totfact>
</mgrwt>
</event>
<event>
 7    1  0.8174053E-004  0.1028230E+03  0.7546771E-02  0.1292657E+00
         -1   -1    0    0    0  501 -0.00000000000E+00  0.00000000000E+00  0.13438358253E+02  0.13438358253E+02  0.00000000000E+00 0.  1.
          1   -1    0    0  501    0  0.00000000000E+00 -0.00000000000E+00 -0.69932467625E+03  0.69932467625E+03  0.00000000000E+00 0. -1.
         23    2    1    2    0    0  0.48604018713E+02  0.13224824463E+02 -0.24207540808E+03  0.26300775493E+03  0.89639998541E+02 0.  0.
          5    1    1    2  502    0 -0.30124973208E+02 -0.33028981744E+02 -0.29869430861E+03  0.30205762305E+03  0.47000000000E+01 0. -1.
         -5    1    3    3    0  503  0.70098712631E+02  0.11315994466E+02 -0.12472904945E+03  0.14360120829E+03  0.47000000000E+01 0.  1.
          5    1    3    3  503    0 -0.21494693918E+02  0.19088299969E+01 -0.11734635862E+03  0.11940654664E+03  0.47000000000E+01 0. -1.
         -5    1    1    2    0  502 -0.18479045504E+02  0.19804157281E+02 -0.14511660130E+03  0.14769765652E+03  0.47000000000E+01 0.  1.
<mgrwt>
<rscale>  0 0.94345648E+02</rscale>
<asrwt>0</asrwt>
<pdfrwt beam="1">  1        1 0.10758838E+00 0.10282303E+03</pdfrwt>
<pdfrwt beam="2">  1       -1 0.20674404E-02 0.10282303E+03</pdfrwt>
<totfact> 0.17092971E+04</totfact>
</mgrwt>
</event>
<event>
 8    1  0.1154721E-003  0.9451821E+02  0.7546771E-02  0.1292604E+00
          1   -1    0    0  501    0  0.00000000000E+00  0.00000000000E+00  0.22573055956E+03  0.22573055956E+03  0.00000000000E+00 0. -1.
         -1   -1    0    0    0  501 -0.00000000000E+00 -0.00000000000E+00 -0.97840988331E+02  0.97840988331E+02  0.00000000000E+00 0.  1.
         23    2    1    2    0    0 -0.16832115126E+02 -0.11047654658E+02  0.18914016406E+03  0.21144194037E+03  0.92348912908E+02 0.  0.
         23    2    1    2    0    0  0.16832115126E+02  0.11047654658E+02 -0.61250592830E+02  0.11212960752E+03  0.91738993818E+02 0.  0.
          5    1    4    4  502    0 -0.28986997964E+02  0.19105725454E+02  0.46636182631E-01  0.35033797554E+02  0.47000000000E+01 0. -1.
         -5    1    3    3    0  503  0.38006842991E+02  0.80753928483E-01  0.72777377933E+02  0.82238454351E+02  0.47000000000E+01 0.  1.
          5    1    3    3  503    0 -0.54838958117E+02 -0.11128408586E+02  0.11636278612E+03  0.12920348602E+03  0.47000000000E+01 0. -1.
         -5    1    4    4    0  502  0.45819113089E+02 -0.80580707964E+01 -0.61297229013E+02  0.77095809964E+02  0.47000000000E+01 0.  1.
<mgrwt>
<rscale>  0 0.94368901E+02</rscale>
<asrwt>0</asrwt>
<pdfrwt beam="1">  1        1 0.34727778E-01 0.94518212E+02</pdfrwt>
<pdfrwt beam="2">  1       -1 0.15052460E-01 0.94518212E+02</pdfrwt>
<totfact> 0.37885607E+03</totfact>
</mgrwt>
</event>
<event>
 8    1  0.8174053E-004  0.1111714E+03  0.7546771E-02  0.1259147E+00
         -2   -1    0    0    0  501 -0.00000000000E+00  0.00000000000E+00  0.60694215719E+02  0.60694215719E+02  0.00000000000E+00 0.  1.
          2   -1    0    0  501    0  0.00000000000E+00 -0.00000000000E+00 -0.37515397539E+03  0.37515397539E+03  0.00000000000E+00 0. -1.
         23    2    1    2    0    0 -0.59164702346E+02 -0.13816111161E+02 -0.92423327572E+01  0.11155493437E+03  0.93100675276E+02 0.  0.
         23    2    1    2    0    0  0.59164702346E+02  0.13816111161E+02 -0.30521742691E+03  0.32429325674E+03  0.91198090665E+02 0.  0.
          5    1    3    3  502    0  0.12139859034E+02 -0.33243962747E+02 -0.11377513674E+02  0.37470989497E+02  0.47000000000E+01 0. -1.
         -5    1    3    3    0  502 -0.71304561381E+02  0.19427851585E+02  0.21351809167E+01  0.74083944876E+02  0.47000000000E+01 0.  1.
          5    1    4    4  503    0  0.59856519619E+02  0.46479587016E+02 -0.22821459437E+03  0.24051433644E+03  0.47000000000E+01 0. -1.
         -5    1    4    4    0  503 -0.69181727245E+00 -0.32663475854E+02 -0.77002832549E+02  0.83778920299E+02  0.47000000000E+01 0.  1.
<mgrwt>
<rscale>  0 0.11077217E+03</rscale>
<asrwt>0</asrwt>
<pdfrwt beam="1">  1        2 0.57715995E-01 0.11117141E+03</pdfrwt>
<pdfrwt beam="2">  1       -2 0.93375718E-02 0.11117141E+03</pdfrwt>
<totfact> 0.59962257E+03</totfact>
</mgrwt>
</event>
<event>
 8    1  0.8174053E-004  0.9273449E+02  0.7546771E-02  0.1296514E+00
         -2   -1    0    0    0  501 -0.00000000000E+00  0.00000000000E+00  0.13263126915E+03  0.13263126915E+03  0.00000000000E+00 0.  1.
          2   -1    0    0  501    0  0.00000000000E+00 -0.00000000000E+00 -0.94714173369E+02  0.94714173369E+02  0.00000000000E+00 0. -1.
         23    2    1    2    0    0  0.44729124121E+01  0.23714100232E+02  0.82976451273E+02  0.12424340065E+03  0.89269063190E+02 0.  0.
         23    2    1    2    0    0 -0.44729124121E+01 -0.23714100232E+02 -0.45059355495E+02  0.10310204187E+03  0.89539488636E+02 0.  0.
          5    1    4    4  502    0 -0.22621580796E+02 -0.46495387877E+02 -0.33698084302E+01  0.52028863340E+02  0.47000000000E+01 0. -1.
         -5    1    4    4    0  502  0.18148668384E+02  0.22781287645E+02 -0.41689547065E+02  0.51073178532E+02  0.47000000000E+01 0.  1.
          5    1    3    3  503    0  0.12928184669E+02 -0.32112050637E+02  0.40149529289E+02  0.53220263595E+02  0.47000000000E+01 0. -1.
         -5    1    3    3    0  503 -0.84552722570E+01  0.55826150870E+02  0.42826921984E+02  0.71023137051E+02  0.47000000000E+01 0.  1.
<mgrwt>
<rscale>  0 0.92669150E+02</rscale>
<asrwt>0</asrwt>
<pdfrwt beam="1">  1        2 0.14571411E-01 0.92734489E+02</pdfrwt>
<pdfrwt beam="2">  1       -2 0.20404811E-01 0.92734489E+02</pdfrwt>
<totfact> 0.74994019E+03</totfact>
</mgrwt>
</event>
<event>
 8    1  0.8174053E-004  0.1217568E+03  0.7546771E-02  0.1240455E+00
          2   -1    0    0  501    0  0.00000000000E+00  0.00000000000E+00  0.25075536744E+03  0.25075536744E+03  0.00000000000E+00 0. -1.
         -2   -1    0    0    0  501 -0.00000000000E+00 -0.00000000000E+00 -0.78468502450E+02  0.78468502450E+02  0.00000000000E+00 0.  1.
         23    2    1    2    0    0  0.57320573564E+02  0.51984963729E+02  0.16860813570E+03  0.20797457918E+03  0.94003391172E+02 0.  0.
         23    2    1    2    0    0 -0.57320573564E+02 -0.51984963729E+02  0.36787292902E+01  0.12124929071E+03  0.93272572826E+02 0.  0.
          5    1    3    3  502    0  0.48492239361E+02  0.14071351612E+02  0.20388242051E+02  0.54655929490E+02  0.47000000000E+01 0. -1.
         -5    1    4    4    0  503 -0.81534707649E+02 -0.46595157426E+02 -0.59792237623E+01  0.94217081061E+02  0.47000000000E+01 0.  1.
          5    1    4    4  503    0  0.24214134085E+02 -0.53898063028E+01  0.96579530525E+01  0.27032209651E+02  0.47000000000E+01 0. -1.
         -5    1    3    3    0  502  0.88283342025E+01  0.37913612117E+02  0.14821989365E+03  0.15331864969E+03  0.47000000000E+01 0.  1.
<mgrwt>
<rscale>  0 0.12161573E+03</rscale>
<asrwt>0</asrwt>
<pdfrwt beam="1">  1        2 0.38577748E-01 0.12175682E+03</pdfrwt>
<pdfrwt beam="2">  1       -2 0.12072077E-01 0.12175682E+03</pdfrwt>
<totfact> 0.61608629E+03</totfact>
</mgrwt>
</event>
<event>
 8    1  0.8174053E-004  0.1126116E+03  0.7546771E-02  0.1258696E+00
         -1   -1    0    0    0  501 -0.00000000000E+00  0.00000000000E+00  0.39642887925E+02  0.39642887925E+02  0.00000000000E+00 0.  1.
          1   -1    0    0  501    0  0.00000000000E+00 -0.00000000000E+00 -0.30365310423E+03  0.30365310423E+03  0.00000000000E+00 0. -1.
         23    2    1    2    0    0 -0.60344923005E+01  0.56876576717E+02 -0.14671911906E+03  0.18495367509E+03  0.97005164570E+02 0.  0.
         23    2    1    2    0    0  0.60344923005E+01 -0.56876576717E+02 -0.11729109724E+03  0.15834231707E+03  0.89686831841E+02 0.  0.
          5    1    3    3  502    0  0.41007069002E+01 -0.24561470453E+02 -0.14305627629E+02  0.29100216661E+02  0.47000000000E+01 0. -1.
         -5    1    3    3    0  502 -0.10135199201E+02  0.81438047170E+02 -0.13241349143E+03  0.15585345843E+03  0.47000000000E+01 0.  1.
          5    1    4    4  503    0  0.17700144658E+02 -0.26224977093E+02 -0.12085816638E+03  0.12501932220E+03  0.47000000000E+01 0. -1.
         -5    1    4    4    0  503 -0.11665652358E+02 -0.30651599625E+02  0.35670691349E+01  0.33322994864E+02  0.47000000000E+01 0.  1.
<mgrwt>
<rscale>  0 0.11101827E+03</rscale>
<asrwt>0</asrwt>
<pdfrwt beam="1">  1        1 0.46715861E-01 0.11261155E+03</pdfrwt>
<pdfrwt beam="2">  1       -1 0.60989060E-02 0.11261155E+03</pdfrwt>
<totfact> 0.10470104E+04</totfact>
</mgrwt>
</event>
<event>
 8    1  0.8174053E-004  0.1008924E+03  0.7546771E-02  0.1279217E+00
         -1   -1    0    0    0  501 -0.00000000000E+00  0.00000000000E+00  0.14492530104E+03  0.14492530104E+03  0.00000000000E+00 0.  1.
          1   -1    0    0  501    0  0.00000000000E+00 -0.00000000000E+00 -0.10793299123E+03  0.10793299123E+03  0.00000000000E+00 0. -1.
         23    2    1    2    0    0  0.33365588504E+02  0.28618170527E+02 -0.57332811158E+02  0.11474058166E+03  0.89140830515E+02 0.  0.
         23    2    1    2    0    0 -0.33365588504E+02 -0.28618170527E+02  0.94325120965E+02  0.13811771060E+03  0.90813057191E+02 0.  0.
          5    1    3    3  502    0  0.37248063524E+02  0.24890567264E+01 -0.74097215756E+02  0.83102954354E+02  0.47000000000E+01 0. -1.
         -5    1    4    4    0  503 -0.41845797851E+01 -0.58440969189E+02  0.58393555944E+02  0.82853816831E+02  0.47000000000E+01 0.  1.
          5    1    4    4  503    0 -0.29181008719E+02  0.29822798662E+02  0.35931565021E+02  0.55263893771E+02  0.47000000000E+01 0. -1.
         -5    1    3    3    0  502 -0.38824750199E+01  0.26129113801E+02  0.16764404598E+02  0.31637627310E+02  0.47000000000E+01 0.  1.
<mgrwt>
<rscale>  0 0.10051465E+03</rscale>
<asrwt>0</asrwt>
<pdfrwt beam="1">  1        1 0.16605075E-01 0.10089239E+03</pdfrwt>
<pdfrwt beam="2">  1       -1 0.22296200E-01 0.10089239E+03</pdfrwt>
<totfact> 0.51307458E+03</totfact>
</mgrwt>
</event>
<event>
 8    1  0.8174053E-004  0.1052052E+03  0.7546771E-02  0.1270132E+00
         -1   -1    0    0    0  501 -0.00000000000E+00  0.00000000000E+00  0.50952452044E+02  0.50952452044E+02  0.00000000000E+00 0.  1.
          1   -1    0    0  501    0  0.00000000000E+00 -0.00000000000E+00 -0.24905812186E+03  0.24905812186E+03  0.00000000000E+00 0. -1.
         23    2    1    2    0    0  0.40386889851E+02  0.37521450097E+02 -0.15378094539E+03  0.18584921055E+03  0.88613711177E+02 0.  0.
         23    2    1    2    0    0 -0.40386889851E+02 -0.37521450097E+02 -0.44324724423E+02  0.11416136335E+03  0.89605667217E+02 0.  0.
          5    1    3    3  502    0  0.48608248031E+02 -0.51177255237E+01 -0.37955282446E+02  0.62061633533E+02  0.47000000000E+01 0. -1.
         -5    1    4    4    0  503 -0.57229564373E+02  0.55286406124E+01 -0.32507210888E+02  0.66216294559E+02  0.47000000000E+01 0.  1.
          5    1    4    4  503    0  0.16842674523E+02 -0.43050090710E+02 -0.11817513535E+02  0.47945068791E+02  0.47000000000E+01 0. -1.
         -5    1    3    3    0  502 -0.82213581802E+01  0.42639175621E+02 -0.11582566295E+03  0.12378757702E+03  0.47000000000E+01 0.  1.
<mgrwt>
<rscale>  0 0.10499368E+03</rscale>
<asrwt>0</asrwt>
<pdfrwt beam="1">  1        1 0.38316634E-01 0.10520521E+03</pdfrwt>
<pdfrwt beam="2">  1       -1 0.78388388E-02 0.10520521E+03</pdfrwt>
<totfact> 0.91363847E+03</totfact>
</mgrwt>
</event>
<event>
 8    1  0.8174053E-004  0.1336303E+03  0.7546771E-02  0.1222699E+00
         -3   -1    0    0    0  501 -0.00000000000E+00  0.00000000000E+00  0.42348551161E+03  0.42348551161E+03  0.00000000000E+00 0.  1.
          3   -1    0    0  501    0  0.00000000000E+00 -0.00000000000E+00 -0.44415489990E+02  0.44415489990E+02  0.00000000000E+00 0. -1.
         23    2    1    2    0    0  0.76200453268E+01 -0.93580244596E+02  0.24836312819E+03  0.28203069276E+03  0.95088069438E+02 0.  0.
         23    2    1    2    0    0 -0.76200453268E+01  0.93580244596E+02  0.13070689344E+03  0.18587030884E+03  0.92995443148E+02 0.  0.
          5    1    4    4  502    0 -0.30709986320E+02  0.99762483371E+02  0.12040356992E+03  0.15942009283E+03  0.47000000000E+01 0. -1.
         -5    1    4    4    0  502  0.23089940993E+02 -0.61822387752E+01  0.10303323511E+02  0.26450216005E+02  0.47000000000E+01 0.  1.
          5    1    3    3  503    0 -0.32848403697E+02 -0.60863611366E+02  0.19667210324E+03  0.20853153960E+03  0.47000000000E+01 0.  1.
         -5    1    3    3    0  503  0.40468449023E+02 -0.32716633230E+02  0.51691024944E+02  0.73499153165E+02  0.47000000000E+01 0. -1.
<mgrwt>
<rscale>  0 0.13325857E+03</rscale>
<asrwt>0</asrwt>
<pdfrwt beam="1">  1        3 0.68331526E-02 0.13363034E+03</pdfrwt>
<pdfrwt beam="2">  1       -3 0.65151614E-01 0.13363034E+03</pdfrwt>
<totfact> 0.73738835E+02</totfact>
</mgrwt>
</event>
<event>
 8    1  0.1309210E-003  0.1387961E+03  0.7546771E-02  0.1216929E+00
         -2   -1    0    0    0  501 -0.00000000000E+00  0.00000000000E+00  0.73834944945E+02  0.73834944945E+02  0.00000000000E+00 0.  1.
          2   -1    0    0  501    0  0.00000000000E+00 -0.00000000000E+00 -0.10269084743E+04  0.10269084743E+04  0.00000000000E+00 0. -1.
         23    2    1    2    0    0 -0.39309034528E+02 -0.88250444396E+02 -0.95268960911E+03  0.96194674531E+03  0.91600809869E+02 0.  0.
         23    2    1    2    0    0  0.39309034528E+02  0.88250444396E+02 -0.38392025524E+00  0.13879667395E+03  0.99654544166E+02 0.  0.
          5    1    3    3  502    0 -0.59772024770E+02 -0.88654238986E+02 -0.87303091006E+03  0.87956655743E+03  0.47000000000E+01 0. -1.
         -5    1    3    3    0  502  0.20462990242E+02  0.40379458984E+00 -0.79658699052E+02  0.82380187875E+02  0.47000000000E+01 0.  1.
          5    1    4    4  503    0  0.44677183731E+02  0.14478864492E+01  0.20238241374E+02  0.49293240259E+02  0.47000000000E+01 0. -1.
         -5    1    4    4    0  503 -0.53681492034E+01  0.86802557947E+02 -0.20622161629E+02  0.89503433690E+02  0.47000000000E+01 0.  1.
<mgrwt>
<rscale>  0 0.13735783E+03</rscale>
<asrwt>0</asrwt>
<pdfrwt beam="1">  1        2 0.15798593E+00 0.13879614E+03</pdfrwt>
<pdfrwt beam="2">  1       -2 0.11359222E-01 0.13879614E+03</pdfrwt>
<totfact> 0.13667195E+03</totfact>
</mgrwt>
</event>
<event>
 8    1  0.8174053E-004  0.9234064E+02  0.7546771E-02  0.1297385E+00
          1   -1    0    0  501    0  0.00000000000E+00  0.00000000000E+00  0.72840478096E+03  0.72840478096E+03  0.00000000000E+00 0. -1.
         -1   -1    0    0    0  501 -0.00000000000E+00 -0.00000000000E+00 -0.13602148630E+02  0.13602148630E+02  0.00000000000E+00 0.  1.
         23    2    1    2    0    0  0.12247667274E+02  0.20433051117E+02  0.49704035150E+03  0.50554515561E+03  0.89214788066E+02 0.  0.
         23    2    1    2    0    0 -0.12247667274E+02 -0.20433051117E+02  0.21776228083E+03  0.23646177398E+03  0.89029459563E+02 0.  0.
          5    1    4    4  502    0 -0.36144645304E+02  0.21604962002E+02  0.82607657671E+02  0.92840319222E+02  0.47000000000E+01 0. -1.
         -5    1    3    3    0  503 -0.32695838653E+02 -0.60758613492E+01  0.29168479071E+03  0.29361205882E+03  0.47000000000E+01 0.  1.
          5    1    3    3  503    0  0.44943505927E+02  0.26508912466E+02  0.20535556079E+03  0.21193309678E+03  0.47000000000E+01 0. -1.
         -5    1    4    4    0  502  0.23896978030E+02 -0.42038013119E+02  0.13515462316E+03  0.14362145476E+03  0.47000000000E+01 0.  1.
<mgrwt>
<rscale>  0 0.92295844E+02</rscale>
<asrwt>0</asrwt>
<pdfrwt beam="1">  1        1 0.11206224E+00 0.92340638E+02</pdfrwt>
<pdfrwt beam="2">  1       -1 0.20926388E-02 0.92340638E+02</pdfrwt>
<totfact> 0.15706995E+04</totfact>
</mgrwt>
</event>
<event>
 8    1  0.8174053E-004  0.1050137E+03  0.7546771E-02  0.1270738E+00
          1   -1    0    0  501    0  0.00000000000E+00  0.00000000000E+00  0.12655353186E+02  0.12655353186E+02  0.00000000000E+00 0. -1.
         -1   -1    0    0    0  501 -0.00000000000E+00 -0.00000000000E+00 -0.94826574900E+03  0.94826574900E+03  0.00000000000E+00 0.  1.
         23    2    1    2    0    0  0.62649918089E+01  0.45577149077E+02 -0.61120871381E+03  0.61994556047E+03  0.92950951941E+02 0.  0.
         23    2    1    2    0    0 -0.62649918089E+01 -0.45577149077E+02 -0.32440168201E+03  0.34097554172E+03  0.94399905310E+02 0.  0.
          5    1    3    3  502    0  0.11112254095E+02 -0.27640917968E+02 -0.18401547885E+03  0.18647061161E+03  0.47000000000E+01 0. -1.
         -5    1    3    3    0  502 -0.48472622859E+01  0.73218067045E+02 -0.42719323496E+03  0.43347494886E+03  0.47000000000E+01 0.  1.
          5    1    4    4  503    0 -0.30266051332E+02 -0.35474594213E+02 -0.64496732592E+02  0.79727029374E+02  0.47000000000E+01 0. -1.
         -5    1    4    4    0  503  0.24001059523E+02 -0.10102554864E+02 -0.25990494942E+03  0.26124851235E+03  0.47000000000E+01 0.  1.
<mgrwt>
<rscale>  0 0.10468700E+03</rscale>
<asrwt>0</asrwt>
<pdfrwt beam="1">  1        1 0.19469772E-02 0.10501366E+03</pdfrwt>
<pdfrwt beam="2">  1       -1 0.14588706E+00 0.10501366E+03</pdfrwt>
<totfact> 0.24306854E+03</totfact>
</mgrwt>
</event>
<event>
 8    1  0.8174053E-004  0.1093207E+03  0.7546771E-02  0.1262584E+00
         -1   -1    0    0    0  501 -0.00000000000E+00  0.00000000000E+00  0.10488142403E+03  0.10488142403E+03  0.00000000000E+00 0.  1.
          1   -1    0    0  501    0  0.00000000000E+00 -0.00000000000E+00 -0.11531880492E+03  0.11531880492E+03  0.00000000000E+00 0. -1.
         23    2    1    2    0    0  0.44687180704E+02  0.38908062470E+02  0.12660115009E+02  0.10846615008E+03  0.89965803268E+02 0.  0.
         23    2    1    2    0    0 -0.44687180704E+02 -0.38908062470E+02 -0.23097495908E+02  0.11173407887E+03  0.91870716870E+02 0.  0.
          5    1    3    3  502    0 -0.84172380690E+01 -0.18217671154E+02  0.21555212036E+02  0.29823658476E+02  0.47000000000E+01 0. -1.
         -5    1    4    4    0  503 -0.23387240477E+02  0.16903854711E+02  0.22122636433E+02  0.36663392696E+02  0.47000000000E+01 0.  1.
          5    1    4    4  503    0 -0.21299940227E+02 -0.55811917180E+02 -0.45220132341E+02  0.75070686170E+02  0.47000000000E+01 0. -1.
         -5    1    3    3    0  502  0.53104418773E+02  0.57125733624E+02 -0.88950970265E+01  0.78642491609E+02  0.47000000000E+01 0.  1.
<mgrwt>
<rscale>  0 0.10891950E+03</rscale>
<asrwt>0</asrwt>
<pdfrwt beam="1">  1        1 0.17741354E-01 0.10932068E+03</pdfrwt>
<pdfrwt beam="2">  1       -1 0.16135604E-01 0.10932068E+03</pdfrwt>
<totfact> 0.79291099E+03</totfact>
</mgrwt>
</event>
<event>
 8    1  0.8174053E-004  0.9203152E+02  0.7546771E-02  0.1302359E+00
         -1   -1    0    0    0  501 -0.00000000000E+00  0.00000000000E+00  0.20165829308E+03  0.20165829308E+03  0.00000000000E+00 0.  1.
          1   -1    0    0  501    0  0.00000000000E+00 -0.00000000000E+00 -0.40667984353E+02  0.40667984353E+02  0.00000000000E+00 0. -1.
         23    2    1    2    0    0  0.26346898116E+00  0.42375963268E+01  0.57800573811E+02  0.10867707690E+03  0.91933530723E+02 0.  0.
         23    2    1    2    0    0 -0.26346898116E+00 -0.42375963268E+01  0.10318973491E+03  0.13364920053E+03  0.84829009033E+02 0.  0.
          5    1    3    3  502    0 -0.20957975792E+02 -0.38466456029E+02  0.25771354353E+02  0.51040745429E+02  0.47000000000E+01 0. -1.
         -5    1    3    3    0  502  0.21221444773E+02  0.42704052356E+02  0.32029219458E+02  0.57636331467E+02  0.47000000000E+01 0.  1.
          5    1    4    4  503    0 -0.30171037521E+02 -0.14492098562E+02  0.94737722191E+02  0.10058647241E+03  0.47000000000E+01 0. -1.
         -5    1    4    4    0  503  0.29907568539E+02  0.10254502235E+02  0.84520127224E+01  0.33062728125E+02  0.47000000000E+01 0.  1.
<mgrwt>
<rscale>  0 0.90203704E+02</rscale>
<asrwt>0</asrwt>
<pdfrwt beam="1">  1        1 0.62566131E-02 0.92031520E+02</pdfrwt>
<pdfrwt beam="2">  1       -1 0.31024352E-01 0.92031520E+02</pdfrwt>
<totfact> 0.10638312E+04</totfact>
</mgrwt>
</event>
<event>
 8    1  0.8174053E-004  0.1055748E+03  0.7546771E-02  0.1270652E+00
          2   -1    0    0  501    0  0.00000000000E+00  0.00000000000E+00  0.62897727441E+03  0.62897727441E+03  0.00000000000E+00 0. -1.
         -2   -1    0    0    0  501 -0.00000000000E+00 -0.00000000000E+00 -0.17751015388E+02  0.17751015388E+02  0.00000000000E+00 0.  1.
         23    2    1    2    0    0  0.44616544846E+02  0.18295472566E+02  0.35960350742E+03  0.37385462060E+03  0.90151175272E+02 0.  0.
         23    2    1    2    0    0 -0.44616544846E+02 -0.18295472566E+02  0.25162275160E+03  0.27287366920E+03  0.93918421134E+02 0.  0.
          5    1    3    3  502    0 -0.80732042057E+01  0.30794043128E+02  0.24396706073E+03  0.24608020327E+03  0.47000000000E+01 0. -1.
         -5    1    3    3    0  502  0.52689749052E+02 -0.12498570563E+02  0.11563644669E+03  0.12777441733E+03  0.47000000000E+01 0.  1.
          5    1    4    4  503    0 -0.60338731983E+02  0.17399549974E+02  0.18621084185E+03  0.19657078760E+03  0.47000000000E+01 0. -1.
         -5    1    4    4    0  503  0.15722187137E+02 -0.35695022540E+02  0.65411909751E+02  0.76302881595E+02  0.47000000000E+01 0.  1.
<mgrwt>
<rscale>  0 0.10473048E+03</rscale>
<asrwt>0</asrwt>
<pdfrwt beam="1">  1        2 0.96765717E-01 0.10557476E+03</pdfrwt>
<pdfrwt beam="2">  1       -2 0.27309259E-02 0.10557476E+03</pdfrwt>
<totfact> 0.21443600E+04</totfact>
</mgrwt>
</event>
<event>
 8    1  0.8174053E-004  0.1157571E+03  0.7546771E-02  0.1251392E+00
         -1   -1    0    0    0  501 -0.00000000000E+00  0.00000000000E+00  0.17956227356E+03  0.17956227356E+03  0.00000000000E+00 0.  1.
          1   -1    0    0  501    0  0.00000000000E+00 -0.00000000000E+00 -0.40976296977E+03  0.40976296977E+03  0.00000000000E+00 0. -1.
         23    2    1    2    0    0  0.45471750834E+02  0.42526484419E+02  0.15226597224E+03  0.18972487303E+03  0.94522056376E+02 0.  0.
         23    2    1    2    0    0 -0.45471750834E+02 -0.42526484419E+02 -0.38246666845E+03  0.39960037030E+03  0.97588531444E+02 0.  0.
          5    1    4    4  502    0 -0.65065705841E+02 -0.58098142846E+02 -0.25309882661E+03  0.26774996977E+03  0.47000000000E+01 0. -1.
         -5    1    3    3    0  503 -0.13914685458E+02 -0.16919071664E+02  0.63816243762E+02  0.67634875806E+02  0.47000000000E+01 0.  1.
          5    1    3    3  503    0  0.59386436292E+02  0.59445556083E+02  0.88449728481E+02  0.12208999722E+03  0.47000000000E+01 0. -1.
         -5    1    4    4    0  502  0.19593955007E+02  0.15571658427E+02 -0.12936784184E+03  0.13185040054E+03  0.47000000000E+01 0.  1.
<mgrwt>
<rscale>  0 0.11510836E+03</rscale>
<asrwt>0</asrwt>
<pdfrwt beam="1">  1        1 0.63040456E-01 0.11575709E+03</pdfrwt>
<pdfrwt beam="2">  1       -1 0.27624965E-01 0.11575709E+03</pdfrwt>
<totfact> 0.69276367E+02</totfact>
</mgrwt>
</event>
<event>
 8    1  0.8174053E-004  0.9480950E+02  0.7546771E-02  0.1292302E+00
         -4   -1    0    0    0  501 -0.00000000000E+00  0.00000000000E+00  0.22354815322E+02  0.22354815322E+02  0.00000000000E+00 0.  1.
          4   -1    0    0  501    0  0.00000000000E+00 -0.00000000000E+00 -0.44296283843E+03  0.44296283843E+03  0.00000000000E+00 0. -1.
         23    2    1    2    0    0 -0.22312019140E+02 -0.90102377627E+01 -0.13407295338E+03  0.16350448569E+03  0.90438650078E+02 0.  0.
         23    2    1    2    0    0  0.22312019140E+02  0.90102377627E+01 -0.28653506973E+03  0.30181316807E+03  0.91705134281E+02 0.  0.
          5    1    4    4  502    0  0.24079038000E+02 -0.39251133256E+02 -0.13976208224E+03  0.14722765082E+03  0.47000000000E+01 0. -1.
         -5    1    3    3    0  503 -0.56972733245E+02 -0.59401612643E+01 -0.94449380172E+02  0.11056198833E+03  0.47000000000E+01 0.  1.
          5    1    3    3  503    0  0.34660714105E+02 -0.30700764983E+01 -0.39623573210E+02  0.52942497353E+02  0.47000000000E+01 0. -1.
         -5    1    4    4    0  502 -0.17670188603E+01  0.48261371019E+02 -0.14677298749E+03  0.15458551725E+03  0.47000000000E+01 0.  1.
<mgrwt>
<rscale>  0 0.94501895E+02</rscale>
<asrwt>0</asrwt>
<pdfrwt beam="1">  1        4 0.68148131E-01 0.94809505E+02</pdfrwt>
<pdfrwt beam="2">  1       -4 0.34392022E-02 0.94809505E+02</pdfrwt>
<totfact> 0.13333701E+03</totfact>
</mgrwt>
</event>
<event>
 8    1  0.8174053E-004  0.1241387E+03  0.7546771E-02  0.1240232E+00
         -1   -1    0    0    0  501 -0.00000000000E+00  0.00000000000E+00  0.62302719872E+02  0.62302719872E+02  0.00000000000E+00 0.  1.
          1   -1    0    0  501    0  0.00000000000E+00 -0.00000000000E+00 -0.29650921086E+03  0.29650921086E+03  0.00000000000E+00 0. -1.
         23    2    1    2    0    0  0.24033704328E+02 -0.63268241687E+02 -0.20602838438E+03  0.24053712672E+03  0.10406692466E+03 0.  0.
         23    2    1    2    0    0 -0.24033704328E+02  0.63268241687E+02 -0.28178106604E+02  0.11827480401E+03  0.92813976439E+02 0.  0.
          5    1    4    4  502    0  0.29066236649E+02  0.70966242616E+01  0.10053091507E+02  0.31911797782E+02  0.47000000000E+01 0.  1.
         -5    1    3    3    0  503 -0.23111754167E+02  0.18547965036E+01 -0.12151603844E+03  0.12379754056E+03  0.47000000000E+01 0.  1.
          5    1    3    3  503    0  0.47145458496E+02 -0.65123038190E+02 -0.84512345948E+02  0.11673958616E+03  0.47000000000E+01 0. -1.
         -5    1    4    4    0  502 -0.53099940977E+02  0.56171617425E+02 -0.38231198111E+02  0.86363006229E+02  0.47000000000E+01 0. -1.
<mgrwt>
<rscale>  0 0.12175344E+03</rscale>
<asrwt>0</asrwt>
<pdfrwt beam="1">  1        1 0.45616802E-01 0.12413869E+03</pdfrwt>
<pdfrwt beam="2">  1       -1 0.95850337E-02 0.12413869E+03</pdfrwt>
<totfact> 0.55099181E+03</totfact>
</mgrwt>
</event>
<event>
 8    1  0.8174053E-004  0.1038007E+03  0.7546771E-02  0.1273747E+00
          1   -1    0    0  501    0  0.00000000000E+00  0.00000000000E+00  0.27392709344E+03  0.27392709344E+03  0.00000000000E+00 0. -1.
         -1   -1    0    0    0  501 -0.00000000000E+00 -0.00000000000E+00 -0.61481837536E+02  0.61481837536E+02  0.00000000000E+00 0.  1.
         23    2    1    2    0    0  0.48379288903E+02  0.13601231961E+02  0.26917800253E+01  0.10137666872E+03  0.88002466877E+02 0.  0.
         23    2    1    2    0    0 -0.48379288903E+02 -0.13601231961E+02  0.20975347588E+03  0.23403226225E+03  0.90824170931E+02 0.  0.
          5    1    4    4  502    0 -0.16482831688E+02  0.18704989027E+02  0.17456966780E+03  0.17640356933E+03  0.47000000000E+01 0. -1.
         -5    1    4    4    0  502 -0.31896457215E+02 -0.32306220988E+02  0.35183808080E+02  0.57628692926E+02  0.47000000000E+01 0.  1.
          5    1    3    3  503    0  0.54539001832E+01 -0.33474358696E+02 -0.11156900952E+02  0.36011722482E+02  0.47000000000E+01 0. -1.
         -5    1    3    3    0  503  0.42925388720E+02  0.47075590656E+02  0.13848680977E+02  0.65364946242E+02  0.47000000000E+01 0.  1.
<mgrwt>
<rscale>  0 0.10318019E+03</rscale>
<asrwt>0</asrwt>
<pdfrwt beam="1">  1        1 0.42142629E-01 0.10380067E+03</pdfrwt>
<pdfrwt beam="2">  1       -1 0.94587444E-02 0.10380067E+03</pdfrwt>
<totfact> 0.61236970E+03</totfact>
</mgrwt>
</event>
<event>
 8    1  0.8174053E-004  0.1864053E+03  0.7546771E-02  0.1162275E+00
          2   -1    0    0  501    0  0.00000000000E+00  0.00000000000E+00  0.37467479819E+03  0.37467479819E+03  0.00000000000E+00 0. -1.
         -2   -1    0    0    0  501 -0.00000000000E+00 -0.00000000000E+00 -0.24798974144E+03  0.24798974144E+03  0.00000000000E+00 0.  1.
         23    2    1    2    0    0  0.14161187807E+03 -0.80902584865E+02 -0.18403062091E+03  0.26032333148E+03  0.85450659637E+02 0.  0.
         23    2    1    2    0    0 -0.14161187807E+03  0.80902584865E+02  0.31071567765E+03  0.36234120815E+03  0.90264979541E+02 0.  0.
          5    1    4    4  502    0 -0.11731294540E+03  0.99695268599E+02  0.27319686003E+03  0.31362411908E+03  0.47000000000E+01 0. -1.
         -5    1    3    3    0  503  0.11674591547E+03 -0.29489214715E+02 -0.15425723548E+03  0.19574628288E+03  0.47000000000E+01 0.  1.
          5    1    3    3  503    0  0.24865962605E+02 -0.51413370150E+02 -0.29773385432E+02  0.64577048605E+02  0.47000000000E+01 0. -1.
         -5    1    4    4    0  502 -0.24298932677E+02 -0.18792683734E+02  0.37518817626E+02  0.48717089068E+02  0.47000000000E+01 0.  1.
<mgrwt>
<rscale>  0 0.18583184E+03</rscale>
<asrwt>0</asrwt>
<pdfrwt beam="1">  1        2 0.57642277E-01 0.18640525E+03</pdfrwt>
<pdfrwt beam="2">  1       -2 0.38152268E-01 0.18640525E+03</pdfrwt>
<totfact> 0.56199552E+02</totfact>
</mgrwt>
</event>
<event>
 8    1  0.8174053E-004  0.9588546E+02  0.7546771E-02  0.1300478E+00
          1   -1    0    0  501    0  0.00000000000E+00  0.00000000000E+00  0.16652049046E+03  0.16652049046E+03  0.00000000000E+00 0. -1.
         -1   -1    0    0    0  501 -0.00000000000E+00 -0.00000000000E+00 -0.45307958236E+02  0.45307958236E+02  0.00000000000E+00 0.  1.
         23    2    1    2    0    0 -0.96163728526E+01  0.29822760308E+02  0.70339958778E+02  0.11891901165E+03  0.90620912988E+02 0.  0.
         23    2    1    2    0    0  0.96163728526E+01 -0.29822760308E+02  0.50872573448E+02  0.92909437051E+02  0.71149652879E+02 0.  0.
          5    1    4    4  502    0  0.24083847474E+02 -0.45675559871E+02  0.21265831703E+02  0.56041181971E+02  0.47000000000E+01 0. -1.
         -5    1    4    4    0  502 -0.14467474621E+02  0.15852799563E+02  0.29606741745E+02  0.36868255080E+02  0.47000000000E+01 0.  1.
          5    1    3    3  503    0 -0.42935943440E+02 -0.60825412066E+01  0.48057257508E+02  0.64900558902E+02  0.47000000000E+01 0. -1.
         -5    1    3    3    0  503  0.33319570587E+02  0.35905301515E+02  0.22282701270E+02  0.54018452744E+02  0.47000000000E+01 0.  1.
<mgrwt>
<rscale>  0 0.90987436E+02</rscale>
<asrwt>0</asrwt>
<pdfrwt beam="1">  1        1 0.25618537E-01 0.95885460E+02</pdfrwt>
<pdfrwt beam="2">  1       -1 0.69704552E-02 0.95885460E+02</pdfrwt>
<totfact> 0.17713069E+04</totfact>
</mgrwt>
</event>
<event>
 8    1  0.8174053E-004  0.1286505E+03  0.7546771E-02  0.1231028E+00
         -1   -1    0    0    0  501 -0.00000000000E+00  0.00000000000E+00  0.30517423332E+02  0.30517423332E+02  0.00000000000E+00 0.  1.
          1   -1    0    0  501    0  0.00000000000E+00 -0.00000000000E+00 -0.55728614638E+03  0.55728614638E+03  0.00000000000E+00 0. -1.
         23    2    1    2    0    0  0.81224556416E+02  0.19248631585E+02 -0.18904346271E+03  0.22640448406E+03  0.92485789326E+02 0.  0.
         23    2    1    2    0    0 -0.81224556416E+02 -0.19248631585E+02 -0.33772526034E+03  0.36139908565E+03  0.97892845780E+02 0.  0.
          5    1    4    4  502    0 -0.45565640377E+02 -0.18550690402E+01 -0.30852698460E+03  0.31191450606E+03  0.47000000000E+01 0. -1.
         -5    1    4    4    0  502 -0.35658916039E+02 -0.17393562545E+02 -0.29198275739E+02  0.49484579590E+02  0.47000000000E+01 0.  1.
          5    1    3    3  503    0  0.87143862188E+02  0.44502395253E+02 -0.15474333301E+03  0.18314503819E+03  0.47000000000E+01 0. -1.
         -5    1    3    3    0  503 -0.59193057722E+01 -0.25253763668E+02 -0.34300129696E+02  0.43259445875E+02  0.47000000000E+01 0.  1.
<mgrwt>
<rscale>  0 0.12762198E+03</rscale>
<asrwt>0</asrwt>
<pdfrwt beam="1">  1        1 0.85736327E-01 0.12865049E+03</pdfrwt>
<pdfrwt beam="2">  1       -1 0.46949884E-02 0.12865049E+03</pdfrwt>
<totfact> 0.72098064E+03</totfact>
</mgrwt>
</event>
<event>
 8    1  0.8174053E-004  0.1270003E+03  0.7546771E-02  0.1232502E+00
         -1   -1    0    0    0  501 -0.00000000000E+00  0.00000000000E+00  0.47858378591E+02  0.47858378591E+02  0.00000000000E+00 0.  1.
          1   -1    0    0  501    0  0.00000000000E+00 -0.00000000000E+00 -0.35132028135E+03  0.35132028135E+03  0.00000000000E+00 0. -1.
         23    2    1    2    0    0 -0.88020206502E+02  0.24847204510E+01 -0.10743178314E+03  0.16634501957E+03  0.91516921482E+02 0.  0.
         23    2    1    2    0    0  0.88020206502E+02 -0.24847204510E+01 -0.19603011962E+03  0.23283364037E+03  0.89610075905E+02 0.  0.
          5    1    3    3  502    0 -0.44306476193E+02 -0.38892466596E+02 -0.81353833490E+02  0.10057944131E+03  0.47000000000E+01 0. -1.
         -5    1    4    4    0  503  0.38353984117E+02  0.28070482242E+02 -0.29048706414E+02  0.55900781884E+02  0.47000000000E+01 0.  1.
          5    1    4    4  503    0  0.49666222385E+02 -0.30555202693E+02 -0.16698141321E+03  0.17693285849E+03  0.47000000000E+01 0. -1.
         -5    1    3    3    0  502 -0.43713730309E+02  0.41377187047E+02 -0.26077949649E+02  0.65765578256E+02  0.47000000000E+01 0.  1.
<mgrwt>
<rscale>  0 0.12665714E+03</rscale>
<asrwt>0</asrwt>
<pdfrwt beam="1">  1        1 0.54049275E-01 0.12700031E+03</pdfrwt>
<pdfrwt beam="2">  1       -1 0.73628273E-02 0.12700031E+03</pdfrwt>
<totfact> 0.66591870E+03</totfact>
</mgrwt>
</event>
<event>
 8    1  0.8174053E-004  0.1031898E+03  0.7546771E-02  0.1274805E+00
          1   -1    0    0  501    0  0.00000000000E+00  0.00000000000E+00  0.33464003104E+03  0.33464003104E+03  0.00000000000E+00 0. -1.
         -1   -1    0    0    0  501 -0.00000000000E+00 -0.00000000000E+00 -0.32750887905E+03  0.32750887905E+03  0.00000000000E+00 0.  1.
         23    2    1    2    0    0  0.14596730387E+02  0.36076913866E+02 -0.31136158521E+03  0.32735680998E+03  0.93283632247E+02 0.  0.
         23    2    1    2    0    0 -0.14596730387E+02 -0.36076913866E+02  0.31849273720E+03  0.33479210011E+03  0.95569442802E+02 0.  0.
          5    1    3    3  502    0  0.34258882803E+02  0.60070080343E+00 -0.39734314196E+02  0.52677676648E+02  0.47000000000E+01 0. -1.
         -5    1    3    3    0  502 -0.19662152416E+02  0.35476213063E+02 -0.27162727101E+03  0.27467913333E+03  0.47000000000E+01 0.  1.
          5    1    4    4  503    0 -0.36937061736E+02 -0.37854780108E+02  0.30184953571E+03  0.30648419717E+03  0.47000000000E+01 0. -1.
         -5    1    4    4    0  503  0.22340331348E+02  0.17778662416E+01  0.16643201484E+02  0.28307902938E+02  0.47000000000E+01 0.  1.
<mgrwt>
<rscale>  0 0.10265732E+03</rscale>
<asrwt>0</asrwt>
<pdfrwt beam="1">  1        1 0.51483082E-01 0.10318976E+03</pdfrwt>
<pdfrwt beam="2">  1       -1 0.50385982E-01 0.10318976E+03</pdfrwt>
<totfact> 0.31565989E+02</totfact>
</mgrwt>
</event>
<event>
 8    1  0.8174053E-004  0.9287095E+02  0.7546771E-02  0.1297927E+00
         -4   -1    0    0    0  501 -0.00000000000E+00  0.00000000000E+00  0.65744665675E+02  0.65744665675E+02  0.00000000000E+00 0.  1.
          4   -1    0    0  501    0  0.00000000000E+00 -0.00000000000E+00 -0.17466178355E+03  0.17466178355E+03  0.00000000000E+00 0. -1.
         23    2    1    2    0    0  0.12123413819E+01 -0.17615996466E+01 -0.11810823649E+03  0.15024836041E+03  0.92846331519E+02 0.  0.
         23    2    1    2    0    0 -0.12123413819E+01  0.17615996466E+01  0.91911186106E+01  0.90158088809E+02  0.89662875882E+02 0.  0.
          5    1    4    4  502    0  0.18501566102E+02  0.98359545767E+01 -0.34892917088E+02  0.40971448761E+02  0.47000000000E+01 0. -1.
         -5    1    4    4    0  502 -0.19713907484E+02 -0.80743549301E+01  0.44084035698E+02  0.49186640049E+02  0.47000000000E+01 0.  1.
          5    1    3    3  503    0  0.35011550778E+02  0.43449797066E+01 -0.10372291660E+02  0.37072388254E+02  0.47000000000E+01 0. -1.
         -5    1    3    3    0  503 -0.33799209396E+02 -0.61065793532E+01 -0.10773594483E+03  0.11317597216E+03  0.47000000000E+01 0.  1.
<mgrwt>
<rscale>  0 0.92064876E+02</rscale>
<asrwt>0</asrwt>
<pdfrwt beam="1">  1        4 0.26871044E-01 0.92870955E+02</pdfrwt>
<pdfrwt beam="2">  1       -4 0.10114564E-01 0.92870955E+02</pdfrwt>
<totfact> 0.14665227E+03</totfact>
</mgrwt>
</event>
<event>
 8    1  0.8174053E-004  0.9481160E+02  0.7546771E-02  0.1292008E+00
         -1   -1    0    0    0  501 -0.00000000000E+00  0.00000000000E+00  0.13489981941E+03  0.13489981941E+03  0.00000000000E+00 0.  1.
          1   -1    0    0  501    0  0.00000000000E+00 -0.00000000000E+00 -0.73614469143E+02  0.73614469143E+02  0.00000000000E+00 0. -1.
         23    2    1    2    0    0 -0.43412583012E+01  0.27626033558E+02 -0.24903843660E+01  0.94844301860E+02  0.90593572218E+02 0.  0.
         23    2    1    2    0    0  0.43412583012E+01 -0.27626033558E+02  0.63775734638E+02  0.11366998670E+03  0.89841400775E+02 0.  0.
          5    1    4    4  502    0 -0.28291313571E+02 -0.35547101057E+02  0.65346543703E+02  0.79726128659E+02  0.47000000000E+01 0. -1.
         -5    1    3    3    0  503 -0.15121298239E+02  0.48513712696E+02  0.26275799471E+02  0.57399839876E+02  0.47000000000E+01 0.  1.
          5    1    3    3  503    0  0.10780039938E+02 -0.20887679137E+02 -0.28766183837E+02  0.37444461985E+02  0.47000000000E+01 0. -1.
         -5    1    4    4    0  502  0.32632571873E+02  0.79210674986E+01 -0.15708090646E+01  0.33943858037E+02  0.47000000000E+01 0.  1.
<mgrwt>
<rscale>  0 0.94631476E+02</rscale>
<asrwt>0</asrwt>
<pdfrwt beam="1">  1        1 0.11325303E-01 0.94811600E+02</pdfrwt>
<pdfrwt beam="2">  1       -1 0.20753818E-01 0.94811600E+02</pdfrwt>
<totfact> 0.93767393E+03</totfact>
</mgrwt>
</event>
<event>
 8    1  0.8174053E-004  0.1064456E+03  0.7546771E-02  0.1268759E+00
          1   -1    0    0  501    0  0.00000000000E+00  0.00000000000E+00  0.29958218547E+03  0.29958218547E+03  0.00000000000E+00 0. -1.
         -1   -1    0    0    0  501 -0.00000000000E+00 -0.00000000000E+00 -0.37985061358E+02  0.37985061358E+02  0.00000000000E+00 0.  1.
         23    2    1    2    0    0  0.44871136646E+02 -0.30794696413E+02  0.15916803704E+03  0.18984320410E+03  0.88001397123E+02 0.  0.
         23    2    1    2    0    0 -0.44871136646E+02  0.30794696413E+02  0.10242908707E+03  0.14772404273E+03  0.91481925491E+02 0.  0.
          5    1    3    3  502    0  0.25124951564E+02  0.27235606296E+02  0.89192579983E+02  0.96697713342E+02  0.47000000000E+01 0. -1.
         -5    1    3    3    0  502  0.19746185082E+02 -0.58030302709E+02  0.69975457056E+02  0.93145490755E+02  0.47000000000E+01 0.  1.
          5    1    4    4  503    0 -0.63562671486E+02  0.47863732883E+02  0.85612360805E+02  0.11697314416E+03  0.47000000000E+01 0. -1.
         -5    1    4    4    0  503  0.18691534841E+02 -0.17069036469E+02  0.16816726269E+02  0.30750898574E+02  0.47000000000E+01 0.  1.
<mgrwt>
<rscale>  0 0.10569373E+03</rscale>
<asrwt>0</asrwt>
<pdfrwt beam="1">  1        1 0.46089565E-01 0.10644564E+03</pdfrwt>
<pdfrwt beam="2">  1       -1 0.58438558E-02 0.10644564E+03</pdfrwt>
<totfact> 0.11287009E+04</totfact>
</mgrwt>
</event>
<event>
 8    1  0.8174053E-004  0.9787899E+02  0.7546771E-02  0.1285103E+00
         -2   -1    0    0    0  501 -0.00000000000E+00  0.00000000000E+00  0.24568518933E+02  0.24568518933E+02  0.00000000000E+00 0.  1.
          2   -1    0    0  501    0  0.00000000000E+00 -0.00000000000E+00 -0.44772589406E+03  0.44772589406E+03  0.00000000000E+00 0. -1.
         23    2    1    2    0    0 -0.82372722369E+01 -0.32354371745E+02 -0.29841167807E+03  0.31405385751E+03  0.92008900567E+02 0.  0.
         23    2    1    2    0    0  0.82372722369E+01  0.32354371745E+02 -0.12474569706E+03  0.15824055549E+03  0.91454504760E+02 0.  0.
          5    1    3    3  502    0 -0.28985344962E+02 -0.57576218731E+02 -0.20795507478E+03  0.21776724803E+03  0.47000000000E+01 0. -1.
         -5    1    4    4    0  503  0.46668772994E+02  0.30363691177E+02 -0.91289195274E+02  0.10703146868E+03  0.47000000000E+01 0.  1.
          5    1    4    4  503    0 -0.38431500757E+02  0.19906805675E+01 -0.33456501788E+02  0.51209086806E+02  0.47000000000E+01 0. -1.
         -5    1    3    3    0  502  0.20748072725E+02  0.25221846987E+02 -0.90456603287E+02  0.96286609481E+02  0.47000000000E+01 0.  1.
<mgrwt>
<rscale>  0 0.97748484E+02</rscale>
<asrwt>0</asrwt>
<pdfrwt beam="1">  1        2 0.68880900E-01 0.97878986E+02</pdfrwt>
<pdfrwt beam="2">  1       -2 0.37797725E-02 0.97878986E+02</pdfrwt>
<totfact> 0.19228995E+04</totfact>
</mgrwt>
</event>
<event>
 8    1  0.8174053E-004  0.9304676E+02  0.7546771E-02  0.1295876E+00
         -1   -1    0    0    0  501 -0.00000000000E+00  0.00000000000E+00  0.34286029983E+02  0.34286029983E+02  0.00000000000E+00 0.  1.
          1   -1    0    0  501    0  0.00000000000E+00 -0.00000000000E+00 -0.26508074316E+03  0.26508074316E+03  0.00000000000E+00 0. -1.
         23    2    1    2    0    0  0.14972499280E+02 -0.18801846865E+02 -0.81630319358E+02  0.12377886750E+03  0.89888897092E+02 0.  0.
         23    2    1    2    0    0 -0.14972499280E+02  0.18801846865E+02 -0.14916439382E+03  0.17558790564E+03  0.89461785388E+02 0.  0.
          5    1    3    3  502    0 -0.26178928795E+02 -0.38024411706E+02 -0.32173517972E+02  0.56466073506E+02  0.47000000000E+01 0. -1.
         -5    1    4    4    0  503  0.30795603057E+02  0.22672687588E+02 -0.10438387826E+03  0.11126771307E+03  0.47000000000E+01 0.  1.
          5    1    4    4  503    0 -0.45768102338E+02 -0.38708407233E+01 -0.44780515552E+02  0.64320192573E+02  0.47000000000E+01 0. -1.
         -5    1    3    3    0  502  0.41151428075E+02  0.19222564842E+02 -0.49456801386E+02  0.67312793992E+02  0.47000000000E+01 0.  1.
<mgrwt>
<rscale>  0 0.92943448E+02</rscale>
<asrwt>0</asrwt>
<pdfrwt beam="1">  1        1 0.40781653E-01 0.93046757E+02</pdfrwt>
<pdfrwt beam="2">  1       -1 0.52747738E-02 0.93046757E+02</pdfrwt>
<totfact> 0.15057165E+04</totfact>
</mgrwt>
</event>
<event>
 8    1  0.8174053E-004  0.1023183E+03  0.7546771E-02  0.1275773E+00
          1   -1    0    0  501    0  0.00000000000E+00  0.00000000000E+00  0.73526316343E+03  0.73526316343E+03  0.00000000000E+00 0. -1.
         -1   -1    0    0    0  501 -0.00000000000E+00 -0.00000000000E+00 -0.14532019998E+02  0.14532019998E+02  0.00000000000E+00 0.  1.
         23    2    1    2    0    0  0.37170400627E+02 -0.22329238183E+02  0.29967584986E+03  0.31648628184E+03  0.92074524376E+02 0.  0.
         23    2    1    2    0    0 -0.37170400627E+02  0.22329238183E+02  0.42105529357E+03  0.43330890159E+03  0.92675835010E+02 0.  0.
          5    1    4    4  502    0  0.20534017155E+02  0.29324342352E+02  0.86888889251E+02  0.94092146272E+02  0.47000000000E+01 0. -1.
         -5    1    3    3    0  503  0.19590410050E+01  0.27119476862E+02  0.18112049671E+03  0.18321033867E+03  0.47000000000E+01 0.  1.
          5    1    3    3  503    0  0.35211359622E+02 -0.49448715044E+02  0.11855535316E+03  0.13327594317E+03  0.47000000000E+01 0. -1.
         -5    1    4    4    0  502 -0.57704417782E+02 -0.69951041689E+01  0.33416640432E+03  0.33921675532E+03  0.47000000000E+01 0.  1.
<mgrwt>
<rscale>  0 0.10218199E+03</rscale>
<asrwt>0</asrwt>
<pdfrwt beam="1">  1        1 0.11311738E+00 0.10231835E+03</pdfrwt>
<pdfrwt beam="2">  1       -1 0.22356960E-02 0.10231835E+03</pdfrwt>
<totfact> 0.14219441E+04</totfact>
</mgrwt>
</event>
<event>
 8    1  0.8174053E-004  0.1020490E+03  0.7546771E-02  0.1285624E+00
          1   -1    0    0  501    0  0.00000000000E+00  0.00000000000E+00  0.42758232067E+02  0.42758232067E+02  0.00000000000E+00 0. -1.
         -1   -1    0    0    0  501 -0.00000000000E+00 -0.00000000000E+00 -0.20528384798E+03  0.20528384798E+03  0.00000000000E+00 0.  1.
         23    2    1    2    0    0 -0.11737252520E+01  0.10905533053E+02 -0.67354284281E+02  0.10850146369E+03  0.84354369956E+02 0.  0.
         23    2    1    2    0    0  0.11737252520E+01 -0.10905533053E+02 -0.95171331627E+02  0.13954061635E+03  0.10145783836E+03 0.  0.
          5    1    3    3  502    0  0.21906771794E+02  0.41075052300E+02 -0.37275840780E+02  0.59821775949E+02  0.47000000000E+01 0. -1.
         -5    1    3    3    0  502 -0.23080497046E+02 -0.30169519247E+02 -0.30078443501E+02  0.48679687745E+02  0.47000000000E+01 0.  1.
          5    1    4    4  503    0  0.47770561308E+02 -0.86660133577E+01 -0.24124343277E+02  0.54416911469E+02  0.47000000000E+01 0. -1.
         -5    1    4    4    0  503 -0.46596836056E+02 -0.22395196953E+01 -0.71046988350E+02  0.85123704880E+02  0.47000000000E+01 0.  1.
<mgrwt>
<rscale>  0 0.97508772E+02</rscale>
<asrwt>0</asrwt>
<pdfrwt beam="1">  1        1 0.65781896E-02 0.10204901E+03</pdfrwt>
<pdfrwt beam="2">  1       -1 0.31582130E-01 0.10204901E+03</pdfrwt>
<totfact> 0.97506938E+03</totfact>
</mgrwt>
</event>
<event>
 8    1  0.8174053E-004  0.1021605E+03  0.7546771E-02  0.1275832E+00
          1   -1    0    0  501    0  0.00000000000E+00  0.00000000000E+00  0.91983009085E+02  0.91983009085E+02  0.00000000000E+00 0. -1.
         -1   -1    0    0    0  501 -0.00000000000E+00 -0.00000000000E+00 -0.12369555073E+03  0.12369555073E+03  0.00000000000E+00 0.  1.
         23    2    1    2    0    0  0.18140602212E+02  0.42833386207E+02 -0.46917652627E+02  0.11239272136E+03  0.90923469272E+02 0.  0.
         23    2    1    2    0    0 -0.18140602212E+02 -0.42833386207E+02  0.15205110986E+02  0.10328583845E+03  0.90955970676E+02 0.  0.
          5    1    4    4  502    0 -0.27837710351E+02 -0.68431115800E+02  0.14900122407E+02  0.75510657360E+02  0.47000000000E+01 0. -1.
         -5    1    4    4    0  502  0.96971081384E+01  0.25597729592E+02  0.30498857899E+00  0.27775181090E+02  0.47000000000E+01 0.  1.
          5    1    3    3  503    0 -0.31837659796E+02  0.12229573579E+02  0.39441309596E+01  0.34653213707E+02  0.47000000000E+01 0. -1.
         -5    1    3    3    0  503  0.49978262009E+02  0.30603812628E+02 -0.50861783587E+02  0.77739507655E+02  0.47000000000E+01 0.  1.
<mgrwt>
<rscale>  0 0.10215327E+03</rscale>
<asrwt>0</asrwt>
<pdfrwt beam="1">  1        1 0.14151232E-01 0.10216051E+03</pdfrwt>
<pdfrwt beam="2">  1       -1 0.19030085E-01 0.10216051E+03</pdfrwt>
<totfact> 0.81192341E+03</totfact>
</mgrwt>
</event>
<event>
 8    1  0.8174053E-004  0.1044597E+03  0.7546771E-02  0.1271620E+00
          1   -1    0    0  501    0  0.00000000000E+00  0.00000000000E+00  0.78411984268E+03  0.78411984268E+03  0.00000000000E+00 0. -1.
         -1   -1    0    0    0  501 -0.00000000000E+00 -0.00000000000E+00 -0.20698658588E+02  0.20698658588E+02  0.00000000000E+00 0.  1.
         23    2    1    2    0    0 -0.37342162531E+02  0.32848334093E+02  0.14834572643E+03  0.18093577912E+03  0.90872721200E+02 0.  0.
         23    2    1    2    0    0  0.37342162531E+02 -0.32848334093E+02  0.61507545765E+03  0.62388272215E+03  0.91860667482E+02 0.  0.
          5    1    4    4  502    0  0.46362820727E+02  0.16329973134E+02  0.39923333415E+03  0.40227543333E+03  0.47000000000E+01 0. -1.
         -5    1    4    4    0  502 -0.90206581960E+01 -0.49178307227E+02  0.21584212351E+03  0.22160728881E+03  0.47000000000E+01 0.  1.
          5    1    3    3  503    0  0.24916416218E+02  0.28688618886E+01  0.78619272049E+02  0.82656748686E+02  0.47000000000E+01 0. -1.
         -5    1    3    3    0  503 -0.62258578749E+02  0.29979472204E+02  0.69726454384E+02  0.98279030431E+02  0.47000000000E+01 0.  1.
<mgrwt>
<rscale>  0 0.10424211E+03</rscale>
<asrwt>0</asrwt>
<pdfrwt beam="1">  1        1 0.12063380E+00 0.10445972E+03</pdfrwt>
<pdfrwt beam="2">  1       -1 0.31844096E-02 0.10445972E+03</pdfrwt>
<totfact> 0.77871810E+03</totfact>
</mgrwt>
</event>
<event>
 7    1  0.8174053E-004  0.4085173E+03  0.7546771E-02  0.1040870E+00
          2   -1    0    0  501    0  0.00000000000E+00  0.00000000000E+00  0.40929987836E+03  0.40929987836E+03  0.00000000000E+00 0. -1.
         -2   -1    0    0    0  501 -0.00000000000E+00 -0.00000000000E+00 -0.10193405253E+03  0.10193405253E+03  0.00000000000E+00 0.  1.
         23    2    1    2    0    0  0.43774739007E+02  0.78907459737E+01 -0.42360986934E+02  0.11235332774E+03  0.94076168046E+02 0.  0.
          5    1    3    3  502    0 -0.22785174836E+02 -0.20408296888E+02 -0.18462478793E+02  0.36036313593E+02  0.47000000000E+01 0. -1.
         -5    1    1    2    0  503  0.14636380393E+02  0.15072867403E+02 -0.16600382821E+02  0.27185983016E+02  0.47000000000E+01 0.  1.
          5    1    1    2  503    0 -0.58411119400E+02 -0.22963613377E+02  0.36632719558E+03  0.37169462013E+03  0.47000000000E+01 0. -1.
         -5    1    3    3    0  502  0.66559913843E+02  0.28299042862E+02 -0.23898508141E+02  0.76317014152E+02  0.47000000000E+01 0.  1.
<mgrwt>
<rscale>  0 0.40851730E+03</rscale>
<asrwt>0</asrwt>
<pdfrwt beam="1">  1        2 0.62969211E-01 0.40851730E+03</pdfrwt>
<pdfrwt beam="2">  1       -2 0.15682162E-01 0.40851730E+03</pdfrwt>
<totfact> 0.24893660E+03</totfact>
</mgrwt>
</event>
<event>
 8    1  0.8174053E-004  0.3390768E+03  0.7546771E-02  0.1067737E+00
         -2   -1    0    0    0  501 -0.00000000000E+00  0.00000000000E+00  0.92535792372E+02  0.92535792372E+02  0.00000000000E+00 0.  1.
          2   -1    0    0  501    0  0.00000000000E+00 -0.00000000000E+00 -0.19083976055E+04  0.19083976055E+04  0.00000000000E+00 0. -1.
         23    2    1    2    0    0  0.20182158362E+02  0.32615042991E+03 -0.15114867848E+04  0.15490530498E+04  0.90507614147E+02 0.  0.
         23    2    1    2    0    0 -0.20182158362E+02 -0.32615042991E+03 -0.30437502833E+03  0.45188034801E+03  0.69067131148E+02 0.  0.
          5    1    3    3  502    0 -0.10135808927E+02  0.19457237717E+03 -0.10606435680E+04  0.10784006737E+04  0.47000000000E+01 0. -1.
         -5    1    3    3    0  502  0.30317967289E+02  0.13157805274E+03 -0.45084321675E+03  0.47065237617E+03  0.47000000000E+01 0.  1.
          5    1    4    4  503    0 -0.23068465726E+02 -0.41834143410E+02 -0.29302889876E+02  0.56240546058E+02  0.47000000000E+01 0. -1.
         -5    1    4    4    0  503  0.28863073638E+01 -0.28431628649E+03 -0.27507213846E+03  0.39563980195E+03  0.47000000000E+01 0.  1.
<mgrwt>
<rscale>  0 0.33779875E+03</rscale>
<asrwt>0</asrwt>
<pdfrwt beam="1">  1        2 0.29359959E+00 0.33907676E+03</pdfrwt>
<pdfrwt beam="2">  1       -2 0.14236278E-01 0.33907676E+03</pdfrwt>
<totfact> 0.30733621E+02</totfact>
</mgrwt>
</event>
<event>
 8    1  0.8174053E-004  0.9306309E+02  0.7546771E-02  0.1296388E+00
          3   -1    0    0  501    0  0.00000000000E+00  0.00000000000E+00  0.13245989456E+03  0.13245989456E+03  0.00000000000E+00 0. -1.
         -3   -1    0    0    0  501 -0.00000000000E+00 -0.00000000000E+00 -0.64809024597E+02  0.64809024597E+02  0.00000000000E+00 0.  1.
         23    2    1    2    0    0  0.68148410638E+00 -0.20146879853E+02  0.41051235298E+02  0.10047905012E+03  0.89467728286E+02 0.  0.
         23    2    1    2    0    0 -0.68148410638E+00  0.20146879853E+02  0.26599634668E+02  0.96789869042E+02  0.90853601999E+02 0.  0.
          5    1    3    3  502    0  0.21383949155E+02 -0.13686257605E+02  0.63722642470E+02  0.68755015032E+02  0.47000000000E+01 0. -1.
         -5    1    4    4    0  503 -0.14545863928E+02  0.52024265262E+02  0.25970812037E+01  0.54285736288E+02  0.47000000000E+01 0.  1.
          5    1    4    4  503    0  0.13864379822E+02 -0.31877385409E+02  0.24002553464E+02  0.42504132754E+02  0.47000000000E+01 0. -1.
         -5    1    3    3    0  502 -0.20702465049E+02 -0.64606222477E+01 -0.22671407172E+02  0.31724035085E+02  0.47000000000E+01 0.  1.
<mgrwt>
<rscale>  0 0.92723109E+02</rscale>
<asrwt>0</asrwt>
<pdfrwt beam="1">  1        3 0.20378445E-01 0.93063087E+02</pdfrwt>
<pdfrwt beam="2">  1       -3 0.99706192E-02 0.93063087E+02</pdfrwt>
<totfact> 0.34043460E+03</totfact>
</mgrwt>
</event>
<event>
 8    1  0.8174053E-004  0.9290239E+02  0.7546771E-02  0.1297378E+00
         -2   -1    0    0    0  501 -0.00000000000E+00  0.00000000000E+00  0.16991055968E+03  0.16991055968E+03  0.00000000000E+00 0.  1.
          2   -1    0    0  501    0  0.00000000000E+00 -0.00000000000E+00 -0.50376654560E+02  0.50376654560E+02  0.00000000000E+00 0. -1.
         23    2    1    2    0    0 -0.12306830605E+02  0.44408781825E+01  0.45984513097E+02  0.10366016692E+03  0.91976493096E+02 0.  0.
         23    2    1    2    0    0  0.12306830605E+02 -0.44408781825E+01  0.73549392019E+02  0.11662704732E+03  0.89561016190E+02 0.  0.
          5    1    3    3  502    0  0.21949685855E+02  0.27381901459E+02  0.50761940413E+02  0.61890401769E+02  0.47000000000E+01 0. -1.
         -5    1    4    4    0  503 -0.73638908972E-02  0.41882606605E+02  0.30431708005E+02  0.51983955624E+02  0.47000000000E+01 0. -1.
          5    1    4    4  503    0  0.12314194496E+02 -0.46323484787E+02  0.43117684014E+02  0.64643091693E+02  0.47000000000E+01 0.  1.
         -5    1    3    3    0  502 -0.34256516460E+02 -0.22941023276E+02 -0.47774273157E+01  0.41769765150E+02  0.47000000000E+01 0.  1.
<mgrwt>
<rscale>  0 0.92298847E+02</rscale>
<asrwt>0</asrwt>
<pdfrwt beam="1">  1        2 0.77502546E-02 0.92902394E+02</pdfrwt>
<pdfrwt beam="2">  1       -2 0.26140086E-01 0.92902394E+02</pdfrwt>
<totfact> 0.10498923E+04</totfact>
</mgrwt>
</event>
<event>
 8    1  0.8174053E-004  0.1021369E+03  0.7546771E-02  0.1276355E+00
         -1   -1    0    0    0  501 -0.00000000000E+00  0.00000000000E+00  0.12500268129E+03  0.12500268129E+03  0.00000000000E+00 0.  1.
          1   -1    0    0  501    0  0.00000000000E+00 -0.00000000000E+00 -0.86707579033E+02  0.86707579033E+02  0.00000000000E+00 0. -1.
         23    2    1    2    0    0 -0.42426888139E+02  0.12887740803E+02  0.41886446144E+02  0.10951019910E+03  0.90949846813E+02 0.  0.
         23    2    1    2    0    0  0.42426888139E+02 -0.12887740803E+02 -0.35913438901E+01  0.10220006122E+03  0.92009891115E+02 0.  0.
          5    1    3    3  502    0  0.21120731560E+02 -0.18318110603E+01 -0.11964858005E+02  0.24792915529E+02  0.47000000000E+01 0. -1.
         -5    1    4    4    0  503 -0.94703371244E+01 -0.30723812435E+02  0.24194551032E+02  0.40510569429E+02  0.47000000000E+01 0.  1.
          5    1    4    4  503    0  0.51897225263E+02  0.17836071632E+02 -0.27785894922E+02  0.61689491795E+02  0.47000000000E+01 0. -1.
         -5    1    3    3    0  502 -0.63547619699E+02  0.14719551863E+02  0.53851304149E+02  0.84717283567E+02  0.47000000000E+01 0.  1.
<mgrwt>
<rscale>  0 0.10189763E+03</rscale>
<asrwt>0</asrwt>
<pdfrwt beam="1">  1        1 0.13339627E-01 0.10213694E+03</pdfrwt>
<pdfrwt beam="2">  1       -1 0.19231182E-01 0.10213694E+03</pdfrwt>
<totfact> 0.86170095E+03</totfact>
</mgrwt>
</event>
<event>
 8    1  0.8174053E-004  0.9528977E+02  0.7546771E-02  0.1291046E+00
          1   -1    0    0  501    0  0.00000000000E+00  0.00000000000E+00  0.60296022094E+03  0.60296022094E+03  0.00000000000E+00 0. -1.
         -1   -1    0    0    0  501 -0.00000000000E+00 -0.00000000000E+00 -0.15064306342E+02  0.15064306342E+02  0.00000000000E+00 0.  1.
         23    2    1    2    0    0  0.88313791103E+01  0.22769065302E+02  0.26161068258E+03  0.27810954971E+03  0.91150144312E+02 0.  0.
         23    2    1    2    0    0 -0.88313791103E+01 -0.22769065302E+02  0.32628523202E+03  0.33991497757E+03  0.92107088506E+02 0.  0.
          5    1    3    3  502    0 -0.16999393934E+02  0.29245890095E+02  0.24274828797E+03  0.24513898669E+03  0.47000000000E+01 0. -1.
         -5    1    4    4    0  503  0.40477324321E+02  0.44989141583E-01  0.13753437842E+03  0.14344410429E+03  0.47000000000E+01 0.  1.
          5    1    4    4  503    0 -0.49308703431E+02 -0.22814054444E+02  0.18875085360E+03  0.19647087329E+03  0.47000000000E+01 0. -1.
         -5    1    3    3    0  502  0.25830773044E+02 -0.64768247933E+01  0.18862394604E+02  0.32970563017E+02  0.47000000000E+01 0.  1.
<mgrwt>
<rscale>  0 0.95057753E+02</rscale>
<asrwt>0</asrwt>
<pdfrwt beam="1">  1        1 0.92763092E-01 0.95289765E+02</pdfrwt>
<pdfrwt beam="2">  1       -1 0.23175861E-02 0.95289765E+02</pdfrwt>
<totfact> 0.17678315E+04</totfact>
</mgrwt>
</event>
<event>
 8    1  0.8174053E-004  0.9811753E+02  0.7546771E-02  0.1284729E+00
          2   -1    0    0  501    0  0.00000000000E+00  0.00000000000E+00  0.73195167623E+03  0.73195167623E+03  0.00000000000E+00 0.  1.
         -2   -1    0    0    0  501 -0.00000000000E+00 -0.00000000000E+00 -0.17721597376E+02  0.17721597376E+02  0.00000000000E+00 0. -1.
         23    2    1    2    0    0  0.12149374721E+02 -0.31742951273E+02  0.54855743849E+03  0.55712594487E+03  0.91207635997E+02 0.  0.
         23    2    1    2    0    0 -0.12149374721E+02  0.31742951273E+02  0.16567264036E+03  0.19254732873E+03  0.92042532428E+02 0.  0.
          5    1    4    4  502    0  0.96628141384E+01  0.42110539809E+02  0.25829107519E+02  0.50555912961E+02  0.47000000000E+01 0. -1.
         -5    1    4    4    0  502 -0.21812188860E+02 -0.10367588536E+02  0.13984353284E+03  0.14199141577E+03  0.47000000000E+01 0.  1.
          5    1    3    3  503    0 -0.20220953465E+02  0.21136751821E+02  0.10053871258E+03  0.10481303337E+03  0.47000000000E+01 0. -1.
         -5    1    3    3    0  503  0.32370328187E+02 -0.52879703094E+02  0.44801872591E+03  0.45231291151E+03  0.47000000000E+01 0.  1.
<mgrwt>
<rscale>  0 0.97921250E+02</rscale>
<asrwt>0</asrwt>
<pdfrwt beam="1">  1        2 0.11260793E+00 0.98117532E+02</pdfrwt>
<pdfrwt beam="2">  1       -2 0.27264002E-02 0.98117532E+02</pdfrwt>
<totfact> 0.17904093E+04</totfact>
</mgrwt>
</event>
<event>
 7    1  0.8174053E-004  0.1366608E+03  0.7546771E-02  0.1237483E+00
         -1   -1    0    0    0  501 -0.00000000000E+00  0.00000000000E+00  0.24468564461E+03  0.24468564461E+03  0.00000000000E+00 0.  1.
          1   -1    0    0  501    0  0.00000000000E+00 -0.00000000000E+00 -0.73381394826E+02  0.73381394826E+02  0.00000000000E+00 0. -1.
         23    2    1    2    0    0 -0.23922592062E+01 -0.42893475814E+01 -0.93659357805E+01  0.91532492566E+02  0.90919497554E+02 0.  0.
          5    1    1    2  502    0  0.22730037008E+02 -0.60386433333E+02  0.11545596197E+03  0.13234555175E+03  0.47000000000E+01 0. -1.
         -5    1    1    2    0  502 -0.20337777802E+02  0.64675780915E+02  0.65214223590E+02  0.94188995118E+02  0.47000000000E+01 0.  1.
          5    1    3    3  503    0  0.14946610224E+02 -0.43762357144E+02 -0.12244635583E+02  0.48068348843E+02  0.47000000000E+01 0. -1.
         -5    1    3    3    0  503 -0.17338869430E+02  0.39473009562E+02  0.28786998021E+01  0.43464143723E+02  0.47000000000E+01 0.  1.
<mgrwt>
<rscale>  0 0.12346831E+03</rscale>
<asrwt>0</asrwt>
<pdfrwt beam="1">  1        1 0.11289445E-01 0.13666084E+03</pdfrwt>
<pdfrwt beam="2">  1       -1 0.37643945E-01 0.13666084E+03</pdfrwt>
<totfact> 0.36008447E+03</totfact>
</mgrwt>
</event>
<event>
 8    1  0.8174053E-004  0.1128854E+03  0.7546771E-02  0.1255323E+00
         -2   -1    0    0    0  501 -0.00000000000E+00  0.00000000000E+00  0.31679910609E+03  0.31679910609E+03  0.00000000000E+00 0. -1.
          2   -1    0    0  501    0  0.00000000000E+00 -0.00000000000E+00 -0.62000383330E+02  0.62000383330E+02  0.00000000000E+00 0.  1.
         23    2    1    2    0    0 -0.58906530153E+01 -0.65869501861E+02  0.23965905877E+03  0.26491427089E+03  0.91485602180E+02 0.  0.
         23    2    1    2    0    0  0.58906530153E+01  0.65869501861E+02  0.15139663994E+02  0.11388521853E+03  0.91472085931E+02 0.  0.
          5    1    3    3  502    0 -0.97836832176E+01 -0.26963558754E+02  0.21807904880E+03  0.22000753506E+03  0.47000000000E+01 0. -1.
         -5    1    4    4    0  503  0.14315200986E+02  0.84517106636E+02 -0.33416224272E+01  0.85914624680E+02  0.47000000000E+01 0.  1.
          5    1    4    4  503    0 -0.84245479711E+01 -0.18647604775E+02  0.18481286421E+02  0.27970593847E+02  0.47000000000E+01 0. -1.
         -5    1    3    3    0  502  0.38930302024E+01 -0.38905943107E+02  0.21580009969E+02  0.44906735836E+02  0.47000000000E+01 0.  1.
<mgrwt>
<rscale>  0 0.11288263E+03</rscale>
<asrwt>0</asrwt>
<pdfrwt beam="1">  1        2 0.95385207E-02 0.11288537E+03</pdfrwt>
<pdfrwt beam="2">  1       -2 0.48738323E-01 0.11288537E+03</pdfrwt>
<totfact> 0.26142975E+03</totfact>
</mgrwt>
</event>
<event>
 8    1  0.8174053E-004  0.9737528E+02  0.7546771E-02  0.1286137E+00
          2   -1    0    0  501    0  0.00000000000E+00  0.00000000000E+00  0.15136440233E+03  0.15136440233E+03  0.00000000000E+00 0. -1.
         -2   -1    0    0    0  501 -0.00000000000E+00 -0.00000000000E+00 -0.62405824925E+02  0.62405824925E+02  0.00000000000E+00 0.  1.
         23    2    1    2    0    0  0.32729785902E+02 -0.10995111305E+02  0.46699282890E+02  0.10799429476E+03  0.91048411964E+02 0.  0.
         23    2    1    2    0    0 -0.32729785902E+02  0.10995111305E+02  0.42259294515E+02  0.10577593249E+03  0.90612187722E+02 0.  0.
          5    1    4    4  502    0 -0.38984590908E+02 -0.24375726015E+02  0.50674565298E+02  0.68585537216E+02  0.47000000000E+01 0. -1.
         -5    1    3    3    0  503  0.11727508729E+02  0.39945280279E+02  0.16896256842E+02  0.45174477007E+02  0.47000000000E+01 0.  1.
          5    1    3    3  503    0  0.21002277173E+02 -0.50940391585E+02  0.29803026048E+02  0.62819817756E+02  0.47000000000E+01 0. -1.
         -5    1    4    4    0  502  0.62548050062E+01  0.35370837320E+02 -0.84152707837E+01  0.37190395276E+02  0.47000000000E+01 0.  1.
<mgrwt>
<rscale>  0 0.97273178E+02</rscale>
<asrwt>0</asrwt>
<pdfrwt beam="1">  1        2 0.23286831E-01 0.97375278E+02</pdfrwt>
<pdfrwt beam="2">  1       -2 0.96008962E-02 0.97375278E+02</pdfrwt>
<totfact> 0.14936746E+04</totfact>
</mgrwt>
</event>
<event>
 8    1  0.8174053E-004  0.1066660E+03  0.7546771E-02  0.1268975E+00
          1   -1    0    0  501    0  0.00000000000E+00  0.00000000000E+00  0.96830885451E+02  0.96830885451E+02  0.00000000000E+00 0. -1.
         -1   -1    0    0    0  501 -0.00000000000E+00 -0.00000000000E+00 -0.11574746640E+03  0.11574746640E+03  0.00000000000E+00 0.  1.
         23    2    1    2    0    0 -0.29721341436E+02  0.43440150818E+02  0.75507185941E+01  0.10267766311E+03  0.87836691137E+02 0.  0.
         23    2    1    2    0    0  0.29721341436E+02 -0.43440150818E+02 -0.26467299539E+02  0.10990068874E+03  0.92775204665E+02 0.  0.
          5    1    4    4  502    0  0.24210411919E+02  0.40094347404E+01  0.27849011185E+02  0.37414930659E+02  0.47000000000E+01 0. -1.
         -5    1    4    4    0  502  0.55109295179E+01 -0.47449585559E+02 -0.54316310724E+02  0.72485758080E+02  0.47000000000E+01 0.  1.
          5    1    3    3  503    0 -0.44904772189E+02  0.27010825708E+02  0.37784424603E+02  0.64774810022E+02  0.47000000000E+01 0. -1.
         -5    1    3    3    0  503  0.15183430753E+02  0.16429325110E+02 -0.30233706009E+02  0.37902853085E+02  0.47000000000E+01 0.  1.
<mgrwt>
<rscale>  0 0.10558306E+03</rscale>
<asrwt>0</asrwt>
<pdfrwt beam="1">  1        1 0.14897059E-01 0.10666604E+03</pdfrwt>
<pdfrwt beam="2">  1       -1 0.17807302E-01 0.10666604E+03</pdfrwt>
<totfact> 0.84733908E+03</totfact>
</mgrwt>
</event>
<event>
 8    1  0.8174053E-004  0.1034934E+03  0.7546771E-02  0.1275695E+00
         -2   -1    0    0    0  501 -0.00000000000E+00  0.00000000000E+00  0.16898923957E+02  0.16898923957E+02  0.00000000000E+00 0.  1.
          2   -1    0    0  501    0  0.00000000000E+00 -0.00000000000E+00 -0.10383416779E+04  0.10383416779E+04  0.00000000000E+00 0. -1.
         23    2    1    2    0    0  0.45366388917E+02  0.15600870191E+02 -0.85942187780E+03  0.86563089952E+03  0.91702746787E+02 0.  0.
         23    2    1    2    0    0 -0.45366388917E+02 -0.15600870191E+02 -0.16202087617E+03  0.18960970236E+03  0.86020802840E+02 0.  0.
          5    1    4    4  502    0 -0.12515411355E+02 -0.18685725434E+02 -0.15349889895E+03  0.15520887164E+03  0.47000000000E+01 0. -1.
         -5    1    3    3    0  503  0.28860642980E+01  0.48961858146E+02 -0.41278488447E+03  0.41571509928E+03  0.47000000000E+01 0.  1.
          5    1    3    3  503    0  0.42480324619E+02 -0.33360987955E+02 -0.44663699333E+03  0.44991580024E+03  0.47000000000E+01 0. -1.
         -5    1    4    4    0  502 -0.32850977562E+02  0.30848552434E+01 -0.85219772164E+01  0.34400830722E+02  0.47000000000E+01 0.  1.
<mgrwt>
<rscale>  0 0.10222028E+03</rscale>
<asrwt>0</asrwt>
<pdfrwt beam="1">  1        2 0.15974486E+00 0.10349343E+03</pdfrwt>
<pdfrwt beam="2">  1       -2 0.25998347E-02 0.10349343E+03</pdfrwt>
<totfact> 0.12328671E+04</totfact>
</mgrwt>
</event>
<event>
 8    1  0.8174053E-004  0.1068150E+03  0.7546771E-02  0.1273334E+00
          3   -1    0    0  501    0  0.00000000000E+00  0.00000000000E+00  0.42662870836E+03  0.42662870836E+03  0.00000000000E+00 0. -1.
         -3   -1    0    0    0  501 -0.00000000000E+00 -0.00000000000E+00 -0.44782549312E+02  0.44782549312E+02  0.00000000000E+00 0.  1.
         23    2    1    2    0    0 -0.30514074997E+02 -0.13237853920E+02  0.35433425006E+02  0.11253876574E+03  0.10150417054E+03 0.  0.
         23    2    1    2    0    0  0.30514074997E+02  0.13237853920E+02  0.34641273404E+03  0.35887249193E+03  0.87643217693E+02 0.  0.
          5    1    4    4  502    0  0.54269512254E+02 -0.14423535243E+02  0.18885648980E+03  0.19708394676E+03  0.47000000000E+01 0. -1.
         -5    1    3    3    0  503 -0.24400765072E+02 -0.44110823306E+02 -0.15089796621E+02  0.52829480699E+02  0.47000000000E+01 0.  1.
          5    1    3    3  503    0 -0.61133099244E+01  0.30872969386E+02  0.50523221627E+02  0.59709285044E+02  0.47000000000E+01 0. -1.
         -5    1    4    4    0  502 -0.23755437258E+02  0.27661389163E+02  0.15755624424E+03  0.16178854517E+03  0.47000000000E+01 0.  1.
<mgrwt>
<rscale>  0 0.10338523E+03</rscale>
<asrwt>0</asrwt>
<pdfrwt beam="1">  1        3 0.65635183E-01 0.10681501E+03</pdfrwt>
<pdfrwt beam="2">  1       -3 0.68896233E-02 0.10681501E+03</pdfrwt>
<totfact> 0.69207676E+02</totfact>
</mgrwt>
</event>
<event>
 8    1  0.8174053E-004  0.1847556E+03  0.7546771E-02  0.1163296E+00
          2   -1    0    0  501    0  0.00000000000E+00  0.00000000000E+00  0.35237221278E+03  0.35237221278E+03  0.00000000000E+00 0. -1.
         -2   -1    0    0    0  501 -0.00000000000E+00 -0.00000000000E+00 -0.18012665108E+03  0.18012665108E+03  0.00000000000E+00 0.  1.
         23    2    1    2    0    0 -0.15464219093E+03 -0.41824250061E+02 -0.94941809639E+02  0.20765470410E+03  0.91886091480E+02 0.  0.
         23    2    1    2    0    0  0.15464219093E+03  0.41824250061E+02  0.26718737135E+03  0.32484415977E+03  0.92038913610E+02 0.  0.
          5    1    4    4  502    0  0.13697147794E+03  0.65221536482E+02  0.24317651220E+03  0.28665648549E+03  0.47000000000E+01 0. -1.
         -5    1    4    4    0  502  0.17670712986E+02 -0.23397286421E+02  0.24010859150E+02  0.38187674274E+02  0.47000000000E+01 0.  1.
          5    1    3    3  503    0 -0.53630785266E+02 -0.56829264134E+02 -0.19698963077E+02  0.80721530812E+02  0.47000000000E+01 0. -1.
         -5    1    3    3    0  503 -0.10101140566E+03  0.15005014073E+02 -0.75242846562E+02  0.12693317329E+03  0.47000000000E+01 0.  1.
<mgrwt>
<rscale>  0 0.18473659E+03</rscale>
<asrwt>0</asrwt>
<pdfrwt beam="1">  1        2 0.54211110E-01 0.18475561E+03</pdfrwt>
<pdfrwt beam="2">  1       -2 0.27711792E-01 0.18475561E+03</pdfrwt>
<totfact> 0.10794553E+03</totfact>
</mgrwt>
</event>
<event>
 8    1  0.8174053E-004  0.1092178E+03  0.7546771E-02  0.1262039E+00
         -1   -1    0    0    0  501 -0.00000000000E+00  0.00000000000E+00  0.39493325008E+03  0.39493325008E+03  0.00000000000E+00 0.  1.
          1   -1    0    0  501    0  0.00000000000E+00 -0.00000000000E+00 -0.65176533915E+02  0.65176533915E+02  0.00000000000E+00 0. -1.
         23    2    1    2    0    0  0.54852922231E+02  0.23670592496E+02 -0.36502075062E+01  0.10927880195E+03  0.91429713522E+02 0.  0.
         23    2    1    2    0    0 -0.54852922231E+02 -0.23670592496E+02  0.33340692367E+03  0.35083098204E+03  0.91395082925E+02 0.  0.
          5    1    3    3  502    0  0.67765808712E+02 -0.11560354219E+02 -0.13467914006E+02  0.70209125673E+02  0.47000000000E+01 0. -1.
         -5    1    3    3    0  502 -0.12912886481E+02  0.35230946714E+02  0.98177064997E+01  0.39069676279E+02  0.47000000000E+01 0.  1.
          5    1    4    4  503    0  0.24975130321E+02 -0.86431612799E+01  0.63894187628E+02  0.69303813633E+02  0.47000000000E+01 0. -1.
         -5    1    4    4    0  503 -0.79828052552E+02 -0.15027431216E+02  0.26951273604E+03  0.28152716841E+03  0.47000000000E+01 0.  1.
<mgrwt>
<rscale>  0 0.10921057E+03</rscale>
<asrwt>0</asrwt>
<pdfrwt beam="1">  1        1 0.10027159E-01 0.10921782E+03</pdfrwt>
<pdfrwt beam="2">  1       -1 0.60758960E-01 0.10921782E+03</pdfrwt>
<totfact> 0.17513457E+03</totfact>
</mgrwt>
</event>
<event>
 8    1  0.8174053E-004  0.9667801E+02  0.7546771E-02  0.1289583E+00
         -2   -1    0    0    0  501 -0.00000000000E+00  0.00000000000E+00  0.48659771549E+02  0.48659771549E+02  0.00000000000E+00 0.  1.
          2   -1    0    0  501    0  0.00000000000E+00 -0.00000000000E+00 -0.24435231681E+03  0.24435231681E+03  0.00000000000E+00 0. -1.
         23    2    1    2    0    0 -0.25101200056E+02  0.22875641526E+02 -0.16880617226E+03  0.19266511422E+03  0.86434699191E+02 0.  0.
         23    2    1    2    0    0  0.25101200056E+02 -0.22875641526E+02 -0.26886372993E+02  0.10034697413E+03  0.90516699815E+02 0.  0.
          5    1    4    4  502    0 -0.13667145841E+02 -0.46682583783E+02 -0.24197503320E+02  0.54531309089E+02  0.47000000000E+01 0. -1.
         -5    1    3    3    0  503  0.19635174474E+02 -0.10437689186E+02 -0.11048773535E+02  0.25271541876E+02  0.47000000000E+01 0.  1.
          5    1    3    3  503    0 -0.44736374530E+02  0.33313330712E+02 -0.15775739873E+03  0.16739357235E+03  0.47000000000E+01 0. -1.
         -5    1    4    4    0  502  0.38768345897E+02  0.23806942257E+02 -0.26888696734E+01  0.45815665043E+02  0.47000000000E+01 0.  1.
<mgrwt>
<rscale>  0 0.95710902E+02</rscale>
<asrwt>0</asrwt>
<pdfrwt beam="1">  1        2 0.37592664E-01 0.96678013E+02</pdfrwt>
<pdfrwt beam="2">  1       -2 0.74861187E-02 0.96678013E+02</pdfrwt>
<totfact> 0.13079936E+04</totfact>
</mgrwt>
</event>
<event>
 8    1  0.8174053E-004  0.1266077E+03  0.7546771E-02  0.1243062E+00
         -2   -1    0    0    0  501 -0.00000000000E+00  0.00000000000E+00  0.40536677524E+03  0.40536677524E+03  0.00000000000E+00 0.  1.
          2   -1    0    0  501    0  0.00000000000E+00 -0.00000000000E+00 -0.41147761129E+02  0.41147761129E+02  0.00000000000E+00 0. -1.
         23    2    1    2    0    0  0.27512846400E+02  0.40065045697E+02  0.94266717661E+02  0.15784713511E+03  0.11690739668E+03 0.  0.
         23    2    1    2    0    0 -0.27512846400E+02 -0.40065045697E+02  0.26995229645E+03  0.28866740126E+03  0.89958110195E+02 0.  0.
          5    1    4    4  502    0 -0.51075282923E+02  0.12772342684E+01  0.10405827955E+03  0.11601953024E+03  0.47000000000E+01 0. -1.
         -5    1    4    4    0  502  0.23562436523E+02 -0.41342279966E+02  0.16589401690E+03  0.17264787102E+03  0.47000000000E+01 0.  1.
          5    1    3    3  503    0  0.48186359079E+02  0.20476005286E+02 -0.65555734072E+01  0.52974121385E+02  0.47000000000E+01 0. -1.
         -5    1    3    3    0  503 -0.20673512679E+02  0.19589040411E+02  0.10082229107E+03  0.10487301372E+03  0.47000000000E+01 0.  1.
<mgrwt>
<rscale>  0 0.12002137E+03</rscale>
<asrwt>0</asrwt>
<pdfrwt beam="1">  1        2 0.63304251E-02 0.12660768E+03</pdfrwt>
<pdfrwt beam="2">  1       -2 0.62364117E-01 0.12660768E+03</pdfrwt>
<totfact> 0.26802185E+03</totfact>
</mgrwt>
</event>
<event>
 8    1  0.8174053E-004  0.1137792E+03  0.7546771E-02  0.1253954E+00
          3   -1    0    0  501    0  0.00000000000E+00  0.00000000000E+00  0.99105503843E+02  0.99105503843E+02  0.00000000000E+00 0. -1.
         -3   -1    0    0    0  501 -0.00000000000E+00 -0.00000000000E+00 -0.13452119662E+03  0.13452119662E+03  0.00000000000E+00 0.  1.
         23    2    1    2    0    0  0.63984804388E+02  0.30526334404E+02  0.36553073449E+01  0.11332600636E+03  0.88337478797E+02 0.  0.
         23    2    1    2    0    0 -0.63984804388E+02 -0.30526334404E+02 -0.39071000121E+02  0.12030069411E+03  0.88993267539E+02 0.  0.
          5    1    4    4  502    0 -0.67287203138E+01  0.22150659028E+02  0.12612427957E+02  0.26778549464E+02  0.47000000000E+01 0. -1.
         -5    1    3    3    0  503  0.30064864051E+02 -0.25297249578E+02 -0.19172202355E+02  0.43971698054E+02  0.47000000000E+01 0.  1.
          5    1    3    3  503    0  0.33919940337E+02  0.55823583982E+02  0.22827509700E+02  0.69354308303E+02  0.47000000000E+01 0. -1.
         -5    1    4    4    0  502 -0.57256084074E+02 -0.52676993432E+02 -0.51683428078E+02  0.93522144642E+02  0.47000000000E+01 0.  1.
<mgrwt>
<rscale>  0 0.11365097E+03</rscale>
<asrwt>0</asrwt>
<pdfrwt beam="1">  1        3 0.15247001E-01 0.11377923E+03</pdfrwt>
<pdfrwt beam="2">  1       -3 0.20695569E-01 0.11377923E+03</pdfrwt>
<totfact> 0.16955228E+03</totfact>
</mgrwt>
</event>
<event>
 8    1  0.8174053E-004  0.9889443E+02  0.7546771E-02  0.1285255E+00
          1   -1    0    0  501    0  0.00000000000E+00  0.00000000000E+00  0.15477496725E+03  0.15477496725E+03  0.00000000000E+00 0. -1.
         -1   -1    0    0    0  501 -0.00000000000E+00 -0.00000000000E+00 -0.10302813569E+03  0.10302813569E+03  0.00000000000E+00 0.  1.
         23    2    1    2    0    0  0.12734695709E+02  0.22223984679E+02  0.10861714415E+03  0.14372268891E+03  0.90567374556E+02 0.  0.
         23    2    1    2    0    0 -0.12734695709E+02 -0.22223984679E+02 -0.56870312586E+02  0.11408041403E+03  0.95519790842E+02 0.  0.
          5    1    4    4  502    0  0.29588199810E+02 -0.94113750604E+01 -0.61818353320E+02  0.69337106629E+02  0.47000000000E+01 0. -1.
         -5    1    3    3    0  503 -0.26011157524E+02 -0.20646556976E+02  0.24389301842E+02  0.41470334880E+02  0.47000000000E+01 0.  1.
          5    1    3    3  503    0  0.38745853233E+02  0.42870541655E+02  0.84227842309E+02  0.10225235403E+03  0.47000000000E+01 0. -1.
         -5    1    4    4    0  502 -0.42322895519E+02 -0.12812609619E+02  0.49480407334E+01  0.44743307404E+02  0.47000000000E+01 0.  1.
<mgrwt>
<rscale>  0 0.97678519E+02</rscale>
<asrwt>0</asrwt>
<pdfrwt beam="1">  1        1 0.23811533E-01 0.98894431E+02</pdfrwt>
<pdfrwt beam="2">  1       -1 0.15850482E-01 0.98894431E+02</pdfrwt>
<totfact> 0.55853223E+03</totfact>
</mgrwt>
</event>
<event>
 8    1  0.8174053E-004  0.9575886E+02  0.7546771E-02  0.1289614E+00
         -2   -1    0    0    0  501 -0.00000000000E+00  0.00000000000E+00  0.22765292363E+02  0.22765292363E+02  0.00000000000E+00 0.  1.
          2   -1    0    0  501    0  0.00000000000E+00 -0.00000000000E+00 -0.40522857282E+03  0.40522857282E+03  0.00000000000E+00 0. -1.
         23    2    1    2    0    0 -0.14429553916E+02 -0.23945951035E+02 -0.21128262493E+03  0.23197005539E+03  0.91586780724E+02 0.  0.
         23    2    1    2    0    0  0.14429553916E+02  0.23945951035E+02 -0.17118065553E+03  0.19602380980E+03  0.91328509142E+02 0.  0.
          5    1    4    4  502    0  0.23081282746E+02 -0.18105217454E+02 -0.13906536985E+03  0.14220341629E+03  0.47000000000E+01 0. -1.
         -5    1    4    4    0  502 -0.86517288304E+01  0.42051168489E+02 -0.32115285678E+02  0.53820393506E+02  0.47000000000E+01 0.  1.
          5    1    3    3  503    0  0.21322902663E+02  0.10454241235E+02 -0.12915292259E+02  0.27438150665E+02  0.47000000000E+01 0.  1.
         -5    1    3    3    0  503 -0.35752456578E+02 -0.34400192270E+02 -0.19836733267E+03  0.20453190472E+03  0.47000000000E+01 0. -1.
<mgrwt>
<rscale>  0 0.95697051E+02</rscale>
<asrwt>0</asrwt>
<pdfrwt beam="1">  1        2 0.62342857E-01 0.95758859E+02</pdfrwt>
<pdfrwt beam="2">  1       -2 0.35023527E-02 0.95758859E+02</pdfrwt>
<totfact> 0.23853220E+04</totfact>
</mgrwt>
</event>
<event>
 8    1  0.8174053E-004  0.9967395E+02  0.7546771E-02  0.1281412E+00
          2   -1    0    0  501    0  0.00000000000E+00  0.00000000000E+00  0.44568152658E+03  0.44568152658E+03  0.00000000000E+00 0. -1.
         -2   -1    0    0    0  501 -0.00000000000E+00 -0.00000000000E+00 -0.63833528460E+02  0.63833528460E+02  0.00000000000E+00 0.  1.
         23    2    1    2    0    0  0.22871993931E+02 -0.29895550491E+02 -0.14768428290E+02  0.10076211289E+03  0.92293146411E+02 0.  0.
         23    2    1    2    0    0 -0.22871993931E+02  0.29895550491E+02  0.39661642641E+03  0.40875294215E+03  0.91419396033E+02 0.  0.
          5    1    3    3  502    0  0.25441277834E+02  0.28850375565E+02  0.37534482026E+01  0.38933034321E+02  0.47000000000E+01 0. -1.
         -5    1    3    3    0  502 -0.25692839025E+01 -0.58745926056E+02 -0.18521876493E+02  0.61829078570E+02  0.47000000000E+01 0.  1.
          5    1    4    4  503    0 -0.48740688103E+02  0.25462328031E+02  0.35542750924E+03  0.35968707115E+03  0.47000000000E+01 0. -1.
         -5    1    4    4    0  503  0.25868694172E+02  0.44332224604E+01  0.41188917172E+02  0.49065871003E+02  0.47000000000E+01 0.  1.
<mgrwt>
<rscale>  0 0.99471211E+02</rscale>
<asrwt>0</asrwt>
<pdfrwt beam="1">  1        2 0.68566387E-01 0.99673953E+02</pdfrwt>
<pdfrwt beam="2">  1       -2 0.98205431E-02 0.99673953E+02</pdfrwt>
<totfact> 0.45864425E+03</totfact>
</mgrwt>
</event>
<event>
 8    1  0.8174053E-004  0.1049593E+03  0.7546771E-02  0.1271472E+00
         -3   -1    0    0    0  501 -0.00000000000E+00  0.00000000000E+00  0.66079754840E+02  0.66079754840E+02  0.00000000000E+00 0.  1.
          3   -1    0    0  501    0  0.00000000000E+00 -0.00000000000E+00 -0.20017792619E+03  0.20017792619E+03  0.00000000000E+00 0. -1.
         23    2    1    2    0    0 -0.37477443625E+02 -0.25310286853E+02 -0.12398502921E+03  0.16081232087E+03  0.91886591365E+02 0.  0.
         23    2    1    2    0    0  0.37477443625E+02  0.25310286853E+02 -0.10113142141E+02  0.10544536017E+03  0.94716835543E+02 0.  0.
          5    1    3    3  502    0 -0.63491452168E+02 -0.12771495777E+02 -0.11144091418E+03  0.12897845927E+03  0.47000000000E+01 0. -1.
         -5    1    3    3    0  502  0.26014008542E+02 -0.12538791076E+02 -0.12544115029E+02  0.31833861594E+02  0.47000000000E+01 0.  1.
          5    1    4    4  503    0 -0.21962189049E+02  0.11656080635E+02  0.24450539730E+02  0.35186941565E+02  0.47000000000E+01 0. -1.
         -5    1    4    4    0  503  0.59439632675E+02  0.13654206217E+02 -0.34563681871E+02  0.70258418601E+02  0.47000000000E+01 0.  1.
<mgrwt>
<rscale>  0 0.10431669E+03</rscale>
<asrwt>0</asrwt>
<pdfrwt beam="1">  1        3 0.30796604E-01 0.10495927E+03</pdfrwt>
<pdfrwt beam="2">  1       -3 0.10166116E-01 0.10495927E+03</pdfrwt>
<totfact> 0.16096795E+03</totfact>
</mgrwt>
</event>
<event>
 8    1  0.8174053E-004  0.1289573E+03  0.7546771E-02  0.1229846E+00
          2   -1    0    0  501    0  0.00000000000E+00  0.00000000000E+00  0.80164890171E+03  0.80164890171E+03  0.00000000000E+00 0. -1.
         -2   -1    0    0    0  501 -0.00000000000E+00 -0.00000000000E+00 -0.21302786244E+02  0.21302786244E+02  0.00000000000E+00 0.  1.
         23    2    1    2    0    0 -0.52191338616E+02 -0.70897148785E+02  0.30828427860E+03  0.33416937444E+03  0.94231803795E+02 0.  0.
         23    2    1    2    0    0  0.52191338616E+02  0.70897148785E+02  0.47206183686E+03  0.48878231351E+03  0.91188983168E+02 0.  0.
          5    1    3    3  502    0 -0.21329136086E+02  0.26976299060E+01  0.19080757876E+03  0.19207246384E+03  0.47000000000E+01 0. -1.
         -5    1    3    3    0  502 -0.30862202530E+02 -0.73594778691E+02  0.11747669984E+03  0.14209691060E+03  0.47000000000E+01 0.  1.
          5    1    4    4  503    0  0.10498163977E+02  0.53983408169E+02  0.10209432611E+03  0.11605930048E+03  0.47000000000E+01 0. -1.
         -5    1    4    4    0  503  0.41693174639E+02  0.16913740617E+02  0.36996751075E+03  0.37272301303E+03  0.47000000000E+01 0.  1.
<mgrwt>
<rscale>  0 0.12840208E+03</rscale>
<asrwt>0</asrwt>
<pdfrwt beam="1">  1        2 0.12333058E+00 0.12895726E+03</pdfrwt>
<pdfrwt beam="2">  1       -2 0.32773523E-02 0.12895726E+03</pdfrwt>
<totfact> 0.12510045E+04</totfact>
</mgrwt>
</event>
<event>
 8    1  0.8174053E-004  0.9126454E+02  0.7546771E-02  0.1301946E+00
         -1   -1    0    0    0  501 -0.00000000000E+00  0.00000000000E+00  0.80851589360E+02  0.80851589360E+02  0.00000000000E+00 0.  1.
          1   -1    0    0  501    0  0.00000000000E+00 -0.00000000000E+00 -0.10017892765E+03  0.10017892765E+03  0.00000000000E+00 0. -1.
         23    2    1    2    0    0  0.56678774393E+01 -0.15046503556E+00 -0.19245858370E+02  0.93271753934E+02  0.91088251400E+02 0.  0.
         23    2    1    2    0    0 -0.56678774393E+01  0.15046503556E+00 -0.81479924318E-01  0.87758763080E+02  0.87575375443E+02 0.  0.
          5    1    3    3  502    0  0.16201738030E+02  0.34420952888E+02 -0.36516369007E+02  0.52941793683E+02  0.47000000000E+01 0. -1.
         -5    1    3    3    0  502 -0.10533860591E+02 -0.34571417924E+02  0.17270510637E+02  0.40329960251E+02  0.47000000000E+01 0.  1.
          5    1    4    4  503    0 -0.32295893967E+02  0.12085976738E+02 -0.29820151438E+02  0.45830416020E+02  0.47000000000E+01 0. -1.
         -5    1    4    4    0  503  0.26628016528E+02 -0.11935511702E+02  0.29738671513E+02  0.41928347060E+02  0.47000000000E+01 0.  1.
<mgrwt>
<rscale>  0 0.90375173E+02</rscale>
<asrwt>0</asrwt>
<pdfrwt beam="1">  1        1 0.15412143E-01 0.91264544E+02</pdfrwt>
<pdfrwt beam="2">  1       -1 0.12438706E-01 0.91264544E+02</pdfrwt>
<totfact> 0.13959871E+04</totfact>
</mgrwt>
</event>
<event>
 8    1  0.8174053E-004  0.1465477E+03  0.7546771E-02  0.1205559E+00
         -1   -1    0    0    0  501 -0.00000000000E+00  0.00000000000E+00  0.37040896386E+03  0.37040896386E+03  0.00000000000E+00 0.  1.
          1   -1    0    0  501    0  0.00000000000E+00 -0.00000000000E+00 -0.10566155413E+03  0.10566155413E+03  0.00000000000E+00 0. -1.
         23    2    1    2    0    0 -0.11185427306E+03 -0.11287806736E+02 -0.29726284877E+02  0.14714653172E+03  0.90164609466E+02 0.  0.
         23    2    1    2    0    0  0.11185427306E+03  0.11287806736E+02  0.29447369461E+03  0.32892398627E+03  0.94007653647E+02 0.  0.
          5    1    4    4  502    0  0.68629681533E+02  0.29320791583E+02  0.26010681768E+03  0.27064254767E+03  0.47000000000E+01 0. -1.
         -5    1    3    3    0  503 -0.10125804523E+03  0.96633940000E+01  0.83488561815E+01  0.10216832340E+03  0.47000000000E+01 0.  1.
          5    1    3    3  503    0 -0.10596227834E+02 -0.20951200736E+02 -0.38075141058E+02  0.44978208314E+02  0.47000000000E+01 0. -1.
         -5    1    4    4    0  502  0.43224591530E+02 -0.18032984847E+02  0.34366876931E+02  0.58281438601E+02  0.47000000000E+01 0.  1.
<mgrwt>
<rscale>  0 0.14593511E+03</rscale>
<asrwt>0</asrwt>
<pdfrwt beam="1">  1        1 0.16255624E-01 0.14654771E+03</pdfrwt>
<pdfrwt beam="2">  1       -1 0.56985994E-01 0.14654771E+03</pdfrwt>
<totfact> 0.10628437E+03</totfact>
</mgrwt>
</event>
<event>
 8    1  0.8174053E-004  0.9466945E+02  0.7546771E-02  0.1292114E+00
         -3   -1    0    0    0  501 -0.00000000000E+00  0.00000000000E+00  0.21799676334E+03  0.21799676334E+03  0.00000000000E+00 0.  1.
          3   -1    0    0  501    0  0.00000000000E+00 -0.00000000000E+00 -0.80296529257E+02  0.80296529257E+02  0.00000000000E+00 0. -1.
         23    2    1    2    0    0 -0.17579434804E+00  0.19662802098E+02  0.17317139582E+03  0.19719676213E+03  0.92258191908E+02 0.  0.
         23    2    1    2    0    0  0.17579434804E+00 -0.19662802098E+02 -0.35471161744E+02  0.10109653046E+03  0.92604797207E+02 0.  0.
          5    1    3    3  502    0 -0.23162945596E+02 -0.13250916225E+02  0.96649204948E+01  0.28768203240E+02  0.47000000000E+01 0. -1.
         -5    1    4    4    0  503  0.22518234550E+02  0.59841157068E+01  0.23136863520E+02  0.33170543885E+02  0.47000000000E+01 0.  1.
          5    1    4    4  503    0 -0.22342440202E+02 -0.25646917805E+02 -0.58608025264E+02  0.67925986576E+02  0.47000000000E+01 0. -1.
         -5    1    3    3    0  502  0.22987151248E+02  0.32913718323E+02  0.16350647533E+03  0.16842855889E+03  0.47000000000E+01 0.  1.
<mgrwt>
<rscale>  0 0.94584583E+02</rscale>
<asrwt>0</asrwt>
<pdfrwt beam="1">  1        3 0.12353312E-01 0.94669452E+02</pdfrwt>
<pdfrwt beam="2">  1       -3 0.33537963E-01 0.94669452E+02</pdfrwt>
<totfact> 0.97656653E+02</totfact>
</mgrwt>
</event>
<event>
 8    1  0.8174053E-004  0.1472282E+03  0.7546771E-02  0.1203982E+00
          1   -1    0    0  501    0  0.00000000000E+00  0.00000000000E+00  0.44052985733E+03  0.44052985733E+03  0.00000000000E+00 0. -1.
         -1   -1    0    0    0  501 -0.00000000000E+00 -0.00000000000E+00 -0.55258724801E+02  0.55258724801E+02  0.00000000000E+00 0.  1.
         23    2    1    2    0    0 -0.25842228086E+02  0.11275498537E+03  0.27501340398E+03  0.31185137205E+03  0.90760114599E+02 0.  0.
         23    2    1    2    0    0  0.25842228086E+02 -0.11275498537E+03  0.11025772855E+03  0.18393721009E+03  0.91074821272E+02 0.  0.
          5    1    3    3  502    0  0.12510427961E+02  0.54798836375E+02  0.46950820138E+02  0.73388642087E+02  0.47000000000E+01 0. -1.
         -5    1    4    4    0  503  0.12711781171E+02 -0.33557542825E+02 -0.11540738376E+02  0.37986533183E+02  0.47000000000E+01 0.  1.
          5    1    4    4  503    0  0.13130446916E+02 -0.79197442547E+02  0.12179846693E+03  0.14595067690E+03  0.47000000000E+01 0. -1.
         -5    1    3    3    0  502 -0.38352656047E+02  0.57956148997E+02  0.22806258384E+03  0.23846272996E+03  0.47000000000E+01 0.  1.
<mgrwt>
<rscale>  0 0.14717952E+03</rscale>
<asrwt>0</asrwt>
<pdfrwt beam="1">  1        1 0.67773822E-01 0.14722816E+03</pdfrwt>
<pdfrwt beam="2">  1       -1 0.85013426E-02 0.14722816E+03</pdfrwt>
<totfact> 0.40643695E+03</totfact>
</mgrwt>
</event>
<event>
 8    1  0.8174053E-004  0.9979635E+02  0.7546771E-02  0.1281356E+00
          1   -1    0    0  501    0  0.00000000000E+00  0.00000000000E+00  0.28372863460E+03  0.28372863460E+03  0.00000000000E+00 0. -1.
         -1   -1    0    0    0  501 -0.00000000000E+00 -0.00000000000E+00 -0.38188065160E+02  0.38188065160E+02  0.00000000000E+00 0.  1.
         23    2    1    2    0    0 -0.13694135036E+02 -0.34657062615E+02  0.17085380429E+03  0.19726749547E+03  0.91295131328E+02 0.  0.
         23    2    1    2    0    0  0.13694135036E+02  0.34657062615E+02  0.74686765146E+02  0.12464920429E+03  0.92577912691E+02 0.  0.
          5    1    3    3  502    0 -0.43519822936E+02 -0.45009801760E+02  0.13720404410E+03  0.15088703377E+03  0.47000000000E+01 0. -1.
         -5    1    4    4    0  503  0.40278071115E+02  0.50682895448E+02  0.64840575373E+02  0.91746766256E+02  0.47000000000E+01 0.  1.
          5    1    4    4  503    0 -0.26583936079E+02 -0.16025832832E+02  0.98461897730E+01  0.32902438032E+02  0.47000000000E+01 0. -1.
         -5    1    3    3    0  502  0.29825687900E+02  0.10352739145E+02  0.33649760199E+02  0.46380461705E+02  0.47000000000E+01 0.  1.
<mgrwt>
<rscale>  0 0.99497804E+02</rscale>
<asrwt>0</asrwt>
<pdfrwt beam="1">  1        1 0.43650558E-01 0.99796349E+02</pdfrwt>
<pdfrwt beam="2">  1       -1 0.58750871E-02 0.99796349E+02</pdfrwt>
<totfact> 0.11902302E+04</totfact>
</mgrwt>
</event>
<event>
 8    1  0.8174053E-004  0.1291419E+03  0.7546771E-02  0.1228897E+00
         -4   -1    0    0    0  501 -0.00000000000E+00  0.00000000000E+00  0.34451281396E+03  0.34451281396E+03  0.00000000000E+00 0.  1.
          4   -1    0    0  501    0  0.00000000000E+00 -0.00000000000E+00 -0.79015896728E+02  0.79015896728E+02  0.00000000000E+00 0. -1.
         23    2    1    2    0    0  0.88436891439E+02  0.18241267671E+02  0.26475689086E+03  0.29438464718E+03  0.91718491195E+02 0.  0.
         23    2    1    2    0    0 -0.88436891439E+02 -0.18241267671E+02  0.74002637848E+00  0.12914406351E+03  0.92324503176E+02 0.  0.
          5    1    4    4  502    0 -0.10534317686E+03 -0.26876496533E+01 -0.22471686326E+01  0.10550615213E+03  0.47000000000E+01 0. -1.
         -5    1    3    3    0  503  0.19861910545E+02  0.13749769848E+02  0.19429366658E+03  0.19584603783E+03  0.47000000000E+01 0.  1.
          5    1    3    3  503    0  0.68574980894E+02  0.44914978235E+01  0.70463224277E+02  0.98538609351E+02  0.47000000000E+01 0. -1.
         -5    1    4    4    0  502  0.16906285419E+02 -0.15553618018E+02  0.29871950111E+01  0.23637911375E+02  0.47000000000E+01 0.  1.
<mgrwt>
<rscale>  0 0.12903367E+03</rscale>
<asrwt>0</asrwt>
<pdfrwt beam="1">  1        4 0.12156292E-01 0.12914194E+03</pdfrwt>
<pdfrwt beam="2">  1       -4 0.53001971E-01 0.12914194E+03</pdfrwt>
<totfact> 0.30830405E+02</totfact>
</mgrwt>
</event>
<event>
 8    1  0.8174053E-004  0.1044538E+03  0.7546771E-02  0.1272207E+00
         -2   -1    0    0    0  501 -0.00000000000E+00  0.00000000000E+00  0.44402317159E+02  0.44402317159E+02  0.00000000000E+00 0.  1.
          2   -1    0    0  501    0  0.00000000000E+00 -0.00000000000E+00 -0.31826428893E+03  0.31826428893E+03  0.00000000000E+00 0. -1.
         23    2    1    2    0    0  0.48192202291E+02  0.12622084586E+02 -0.46588964202E+02  0.11253938657E+03  0.89514113769E+02 0.  0.
         23    2    1    2    0    0 -0.48192202291E+02 -0.12622084586E+02 -0.22727300757E+03  0.25012721951E+03  0.91808499564E+02 0.  0.
          5    1    4    4  502    0 -0.17557945824E+02 -0.21025681283E+02 -0.21330665713E+03  0.21510969460E+03  0.47000000000E+01 0. -1.
         -5    1    4    4    0  502 -0.30634256466E+02  0.84035966967E+01 -0.13966350441E+02  0.35017524917E+02  0.47000000000E+01 0.  1.
          5    1    3    3  503    0 -0.57602107118E+01 -0.23235568939E+02 -0.40529801705E+02  0.47305671093E+02  0.47000000000E+01 0. -1.
         -5    1    3    3    0  503  0.53952413002E+02  0.35857653525E+02 -0.60591624973E+01  0.65233715480E+02  0.47000000000E+01 0.  1.
<mgrwt>
<rscale>  0 0.10394748E+03</rscale>
<asrwt>0</asrwt>
<pdfrwt beam="1">  1        2 0.48963736E-01 0.10445385E+03</pdfrwt>
<pdfrwt beam="2">  1       -2 0.68311259E-02 0.10445385E+03</pdfrwt>
<totfact> 0.11468516E+04</totfact>
</mgrwt>
</event>
<event>
 8    1  0.8174053E-004  0.9226134E+02  0.7546771E-02  0.1297738E+00
         -1   -1    0    0    0  501 -0.00000000000E+00  0.00000000000E+00  0.17231969423E+02  0.17231969423E+02  0.00000000000E+00 0.  1.
          1   -1    0    0  501    0  0.00000000000E+00 -0.00000000000E+00 -0.55639255071E+03  0.55639255071E+03  0.00000000000E+00 0. -1.
         23    2    1    2    0    0 -0.15606215870E+02  0.50645892171E+01 -0.36813343693E+03  0.37951861791E+03  0.90790692898E+02 0.  0.
         23    2    1    2    0    0  0.15606215870E+02 -0.50645892171E+01 -0.17102714436E+03  0.19410590223E+03  0.90319505831E+02 0.  0.
          5    1    3    3  502    0 -0.52817455706E+02  0.99449694225E+01 -0.23525536849E+03  0.24136230950E+03  0.47000000000E+01 0. -1.
         -5    1    4    4    0  503  0.26018770145E+02 -0.39336507849E+02 -0.55100427218E+02  0.72680701215E+02  0.47000000000E+01 0.  1.
          5    1    4    4  503    0 -0.10412554275E+02  0.34271918631E+02 -0.11592671714E+03  0.12142520101E+03  0.47000000000E+01 0. -1.
         -5    1    3    3    0  502  0.37211239836E+02 -0.48803802053E+01 -0.13287806844E+03  0.13815630841E+03  0.47000000000E+01 0.  1.
<mgrwt>
<rscale>  0 0.92145206E+02</rscale>
<asrwt>0</asrwt>
<pdfrwt beam="1">  1        1 0.85598852E-01 0.92261335E+02</pdfrwt>
<pdfrwt beam="2">  1       -1 0.26510723E-02 0.92261335E+02</pdfrwt>
<totfact> 0.16172675E+04</totfact>
</mgrwt>
</event>
<event>
 8    1  0.8174053E-004  0.1562010E+03  0.7546771E-02  0.1193874E+00
          1   -1    0    0  501    0  0.00000000000E+00  0.00000000000E+00  0.79173892814E+03  0.79173892814E+03  0.00000000000E+00 0. -1.
         -1   -1    0    0    0  501 -0.00000000000E+00 -0.00000000000E+00 -0.32322521292E+02  0.32322521292E+02  0.00000000000E+00 0.  1.
         23    2    1    2    0    0 -0.91381020984E+02 -0.84585156968E+02  0.27265012920E+03  0.31284706327E+03  0.89610558907E+02 0.  0.
         23    2    1    2    0    0  0.91381020984E+02  0.84585156968E+02  0.48676627765E+03  0.51121438616E+03  0.94305884173E+02 0.  0.
          5    1    3    3  502    0 -0.22240223788E+01 -0.53042040243E+02  0.61137506380E+02  0.81106651977E+02  0.47000000000E+01 0. -1.
         -5    1    3    3    0  502 -0.89156998605E+02 -0.31543116725E+02  0.21151262282E+03  0.23174041129E+03  0.47000000000E+01 0.  1.
          5    1    4    4  503    0  0.78332826880E+02  0.13637086226E+02  0.31376089683E+03  0.32371282376E+03  0.47000000000E+01 0. -1.
         -5    1    4    4    0  503  0.13048194104E+02  0.70948070741E+02  0.17300538082E+03  0.18750156240E+03  0.47000000000E+01 0.  1.
<mgrwt>
<rscale>  0 0.15549896E+03</rscale>
<asrwt>0</asrwt>
<pdfrwt beam="1">  1        1 0.12180597E+00 0.15620096E+03</pdfrwt>
<pdfrwt beam="2">  1       -1 0.49726962E-02 0.15620096E+03</pdfrwt>
<totfact> 0.40736647E+03</totfact>
</mgrwt>
</event>
<event>
 8    1  0.8174053E-004  0.9394564E+02  0.7546771E-02  0.1297335E+00
          1   -1    0    0  501    0  0.00000000000E+00  0.00000000000E+00  0.18032062384E+03  0.18032062384E+03  0.00000000000E+00 0. -1.
         -1   -1    0    0    0  501 -0.00000000000E+00 -0.00000000000E+00 -0.96967137800E+02  0.96967137800E+02  0.00000000000E+00 0.  1.
         23    2    1    2    0    0 -0.90019960019E+01 -0.18170994860E+02  0.14315042558E+03  0.17122449423E+03  0.91730922231E+02 0.  0.
         23    2    1    2    0    0  0.90019960019E+01  0.18170994860E+02 -0.59796939534E+02  0.10606326742E+03  0.85220430248E+02 0.  0.
          5    1    4    4  502    0 -0.35241957224E+02 -0.56730765283E+01 -0.16695518472E+02  0.39686391664E+02  0.47000000000E+01 0. -1.
         -5    1    3    3    0  503 -0.11905505123E+02  0.22507669761E+02  0.40682200373E+01  0.26210239690E+02  0.47000000000E+01 0.  1.
          5    1    3    3  503    0  0.29035091210E+01 -0.40678664621E+02  0.13908220554E+03  0.14501425454E+03  0.47000000000E+01 0. -1.
         -5    1    4    4    0  502  0.44243953226E+02  0.23844071388E+02 -0.43101421062E+02  0.66376875755E+02  0.47000000000E+01 0.  1.
<mgrwt>
<rscale>  0 0.92317359E+02</rscale>
<asrwt>0</asrwt>
<pdfrwt beam="1">  1        1 0.27741634E-01 0.93945639E+02</pdfrwt>
<pdfrwt beam="2">  1       -1 0.14918021E-01 0.93945639E+02</pdfrwt>
<totfact> 0.50601033E+03</totfact>
</mgrwt>
</event>
<event>
 8    1  0.8174053E-004  0.9470324E+02  0.7546771E-02  0.1292039E+00
          2   -1    0    0  501    0  0.00000000000E+00  0.00000000000E+00  0.48523220610E+03  0.48523220610E+03  0.00000000000E+00 0. -1.
         -2   -1    0    0    0  501 -0.00000000000E+00 -0.00000000000E+00 -0.22396888328E+02  0.22396888328E+02  0.00000000000E+00 0.  1.
         23    2    1    2    0    0  0.28169896901E+02 -0.27323659748E+00  0.33807059549E+03  0.35099276649E+03  0.90058741054E+02 0.  0.
         23    2    1    2    0    0 -0.28169896901E+02  0.27323659748E+00  0.12476472228E+03  0.15663632794E+03  0.90416179723E+02 0.  0.
          5    1    4    4  502    0  0.18944869510E+02  0.22233031751E+02  0.87877087724E+02  0.92723720419E+02  0.47000000000E+01 0. -1.
         -5    1    3    3    0  503 -0.25002189894E+02 -0.20905919508E+02  0.17750797031E+03  0.18053624703E+03  0.47000000000E+01 0.  1.
          5    1    3    3  503    0  0.53172086795E+02  0.20632682911E+02  0.16056262518E+03  0.17045651945E+03  0.47000000000E+01 0. -1.
         -5    1    4    4    0  502 -0.47114766411E+02 -0.21959795154E+02  0.36887634557E+02  0.63912607523E+02  0.47000000000E+01 0.  1.
<mgrwt>
<rscale>  0 0.94617823E+02</rscale>
<asrwt>0</asrwt>
<pdfrwt beam="1">  1        2 0.74651101E-01 0.94703238E+02</pdfrwt>
<pdfrwt beam="2">  1       -2 0.34456755E-02 0.94703238E+02</pdfrwt>
<totfact> 0.20138794E+04</totfact>
</mgrwt>
</event>
<event>
 7    1  0.8174053E-004  0.1445597E+03  0.7546771E-02  0.1225579E+00
         -1   -1    0    0    0  501 -0.00000000000E+00  0.00000000000E+00  0.19591440365E+03  0.19591440365E+03  0.00000000000E+00 0.  1.
          1   -1    0    0  501    0  0.00000000000E+00 -0.00000000000E+00 -0.75411728618E+02  0.75411728618E+02  0.00000000000E+00 0. -1.
         23    2    1    2    0    0  0.26159491094E+02 -0.20478632639E+02  0.42921543431E+02  0.10726415481E+03  0.92518358435E+02 0.  0.
          5    1    1    2  502    0 -0.59155961587E+02 -0.42173641686E+02  0.30707711902E+02  0.79013273661E+02  0.47000000000E+01 0. -1.
         -5    1    1    2    0  502  0.32996470493E+02  0.62652274325E+02  0.46873419697E+02  0.85048703794E+02  0.47000000000E+01 0.  1.
          5    1    3    3  503    0 -0.21761645648E+02 -0.21167244091E+02 -0.13094282278E+02  0.33394186202E+02  0.47000000000E+01 0. -1.
         -5    1    3    3    0  503  0.47921136742E+02  0.68861145217E+00  0.56015825708E+02  0.73869968608E+02  0.47000000000E+01 0.  1.
<mgrwt>
<rscale>  0 0.13127326E+03</rscale>
<asrwt>0</asrwt>
<pdfrwt beam="1">  1        1 0.11601804E-01 0.14455968E+03</pdfrwt>
<pdfrwt beam="2">  1       -1 0.30140677E-01 0.14455968E+03</pdfrwt>
<totfact> 0.50954852E+03</totfact>
</mgrwt>
</event>
<event>
 8    1  0.8174053E-004  0.1457224E+03  0.7546771E-02  0.1207947E+00
         -2   -1    0    0    0  501 -0.00000000000E+00  0.00000000000E+00  0.44473259131E+02  0.44473259131E+02  0.00000000000E+00 0.  1.
          2   -1    0    0  501    0  0.00000000000E+00 -0.00000000000E+00 -0.51650355737E+03  0.51650355737E+03  0.00000000000E+00 0. -1.
         23    2    1    2    0    0  0.61555525977E+02  0.93089300338E+02 -0.33633189583E+03  0.36654352052E+03  0.93703295893E+02 0.  0.
         23    2    1    2    0    0 -0.61555525977E+02 -0.93089300338E+02 -0.13569840240E+03  0.19443329598E+03  0.83279946903E+02 0.  0.
          5    1    4    4  502    0 -0.32397038996E+02  0.68538410745E+01 -0.46364240202E+02  0.57168838039E+02  0.47000000000E+01 0. -1.
         -5    1    4    4    0  502 -0.29158486982E+02 -0.99943141413E+02 -0.89334162197E+02  0.13726445794E+03  0.47000000000E+01 0.  1.
          5    1    3    3  503    0  0.47603942236E+02  0.78625232977E+02 -0.33319024785E+03  0.34566731670E+03  0.47000000000E+01 0. -1.
         -5    1    3    3    0  503  0.13951583741E+02  0.14464067361E+02 -0.31416479867E+01  0.20876203812E+02  0.47000000000E+01 0.  1.
<mgrwt>
<rscale>  0 0.14407631E+03</rscale>
<asrwt>0</asrwt>
<pdfrwt beam="1">  1        2 0.79462081E-01 0.14572237E+03</pdfrwt>
<pdfrwt beam="2">  1       -2 0.68420403E-02 0.14572237E+03</pdfrwt>
<totfact> 0.69756642E+03</totfact>
</mgrwt>
</event>
<event>
 8    1  0.8174053E-004  0.9531160E+02  0.7546771E-02  0.1292402E+00
         -1   -1    0    0    0  501 -0.00000000000E+00  0.00000000000E+00  0.10102211246E+03  0.10102211246E+03  0.00000000000E+00 0.  1.
          1   -1    0    0  501    0  0.00000000000E+00 -0.00000000000E+00 -0.13360039748E+03  0.13360039748E+03  0.00000000000E+00 0. -1.
         23    2    1    2    0    0  0.13408424092E+02 -0.10305733629E+02  0.52965587435E+02  0.10903969177E+03  0.93799290757E+02 0.  0.
         23    2    1    2    0    0 -0.13408424092E+02  0.10305733629E+02 -0.85543872455E+02  0.12558281816E+03  0.90373094009E+02 0.  0.
          5    1    3    3  502    0  0.50449954306E+02 -0.53671867288E+01  0.10037361508E+02  0.51931139106E+02  0.47000000000E+01 0. -1.
         -5    1    3    3    0  502 -0.37041530214E+02 -0.49385469006E+01  0.42928225927E+02  0.57108552663E+02  0.47000000000E+01 0.  1.
          5    1    4    4  503    0 -0.11147102028E+02  0.48032718016E+02 -0.66726864070E+02  0.83102131575E+02  0.47000000000E+01 0. -1.
         -5    1    4    4    0  503 -0.22613220638E+01 -0.37726984387E+02 -0.18817008385E+02  0.42480686588E+02  0.47000000000E+01 0.  1.
<mgrwt>
<rscale>  0 0.94457737E+02</rscale>
<asrwt>0</asrwt>
<pdfrwt beam="1">  1        1 0.20553907E-01 0.95311599E+02</pdfrwt>
<pdfrwt beam="2">  1       -1 0.15541863E-01 0.95311599E+02</pdfrwt>
<totfact> 0.69030898E+03</totfact>
</mgrwt>
</event>
<event>
 8    1  0.8174053E-004  0.9527065E+02  0.7546771E-02  0.1292054E+00
         -1   -1    0    0    0  501 -0.00000000000E+00  0.00000000000E+00  0.40705078553E+02  0.40705078553E+02  0.00000000000E+00 0.  1.
          1   -1    0    0  501    0  0.00000000000E+00 -0.00000000000E+00 -0.21793598194E+03  0.21793598194E+03  0.00000000000E+00 0. -1.
         23    2    1    2    0    0  0.12225066134E+02  0.11781978086E+02 -0.80983240330E+02  0.12503911877E+03  0.93745553275E+02 0.  0.
         23    2    1    2    0    0 -0.12225066134E+02 -0.11781978086E+02 -0.96247663060E+02  0.13360194173E+03  0.91091157303E+02 0.  0.
          5    1    3    3  502    0  0.11419159663E+02  0.51736196631E+02 -0.33764373661E+02  0.63001223623E+02  0.47000000000E+01 0. -1.
         -5    1    3    3    0  502  0.80590647073E+00 -0.39954218545E+02 -0.47218866669E+02  0.62037895147E+02  0.47000000000E+01 0.  1.
          5    1    4    4  503    0  0.35885843892E+02  0.56809419163E+01 -0.20260695713E+02  0.41864694955E+02  0.47000000000E+01 0. -1.
         -5    1    4    4    0  503 -0.48110910026E+02 -0.17462920003E+02 -0.75986967347E+02  0.91737246771E+02  0.47000000000E+01 0.  1.
<mgrwt>
<rscale>  0 0.94611156E+02</rscale>
<asrwt>0</asrwt>
<pdfrwt beam="1">  1        1 0.33528614E-01 0.95270646E+02</pdfrwt>
<pdfrwt beam="2">  1       -1 0.62623196E-02 0.95270646E+02</pdfrwt>
<totfact> 0.14893329E+04</totfact>
</mgrwt>
</event>
<event>
 8    1  0.8174053E-004  0.1215688E+03  0.7546771E-02  0.1243769E+00
          1   -1    0    0  501    0  0.00000000000E+00  0.00000000000E+00  0.23580221908E+03  0.23580221908E+03  0.00000000000E+00 0. -1.
         -1   -1    0    0    0  501 -0.00000000000E+00 -0.00000000000E+00 -0.12448347753E+03  0.12448347753E+03  0.00000000000E+00 0.  1.
         23    2    1    2    0    0 -0.69957047649E+02  0.13686593307E+02  0.18565704326E+03  0.21778952429E+03  0.88783037961E+02 0.  0.
         23    2    1    2    0    0  0.69957047649E+02 -0.13686593307E+02 -0.74338301707E+02  0.14249617231E+03  0.98476721461E+02 0.  0.
          5    1    4    4  502    0  0.19917003697E+02 -0.14625073071E+02  0.22268012183E+02  0.33593662574E+02  0.47000000000E+01 0. -1.
         -5    1    4    4    0  502  0.50040043953E+02  0.93847976404E+00 -0.96606313890E+02  0.10890250973E+03  0.47000000000E+01 0.  1.
          5    1    3    3  503    0 -0.65515137311E+02 -0.24386539774E+02  0.14849672150E+03  0.16419592819E+03  0.47000000000E+01 0. -1.
         -5    1    3    3    0  503 -0.44419103387E+01  0.38073133081E+02  0.37160321758E+02  0.53593596103E+02  0.47000000000E+01 0.  1.
<mgrwt>
<rscale>  0 0.11959359E+03</rscale>
<asrwt>0</asrwt>
<pdfrwt beam="1">  1        1 0.36277265E-01 0.12156881E+03</pdfrwt>
<pdfrwt beam="2">  1       -1 0.19151304E-01 0.12156881E+03</pdfrwt>
<totfact> 0.24909541E+03</totfact>
</mgrwt>
</event>
<event>
 8    1  0.8174053E-004  0.1004768E+03  0.7546771E-02  0.1279787E+00
          2   -1    0    0  501    0  0.00000000000E+00  0.00000000000E+00  0.86892288334E+03  0.86892288334E+03  0.00000000000E+00 0. -1.
         -2   -1    0    0    0  501 -0.00000000000E+00 -0.00000000000E+00 -0.12551338416E+02  0.12551338416E+02  0.00000000000E+00 0.  1.
         23    2    1    2    0    0  0.13240521201E+02 -0.31961094814E+02  0.55691704114E+03  0.56590827413E+03  0.94333244586E+02 0.  0.
         23    2    1    2    0    0 -0.13240521201E+02  0.31961094814E+02  0.29945450379E+03  0.31556594763E+03  0.93338333391E+02 0.  0.
          5    1    3    3  502    0  0.34338406002E+02 -0.49709729880E+02  0.48455036625E+03  0.48832502578E+03  0.47000000000E+01 0. -1.
         -5    1    3    3    0  502 -0.21097884802E+02  0.17748635065E+02  0.72366674889E+02  0.77583248349E+02  0.47000000000E+01 0.  1.
          5    1    4    4  503    0 -0.47157348478E+02  0.18837961154E+02  0.24266841141E+03  0.24796921622E+03  0.47000000000E+01 0. -1.
         -5    1    4    4    0  503  0.33916827278E+02  0.13123133660E+02  0.56786092377E+02  0.67596731408E+02  0.47000000000E+01 0.  1.
<mgrwt>
<rscale>  0 0.10024259E+03</rscale>
<asrwt>0</asrwt>
<pdfrwt beam="1">  1        2 0.13368040E+00 0.10047678E+03</pdfrwt>
<pdfrwt beam="2">  1       -2 0.19309758E-02 0.10047678E+03</pdfrwt>
<totfact> 0.23936811E+04</totfact>
</mgrwt>
</event>
<event>
 8    1  0.8174053E-004  0.2932066E+03  0.7546771E-02  0.1089150E+00
          1   -1    0    0  501    0  0.00000000000E+00  0.00000000000E+00  0.15581780813E+04  0.15581780813E+04  0.00000000000E+00 0. -1.
         -1   -1    0    0    0  501 -0.00000000000E+00 -0.00000000000E+00 -0.63408753439E+02  0.63408753439E+02  0.00000000000E+00 0.  1.
         23    2    1    2    0    0 -0.21242025377E+03  0.17455323633E+03  0.43956943600E+03  0.52640788343E+03  0.91064670117E+02 0.  0.
         23    2    1    2    0    0  0.21242025377E+03 -0.17455323633E+03  0.10551998919E+04  0.10951789514E+04  0.10187701946E+03 0.  0.
          5    1    3    3  502    0 -0.31969565229E+02 -0.52973759448E+01  0.72621672710E+02  0.79662492053E+02  0.47000000000E+01 0. -1.
         -5    1    3    3    0  502 -0.18045068854E+03  0.17985061227E+03  0.36694776329E+03  0.44674539137E+03  0.47000000000E+01 0.  1.
          5    1    4    4  503    0  0.11940582035E+03 -0.10024614867E+03  0.77762805750E+03  0.79311696872E+03  0.47000000000E+01 0. -1.
         -5    1    4    4    0  503  0.93014433418E+02 -0.74307087660E+02  0.27757183441E+03  0.30206198264E+03  0.47000000000E+01 0.  1.
<mgrwt>
<rscale>  0 0.29230767E+03</rscale>
<asrwt>0</asrwt>
<pdfrwt beam="1">  1        1 0.23971968E+00 0.29320662E+03</pdfrwt>
<pdfrwt beam="2">  1       -1 0.97551940E-02 0.29320662E+03</pdfrwt>
<totfact> 0.41465019E+02</totfact>
</mgrwt>
</event>
<event>
 8    1  0.8174053E-004  0.1689256E+03  0.7546771E-02  0.1179001E+00
         -1   -1    0    0    0  501 -0.00000000000E+00  0.00000000000E+00  0.10803976842E+03  0.10803976842E+03  0.00000000000E+00 0.  1.
          1   -1    0    0  501    0  0.00000000000E+00 -0.00000000000E+00 -0.33384879754E+03  0.33384879754E+03  0.00000000000E+00 0. -1.
         23    2    1    2    0    0  0.12977935612E+03 -0.57620918343E+02 -0.11840010549E+02  0.16934006313E+03  0.91504205518E+02 0.  0.
         23    2    1    2    0    0 -0.12977935612E+03  0.57620918343E+02 -0.21396901857E+03  0.27254850282E+03  0.91307688503E+02 0.  0.
          5    1    4    4  502    0 -0.82711504345E+02  0.80381121320E+02 -0.15966212680E+03  0.19701878679E+03  0.47000000000E+01 0. -1.
         -5    1    3    3    0  503  0.52955410991E+02  0.16607835060E+02  0.17635248627E+02  0.58422493380E+02  0.47000000000E+01 0.  1.
          5    1    3    3  503    0  0.76823945128E+02 -0.74228753403E+02 -0.29475259176E+02  0.11091756975E+03  0.47000000000E+01 0. -1.
         -5    1    4    4    0  502 -0.47067851773E+02 -0.22760202977E+02 -0.54306891767E+02  0.75529716030E+02  0.47000000000E+01 0.  1.
<mgrwt>
<rscale>  0 0.16889904E+03</rscale>
<asrwt>0</asrwt>
<pdfrwt beam="1">  1        1 0.51361353E-01 0.16892564E+03</pdfrwt>
<pdfrwt beam="2">  1       -1 0.16621503E-01 0.16892564E+03</pdfrwt>
<totfact> 0.20525833E+03</totfact>
</mgrwt>
</event>
<event>
 8    1  0.8174053E-004  0.9296568E+02  0.7546771E-02  0.1298101E+00
          3   -1    0    0  501    0  0.00000000000E+00  0.00000000000E+00  0.15272562936E+03  0.15272562936E+03  0.00000000000E+00 0. -1.
         -3   -1    0    0    0  501 -0.00000000000E+00 -0.00000000000E+00 -0.60152416088E+02  0.60152416088E+02  0.00000000000E+00 0.  1.
         23    2    1    2    0    0 -0.15417334759E+02 -0.91684931932E+00  0.80426594408E+02  0.12292702726E+03  0.91673780985E+02 0.  0.
         23    2    1    2    0    0  0.15417334759E+02  0.91684931932E+00  0.12146618867E+02  0.89951018187E+02  0.87778758816E+02 0.  0.
          5    1    4    4  502    0 -0.22569011902E+02  0.18980511155E+02 -0.20735287804E+02  0.36354673182E+02  0.47000000000E+01 0. -1.
         -5    1    3    3    0  503  0.30312584422E+02 -0.23585283794E+02  0.50341810764E+02  0.63494143801E+02  0.47000000000E+01 0.  1.
          5    1    3    3  503    0 -0.45729919181E+02  0.22668434475E+02  0.30084783644E+02  0.59432883463E+02  0.47000000000E+01 0. -1.
         -5    1    4    4    0  502  0.37986346661E+02 -0.18063661835E+02  0.32881906671E+02  0.53596345004E+02  0.47000000000E+01 0.  1.
<mgrwt>
<rscale>  0 0.91990813E+02</rscale>
<asrwt>0</asrwt>
<pdfrwt beam="1">  1        3 0.23496251E-01 0.92965676E+02</pdfrwt>
<pdfrwt beam="2">  1       -3 0.92542179E-02 0.92965676E+02</pdfrwt>
<totfact> 0.29910948E+03</totfact>
</mgrwt>
</event>
<event>
 8    1  0.8174053E-004  0.1455634E+03  0.7546771E-02  0.1206252E+00
          1   -1    0    0  501    0  0.00000000000E+00  0.00000000000E+00  0.33885660264E+03  0.33885660264E+03  0.00000000000E+00 0. -1.
         -1   -1    0    0    0  501 -0.00000000000E+00 -0.00000000000E+00 -0.64920306401E+02  0.64920306401E+02  0.00000000000E+00 0.  1.
         23    2    1    2    0    0  0.11303529396E+03  0.11122506446E+02  0.95618631724E+02  0.17359027761E+03  0.89944282299E+02 0.  0.
         23    2    1    2    0    0 -0.11303529396E+03 -0.11122506446E+02  0.17831766451E+03  0.23018663143E+03  0.91038497253E+02 0.  0.
          5    1    4    4  502    0 -0.92537895843E+02 -0.11313739076E+01  0.18418082890E+03  0.20617761738E+03  0.47000000000E+01 0. -1.
         -5    1    4    4    0  502 -0.20497398114E+02 -0.99911325386E+01 -0.58631643908E+01  0.24009014047E+02  0.47000000000E+01 0.  1.
          5    1    3    3  503    0  0.39202825226E+02 -0.30686217841E+02  0.67654432257E+02  0.84129172557E+02  0.47000000000E+01 0. -1.
         -5    1    3    3    0  503  0.73832468731E+02  0.41808724287E+02  0.27964199467E+02  0.89461105053E+02  0.47000000000E+01 0.  1.
<mgrwt>
<rscale>  0 0.14539262E+03</rscale>
<asrwt>0</asrwt>
<pdfrwt beam="1">  1        1 0.52131784E-01 0.14556337E+03</pdfrwt>
<pdfrwt beam="2">  1       -1 0.99877396E-02 0.14556337E+03</pdfrwt>
<totfact> 0.44251778E+03</totfact>
</mgrwt>
</event>
<event>
 8    1  0.8174053E-004  0.9781909E+02  0.7546771E-02  0.1285716E+00
         -1   -1    0    0    0  501 -0.00000000000E+00  0.00000000000E+00  0.13636311575E+03  0.13636311575E+03  0.00000000000E+00 0.  1.
          1   -1    0    0  501    0  0.00000000000E+00 -0.00000000000E+00 -0.81935283155E+02  0.81935283155E+02  0.00000000000E+00 0. -1.
         23    2    1    2    0    0 -0.29250221892E+02 -0.25983463227E+01  0.70135405949E+02  0.11922618849E+03  0.91834535829E+02 0.  0.
         23    2    1    2    0    0  0.29250221892E+02  0.25983463227E+01 -0.15707573352E+02  0.99072210413E+02  0.93307278018E+02 0.  0.
          5    1    3    3  502    0 -0.22627132281E+02 -0.46007390779E+02  0.45195646671E+02  0.68508419917E+02  0.47000000000E+01 0. -1.
         -5    1    3    3    0  502 -0.66230896116E+01  0.43409044456E+02  0.24939759278E+02  0.50717768577E+02  0.47000000000E+01 0.  1.
          5    1    4    4  503    0  0.28545098144E+02 -0.42228659659E+02 -0.17111855432E+02  0.53972103174E+02  0.47000000000E+01 0. -1.
         -5    1    4    4    0  503  0.70512374791E+00  0.44827005982E+02  0.14042820797E+01  0.45100107239E+02  0.47000000000E+01 0.  1.
<mgrwt>
<rscale>  0 0.97466239E+02</rscale>
<asrwt>0</asrwt>
<pdfrwt beam="1">  1        1 0.12605428E-01 0.97819093E+02</pdfrwt>
<pdfrwt beam="2">  1       -1 0.20978941E-01 0.97819093E+02</pdfrwt>
<totfact> 0.80418056E+03</totfact>
</mgrwt>
</event>
<event>
 8    1  0.8174053E-004  0.1025236E+03  0.7546771E-02  0.1275505E+00
         -1   -1    0    0    0  501 -0.00000000000E+00  0.00000000000E+00  0.51078350140E+02  0.51078350140E+02  0.00000000000E+00 0.  1.
          1   -1    0    0  501    0  0.00000000000E+00 -0.00000000000E+00 -0.23884867016E+03  0.23884867016E+03  0.00000000000E+00 0. -1.
         23    2    1    2    0    0  0.37785714920E+02  0.24679844395E+02 -0.14950096770E+03  0.18127776750E+03  0.92055606430E+02 0.  0.
         23    2    1    2    0    0 -0.37785714920E+02 -0.24679844395E+02 -0.38269352322E+02  0.10864925280E+03  0.91122235684E+02 0.  0.
          5    1    3    3  502    0  0.31589451000E+02 -0.31757612700E+02 -0.75094510069E+02  0.87565488757E+02  0.47000000000E+01 0. -1.
         -5    1    3    3    0  502  0.61962639200E+01  0.56437457095E+02 -0.74406457633E+02  0.93712278744E+02  0.47000000000E+01 0.  1.
          5    1    4    4  503    0 -0.37483148272E+02 -0.57259014867E+02 -0.28783240244E+02  0.74391841669E+02  0.47000000000E+01 0. -1.
         -5    1    4    4    0  503 -0.30256664757E+00  0.32579170472E+02 -0.94861120783E+01  0.34257411133E+02  0.47000000000E+01 0.  1.
<mgrwt>
<rscale>  0 0.10231365E+03</rscale>
<asrwt>0</asrwt>
<pdfrwt beam="1">  1        1 0.36745950E-01 0.10252361E+03</pdfrwt>
<pdfrwt beam="2">  1       -1 0.78582075E-02 0.10252361E+03</pdfrwt>
<totfact> 0.95615785E+03</totfact>
</mgrwt>
</event>
<event>
 8    1  0.8174053E-004  0.9993748E+02  0.7546771E-02  0.1281038E+00
          1   -1    0    0  501    0  0.00000000000E+00  0.00000000000E+00  0.18345206607E+03  0.18345206607E+03  0.00000000000E+00 0. -1.
         -1   -1    0    0    0  501 -0.00000000000E+00 -0.00000000000E+00 -0.30350259862E+03  0.30350259862E+03  0.00000000000E+00 0.  1.
         23    2    1    2    0    0  0.32941285245E+02 -0.21453344640E+02 -0.28092501656E+03  0.29817170508E+03  0.91881045431E+02 0.  0.
         23    2    1    2    0    0 -0.32941285245E+02  0.21453344640E+02  0.16087448401E+03  0.18878295961E+03  0.90625779799E+02 0.  0.
          5    1    4    4  502    0 -0.10214643028E+01  0.21832056239E+02  0.15422735683E+03  0.15583917884E+03  0.47000000000E+01 0. -1.
         -5    1    4    4    0  502 -0.31919820942E+02 -0.37871159901E+00  0.66471271828E+01  0.32943780767E+02  0.47000000000E+01 0.  1.
          5    1    3    3  503    0 -0.70135895370E+01  0.30392613733E+02 -0.61121075053E+02  0.68780645704E+02  0.47000000000E+01 0. -1.
         -5    1    3    3    0  503  0.39954874782E+02 -0.51845958374E+02 -0.21980394151E+03  0.22939105938E+03  0.47000000000E+01 0.  1.
<mgrwt>
<rscale>  0 0.99648019E+02</rscale>
<asrwt>0</asrwt>
<pdfrwt beam="1">  1        1 0.28223395E-01 0.99937484E+02</pdfrwt>
<pdfrwt beam="2">  1       -1 0.46692707E-01 0.99937484E+02</pdfrwt>
<totfact> 0.75717079E+02</totfact>
</mgrwt>
</event>
<event>
 8    1  0.8174053E-004  0.9541651E+02  0.7546771E-02  0.1291078E+00
         -1   -1    0    0    0  501 -0.00000000000E+00  0.00000000000E+00  0.29155667687E+02  0.29155667687E+02  0.00000000000E+00 0.  1.
          1   -1    0    0  501    0  0.00000000000E+00 -0.00000000000E+00 -0.30744447362E+03  0.30744447362E+03  0.00000000000E+00 0. -1.
         23    2    1    2    0    0 -0.19889354646E+02 -0.15087787946E+02 -0.13695918273E+03  0.16607632506E+03  0.90555509149E+02 0.  0.
         23    2    1    2    0    0  0.19889354646E+02  0.15087787946E+02 -0.14132962321E+03  0.17052381625E+03  0.92092788753E+02 0.  0.
          5    1    3    3  502    0  0.29204367711E+02  0.49931816407E+01 -0.16189710925E+02  0.34088468668E+02  0.47000000000E+01 0. -1.
         -5    1    4    4    0  503 -0.22400402322E+02 -0.24275810342E+02 -0.29375102329E+02  0.44453117200E+02  0.47000000000E+01 0.  1.
          5    1    4    4  503    0  0.42289756969E+02  0.39363598288E+02 -0.11195452088E+03  0.12607069905E+03  0.47000000000E+01 0. -1.
         -5    1    3    3    0  502 -0.49093722357E+02 -0.20080969586E+02 -0.12076947180E+03  0.13198785639E+03  0.47000000000E+01 0.  1.
<mgrwt>
<rscale>  0 0.95043608E+02</rscale>
<asrwt>0</asrwt>
<pdfrwt beam="1">  1        1 0.47299151E-01 0.95416505E+02</pdfrwt>
<pdfrwt beam="2">  1       -1 0.44854873E-02 0.95416505E+02</pdfrwt>
<totfact> 0.15965137E+04</totfact>
</mgrwt>
</event>
<event>
 8    1  0.8174053E-004  0.9364707E+02  0.7546771E-02  0.1295770E+00
         -2   -1    0    0    0  501 -0.00000000000E+00  0.00000000000E+00  0.40801462820E+02  0.40801462820E+02  0.00000000000E+00 0.  1.
          2   -1    0    0  501    0  0.00000000000E+00 -0.00000000000E+00 -0.20908503354E+03  0.20908503354E+03  0.00000000000E+00 0. -1.
         23    2    1    2    0    0  0.55829388972E+00 -0.10954844247E+02 -0.80482622842E+02  0.12151679791E+03  0.90380082378E+02 0.  0.
         23    2    1    2    0    0 -0.55829388972E+00  0.10954844247E+02 -0.87800947876E+02  0.12836969845E+03  0.93002433982E+02 0.  0.
          5    1    4    4  502    0  0.16529601774E+02  0.42407187760E+02 -0.78866214836E+02  0.91178764804E+02  0.47000000000E+01 0. -1.
         -5    1    4    4    0  502 -0.17087895664E+02 -0.31452343513E+02 -0.89347330402E+01  0.37190933642E+02  0.47000000000E+01 0.  1.
          5    1    3    3  503    0  0.24675002711E+02  0.76910679919E+01 -0.86228941676E+02  0.90141714362E+02  0.47000000000E+01 0. -1.
         -5    1    3    3    0  503 -0.24116708821E+02 -0.18645912239E+02  0.57463188342E+01  0.31375083550E+02  0.47000000000E+01 0.  1.
<mgrwt>
<rscale>  0 0.92989221E+02</rscale>
<asrwt>0</asrwt>
<pdfrwt beam="1">  1        2 0.32166929E-01 0.93647066E+02</pdfrwt>
<pdfrwt beam="2">  1       -2 0.62771480E-02 0.93647066E+02</pdfrwt>
<totfact> 0.20081975E+04</totfact>
</mgrwt>
</event>
<event>
 8    1  0.8174053E-004  0.1289510E+03  0.7546771E-02  0.1233212E+00
         -2   -1    0    0    0  501 -0.00000000000E+00  0.00000000000E+00  0.50150895354E+03  0.50150895354E+03  0.00000000000E+00 0.  1.
          2   -1    0    0  501    0  0.00000000000E+00 -0.00000000000E+00 -0.32354414651E+02  0.32354414651E+02  0.00000000000E+00 0. -1.
         23    2    1    2    0    0 -0.36627264767E+02 -0.65368422042E+02  0.30848498199E+03  0.33435212024E+03  0.10494650575E+03 0.  0.
         23    2    1    2    0    0  0.36627264767E+02  0.65368422042E+02  0.16066955690E+03  0.19951124795E+03  0.91517454192E+02 0.  0.
          5    1    4    4  502    0 -0.86514848699E+01  0.68137377138E+02  0.70924143830E+02  0.98842675660E+02  0.47000000000E+01 0. -1.
         -5    1    3    3    0  503 -0.75083039030E+01 -0.82124953527E+02  0.27316166489E+03  0.28537741289E+03  0.47000000000E+01 0.  1.
          5    1    3    3  503    0 -0.29118960864E+02  0.16756531484E+02  0.35323317099E+02  0.48974707350E+02  0.47000000000E+01 0. -1.
         -5    1    4    4    0  502  0.45278749637E+02 -0.27689550951E+01  0.89745413066E+02  0.10066857229E+03  0.47000000000E+01 0.  1.
<mgrwt>
<rscale>  0 0.12619607E+03</rscale>
<asrwt>0</asrwt>
<pdfrwt beam="1">  1        2 0.49776026E-02 0.12895098E+03</pdfrwt>
<pdfrwt beam="2">  1       -2 0.77155218E-01 0.12895098E+03</pdfrwt>
<totfact> 0.23326785E+03</totfact>
</mgrwt>
</event>
<event>
 8    1  0.8174053E-004  0.1100858E+03  0.7546771E-02  0.1260558E+00
         -1   -1    0    0    0  501 -0.00000000000E+00  0.00000000000E+00  0.87499275168E+03  0.87499275168E+03  0.00000000000E+00 0.  1.
          1   -1    0    0  501    0  0.00000000000E+00 -0.00000000000E+00 -0.16706259304E+02  0.16706259304E+02  0.00000000000E+00 0. -1.
         23    2    1    2    0    0  0.32204797530E+02  0.54076667701E+02  0.24402806675E+03  0.26770987147E+03  0.90318563707E+02 0.  0.
         23    2    1    2    0    0 -0.32204797530E+02 -0.54076667701E+02  0.61425842563E+03  0.62398913951E+03  0.89931072483E+02 0.  0.
          5    1    3    3  502    0  0.32867210276E+02  0.93747662390E+00  0.23165926501E+02  0.40495463010E+02  0.47000000000E+01 0. -1.
         -5    1    4    4    0  503 -0.22942277434E+02  0.22263209060E+02  0.20712001139E+03  0.20962535078E+03  0.47000000000E+01 0.  1.
          5    1    4    4  503    0 -0.92625200957E+01 -0.76339876760E+02  0.40713841424E+03  0.41436378873E+03  0.47000000000E+01 0. -1.
         -5    1    3    3    0  502 -0.66241274593E+00  0.53139191077E+02  0.22086214025E+03  0.22721440846E+03  0.47000000000E+01 0.  1.
<mgrwt>
<rscale>  0 0.11000627E+03</rscale>
<asrwt>0</asrwt>
<pdfrwt beam="1">  1        1 0.25701944E-02 0.11008578E+03</pdfrwt>
<pdfrwt beam="2">  1       -1 0.13461423E+00 0.11008578E+03</pdfrwt>
<totfact> 0.20292759E+03</totfact>
</mgrwt>
</event>
<event>
 8    1  0.8174053E-004  0.9586640E+02  0.7546771E-02  0.1289394E+00
         -2   -1    0    0    0  501 -0.00000000000E+00  0.00000000000E+00  0.86767162594E+02  0.86767162594E+02  0.00000000000E+00 0.  1.
          2   -1    0    0  501    0  0.00000000000E+00 -0.00000000000E+00 -0.26788447419E+03  0.26788447419E+03  0.00000000000E+00 0. -1.
         23    2    1    2    0    0  0.26600763745E+01  0.27730156575E+02  0.47509035372E+02  0.10673960993E+03  0.91434119977E+02 0.  0.
         23    2    1    2    0    0 -0.26600763745E+01 -0.27730156575E+02 -0.22862634697E+03  0.24791202685E+03  0.91729651375E+02 0.  0.
          5    1    4    4  502    0  0.35770333925E+02 -0.31967686861E+02 -0.72946748974E+02  0.87434363829E+02  0.47000000000E+01 0.  1.
         -5    1    4    4    0  502 -0.38430410299E+02  0.42375302857E+01 -0.15567959799E+03  0.16047766302E+03  0.47000000000E+01 0. -1.
          5    1    3    3  503    0 -0.40980957741E+02  0.12411869429E+01  0.80510461500E+01  0.42046269591E+02  0.47000000000E+01 0. -1.
         -5    1    3    3    0  503  0.43641034115E+02  0.26488969632E+02  0.39457989222E+02  0.64693340339E+02  0.47000000000E+01 0.  1.
<mgrwt>
<rscale>  0 0.95795636E+02</rscale>
<asrwt>0</asrwt>
<pdfrwt beam="1">  1        2 0.41212995E-01 0.95866399E+02</pdfrwt>
<pdfrwt beam="2">  1       -2 0.13348794E-01 0.95866399E+02</pdfrwt>
<totfact> 0.48167799E+03</totfact>
</mgrwt>
</event>
<event>
 8    1  0.8174053E-004  0.1179527E+03  0.7546771E-02  0.1249305E+00
          2   -1    0    0  501    0  0.00000000000E+00  0.00000000000E+00  0.63892694723E+03  0.63892694723E+03  0.00000000000E+00 0. -1.
         -2   -1    0    0    0  501 -0.00000000000E+00 -0.00000000000E+00 -0.38720573198E+02  0.38720573198E+02  0.00000000000E+00 0.  1.
         23    2    1    2    0    0  0.21753277162E+02 -0.57481357738E+02  0.63938297157E+02  0.12856074543E+03  0.93072272274E+02 0.  0.
         23    2    1    2    0    0 -0.21753277162E+02  0.57481357738E+02  0.53626807687E+03  0.54908677500E+03  0.10067534282E+03 0.  0.
          5    1    3    3  502    0  0.36659975235E+02  0.84007402976E+01  0.39662585506E+01  0.38109676313E+02  0.47000000000E+01 0. -1.
         -5    1    4    4    0  503  0.88208901007E+01 -0.25701791898E+02  0.92137154387E+02  0.96175544851E+02  0.47000000000E+01 0.  1.
          5    1    4    4  503    0 -0.30574167263E+02  0.83183149636E+02  0.44413092248E+03  0.45291123015E+03  0.47000000000E+01 0. -1.
         -5    1    3    3    0  502 -0.14906698072E+02 -0.65882098036E+02  0.59972038607E+02  0.90451069113E+02  0.47000000000E+01 0.  1.
<mgrwt>
<rscale>  0 0.11631410E+03</rscale>
<asrwt>0</asrwt>
<pdfrwt beam="1">  1        2 0.98296445E-01 0.11795269E+03</pdfrwt>
<pdfrwt beam="2">  1       -2 0.59570118E-02 0.11795269E+03</pdfrwt>
<totfact> 0.66944271E+03</totfact>
</mgrwt>
</event>
<event>
 8    1  0.8174053E-004  0.1007051E+03  0.7546771E-02  0.1281979E+00
         -2   -1    0    0    0  501 -0.00000000000E+00  0.00000000000E+00  0.17035568752E+03  0.17035568752E+03  0.00000000000E+00 0.  1.
          2   -1    0    0  501    0  0.00000000000E+00 -0.00000000000E+00 -0.60121251610E+02  0.60121251610E+02  0.00000000000E+00 0. -1.
         23    2    1    2    0    0  0.25663860478E+02 -0.12092503505E+02  0.23821988829E+02  0.97779396497E+02  0.90490114664E+02 0.  0.
         23    2    1    2    0    0 -0.25663860478E+02  0.12092503505E+02  0.86412447080E+02  0.13269754263E+03  0.96626416856E+02 0.  0.
          5    1    3    3  502    0  0.51303150359E+02 -0.57595843243E+01  0.40855565727E+02  0.66003433995E+02  0.47000000000E+01 0. -1.
         -5    1    3    3    0  502 -0.25639289881E+02 -0.63329191803E+01 -0.17033576898E+02  0.31775962501E+02  0.47000000000E+01 0.  1.
          5    1    4    4  503    0 -0.25455332436E+02 -0.15889425262E+02 -0.10172020009E+02  0.32031356132E+02  0.47000000000E+01 0. -1.
         -5    1    4    4    0  503 -0.20852804206E+00  0.27981928767E+02  0.96584467089E+02  0.10066618650E+03  0.47000000000E+01 0.  1.
<mgrwt>
<rscale>  0 0.99203908E+02</rscale>
<asrwt>0</asrwt>
<pdfrwt beam="1">  1        2 0.92494234E-02 0.10070515E+03</pdfrwt>
<pdfrwt beam="2">  1       -2 0.26208567E-01 0.10070515E+03</pdfrwt>
<totfact> 0.84647946E+03</totfact>
</mgrwt>
</event>
<event>
 8    1  0.8174053E-004  0.1466226E+03  0.7546771E-02  0.1205211E+00
         -2   -1    0    0    0  501 -0.00000000000E+00  0.00000000000E+00  0.23223606360E+02  0.23223606360E+02  0.00000000000E+00 0.  1.
          2   -1    0    0  501    0  0.00000000000E+00 -0.00000000000E+00 -0.91562480608E+03  0.91562480608E+03  0.00000000000E+00 0. -1.
         23    2    1    2    0    0 -0.10596934529E+03 -0.36277243663E+02 -0.45728469393E+03  0.48021607373E+03  0.94618421121E+02 0.  0.
         23    2    1    2    0    0  0.10596934529E+03  0.36277243663E+02 -0.43511650579E+03  0.45863233872E+03  0.92041881516E+02 0.  0.
          5    1    4    4  502    0  0.78394567021E+02  0.65839683205E+02 -0.27661370118E+03  0.29498779925E+03  0.47000000000E+01 0. -1.
         -5    1    4    4    0  502  0.27574778267E+02 -0.29562439542E+02 -0.15850280461E+03  0.16364453947E+03  0.47000000000E+01 0.  1.
          5    1    3    3  503    0 -0.11149298463E+02  0.27963953563E+02 -0.12704274724E+03  0.13064547134E+03  0.47000000000E+01 0. -1.
         -5    1    3    3    0  503 -0.94820046825E+02 -0.64241197226E+02 -0.33024194669E+03  0.34957060239E+03  0.47000000000E+01 0.  1.
<mgrwt>
<rscale>  0 0.14620851E+03</rscale>
<asrwt>0</asrwt>
<pdfrwt beam="1">  1        2 0.14086533E+00 0.14662260E+03</pdfrwt>
<pdfrwt beam="2">  1       -2 0.35728630E-02 0.14662260E+03</pdfrwt>
<totfact> 0.93613412E+03</totfact>
</mgrwt>
</event>
<event>
 8    1  0.8174053E-004  0.9416527E+02  0.7546771E-02  0.1295650E+00
         -4   -1    0    0    0  501 -0.00000000000E+00  0.00000000000E+00  0.48507563108E+02  0.48507563108E+02  0.00000000000E+00 0.  1.
          4   -1    0    0  501    0  0.00000000000E+00 -0.00000000000E+00 -0.18879408544E+03  0.18879408544E+03  0.00000000000E+00 0. -1.
         23    2    1    2    0    0  0.28255740919E+02 -0.59680841816E+01 -0.35750884630E+02  0.96607659653E+02  0.84975933229E+02 0.  0.
         23    2    1    2    0    0 -0.28255740919E+02  0.59680841816E+01 -0.10453563770E+03  0.14069398889E+03  0.89627529464E+02 0.  0.
          5    1    4    4  502    0  0.20630290254E+02  0.31774429188E+02 -0.35516375149E+02  0.52141405139E+02  0.47000000000E+01 0. -1.
         -5    1    3    3    0  503  0.33341752009E+02  0.16302169659E+02  0.15349504661E+02  0.40436746357E+02  0.47000000000E+01 0.  1.
          5    1    3    3  503    0 -0.50860110894E+01 -0.22270253840E+02 -0.51100389290E+02  0.56170913296E+02  0.47000000000E+01 0. -1.
         -5    1    4    4    0  502 -0.48886031173E+02 -0.25806345006E+02 -0.69019262550E+02  0.88552583754E+02  0.47000000000E+01 0.  1.
<mgrwt>
<rscale>  0 0.93041285E+02</rscale>
<asrwt>0</asrwt>
<pdfrwt beam="1">  1        4 0.29045243E-01 0.94165275E+02</pdfrwt>
<pdfrwt beam="2">  1       -4 0.74627022E-02 0.94165275E+02</pdfrwt>
<totfact> 0.21055991E+03</totfact>
</mgrwt>
</event>
<event>
 8    1  0.8174053E-004  0.1035517E+03  0.7546771E-02  0.1273447E+00
         -1   -1    0    0    0  501 -0.00000000000E+00  0.00000000000E+00  0.16688842604E+03  0.16688842604E+03  0.00000000000E+00 0.  1.
          1   -1    0    0  501    0  0.00000000000E+00 -0.00000000000E+00 -0.79205979297E+02  0.79205979297E+02  0.00000000000E+00 0. -1.
         23    2    1    2    0    0  0.86798481193E+00 -0.49001746957E+02  0.98126578404E+02  0.14201737632E+03  0.90211890485E+02 0.  0.
         23    2    1    2    0    0 -0.86798481193E+00  0.49001746957E+02 -0.10444131659E+02  0.10407702902E+03  0.91219644162E+02 0.  0.
          5    1    4    4  502    0 -0.22800429089E+02  0.69171351262E+02 -0.11548100990E+02  0.73891704802E+02  0.47000000000E+01 0. -1.
         -5    1    4    4    0  502  0.21932444277E+02 -0.20169604306E+02  0.11039693308E+01  0.30185324217E+02  0.47000000000E+01 0.  1.
          5    1    3    3  503    0 -0.36041776311E+02 -0.14163150136E+02  0.10095434521E+02  0.40294072263E+02  0.47000000000E+01 0. -1.
         -5    1    3    3    0  503  0.36909761123E+02 -0.34838596821E+02  0.88031143884E+02  0.10172330406E+03  0.47000000000E+01 0.  1.
<mgrwt>
<rscale>  0 0.10332930E+03</rscale>
<asrwt>0</asrwt>
<pdfrwt beam="1">  1        1 0.12185535E-01 0.10355167E+03</pdfrwt>
<pdfrwt beam="2">  1       -1 0.25675142E-01 0.10355167E+03</pdfrwt>
<totfact> 0.60901342E+03</totfact>
</mgrwt>
</event>
<event>
 8    1  0.8174053E-004  0.2272468E+03  0.7546771E-02  0.1129317E+00
          1   -1    0    0  501    0  0.00000000000E+00  0.00000000000E+00  0.81374167305E+03  0.81374167305E+03  0.00000000000E+00 0. -1.
         -1   -1    0    0    0  501 -0.00000000000E+00 -0.00000000000E+00 -0.16167451984E+03  0.16167451984E+03  0.00000000000E+00 0.  1.
         23    2    1    2    0    0  0.11697177504E+03  0.16586870518E+03  0.70718437800E+03  0.74158074258E+03  0.92937773667E+02 0.  0.
         23    2    1    2    0    0 -0.11697177504E+03 -0.16586870518E+03 -0.55117224789E+02  0.23383545031E+03  0.10220707333E+03 0.  0.
          5    1    3    3  502    0  0.11327812464E+03  0.94983635356E+02  0.54004809370E+03  0.55993558381E+03  0.47000000000E+01 0. -1.
         -5    1    3    3    0  502  0.36936503966E+01  0.70885069824E+02  0.16713628430E+03  0.18164515877E+03  0.47000000000E+01 0.  1.
          5    1    4    4  503    0 -0.94646615288E+02 -0.50493985562E+02 -0.98931376788E+01  0.10783129665E+03  0.47000000000E+01 0. -1.
         -5    1    4    4    0  503 -0.22325159752E+02 -0.11537471962E+03 -0.45224087110E+02  0.12600415366E+03  0.47000000000E+01 0.  1.
<mgrwt>
<rscale>  0 0.22623623E+03</rscale>
<asrwt>0</asrwt>
<pdfrwt beam="1">  1        1 0.12519102E+00 0.22724680E+03</pdfrwt>
<pdfrwt beam="2">  1       -1 0.24873004E-01 0.22724680E+03</pdfrwt>
<totfact> 0.31926059E+02</totfact>
</mgrwt>
</event>
<event>
 8    1  0.8174053E-004  0.1195938E+03  0.7546771E-02  0.1255602E+00
          1   -1    0    0  501    0  0.00000000000E+00  0.00000000000E+00  0.42630180023E+02  0.42630180023E+02  0.00000000000E+00 0. -1.
         -1   -1    0    0    0  501 -0.00000000000E+00 -0.00000000000E+00 -0.32602304799E+03  0.32602304799E+03  0.00000000000E+00 0.  1.
         23    2    1    2    0    0  0.76458281883E+01  0.19616586333E+02 -0.20490065883E+03  0.22560181255E+03  0.92025152482E+02 0.  0.
         23    2    1    2    0    0 -0.76458281883E+01 -0.19616586333E+02 -0.78492209143E+02  0.14305141547E+03  0.11772600147E+03 0.  0.
          5    1    3    3  502    0 -0.19916325005E+02 -0.30054075125E+02 -0.63972809207E+02  0.73583406765E+02  0.47000000000E+01 0. -1.
         -5    1    4    4    0  503 -0.76478389764E+01 -0.68693726722E+02 -0.54911367080E+02  0.88400598225E+02  0.47000000000E+01 0.  1.
          5    1    4    4  503    0  0.20107881658E-02  0.49077140389E+02 -0.23580842063E+02  0.54650817242E+02  0.47000000000E+01 0. -1.
         -5    1    3    3    0  502  0.27562153194E+02  0.49670661458E+02 -0.14092784962E+03  0.15201840578E+03  0.47000000000E+01 0.  1.
<mgrwt>
<rscale>  0 0.11272697E+03</rscale>
<asrwt>0</asrwt>
<pdfrwt beam="1">  1        1 0.65584890E-02 0.11959381E+03</pdfrwt>
<pdfrwt beam="2">  1       -1 0.50157394E-01 0.11959381E+03</pdfrwt>
<totfact> 0.44248656E+03</totfact>
</mgrwt>
</event>
<event>
 8    1  0.8174053E-004  0.9361132E+02  0.7546771E-02  0.1295887E+00
          3   -1    0    0  501    0  0.00000000000E+00  0.00000000000E+00  0.63896374850E+02  0.63896374850E+02  0.00000000000E+00 0. -1.
         -3   -1    0    0    0  501 -0.00000000000E+00 -0.00000000000E+00 -0.13912441699E+03  0.13912441699E+03  0.00000000000E+00 0.  1.
         23    2    1    2    0    0 -0.10552688498E+02  0.10673482645E+02 -0.16282070045E+02  0.92396622210E+02  0.89703665057E+02 0.  0.
         23    2    1    2    0    0  0.10552688498E+02 -0.10673482645E+02 -0.58945972100E+02  0.11062416963E+03  0.92400199210E+02 0.  0.
          5    1    4    4  502    0 -0.67312819944E+01 -0.49633875450E+02 -0.26568075005E+02  0.56892744344E+02  0.47000000000E+01 0. -1.
         -5    1    3    3    0  503  0.18815963269E+02  0.17885367719E+02 -0.43871032134E+02  0.51192619709E+02  0.47000000000E+01 0.  1.
          5    1    3    3  503    0 -0.29368651767E+02 -0.72118850740E+01  0.27588962089E+02  0.41204002501E+02  0.47000000000E+01 0. -1.
         -5    1    4    4    0  502  0.17283970492E+02  0.38960392804E+02 -0.32377897095E+02  0.53731425290E+02  0.47000000000E+01 0.  1.
<mgrwt>
<rscale>  0 0.92938956E+02</rscale>
<asrwt>0</asrwt>
<pdfrwt beam="1">  1        3 0.98302117E-02 0.93611320E+02</pdfrwt>
<pdfrwt beam="2">  1       -3 0.21403756E-01 0.93611320E+02</pdfrwt>
<totfact> 0.32006768E+03</totfact>
</mgrwt>
</event>
<event>
 8    1  0.8174053E-004  0.1232910E+03  0.7546771E-02  0.1238019E+00
          1   -1    0    0  501    0  0.00000000000E+00  0.00000000000E+00  0.11338258052E+03  0.11338258052E+03  0.00000000000E+00 0. -1.
         -1   -1    0    0    0  501 -0.00000000000E+00 -0.00000000000E+00 -0.13740890906E+03  0.13740890906E+03  0.00000000000E+00 0.  1.
         23    2    1    2    0    0  0.73543655781E+02  0.47738324066E+02  0.94475455502E+01  0.12365247219E+03  0.86677914550E+02 0.  0.
         23    2    1    2    0    0 -0.73543655781E+02 -0.47738324066E+02 -0.33473874092E+02  0.12713901739E+03  0.85768365995E+02 0.  0.
          5    1    3    3  502    0  0.21684339812E+02  0.55662430435E+02 -0.20169762715E+02  0.63225201329E+02  0.47000000000E+01 0. -1.
         -5    1    3    3    0  502  0.51859315969E+02 -0.79241063692E+01  0.29617308266E+02  0.60427270858E+02  0.47000000000E+01 0.  1.
          5    1    4    4  503    0 -0.10897710249E+02 -0.19231622466E+02  0.27132448439E+02  0.35311119348E+02  0.47000000000E+01 0. -1.
         -5    1    4    4    0  503 -0.62645945532E+02 -0.28506701601E+02 -0.60606322531E+02  0.91827898040E+02  0.47000000000E+01 0.  1.
<mgrwt>
<rscale>  0 0.12313128E+03</rscale>
<asrwt>0</asrwt>
<pdfrwt beam="1">  1        1 0.17443474E-01 0.12329103E+03</pdfrwt>
<pdfrwt beam="2">  1       -1 0.21139832E-01 0.12329103E+03</pdfrwt>
<totfact> 0.53231284E+03</totfact>
</mgrwt>
</event>
<event>
 8    1  0.8174053E-004  0.9745543E+02  0.7546771E-02  0.1287012E+00
          2   -1    0    0  501    0  0.00000000000E+00  0.00000000000E+00  0.53883313930E+03  0.53883313930E+03  0.00000000000E+00 0. -1.
         -2   -1    0    0    0  501 -0.00000000000E+00 -0.00000000000E+00 -0.27748238209E+02  0.27748238209E+02  0.00000000000E+00 0.  1.
         23    2    1    2    0    0 -0.17317998483E+02 -0.26063922226E+02  0.79077171374E+02  0.12371769695E+03  0.89853371629E+02 0.  0.
         23    2    1    2    0    0  0.17317998483E+02  0.26063922226E+02  0.43200772972E+03  0.44286368056E+03  0.92294744749E+02 0.  0.
          5    1    4    4  502    0 -0.23838276513E+02  0.43112566988E+02  0.17009155606E+03  0.17714452942E+03  0.47000000000E+01 0. -1.
         -5    1    4    4    0  502  0.41156274996E+02 -0.17048644762E+02  0.26191617366E+03  0.26571915114E+03  0.47000000000E+01 0.  1.
          5    1    3    3  503    0 -0.28963777884E+02  0.26788019760E+02  0.42777276590E+02  0.58382221818E+02  0.47000000000E+01 0. -1.
         -5    1    3    3    0  503  0.11645779401E+02 -0.52851941986E+02  0.36299894784E+02  0.65335475133E+02  0.47000000000E+01 0.  1.
<mgrwt>
<rscale>  0 0.96873015E+02</rscale>
<asrwt>0</asrwt>
<pdfrwt beam="1">  1        2 0.82897398E-01 0.97455431E+02</pdfrwt>
<pdfrwt beam="2">  1       -2 0.42689601E-02 0.97455431E+02</pdfrwt>
<totfact> 0.13149327E+04</totfact>
</mgrwt>
</event>
<event>
 8    1  0.8174053E-004  0.1065325E+03  0.7546771E-02  0.1268457E+00
          1   -1    0    0  501    0  0.00000000000E+00  0.00000000000E+00  0.34640478852E+03  0.34640478852E+03  0.00000000000E+00 0. -1.
         -1   -1    0    0    0  501 -0.00000000000E+00 -0.00000000000E+00 -0.32481209500E+02  0.32481209500E+02  0.00000000000E+00 0.  1.
         23    2    1    2    0    0  0.46921143346E+02 -0.29725957220E+02  0.18352385385E+03  0.21220313369E+03  0.90906208757E+02 0.  0.
         23    2    1    2    0    0 -0.46921143346E+02  0.29725957220E+02  0.13039972517E+03  0.16668286433E+03  0.87714666452E+02 0.  0.
          5    1    3    3  502    0  0.43593001021E+02  0.63079935161E+00  0.17462865126E+03  0.18005000274E+03  0.47000000000E+01 0. -1.
         -5    1    4    4    0  503 -0.15904639565E+02 -0.31174527759E+02  0.43535912812E+02  0.56055993837E+02  0.47000000000E+01 0.  1.
          5    1    4    4  503    0 -0.31016503781E+02  0.60900484979E+02  0.86863812359E+02  0.11062687049E+03  0.47000000000E+01 0. -1.
         -5    1    3    3    0  502  0.33281423248E+01 -0.30356756572E+02  0.88952025918E+01  0.32153130952E+02  0.47000000000E+01 0.  1.
<mgrwt>
<rscale>  0 0.10584838E+03</rscale>
<asrwt>0</asrwt>
<pdfrwt beam="1">  1        1 0.53293042E-01 0.10653246E+03</pdfrwt>
<pdfrwt beam="2">  1       -1 0.49971094E-02 0.10653246E+03</pdfrwt>
<totfact> 0.11888935E+04</totfact>
</mgrwt>
</event>
<event>
 8    1  0.8174053E-004  0.1072371E+03  0.7546771E-02  0.1268615E+00
         -2   -1    0    0    0  501 -0.00000000000E+00  0.00000000000E+00  0.55317225583E+02  0.55317225583E+02  0.00000000000E+00 0.  1.
          2   -1    0    0  501    0  0.00000000000E+00 -0.00000000000E+00 -0.19834864632E+03  0.19834864632E+03  0.00000000000E+00 0. -1.
         23    2    1    2    0    0  0.43298356515E+02 -0.17522607157E+02 -0.62537422664E+02  0.12413992177E+03  0.96529795942E+02 0.  0.
         23    2    1    2    0    0 -0.43298356515E+02  0.17522607157E+02 -0.80493998075E+02  0.12952595014E+03  0.90088282224E+02 0.  0.
          5    1    4    4  502    0 -0.42699724955E+02 -0.57749204542E+01 -0.93042469295E+02  0.10264310649E+03  0.47000000000E+01 0. -1.
         -5    1    3    3    0  503  0.69325439354E+02 -0.23186846955E+02 -0.24048839296E+02  0.77097879898E+02  0.47000000000E+01 0.  1.
          5    1    3    3  503    0 -0.26027082839E+02  0.56642397975E+01 -0.38488583368E+02  0.47042041870E+02  0.47000000000E+01 0. -1.
         -5    1    4    4    0  502 -0.59863156053E+00  0.23297527611E+02  0.12548471220E+02  0.26882843646E+02  0.47000000000E+01 0.  1.
<mgrwt>
<rscale>  0 0.10576725E+03</rscale>
<asrwt>0</asrwt>
<pdfrwt beam="1">  1        2 0.30515177E-01 0.10723708E+03</pdfrwt>
<pdfrwt beam="2">  1       -2 0.85103422E-02 0.10723708E+03</pdfrwt>
<totfact> 0.13545630E+04</totfact>
</mgrwt>
</event>
<event>
 8    1  0.8174053E-004  0.1469064E+03  0.7546771E-02  0.1204588E+00
         -1   -1    0    0    0  501 -0.00000000000E+00  0.00000000000E+00  0.77010036402E+02  0.77010036402E+02  0.00000000000E+00 0.  1.
          1   -1    0    0  501    0  0.00000000000E+00 -0.00000000000E+00 -0.27869141676E+03  0.27869141676E+03  0.00000000000E+00 0. -1.
         23    2    1    2    0    0 -0.81169560101E+02 -0.80994138746E+02 -0.10202018570E+03  0.17818003849E+03  0.90506683886E+02 0.  0.
         23    2    1    2    0    0  0.81169560101E+02  0.80994138746E+02 -0.99661194658E+02  0.17752141467E+03  0.91831100116E+02 0.  0.
          5    1    3    3  502    0 -0.67767028778E+02 -0.37790516228E+02 -0.10718932601E+03  0.13240896842E+03  0.47000000000E+01 0. -1.
         -5    1    4    4    0  503  0.58642509802E+02  0.87891211533E+02 -0.39773267545E+02  0.11299474250E+03  0.47000000000E+01 0.  1.
          5    1    4    4  503    0  0.22527050298E+02 -0.68970727869E+01 -0.59887927113E+02  0.64526672176E+02  0.47000000000E+01 0. -1.
         -5    1    3    3    0  502 -0.13402531322E+02 -0.43203622518E+02  0.51691403063E+01  0.45771070078E+02  0.47000000000E+01 0.  1.
<mgrwt>
<rscale>  0 0.14669994E+03</rscale>
<asrwt>0</asrwt>
<pdfrwt beam="1">  1        1 0.42875603E-01 0.14690643E+03</pdfrwt>
<pdfrwt beam="2">  1       -1 0.11847698E-01 0.14690643E+03</pdfrwt>
<totfact> 0.43414601E+03</totfact>
</mgrwt>
</event>
<event>
 8    1  0.8174053E-004  0.9485314E+02  0.7546771E-02  0.1293577E+00
          1   -1    0    0  501    0  0.00000000000E+00  0.00000000000E+00  0.27246015360E+02  0.27246015360E+02  0.00000000000E+00 0. -1.
         -1   -1    0    0    0  501 -0.00000000000E+00 -0.00000000000E+00 -0.37606646175E+03  0.37606646175E+03  0.00000000000E+00 0.  1.
         23    2    1    2    0    0  0.99213141960E+01 -0.52499267282E+01 -0.92220716908E+02  0.12974248815E+03  0.90567424597E+02 0.  0.
         23    2    1    2    0    0 -0.99213141960E+01  0.52499267282E+01 -0.25659972949E+03  0.27356998896E+03  0.94186641746E+02 0.  0.
          5    1    3    3  502    0 -0.32744137375E+02  0.88140469995E+01 -0.95564691974E+01  0.35542679422E+02  0.47000000000E+01 0. -1.
         -5    1    4    4    0  503 -0.25085119283E+01  0.49462563471E+02 -0.13799895151E+03  0.14669232575E+03  0.47000000000E+01 0.  1.
          5    1    4    4  503    0 -0.74128022676E+01 -0.44212636742E+02 -0.11860077798E+03  0.12687766321E+03  0.47000000000E+01 0. -1.
         -5    1    3    3    0  502  0.42665451571E+02 -0.14063973728E+02 -0.82664247711E+02  0.94199808728E+02  0.47000000000E+01 0.  1.
<mgrwt>
<rscale>  0 0.93941895E+02</rscale>
<asrwt>0</asrwt>
<pdfrwt beam="1">  1        1 0.41916949E-02 0.94853137E+02</pdfrwt>
<pdfrwt beam="2">  1       -1 0.57856375E-01 0.94853137E+02</pdfrwt>
<totfact> 0.61274557E+03</totfact>
</mgrwt>
</event>
<event>
 8    1  0.8174053E-004  0.1011034E+03  0.7546771E-02  0.1278879E+00
          2   -1    0    0  501    0  0.00000000000E+00  0.00000000000E+00  0.96267057068E+02  0.96267057068E+02  0.00000000000E+00 0. -1.
         -2   -1    0    0    0  501 -0.00000000000E+00 -0.00000000000E+00 -0.27116332896E+03  0.27116332896E+03  0.00000000000E+00 0.  1.
         23    2    1    2    0    0 -0.15924564756E+02 -0.40693989856E+02 -0.23179919103E+03  0.25288882118E+03  0.91171806719E+02 0.  0.
         23    2    1    2    0    0  0.15924564756E+02  0.40693989856E+02  0.56902919144E+02  0.11454156485E+03  0.89287374792E+02 0.  0.
          5    1    4    4  502    0 -0.26971716227E+02 -0.78908900290E+01  0.36759442362E+02  0.46508990792E+02  0.47000000000E+01 0. -1.
         -5    1    4    4    0  502  0.42896280983E+02  0.48584879885E+02  0.20143476782E+02  0.68032574054E+02  0.47000000000E+01 0.  1.
          5    1    3    3  503    0  0.33874165656E+02 -0.33856484901E+02 -0.85347195840E+02  0.97979357553E+02  0.47000000000E+01 0. -1.
         -5    1    3    3    0  503 -0.49798730412E+02 -0.68375049547E+01 -0.14645199519E+03  0.15490946363E+03  0.47000000000E+01 0.  1.
<mgrwt>
<rscale>  0 0.10067668E+03</rscale>
<asrwt>0</asrwt>
<pdfrwt beam="1">  1        2 0.14810317E-01 0.10110337E+03</pdfrwt>
<pdfrwt beam="2">  1       -2 0.41717435E-01 0.10110337E+03</pdfrwt>
<totfact> 0.20724971E+03</totfact>
</mgrwt>
</event>
<event>
 8    1  0.8174053E-004  0.1055438E+03  0.7546771E-02  0.1270676E+00
          1   -1    0    0  501    0  0.00000000000E+00  0.00000000000E+00  0.83473104041E+03  0.83473104041E+03  0.00000000000E+00 0. -1.
         -1   -1    0    0    0  501 -0.00000000000E+00 -0.00000000000E+00 -0.13492549961E+02  0.13492549961E+02  0.00000000000E+00 0.  1.
         23    2    1    2    0    0  0.30658682543E+02 -0.33940652131E+02  0.31827020152E+03  0.33430083603E+03  0.91483359762E+02 0.  0.
         23    2    1    2    0    0 -0.30658682543E+02  0.33940652131E+02  0.50296828893E+03  0.51392275434E+03  0.95118741985E+02 0.  0.
          5    1    3    3  502    0  0.76004697854E+01  0.31241773389E+02  0.86976081770E+02  0.92847963604E+02  0.47000000000E+01 0. -1.
         -5    1    3    3    0  502  0.23058212758E+02 -0.65182425520E+02  0.23129411975E+03  0.24145287242E+03  0.47000000000E+01 0.  1.
          5    1    4    4  503    0 -0.63922238601E+02  0.32292186985E+02  0.35454517973E+03  0.36173638523E+03  0.47000000000E+01 0. -1.
         -5    1    4    4    0  503  0.33263556057E+02  0.16484651452E+01  0.14842310920E+03  0.15218636911E+03  0.47000000000E+01 0.  1.
<mgrwt>
<rscale>  0 0.10471814E+03</rscale>
<asrwt>0</asrwt>
<pdfrwt beam="1">  1        1 0.12842012E+00 0.10554382E+03</pdfrwt>
<pdfrwt beam="2">  1       -1 0.20757776E-02 0.10554382E+03</pdfrwt>
<totfact> 0.13144261E+04</totfact>
</mgrwt>
</event>
<event>
 8    1  0.8174053E-004  0.9772483E+02  0.7546771E-02  0.1285934E+00
         -1   -1    0    0    0  501 -0.00000000000E+00  0.00000000000E+00  0.74030289271E+02  0.74030289271E+02  0.00000000000E+00 0.  1.
          1   -1    0    0  501    0  0.00000000000E+00 -0.00000000000E+00 -0.12752471275E+03  0.12752471275E+03  0.00000000000E+00 0. -1.
         23    2    1    2    0    0  0.27621864224E+02 -0.10876548409E+02 -0.32569628798E+02  0.10300933982E+03  0.93106802551E+02 0.  0.
         23    2    1    2    0    0 -0.27621864224E+02  0.10876548409E+02 -0.20924794686E+02  0.98545662207E+02  0.91608590311E+02 0.  0.
          5    1    4    4  502    0 -0.13557125593E+02 -0.34908154714E+02 -0.31629484781E+02  0.49243164271E+02  0.47000000000E+01 0. -1.
         -5    1    4    4    0  502 -0.14064738631E+02  0.45784703123E+02  0.10704690095E+02  0.49302497937E+02  0.47000000000E+01 0.  1.
          5    1    3    3  503    0  0.18658101757E+02 -0.49229964028E+02 -0.19374609116E+01  0.52891945267E+02  0.47000000000E+01 0. -1.
         -5    1    3    3    0  503  0.89637624672E+01  0.38353415619E+02 -0.30632167886E+02  0.50117394551E+02  0.47000000000E+01 0.  1.
<mgrwt>
<rscale>  0 0.97366282E+02</rscale>
<asrwt>0</asrwt>
<pdfrwt beam="1">  1        1 0.19619186E-01 0.97724835E+02</pdfrwt>
<pdfrwt beam="2">  1       -1 0.11389275E-01 0.97724835E+02</pdfrwt>
<totfact> 0.11838330E+04</totfact>
</mgrwt>
</event>
<event>
 8    1  0.8174053E-004  0.1017391E+03  0.7546771E-02  0.1278771E+00
         -4   -1    0    0    0  501 -0.00000000000E+00  0.00000000000E+00  0.31915302068E+02  0.31915302068E+02  0.00000000000E+00 0.  1.
          4   -1    0    0  501    0  0.00000000000E+00 -0.00000000000E+00 -0.43950520298E+03  0.43950520298E+03  0.00000000000E+00 0. -1.
         23    2    1    2    0    0 -0.28291006621E+02  0.44253173777E+02 -0.32797302041E+03  0.34223188205E+03  0.82447768498E+02 0.  0.
         23    2    1    2    0    0  0.28291006621E+02 -0.44253173777E+02 -0.79616880506E+02  0.12918862300E+03  0.87132819343E+02 0.  0.
          5    1    3    3  502    0 -0.54831852496E+02  0.19050247924E+02 -0.23721054452E+03  0.24425473675E+03  0.47000000000E+01 0. -1.
         -5    1    4    4    0  503  0.41092651850E+02 -0.91281457876E+01 -0.14113386081E+01  0.42379369489E+02  0.47000000000E+01 0.  1.
          5    1    4    4  503    0 -0.12801645230E+02 -0.35125027989E+02 -0.78205541898E+02  0.86809253513E+02  0.47000000000E+01 0. -1.
         -5    1    3    3    0  502  0.26540845875E+02  0.25202925853E+02 -0.90762475889E+02  0.97977145298E+02  0.47000000000E+01 0.  1.
<mgrwt>
<rscale>  0 0.10072856E+03</rscale>
<asrwt>0</asrwt>
<pdfrwt beam="1">  1        4 0.67616187E-01 0.10173914E+03</pdfrwt>
<pdfrwt beam="2">  1       -4 0.49100464E-02 0.10173914E+03</pdfrwt>
<totfact> 0.78567243E+02</totfact>
</mgrwt>
</event>
<event>
 8    1  0.8174053E-004  0.1002982E+03  0.7546771E-02  0.1283679E+00
          1   -1    0    0  501    0  0.00000000000E+00  0.00000000000E+00  0.14507971264E+03  0.14507971264E+03  0.00000000000E+00 0. -1.
         -1   -1    0    0    0  501 -0.00000000000E+00 -0.00000000000E+00 -0.75156805617E+02  0.75156805617E+02  0.00000000000E+00 0.  1.
         23    2    1    2    0    0  0.13019948315E+02 -0.39820400461E+02  0.75548941074E+02  0.11978064590E+03  0.82973352881E+02 0.  0.
         23    2    1    2    0    0 -0.13019948315E+02  0.39820400461E+02 -0.56260340517E+01  0.10045587235E+03  0.91129285546E+02 0.  0.
          5    1    3    3  502    0 -0.67874379005E+01 -0.21244501674E+02  0.87001094008E+02  0.89937080913E+02  0.47000000000E+01 0. -1.
         -5    1    4    4    0  503 -0.48714241243E+02  0.48221485718E+01  0.39686067633E+01  0.49337310996E+02  0.47000000000E+01 0.  1.
          5    1    4    4  503    0  0.35694292927E+02  0.34998251889E+02 -0.95946408149E+01  0.51118561357E+02  0.47000000000E+01 0. -1.
         -5    1    3    3    0  502  0.19807386216E+02 -0.18575898787E+02 -0.11452152934E+02  0.29843564989E+02  0.47000000000E+01 0.  1.
<mgrwt>
<rscale>  0 0.98408494E+02</rscale>
<asrwt>0</asrwt>
<pdfrwt beam="1">  1        1 0.22319956E-01 0.10029821E+03</pdfrwt>
<pdfrwt beam="2">  1       -1 0.11562585E-01 0.10029821E+03</pdfrwt>
<totfact> 0.98627093E+03</totfact>
</mgrwt>
</event>
<event>
 8    1  0.8174053E-004  0.1968481E+03  0.7546771E-02  0.1153047E+00
          1   -1    0    0  501    0  0.00000000000E+00  0.00000000000E+00  0.10606485006E+04  0.10606485006E+04  0.00000000000E+00 0. -1.
         -1   -1    0    0    0  501 -0.00000000000E+00 -0.00000000000E+00 -0.76427691005E+02  0.76427691005E+02  0.00000000000E+00 0.  1.
         23    2    1    2    0    0 -0.16567451353E+03 -0.43810325188E+02  0.76938841174E+02  0.20868524743E+03  0.90898614876E+02 0.  0.
         23    2    1    2    0    0  0.16567451353E+03  0.43810325188E+02  0.90728196840E+03  0.92839094416E+03  0.96859619983E+02 0.  0.
          5    1    3    3  502    0 -0.16514444283E+02  0.14758957752E+02  0.37149392048E+02  0.43505413841E+02  0.47000000000E+01 0. -1.
         -5    1    4    4    0  503  0.49947325406E+02  0.14303106151E+02  0.10489635610E+03  0.11715225002E+03  0.47000000000E+01 0.  1.
          5    1    4    4  503    0  0.11572718812E+03  0.29507219037E+02  0.80238561230E+03  0.81123869414E+03  0.47000000000E+01 0. -1.
         -5    1    3    3    0  502 -0.14916006925E+03 -0.58569282941E+02  0.39789449126E+02  0.16517983359E+03  0.47000000000E+01 0.  1.
<mgrwt>
<rscale>  0 0.19612824E+03</rscale>
<asrwt>0</asrwt>
<pdfrwt beam="1">  1        1 0.16317668E+00 0.19684810E+03</pdfrwt>
<pdfrwt beam="2">  1       -1 0.11758107E-01 0.19684810E+03</pdfrwt>
<totfact> 0.68772729E+02</totfact>
</mgrwt>
</event>
<event>
 8    1  0.8174053E-004  0.1518992E+03  0.7546771E-02  0.1199431E+00
         -2   -1    0    0    0  501 -0.00000000000E+00  0.00000000000E+00  0.39069011588E+03  0.39069011588E+03  0.00000000000E+00 0.  1.
          2   -1    0    0  501    0  0.00000000000E+00 -0.00000000000E+00 -0.16983612786E+03  0.16983612786E+03  0.00000000000E+00 0. -1.
         23    2    1    2    0    0 -0.10015546156E+03  0.59864396440E+02 -0.11702750010E+03  0.19175191027E+03  0.97254803845E+02 0.  0.
         23    2    1    2    0    0  0.10015546156E+03 -0.59864396440E+02  0.33788148812E+03  0.36877433347E+03  0.90640755603E+02 0.  0.
          5    1    3    3  502    0 -0.35516232775E+02 -0.11104782564E+02 -0.80728906294E+02  0.89016657418E+02  0.47000000000E+01 0. -1.
         -5    1    4    4    0  503  0.10341727897E+03 -0.18415298894E+02  0.25783751881E+03  0.27845382548E+03  0.47000000000E+01 0.  1.
          5    1    4    4  503    0 -0.32618174158E+01 -0.41449097546E+02  0.80043969313E+02  0.90320507990E+02  0.47000000000E+01 0. -1.
         -5    1    3    3    0  502 -0.64639228782E+02  0.70969179004E+02 -0.36298593806E+02  0.10273525285E+03  0.47000000000E+01 0.  1.
<mgrwt>
<rscale>  0 0.15085156E+03</rscale>
<asrwt>0</asrwt>
<pdfrwt beam="1">  1        2 0.26128635E-01 0.15189917E+03</pdfrwt>
<pdfrwt beam="2">  1       -2 0.60106172E-01 0.15189917E+03</pdfrwt>
<totfact> 0.53752574E+02</totfact>
</mgrwt>
</event>
<event>
 8    1  0.8174053E-004  0.1039174E+03  0.7546771E-02  0.1272297E+00
          1   -1    0    0  501    0  0.00000000000E+00  0.00000000000E+00  0.32081354164E+03  0.32081354164E+03  0.00000000000E+00 0. -1.
         -1   -1    0    0    0  501 -0.00000000000E+00 -0.00000000000E+00 -0.34888986892E+02  0.34888986892E+02  0.00000000000E+00 0.  1.
         23    2    1    2    0    0 -0.18303206330E+02  0.43286407004E+02  0.17663508619E+03  0.20493604868E+03  0.92682846199E+02 0.  0.
         23    2    1    2    0    0  0.18303206330E+02 -0.43286407004E+02  0.10928946856E+03  0.15076647986E+03  0.92615458309E+02 0.  0.
          5    1    4    4  502    0 -0.16370806825E+02 -0.16519638424E+02  0.10367465088E+03  0.10635518326E+03  0.47000000000E+01 0. -1.
         -5    1    3    3    0  503 -0.42168241206E+02  0.56801138392E+02  0.15220470908E+03  0.16790739517E+03  0.47000000000E+01 0.  1.
          5    1    3    3  503    0  0.23865034877E+02 -0.13514731388E+02  0.24430377117E+02  0.37028653503E+02  0.47000000000E+01 0. -1.
         -5    1    4    4    0  502  0.34674013154E+02 -0.26766768580E+02  0.56148176767E+01  0.44411296603E+02  0.47000000000E+01 0.  1.
<mgrwt>
<rscale>  0 0.10390239E+03</rscale>
<asrwt>0</asrwt>
<pdfrwt beam="1">  1        1 0.49355927E-01 0.10391742E+03</pdfrwt>
<pdfrwt beam="2">  1       -1 0.53675367E-02 0.10391742E+03</pdfrwt>
<totfact> 0.11738406E+04</totfact>
</mgrwt>
</event>
<event>
 8    1  0.8174053E-004  0.1003069E+03  0.7546771E-02  0.1280139E+00
          1   -1    0    0  501    0  0.00000000000E+00  0.00000000000E+00  0.19110779433E+03  0.19110779433E+03  0.00000000000E+00 0. -1.
         -1   -1    0    0    0  501 -0.00000000000E+00 -0.00000000000E+00 -0.26635357408E+03  0.26635357408E+03  0.00000000000E+00 0.  1.
         23    2    1    2    0    0 -0.36411326540E+02 -0.14540459055E+02 -0.24270206018E+03  0.26226127096E+03  0.91320723717E+02 0.  0.
         23    2    1    2    0    0  0.36411326540E+02  0.14540459055E+02  0.16745628043E+03  0.19520009744E+03  0.92326932877E+02 0.  0.
          5    1    4    4  502    0  0.22802105799E+02 -0.26101708910E+02  0.13948845170E+03  0.14380665282E+03  0.47000000000E+01 0. -1.
         -5    1    3    3    0  503 -0.65893134471E+02 -0.93373669015E+01 -0.19119067275E+03  0.20249704920E+03  0.47000000000E+01 0.  1.
          5    1    3    3  503    0  0.29481807931E+02 -0.52030921538E+01 -0.51511387437E+02  0.59764221759E+02  0.47000000000E+01 0. -1.
         -5    1    4    4    0  502  0.13609220741E+02  0.40642167966E+02  0.27967828732E+02  0.51393444622E+02  0.47000000000E+01 0.  1.
<mgrwt>
<rscale>  0 0.10007474E+03</rscale>
<asrwt>0</asrwt>
<pdfrwt beam="1">  1        1 0.29401199E-01 0.10030689E+03</pdfrwt>
<pdfrwt beam="2">  1       -1 0.40977473E-01 0.10030689E+03</pdfrwt>
<totfact> 0.90672671E+02</totfact>
</mgrwt>
</event>
<event>
 8    1  0.8174053E-004  0.9354724E+02  0.7546771E-02  0.1294562E+00
          1   -1    0    0  501    0  0.00000000000E+00  0.00000000000E+00  0.21101206251E+03  0.21101206251E+03  0.00000000000E+00 0. -1.
         -1   -1    0    0    0  501 -0.00000000000E+00 -0.00000000000E+00 -0.44668155712E+02  0.44668155712E+02  0.00000000000E+00 0.  1.
         23    2    1    2    0    0 -0.12448293402E+02 -0.10648397246E+02  0.48705003150E+02  0.10546688075E+03  0.92101776482E+02 0.  0.
         23    2    1    2    0    0  0.12448293402E+02  0.10648397246E+02  0.11763890365E+03  0.15021333747E+03  0.91960789087E+02 0.  0.
          5    1    4    4  502    0  0.47606594660E+02 -0.13740636074E+02  0.54625760155E+02  0.73900315340E+02  0.47000000000E+01 0. -1.
         -5    1    3    3    0  503  0.20383834695E+01 -0.45159626716E+02  0.20852989676E+01  0.45497091820E+02  0.47000000000E+01 0.  1.
          5    1    3    3  503    0 -0.14486676872E+02  0.34511229471E+02  0.46619704182E+02  0.59969788931E+02  0.47000000000E+01 0. -1.
         -5    1    4    4    0  502 -0.35158301258E+02  0.24389033319E+02  0.63013143490E+02  0.76313022127E+02  0.47000000000E+01 0.  1.
<mgrwt>
<rscale>  0 0.93512517E+02</rscale>
<asrwt>0</asrwt>
<pdfrwt beam="1">  1        1 0.32463394E-01 0.93547237E+02</pdfrwt>
<pdfrwt beam="2">  1       -1 0.68720240E-02 0.93547237E+02</pdfrwt>
<totfact> 0.13479371E+04</totfact>
</mgrwt>
</event>
<event>
 8    1  0.9519203E-004  0.1308031E+03  0.7546771E-02  0.1227380E+00
         -1   -1    0    0    0  501 -0.00000000000E+00  0.00000000000E+00  0.74188958378E+02  0.74188958378E+02  0.00000000000E+00 0.  1.
          1   -1    0    0  501    0  0.00000000000E+00 -0.00000000000E+00 -0.58214287257E+03  0.58214287257E+03  0.00000000000E+00 0. -1.
         23    2    1    2    0    0  0.50811743946E+02 -0.72134268286E+02 -0.50973459324E+03  0.52551656892E+03  0.92483094004E+02 0.  0.
         23    2    1    2    0    0 -0.50811743946E+02  0.72134268286E+02  0.17806790514E+01  0.13081526203E+03  0.96562290660E+02 0.  0.
          5    1    4    4  502    0 -0.23010720566E+02  0.16396694762E+02 -0.44606751266E+02  0.53011292368E+02  0.47000000000E+01 0. -1.
         -5    1    3    3    0  503  0.29485200586E+02  0.14742176799E+02 -0.21196388728E+03  0.21456348324E+03  0.47000000000E+01 0.  1.
          5    1    3    3  503    0  0.21326543360E+02 -0.86876445085E+02 -0.29777070596E+03  0.31095308567E+03  0.47000000000E+01 0. -1.
         -5    1    4    4    0  502 -0.27801023380E+02  0.55737573524E+02  0.46387430317E+02  0.77803969659E+02  0.47000000000E+01 0.  1.
<mgrwt>
<rscale>  0 0.13005125E+03</rscale>
<asrwt>0</asrwt>
<pdfrwt beam="1">  1        1 0.89560444E-01 0.13080314E+03</pdfrwt>
<pdfrwt beam="2">  1       -1 0.11413686E-01 0.13080314E+03</pdfrwt>
<totfact> 0.17920084E+03</totfact>
</mgrwt>
</event>
<event>
 8    1  0.8174053E-004  0.9614263E+02  0.7546771E-02  0.1290523E+00
          2   -1    0    0  501    0  0.00000000000E+00  0.00000000000E+00  0.54498138036E+03  0.54498138036E+03  0.00000000000E+00 0. -1.
         -2   -1    0    0    0  501 -0.00000000000E+00 -0.00000000000E+00 -0.29726750167E+02  0.29726750167E+02  0.00000000000E+00 0.  1.
         23    2    1    2    0    0  0.13892934243E+02  0.26931506536E+02  0.62522241084E+02  0.11187984527E+03  0.87691216676E+02 0.  0.
         23    2    1    2    0    0 -0.13892934243E+02 -0.26931506536E+02  0.45273238911E+03  0.46282828525E+03  0.91241908226E+02 0.  0.
          5    1    3    3  502    0  0.37210195341E+02  0.41776996333E+02  0.62266544195E+02  0.83839898532E+02  0.47000000000E+01 0. -1.
         -5    1    4    4    0  503  0.97209417267E+01 -0.54862533257E+02  0.21026055550E+03  0.21756834665E+03  0.47000000000E+01 0.  1.
          5    1    4    4  503    0 -0.23613875970E+02  0.27931026721E+02  0.24247183360E+03  0.24525993860E+03  0.47000000000E+01 0. -1.
         -5    1    3    3    0  502 -0.23317261097E+02 -0.14845489796E+02  0.25569688919E+00  0.28039946742E+02  0.47000000000E+01 0.  1.
<mgrwt>
<rscale>  0 0.95290635E+02</rscale>
<asrwt>0</asrwt>
<pdfrwt beam="1">  1        2 0.83843282E-01 0.96142631E+02</pdfrwt>
<pdfrwt beam="2">  1       -2 0.45733466E-02 0.96142631E+02</pdfrwt>
<totfact> 0.11715383E+04</totfact>
</mgrwt>
</event>
<event>
 8    1  0.8174053E-004  0.1219223E+03  0.7546771E-02  0.1240520E+00
         -1   -1    0    0    0  501 -0.00000000000E+00  0.00000000000E+00  0.35746870249E+02  0.35746870249E+02  0.00000000000E+00 0.  1.
          1   -1    0    0  501    0  0.00000000000E+00 -0.00000000000E+00 -0.98857641678E+03  0.98857641678E+03  0.00000000000E+00 0. -1.
         23    2    1    2    0    0  0.28380934703E+02  0.73798734682E+02 -0.86118264042E+02  0.14926954232E+03  0.92807920822E+02 0.  0.
         23    2    1    2    0    0 -0.28380934703E+02 -0.73798734682E+02 -0.86671128249E+03  0.87505374471E+03  0.90988341247E+02 0.  0.
          5    1    4    4  502    0  0.29283811789E+02 -0.44275761238E+02 -0.47686268096E+03  0.47983121112E+03  0.47000000000E+01 0. -1.
         -5    1    4    4    0  502 -0.57664746491E+02 -0.29522973444E+02 -0.38984860153E+03  0.39522253359E+03  0.47000000000E+01 0.  1.
          5    1    3    3  503    0  0.53193900776E+02  0.14564323901E+02 -0.53926599845E+02  0.77277932046E+02  0.47000000000E+01 0. -1.
         -5    1    3    3    0  503 -0.24812966074E+02  0.59234410780E+02 -0.32191664197E+02  0.71991610273E+02  0.47000000000E+01 0.  1.
<mgrwt>
<rscale>  0 0.12157598E+03</rscale>
<asrwt>0</asrwt>
<pdfrwt beam="1">  1        1 0.15208868E+00 0.12192227E+03</pdfrwt>
<pdfrwt beam="2">  1       -1 0.54995184E-02 0.12192227E+03</pdfrwt>
<totfact> 0.24509343E+03</totfact>
</mgrwt>
</event>
<event>
 8    1  0.8174053E-004  0.1182090E+03  0.7546771E-02  0.1249581E+00
         -1   -1    0    0    0  501 -0.00000000000E+00  0.00000000000E+00  0.10909594733E+03  0.10909594733E+03  0.00000000000E+00 0.  1.
          1   -1    0    0  501    0  0.00000000000E+00 -0.00000000000E+00 -0.14263985195E+03  0.14263985195E+03  0.00000000000E+00 0. -1.
         23    2    1    2    0    0 -0.60557921325E+02 -0.12964855107E+02  0.34335669948E+02  0.11542360229E+03  0.91149988651E+02 0.  0.
         23    2    1    2    0    0  0.60557921325E+02  0.12964855107E+02 -0.67879574574E+02  0.13631219699E+03  0.10068778030E+03 0.  0.
          5    1    3    3  502    0 -0.29275751503E+02 -0.32160624011E+02 -0.21263384424E+02  0.48637402069E+02  0.47000000000E+01 0. -1.
         -5    1    3    3    0  502 -0.31282169822E+02  0.19195768904E+02  0.55599054372E+02  0.66786200219E+02  0.47000000000E+01 0.  1.
          5    1    4    4  503    0  0.15678747557E+02 -0.32771982192E+02 -0.61713506834E+02  0.71766795020E+02  0.47000000000E+01 0. -1.
         -5    1    4    4    0  503  0.44879173768E+02  0.45736837298E+02 -0.61660677400E+01  0.64545401970E+02  0.47000000000E+01 0.  1.
<mgrwt>
<rscale>  0 0.11615336E+03</rscale>
<asrwt>0</asrwt>
<pdfrwt beam="1">  1        1 0.21944593E-01 0.11820905E+03</pdfrwt>
<pdfrwt beam="2">  1       -1 0.16783992E-01 0.11820905E+03</pdfrwt>
<totfact> 0.57279238E+03</totfact>
</mgrwt>
</event>
<event>
 8    1  0.8174053E-004  0.1566469E+03  0.7546771E-02  0.1192920E+00
         -1   -1    0    0    0  501 -0.00000000000E+00  0.00000000000E+00  0.36791763525E+02  0.36791763525E+02  0.00000000000E+00 0.  1.
          1   -1    0    0  501    0  0.00000000000E+00 -0.00000000000E+00 -0.11578128443E+04  0.11578128443E+04  0.00000000000E+00 0. -1.
         23    2    1    2    0    0 -0.10995546467E+03  0.65922837983E+02 -0.17073665779E+03  0.23170943868E+03  0.90012404039E+02 0.  0.
         23    2    1    2    0    0  0.10995546467E+03 -0.65922837983E+02 -0.95028442294E+03  0.96289516910E+03  0.87696051310E+02 0.  0.
          5    1    4    4  502    0  0.60732552197E+02 -0.78423800953E+01 -0.21306819229E+03  0.22174329841E+03  0.47000000000E+01 0. -1.
         -5    1    3    3    0  503 -0.58469655205E+02  0.17898539600E+02 -0.18732666112E+02  0.64125354419E+02  0.47000000000E+01 0.  1.
          5    1    3    3  503    0 -0.51485809466E+02  0.48024298382E+02 -0.15200399168E+03  0.16758408426E+03  0.47000000000E+01 0. -1.
         -5    1    4    4    0  502  0.49222912474E+02 -0.58080457887E+02 -0.73721623065E+03  0.74115187070E+03  0.47000000000E+01 0.  1.
<mgrwt>
<rscale>  0 0.15631601E+03</rscale>
<asrwt>0</asrwt>
<pdfrwt beam="1">  1        1 0.17812504E+00 0.15664692E+03</pdfrwt>
<pdfrwt beam="2">  1       -1 0.56602716E-02 0.15664692E+03</pdfrwt>
<totfact> 0.17857691E+03</totfact>
</mgrwt>
</event>
<event>
 8    1  0.8174053E-004  0.1060652E+03  0.7546771E-02  0.1268501E+00
         -2   -1    0    0    0  501 -0.00000000000E+00  0.00000000000E+00  0.41604509287E+02  0.41604509287E+02  0.00000000000E+00 0.  1.
          2   -1    0    0  501    0  0.00000000000E+00 -0.00000000000E+00 -0.27711876034E+03  0.27711876034E+03  0.00000000000E+00 0. -1.
         23    2    1    2    0    0 -0.12646446113E+02 -0.49920924954E+02 -0.14619519892E+03  0.18005918963E+03  0.91631022230E+02 0.  0.
         23    2    1    2    0    0  0.12646446113E+02  0.49920924954E+02 -0.89319052131E+02  0.13866408000E+03  0.92724336934E+02 0.  0.
          5    1    3    3  502    0 -0.28548769787E+02 -0.12375859857E+02 -0.13340828999E+03  0.13706952981E+03  0.47000000000E+01 0. -1.
         -5    1    3    3    0  502  0.15902323675E+02 -0.37545065098E+02 -0.12786908927E+02  0.42989659819E+02  0.47000000000E+01 0.  1.
          5    1    4    4  503    0 -0.34919359077E+02  0.19969259257E+02 -0.66405455727E+02  0.77781151341E+02  0.47000000000E+01 0. -1.
         -5    1    4    4    0  503  0.47565805190E+02  0.29951665697E+02 -0.22913596405E+02  0.60882928655E+02  0.47000000000E+01 0.  1.
<mgrwt>
<rscale>  0 0.10582581E+03</rscale>
<asrwt>0</asrwt>
<pdfrwt beam="1">  1        2 0.42633657E-01 0.10606523E+03</pdfrwt>
<pdfrwt beam="2">  1       -2 0.64006935E-02 0.10606523E+03</pdfrwt>
<totfact> 0.14658274E+04</totfact>
</mgrwt>
</event>
<event>
 8    1  0.8174053E-004  0.1029300E+03  0.7546771E-02  0.1276976E+00
          1   -1    0    0  501    0  0.00000000000E+00  0.00000000000E+00  0.33431613155E+02  0.33431613155E+02  0.00000000000E+00 0. -1.
         -1   -1    0    0    0  501 -0.00000000000E+00 -0.00000000000E+00 -0.31987856704E+03  0.31987856704E+03  0.00000000000E+00 0.  1.
         23    2    1    2    0    0  0.26388893278E+02 -0.29952186571E+02 -0.10382688105E+03  0.14620057841E+03  0.94874025590E+02 0.  0.
         23    2    1    2    0    0 -0.26388893278E+02  0.29952186571E+02 -0.18262007284E+03  0.20710960178E+03  0.89167196759E+02 0.  0.
          5    1    4    4  502    0  0.21953642643E+02  0.29317530447E+02 -0.32040899223E+02  0.48889561666E+02  0.47000000000E+01 0. -1.
         -5    1    3    3    0  503 -0.22889476762E+02  0.20963933142E+02 -0.25233799570E+02  0.40277155808E+02  0.47000000000E+01 0.  1.
          5    1    3    3  503    0  0.49278370040E+02 -0.50916119713E+02 -0.78593081478E+02  0.10592342261E+03  0.47000000000E+01 0. -1.
         -5    1    4    4    0  502 -0.48342535921E+02  0.63465612359E+00 -0.15057917362E+03  0.15822004012E+03  0.47000000000E+01 0.  1.
<mgrwt>
<rscale>  0 0.10159551E+03</rscale>
<asrwt>0</asrwt>
<pdfrwt beam="1">  1        1 0.51433251E-02 0.10293001E+03</pdfrwt>
<pdfrwt beam="2">  1       -1 0.49212088E-01 0.10293001E+03</pdfrwt>
<totfact> 0.62897260E+03</totfact>
</mgrwt>
</event>
<event>
 8    1  0.8174053E-004  0.9861807E+02  0.7546771E-02  0.1287206E+00
          2   -1    0    0  501    0  0.00000000000E+00  0.00000000000E+00  0.30220801323E+03  0.30220801323E+03  0.00000000000E+00 0. -1.
         -2   -1    0    0    0  501 -0.00000000000E+00 -0.00000000000E+00 -0.47477849552E+02  0.47477849552E+02  0.00000000000E+00 0.  1.
         23    2    1    2    0    0  0.25018054759E+02 -0.84354951809E+01  0.23070580565E+03  0.24818367871E+03  0.87595142418E+02 0.  0.
         23    2    1    2    0    0 -0.25018054759E+02  0.84354951809E+01  0.24024358033E+02  0.10150218408E+03  0.95018224306E+02 0.  0.
          5    1    3    3  502    0  0.46299293302E+02 -0.22773593408E+02  0.20541890654E+03  0.21185201977E+03  0.47000000000E+01 0. -1.
         -5    1    4    4    0  503  0.23476479630E+02 -0.28456888252E+02  0.51723481538E+01  0.37547074057E+02  0.47000000000E+01 0.  1.
          5    1    4    4  503    0 -0.48494534389E+02  0.36892383433E+02  0.18852009880E+02  0.63955110019E+02  0.47000000000E+01 0. -1.
         -5    1    3    3    0  502 -0.21281238543E+02  0.14338098227E+02  0.25286899107E+02  0.36331658938E+02  0.47000000000E+01 0.  1.
<mgrwt>
<rscale>  0 0.96784956E+02</rscale>
<asrwt>0</asrwt>
<pdfrwt beam="1">  1        2 0.46493539E-01 0.98618069E+02</pdfrwt>
<pdfrwt beam="2">  1       -2 0.73042847E-02 0.98618069E+02</pdfrwt>
<totfact> 0.10882777E+04</totfact>
</mgrwt>
</event>
<event>
 8    1  0.8174053E-004  0.1268692E+03  0.7546771E-02  0.1232299E+00
          2   -1    0    0  501    0  0.00000000000E+00  0.00000000000E+00  0.52577870669E+03  0.52577870669E+03  0.00000000000E+00 0. -1.
         -2   -1    0    0    0  501 -0.00000000000E+00 -0.00000000000E+00 -0.35967977445E+02  0.35967977445E+02  0.00000000000E+00 0.  1.
         23    2    1    2    0    0  0.40371790250E+02 -0.78887218757E+02  0.35379173066E+03  0.37574411966E+03  0.90343677378E+02 0.  0.
         23    2    1    2    0    0 -0.40371790250E+02  0.78887218757E+02  0.13601899858E+03  0.18600256448E+03  0.90789378701E+02 0.  0.
          5    1    3    3  502    0  0.67087467913E+02 -0.46442561539E+02  0.26644430890E+03  0.27869750558E+03  0.47000000000E+01 0. -1.
         -5    1    3    3    0  502 -0.26715677663E+02 -0.32444657219E+02  0.87347421764E+02  0.97046614077E+02  0.47000000000E+01 0.  1.
          5    1    4    4  503    0 -0.31084240115E+01  0.87206612968E+02  0.10483946360E+03  0.13648464665E+03  0.47000000000E+01 0. -1.
         -5    1    4    4    0  503 -0.37263366238E+02 -0.83193942106E+01  0.31179534988E+02  0.49517917823E+02  0.47000000000E+01 0.  1.
<mgrwt>
<rscale>  0 0.12678945E+03</rscale>
<asrwt>0</asrwt>
<pdfrwt beam="1">  1        2 0.80889026E-01 0.12686917E+03</pdfrwt>
<pdfrwt beam="2">  1       -2 0.55335354E-02 0.12686917E+03</pdfrwt>
<totfact> 0.93595737E+03</totfact>
</mgrwt>
</event>
<event>
 8    1  0.8174053E-004  0.1185826E+03  0.7546771E-02  0.1245918E+00
         -1   -1    0    0    0  501 -0.00000000000E+00  0.00000000000E+00  0.63998009297E+02  0.63998009297E+02  0.00000000000E+00 0.  1.
          1   -1    0    0  501    0  0.00000000000E+00 -0.00000000000E+00 -0.38802260973E+03  0.38802260973E+03  0.00000000000E+00 0. -1.
         23    2    1    2    0    0 -0.72164559631E+02  0.16950780845E+02 -0.11843830174E+02  0.11807652264E+03  0.91141298251E+02 0.  0.
         23    2    1    2    0    0  0.72164559631E+02 -0.16950780845E+02 -0.31218077025E+03  0.33394409638E+03  0.92556866602E+02 0.  0.
          5    1    3    3  502    0  0.15428964987E+01 -0.25748304729E+02 -0.19127111837E+02  0.32454462455E+02  0.47000000000E+01 0. -1.
         -5    1    3    3    0  502 -0.73707456130E+02  0.42699085574E+02  0.72832816631E+01  0.85622060182E+02  0.47000000000E+01 0.  1.
          5    1    4    4  503    0  0.62124003031E+02 -0.50487378933E+02 -0.24856807249E+03  0.26118297005E+03  0.47000000000E+01 0. -1.
         -5    1    4    4    0  503  0.10040556600E+02  0.33536598088E+02 -0.63612697765E+02  0.72761126332E+02  0.47000000000E+01 0.  1.
<mgrwt>
<rscale>  0 0.11830622E+03</rscale>
<asrwt>0</asrwt>
<pdfrwt beam="1">  1        1 0.59695786E-01 0.11858257E+03</pdfrwt>
<pdfrwt beam="2">  1       -1 0.98458476E-02 0.11858257E+03</pdfrwt>
<totfact> 0.37787304E+03</totfact>
</mgrwt>
</event>
<event>
 8    1  0.8174053E-004  0.1865691E+03  0.7546771E-02  0.1161701E+00
          2   -1    0    0  501    0  0.00000000000E+00  0.00000000000E+00  0.74888149057E+03  0.74888149057E+03  0.00000000000E+00 0. -1.
         -2   -1    0    0    0  501 -0.00000000000E+00 -0.00000000000E+00 -0.52563587584E+02  0.52563587584E+02  0.00000000000E+00 0.  1.
         23    2    1    2    0    0 -0.77293146871E+01  0.16237273004E+03  0.21091552785E+03  0.28159083428E+03  0.91560866611E+02 0.  0.
         23    2    1    2    0    0  0.77293146871E+01 -0.16237273004E+03  0.48540237513E+03  0.51985424387E+03  0.90599797595E+02 0.  0.
          5    1    3    3  502    0  0.34369064345E+02  0.37001512860E+02  0.35730825684E+02  0.62041328499E+02  0.47000000000E+01 0. -1.
         -5    1    3    3    0  502 -0.42098379032E+02  0.12537121718E+03  0.17518470217E+03  0.21954950578E+03  0.47000000000E+01 0.  1.
          5    1    4    4  503    0  0.46444045741E+02 -0.10953129263E+03  0.34187732211E+03  0.36201705322E+03  0.47000000000E+01 0. -1.
         -5    1    4    4    0  503 -0.38714731054E+02 -0.52841437411E+02  0.14352505302E+03  0.15783719065E+03  0.47000000000E+01 0.  1.
<mgrwt>
<rscale>  0 0.18645157E+03</rscale>
<asrwt>0</asrwt>
<pdfrwt beam="1">  1        2 0.11521253E+00 0.18656912E+03</pdfrwt>
<pdfrwt beam="2">  1       -2 0.80867063E-02 0.18656912E+03</pdfrwt>
<totfact> 0.35397046E+03</totfact>
</mgrwt>
</event>
<event>
 8    1  0.8174053E-004  0.1419176E+03  0.7546771E-02  0.1216942E+00
         -1   -1    0    0    0  501 -0.00000000000E+00  0.00000000000E+00  0.59848196911E+03  0.59848196911E+03  0.00000000000E+00 0.  1.
          1   -1    0    0  501    0  0.00000000000E+00 -0.00000000000E+00 -0.11820731943E+03  0.11820731943E+03  0.00000000000E+00 0. -1.
         23    2    1    2    0    0 -0.10824863833E+03 -0.17830926245E+02  0.54619748146E+03  0.56020793091E+03  0.58868730873E+02 0.  0.
         23    2    1    2    0    0  0.10824863833E+03  0.17830926245E+02 -0.65922831776E+02  0.15648135762E+03  0.90027139809E+02 0.  0.
          5    1    3    3  502    0 -0.45298013197E+02 -0.36714548616E+02  0.24479637086E+03  0.25168873885E+03  0.47000000000E+01 0. -1.
         -5    1    3    3    0  502 -0.62950625134E+02  0.18883622370E+02  0.30140111060E+03  0.30851919206E+03  0.47000000000E+01 0.  1.
          5    1    4    4  503    0  0.95300143226E+02 -0.21064456851E+02 -0.60340295075E+02  0.11484280496E+03  0.47000000000E+01 0. -1.
         -5    1    4    4    0  503  0.12948495105E+02  0.38895383096E+02 -0.55825367013E+01  0.41638552661E+02  0.47000000000E+01 0.  1.
<mgrwt>
<rscale>  0 0.13734818E+03</rscale>
<asrwt>0</asrwt>
<pdfrwt beam="1">  1        1 0.18185742E-01 0.14191757E+03</pdfrwt>
<pdfrwt beam="2">  1       -1 0.92074147E-01 0.14191757E+03</pdfrwt>
<totfact> 0.35245901E+02</totfact>
</mgrwt>
</event>
<event>
 8    1  0.8174053E-004  0.1050342E+03  0.7546771E-02  0.1273366E+00
         -1   -1    0    0    0  501 -0.00000000000E+00  0.00000000000E+00  0.15702338076E+03  0.15702338076E+03  0.00000000000E+00 0.  1.
          1   -1    0    0  501    0  0.00000000000E+00 -0.00000000000E+00 -0.67561567070E+02  0.67561567070E+02  0.00000000000E+00 0. -1.
         23    2    1    2    0    0 -0.24017628816E+02  0.31747625313E+02  0.63324112783E+02  0.12264635019E+03  0.97197869051E+02 0.  0.
         23    2    1    2    0    0  0.24017628816E+02 -0.31747625313E+02  0.26137700902E+02  0.10193859764E+03  0.90130683302E+02 0.  0.
          5    1    3    3  502    0  0.25394285098E+02 -0.17550279492E+02  0.51171497034E+01  0.31641068992E+02  0.47000000000E+01 0. -1.
         -5    1    4    4    0  503  0.19238603517E+02  0.16024733470E+02 -0.22094674670E+02  0.33722108428E+02  0.47000000000E+01 0.  1.
          5    1    4    4  503    0  0.47790252989E+01 -0.47772358783E+02  0.48232375572E+02  0.68216489208E+02  0.47000000000E+01 0. -1.
         -5    1    3    3    0  502 -0.49411913915E+02  0.49297904805E+02  0.58206963080E+02  0.91005281198E+02  0.47000000000E+01 0.  1.
<mgrwt>
<rscale>  0 0.10336915E+03</rscale>
<asrwt>0</asrwt>
<pdfrwt beam="1">  1        1 0.10394087E-01 0.10503420E+03</pdfrwt>
<pdfrwt beam="2">  1       -1 0.24157443E-01 0.10503420E+03</pdfrwt>
<totfact> 0.82894619E+03</totfact>
</mgrwt>
</event>
<event>
 8    1  0.8174053E-004  0.1088532E+03  0.7546771E-02  0.1264620E+00
         -1   -1    0    0    0  501 -0.00000000000E+00  0.00000000000E+00  0.42602289595E+02  0.42602289595E+02  0.00000000000E+00 0.  1.
          1   -1    0    0  501    0  0.00000000000E+00 -0.00000000000E+00 -0.53669182134E+03  0.53669182134E+03  0.00000000000E+00 0. -1.
         23    2    1    2    0    0  0.42433100631E+02 -0.40282838019E+02 -0.44433973645E+02  0.11757294174E+03  0.91791849028E+02 0.  0.
         23    2    1    2    0    0 -0.42433100631E+02  0.40282838019E+02 -0.44965555810E+03  0.46172116919E+03  0.87023227264E+02 0.  0.
          5    1    4    4  502    0 -0.20085093113E+02  0.51823384533E+02 -0.41452093659E+03  0.41825682423E+03  0.47000000000E+01 0. -1.
         -5    1    4    4    0  502 -0.22348007518E+02 -0.11540546514E+02 -0.35134621512E+02  0.43464344959E+02  0.47000000000E+01 0.  1.
          5    1    3    3  503    0 -0.49425683214E+01  0.25738727200E+02 -0.48634067658E+01  0.27067578112E+02  0.47000000000E+01 0. -1.
         -5    1    3    3    0  503  0.47375668952E+02 -0.66021565219E+02 -0.39570566879E+02  0.90505363630E+02  0.47000000000E+01 0.  1.
<mgrwt>
<rscale>  0 0.10784172E+03</rscale>
<asrwt>0</asrwt>
<pdfrwt beam="1">  1        1 0.82567966E-01 0.10885320E+03</pdfrwt>
<pdfrwt beam="2">  1       -1 0.65541989E-02 0.10885320E+03</pdfrwt>
<totfact> 0.45812316E+03</totfact>
</mgrwt>
</event>
<event>
 8    1  0.8174053E-004  0.1915105E+03  0.7546771E-02  0.1157537E+00
          2   -1    0    0  501    0  0.00000000000E+00  0.00000000000E+00  0.11584567736E+04  0.11584567736E+04  0.00000000000E+00 0.  1.
         -2   -1    0    0    0  501 -0.00000000000E+00 -0.00000000000E+00 -0.11334940306E+03  0.11334940306E+03  0.00000000000E+00 0. -1.
         23    2    1    2    0    0  0.15763744216E+03  0.58287057716E+02 -0.17602241540E+02  0.19231774158E+03  0.91811385747E+02 0.  0.
         23    2    1    2    0    0 -0.15763744216E+03 -0.58287057716E+02  0.10627096121E+04  0.10794884351E+04  0.87730368827E+02 0.  0.
          5    1    4    4  502    0 -0.48620968956E+02  0.11462733037E+02  0.16423381957E+03  0.17172719750E+03  0.47000000000E+01 0. -1.
         -5    1    3    3    0  503  0.42103563729E+02  0.45407828678E+02  0.26998929155E+02  0.67717155578E+02  0.47000000000E+01 0.  1.
          5    1    3    3  503    0  0.11553387843E+03  0.12879229038E+02 -0.44601170695E+02  0.12460058600E+03  0.47000000000E+01 0. -1.
         -5    1    4    4    0  502 -0.10901647320E+03 -0.69749790753E+02  0.89847579252E+03  0.90776123760E+03  0.47000000000E+01 0.  1.
<mgrwt>
<rscale>  0 0.19102803E+03</rscale>
<asrwt>0</asrwt>
<pdfrwt beam="1">  1        2 0.17822411E+00 0.19151051E+03</pdfrwt>
<pdfrwt beam="2">  1       -2 0.17438370E-01 0.19151051E+03</pdfrwt>
<totfact> 0.56837124E+02</totfact>
</mgrwt>
</event>
<event>
 8    1  0.8174053E-004  0.1071678E+03  0.7546771E-02  0.1268318E+00
          1   -1    0    0  501    0  0.00000000000E+00  0.00000000000E+00  0.90965643295E+03  0.90965643295E+03  0.00000000000E+00 0. -1.
         -1   -1    0    0    0  501 -0.00000000000E+00 -0.00000000000E+00 -0.46617217395E+02  0.46617217395E+02  0.00000000000E+00 0.  1.
         23    2    1    2    0    0  0.36009135125E+02 -0.32103047271E+02  0.84580809120E+03  0.85257038751E+03  0.95695742121E+02 0.  0.
         23    2    1    2    0    0 -0.36009135125E+02  0.32103047271E+02  0.17231124359E+02  0.10370326284E+03  0.90167575217E+02 0.  0.
          5    1    4    4  502    0 -0.13263809498E+02 -0.25790087848E+02 -0.15544704398E+02  0.33238307845E+02  0.47000000000E+01 0. -1.
         -5    1    4    4    0  502 -0.22745325627E+02  0.57893135118E+02  0.32775828758E+02  0.70464954995E+02  0.47000000000E+01 0.  1.
          5    1    3    3  503    0  0.61191901205E+02  0.55202606389E+01  0.49659228679E+03  0.50040075075E+03  0.47000000000E+01 0.  1.
         -5    1    3    3    0  503 -0.25182766081E+02 -0.37623307910E+02  0.34921580441E+03  0.35216963676E+03  0.47000000000E+01 0. -1.
<mgrwt>
<rscale>  0 0.10591964E+03</rscale>
<asrwt>0</asrwt>
<pdfrwt beam="1">  1        1 0.13994713E+00 0.10716781E+03</pdfrwt>
<pdfrwt beam="2">  1       -1 0.71718803E-02 0.10716781E+03</pdfrwt>
<totfact> 0.18860020E+03</totfact>
</mgrwt>
</event>
<event>
 8    1  0.8174053E-004  0.1048649E+03  0.7546771E-02  0.1271613E+00
          1   -1    0    0  501    0  0.00000000000E+00  0.00000000000E+00  0.37330987150E+03  0.37330987150E+03  0.00000000000E+00 0. -1.
         -1   -1    0    0    0  501 -0.00000000000E+00 -0.00000000000E+00 -0.29944431649E+02  0.29944431649E+02  0.00000000000E+00 0.  1.
         23    2    1    2    0    0  0.88154412953E+01 -0.48371301942E+02  0.13373637110E+03  0.16994722235E+03  0.92623682579E+02 0.  0.
         23    2    1    2    0    0 -0.88154412953E+01  0.48371301942E+02  0.20962906875E+03  0.23330708079E+03  0.89835141373E+02 0.  0.
          5    1    4    4  502    0 -0.33878493952E+02  0.62706214021E+02  0.16670451612E+03  0.18136236469E+03  0.47000000000E+01 0. -1.
         -5    1    3    3    0  503 -0.32798307926E+02 -0.32501908431E+02  0.25830407533E+02  0.53116880629E+02  0.47000000000E+01 0.  1.
          5    1    3    3  503    0  0.41613749221E+02 -0.15869393511E+02  0.10790596356E+03  0.11683034172E+03  0.47000000000E+01 0. -1.
         -5    1    4    4    0  502  0.25063052657E+02 -0.14334912080E+02  0.42924552627E+02  0.51944716103E+02  0.47000000000E+01 0.  1.
<mgrwt>
<rscale>  0 0.10424574E+03</rscale>
<asrwt>0</asrwt>
<pdfrwt beam="1">  1        1 0.57432284E-01 0.10486487E+03</pdfrwt>
<pdfrwt beam="2">  1       -1 0.46068359E-02 0.10486487E+03</pdfrwt>
<totfact> 0.12193075E+04</totfact>
</mgrwt>
</event>
<event>
 8    1  0.8174053E-004  0.1940316E+03  0.7546771E-02  0.1157274E+00
          1   -1    0    0  501    0  0.00000000000E+00  0.00000000000E+00  0.25509395778E+02  0.25509395778E+02  0.00000000000E+00 0. -1.
         -1   -1    0    0    0  501 -0.00000000000E+00 -0.00000000000E+00 -0.14548904700E+04  0.14548904700E+04  0.00000000000E+00 0.  1.
         23    2    1    2    0    0  0.14403747384E+03  0.68333810882E+02 -0.58540870964E+03  0.61672653662E+03  0.11059819199E+03 0.  0.
         23    2    1    2    0    0 -0.14403747384E+03 -0.68333810882E+02 -0.84397236454E+03  0.86367332911E+03  0.90697098836E+02 0.  0.
          5    1    4    4  502    0 -0.54067254024E+02  0.10282308842E+02 -0.15846982563E+03  0.16782064673E+03  0.47000000000E+01 0. -1.
         -5    1    3    3    0  503  0.13417596985E+02 -0.17333776095E+02 -0.19371618589E+03  0.19500908281E+03  0.47000000000E+01 0.  1.
          5    1    3    3  503    0  0.13061987685E+03  0.85667586977E+02 -0.39169252374E+03  0.42171745381E+03  0.47000000000E+01 0. -1.
         -5    1    4    4    0  502 -0.89970219815E+02 -0.78616119723E+02 -0.68550253890E+03  0.69585268238E+03  0.47000000000E+01 0.  1.
<mgrwt>
<rscale>  0 0.19132204E+03</rscale>
<asrwt>0</asrwt>
<pdfrwt beam="1">  1        1 0.39245220E-02 0.19403160E+03</pdfrwt>
<pdfrwt beam="2">  1       -1 0.22382933E+00 0.19403160E+03</pdfrwt>
<totfact> 0.27277311E+02</totfact>
</mgrwt>
</event>
<event>
 8    1  0.8174053E-004  0.9235603E+02  0.7546771E-02  0.1299584E+00
         -1   -1    0    0    0  501 -0.00000000000E+00  0.00000000000E+00  0.10715844201E+02  0.10715844201E+02  0.00000000000E+00 0.  1.
          1   -1    0    0  501    0  0.00000000000E+00 -0.00000000000E+00 -0.85625600377E+03  0.85625600377E+03  0.00000000000E+00 0. -1.
         23    2    1    2    0    0  0.11079614948E+02 -0.55677293153E+01 -0.27134504422E+03  0.28539668788E+03  0.87574990485E+02 0.  0.
         23    2    1    2    0    0 -0.11079614948E+02  0.55677293153E+01 -0.57419511536E+03  0.58157516009E+03  0.91519827667E+02 0.  0.
          5    1    3    3  502    0  0.18041188003E+02  0.37173433136E+02 -0.94136108719E+02  0.10291280562E+03  0.47000000000E+01 0. -1.
         -5    1    4    4    0  503  0.14113388153E+02 -0.37189987672E+02 -0.32363691267E+03  0.32610615473E+03  0.47000000000E+01 0.  1.
          5    1    4    4  503    0 -0.25193003101E+02  0.42757716987E+02 -0.25055820268E+03  0.25546900536E+03  0.47000000000E+01 0. -1.
         -5    1    3    3    0  502 -0.69615730547E+01 -0.42741162451E+02 -0.17720893550E+03  0.18248388227E+03  0.47000000000E+01 0.  1.
<mgrwt>
<rscale>  0 0.91363253E+02</rscale>
<asrwt>0</asrwt>
<pdfrwt beam="1">  1        1 0.13173171E+00 0.92356030E+02</pdfrwt>
<pdfrwt beam="2">  1       -1 0.16485911E-02 0.92356030E+02</pdfrwt>
<totfact> 0.17380401E+04</totfact>
</mgrwt>
</event>
<event>
 8    1  0.8174053E-004  0.9792873E+02  0.7546771E-02  0.1285183E+00
         -1   -1    0    0    0  501 -0.00000000000E+00  0.00000000000E+00  0.30094680679E+02  0.30094680679E+02  0.00000000000E+00 0.  1.
          1   -1    0    0  501    0  0.00000000000E+00 -0.00000000000E+00 -0.40974911651E+03  0.40974911651E+03  0.00000000000E+00 0. -1.
         23    2    1    2    0    0 -0.77393651636E+01 -0.30108490205E+02 -0.29575271197E+03  0.31154406291E+03  0.92863434917E+02 0.  0.
         23    2    1    2    0    0  0.77393651636E+01  0.30108490205E+02 -0.83901723864E+02  0.12829973428E+03  0.91950549712E+02 0.  0.
          5    1    3    3  502    0 -0.46333743766E+02 -0.35650596278E+02 -0.17547455458E+03  0.18501672933E+03  0.47000000000E+01 0. -1.
         -5    1    4    4    0  503  0.25566976694E+02 -0.21796814155E+02 -0.85914814943E+01  0.34995356247E+02  0.47000000000E+01 0.  1.
          5    1    4    4  503    0 -0.17827611530E+02  0.51905304360E+02 -0.75310242370E+02  0.93304378029E+02  0.47000000000E+01 0. -1.
         -5    1    3    3    0  502  0.38594378603E+02  0.55421060729E+01 -0.12027815739E+03  0.12652733358E+03  0.47000000000E+01 0.  1.
<mgrwt>
<rscale>  0 0.97711703E+02</rscale>
<asrwt>0</asrwt>
<pdfrwt beam="1">  1        1 0.63038328E-01 0.97928732E+02</pdfrwt>
<pdfrwt beam="2">  1       -1 0.46299507E-02 0.97928732E+02</pdfrwt>
<totfact> 0.10716421E+04</totfact>
</mgrwt>
</event>
<event>
 8    1  0.8174053E-004  0.2575287E+03  0.7546771E-02  0.1109250E+00
          2   -1    0    0  501    0  0.00000000000E+00  0.00000000000E+00  0.14977201786E+04  0.14977201786E+04  0.00000000000E+00 0. -1.
         -2   -1    0    0    0  501 -0.00000000000E+00 -0.00000000000E+00 -0.27864951180E+03  0.27864951180E+03  0.00000000000E+00 0.  1.
         23    2    1    2    0    0 -0.46875398721E+02  0.23610882338E+03 -0.20695543059E+03  0.32727635930E+03  0.79590110090E+02 0.  0.
         23    2    1    2    0    0  0.46875398721E+02 -0.23610882338E+03  0.14260260974E+04  0.14490933311E+04  0.91522523580E+02 0.  0.
          5    1    3    3  502    0 -0.50514948435E+02  0.70318164815E+02 -0.57994034332E+02  0.10431587768E+03  0.47000000000E+01 0. -1.
         -5    1    4    4    0  503  0.36808290774E+02 -0.52119779616E+02  0.22184272952E+03  0.23088440471E+03  0.47000000000E+01 0.  1.
          5    1    4    4  503    0  0.10067107947E+02 -0.18398904376E+03  0.12041833679E+04  0.12182089264E+04  0.47000000000E+01 0. -1.
         -5    1    3    3    0  502  0.36395497134E+01  0.16579065856E+03 -0.14896139625E+03  0.22296048162E+03  0.47000000000E+01 0.  1.
<mgrwt>
<rscale>  0 0.25652408E+03</rscale>
<asrwt>0</asrwt>
<pdfrwt beam="1">  1        2 0.23041848E+00 0.25752874E+03</pdfrwt>
<pdfrwt beam="2">  1       -2 0.42869156E-01 0.25752874E+03</pdfrwt>
<totfact> 0.72548061E+01</totfact>
</mgrwt>
</event>
<event>
 8    1  0.8174053E-004  0.1862902E+03  0.7546771E-02  0.1162409E+00
          1   -1    0    0  501    0  0.00000000000E+00  0.00000000000E+00  0.76613157074E+03  0.76613157074E+03  0.00000000000E+00 0. -1.
         -1   -1    0    0    0  501 -0.00000000000E+00 -0.00000000000E+00 -0.47706428536E+02  0.47706428536E+02  0.00000000000E+00 0.  1.
         23    2    1    2    0    0  0.50848552907E+02  0.15341726584E+03  0.25516248453E+03  0.31452212760E+03  0.87714550956E+02 0.  0.
         23    2    1    2    0    0 -0.50848552907E+02 -0.15341726584E+03  0.46326265768E+03  0.49931587168E+03  0.92637017026E+02 0.  0.
          5    1    3    3  502    0  0.10159362006E+02  0.10051934580E+03  0.21204077422E+03  0.23492707687E+03  0.47000000000E+01 0. -1.
         -5    1    3    3    0  502  0.40689190901E+02  0.52897920031E+02  0.43121710309E+02  0.79595050724E+02  0.47000000000E+01 0.  1.
          5    1    4    4  503    0 -0.29122687030E+02 -0.13178193568E+03  0.44078778493E+03  0.46101038038E+03  0.47000000000E+01 0. -1.
         -5    1    4    4    0  503 -0.21725865876E+02 -0.21635330152E+02  0.22474872747E+02  0.38305491301E+02  0.47000000000E+01 0.  1.
<mgrwt>
<rscale>  0 0.18568776E+03</rscale>
<asrwt>0</asrwt>
<pdfrwt beam="1">  1        1 0.11786639E+00 0.18629023E+03</pdfrwt>
<pdfrwt beam="2">  1       -1 0.73394511E-02 0.18629023E+03</pdfrwt>
<totfact> 0.24000331E+03</totfact>
</mgrwt>
</event>
<event>
 8    1  0.8174053E-004  0.9273318E+02  0.7546771E-02  0.1299282E+00
          1   -1    0    0  501    0  0.00000000000E+00  0.00000000000E+00  0.50827335113E+02  0.50827335113E+02  0.00000000000E+00 0. -1.
         -1   -1    0    0    0  501 -0.00000000000E+00 -0.00000000000E+00 -0.16423798239E+03  0.16423798239E+03  0.00000000000E+00 0.  1.
         23    2    1    2    0    0 -0.35627766821E-01  0.28909920906E+02 -0.41801836743E+02  0.10171940365E+03  0.88111626513E+02 0.  0.
         23    2    1    2    0    0  0.35627766821E-01 -0.28909920906E+02 -0.71608810534E+02  0.11334591386E+03  0.82968003750E+02 0.  0.
          5    1    4    4  502    0  0.34313464092E+02  0.97421776688E+01 -0.30044819517E+02  0.46873286886E+02  0.47000000000E+01 0. -1.
         -5    1    3    3    0  503 -0.22033473249E+02  0.42728107516E+02 -0.54159464427E+02  0.72570673845E+02  0.47000000000E+01 0.  1.
          5    1    3    3  503    0  0.21997845482E+02 -0.13818186610E+02  0.12357627684E+02  0.29148729801E+02  0.47000000000E+01 0. -1.
         -5    1    4    4    0  502 -0.34277836325E+02 -0.38652098575E+02 -0.41563991016E+02  0.66472626972E+02  0.47000000000E+01 0.  1.
<mgrwt>
<rscale>  0 0.91490257E+02</rscale>
<asrwt>0</asrwt>
<pdfrwt beam="1">  1        1 0.78195902E-02 0.92733185E+02</pdfrwt>
<pdfrwt beam="2">  1       -1 0.25267381E-01 0.92733185E+02</pdfrwt>
<totfact> 0.11091237E+04</totfact>
</mgrwt>
</event>
<event>
 8    1  0.8174053E-004  0.1082040E+03  0.7546771E-02  0.1264389E+00
          1   -1    0    0  501    0  0.00000000000E+00  0.00000000000E+00  0.25397882479E+02  0.25397882479E+02  0.00000000000E+00 0. -1.
         -1   -1    0    0    0  501 -0.00000000000E+00 -0.00000000000E+00 -0.51603188118E+03  0.51603188118E+03  0.00000000000E+00 0.  1.
         23    2    1    2    0    0 -0.41838451361E+02  0.39814170875E+02 -0.15271490275E+03  0.18660949910E+03  0.90363927643E+02 0.  0.
         23    2    1    2    0    0  0.41838451361E+02 -0.39814170875E+02 -0.33791909595E+03  0.35482026455E+03  0.91501259635E+02 0.  0.
          5    1    3    3  502    0 -0.49652753781E+02  0.63863363412E+02 -0.10790149240E+03  0.13493979104E+03  0.47000000000E+01 0. -1.
         -5    1    4    4    0  503  0.22507811279E+02 -0.69048772921E+02 -0.22152959882E+03  0.23317758846E+03  0.47000000000E+01 0.  1.
          5    1    4    4  503    0  0.19330640083E+02  0.29234602046E+02 -0.11638949714E+03  0.12164267609E+03  0.47000000000E+01 0. -1.
         -5    1    3    3    0  502  0.78143024199E+01 -0.24049192537E+02 -0.44813410344E+02  0.51669708057E+02  0.47000000000E+01 0.  1.
<mgrwt>
<rscale>  0 0.10796318E+03</rscale>
<asrwt>0</asrwt>
<pdfrwt beam="1">  1        1 0.39073668E-02 0.10820400E+03</pdfrwt>
<pdfrwt beam="2">  1       -1 0.79389516E-01 0.10820400E+03</pdfrwt>
<totfact> 0.36826334E+03</totfact>
</mgrwt>
</event>
<event>
 8    1  0.8174053E-004  0.1342500E+03  0.7546771E-02  0.1222256E+00
          2   -1    0    0  501    0  0.00000000000E+00  0.00000000000E+00  0.95220997853E+02  0.95220997853E+02  0.00000000000E+00 0. -1.
         -2   -1    0    0    0  501 -0.00000000000E+00 -0.00000000000E+00 -0.19095513131E+03  0.19095513131E+03  0.00000000000E+00 0.  1.
         23    2    1    2    0    0  0.59651618281E+02 -0.64461216487E+02 -0.72578208378E+02  0.15261278478E+03  0.10153571664E+03 0.  0.
         23    2    1    2    0    0 -0.59651618281E+02  0.64461216487E+02 -0.23155925075E+02  0.13356334437E+03  0.97925513018E+02 0.  0.
          5    1    4    4  502    0 -0.49945097429E+02 -0.13750060114E+02 -0.15314286995E+02  0.54223558501E+02  0.47000000000E+01 0. -1.
         -5    1    3    3    0  503  0.27278775088E+02  0.26045974719E+02 -0.21112651609E+02  0.43478252349E+02  0.47000000000E+01 0.  1.
          5    1    3    3  503    0  0.32372843193E+02 -0.90507191205E+02 -0.51465556769E+02  0.10913453244E+03  0.47000000000E+01 0. -1.
         -5    1    4    4    0  502 -0.97065208522E+01  0.78211276601E+02 -0.78416380797E+01  0.79339785873E+02  0.47000000000E+01 0.  1.
<mgrwt>
<rscale>  0 0.13356751E+03</rscale>
<asrwt>0</asrwt>
<pdfrwt beam="1">  1        2 0.14649385E-01 0.13425001E+03</pdfrwt>
<pdfrwt beam="2">  1       -2 0.29377712E-01 0.13425001E+03</pdfrwt>
<totfact> 0.40717705E+03</totfact>
</mgrwt>
</event>
<event>
 8    1  0.8174053E-004  0.9386589E+02  0.7546771E-02  0.1294058E+00
         -1   -1    0    0    0  501 -0.00000000000E+00  0.00000000000E+00  0.25198499788E+02  0.25198499788E+02  0.00000000000E+00 0.  1.
          1   -1    0    0  501    0  0.00000000000E+00 -0.00000000000E+00 -0.37913653290E+03  0.37913653290E+03  0.00000000000E+00 0. -1.
         23    2    1    2    0    0  0.72641128496E+01 -0.17950439282E+02 -0.11826319045E+03  0.15065524135E+03  0.91300788202E+02 0.  0.
         23    2    1    2    0    0 -0.72641128496E+01  0.17950439282E+02 -0.23567484267E+03  0.25367979134E+03  0.91846717208E+02 0.  0.
          5    1    3    3  502    0  0.30001443071E+02 -0.38303352157E+02 -0.30491508527E+02  0.57611244259E+02  0.47000000000E+01 0. -1.
         -5    1    3    3    0  502 -0.22737330221E+02  0.20352912875E+02 -0.87771681920E+02  0.93043997094E+02  0.47000000000E+01 0.  1.
          5    1    4    4  503    0 -0.25260924053E+02 -0.30015692329E+02 -0.13439293884E+03  0.14008071987E+03  0.47000000000E+01 0. -1.
         -5    1    4    4    0  503  0.17996811204E+02  0.47966131611E+02 -0.10128190383E+03  0.11359907147E+03  0.47000000000E+01 0.  1.
<mgrwt>
<rscale>  0 0.93732073E+02</rscale>
<asrwt>0</asrwt>
<pdfrwt beam="1">  1        1 0.58328688E-01 0.93865889E+02</pdfrwt>
<pdfrwt beam="2">  1       -1 0.38766929E-02 0.93865889E+02</pdfrwt>
<totfact> 0.15230593E+04</totfact>
</mgrwt>
</event>
<event>
 8    1  0.8174053E-004  0.1932541E+03  0.7546771E-02  0.1155637E+00
         -2   -1    0    0    0  501 -0.00000000000E+00  0.00000000000E+00  0.69205635709E+02  0.69205635709E+02  0.00000000000E+00 0.  1.
          2   -1    0    0  501    0  0.00000000000E+00 -0.00000000000E+00 -0.18292907635E+04  0.18292907635E+04  0.00000000000E+00 0. -1.
         23    2    1    2    0    0  0.15755555914E+03 -0.63223216186E+02 -0.16771350382E+04  0.16881922108E+04  0.91597353980E+02 0.  0.
         23    2    1    2    0    0 -0.15755555914E+03  0.63223216186E+02 -0.82950089619E+02  0.21030418835E+03  0.92337451713E+02 0.  0.
          5    1    3    3  502    0  0.16149739022E+03 -0.36822006299E+02 -0.14585951149E+04  0.14679778835E+04  0.47000000000E+01 0. -1.
         -5    1    3    3    0  502 -0.39418310809E+01 -0.26401209887E+02 -0.21853992323E+03  0.22021432733E+03  0.47000000000E+01 0.  1.
          5    1    4    4  503    0 -0.37745221660E+02  0.62714902676E+02 -0.31987224851E+02  0.80019580913E+02  0.47000000000E+01 0. -1.
         -5    1    4    4    0  503 -0.11981033748E+03  0.50831351062E+00 -0.50962864768E+02  0.13028460744E+03  0.47000000000E+01 0.  1.
<mgrwt>
<rscale>  0 0.19316587E+03</rscale>
<asrwt>0</asrwt>
<pdfrwt beam="1">  1        2 0.28142932E+00 0.19325407E+03</pdfrwt>
<pdfrwt beam="2">  1       -2 0.10647022E-01 0.19325407E+03</pdfrwt>
<totfact> 0.55701457E+02</totfact>
</mgrwt>
</event>
<event>
 8    1  0.8174053E-004  0.1164230E+03  0.7546771E-02  0.1249160E+00
         -1   -1    0    0    0  501 -0.00000000000E+00  0.00000000000E+00  0.43814668048E+02  0.43814668048E+02  0.00000000000E+00 0.  1.
          1   -1    0    0  501    0  0.00000000000E+00 -0.00000000000E+00 -0.64041276395E+03  0.64041276395E+03  0.00000000000E+00 0. -1.
         23    2    1    2    0    0  0.60720859585E+02 -0.39214185466E+02 -0.54431081280E+03  0.55660191974E+03  0.91140885411E+02 0.  0.
         23    2    1    2    0    0 -0.60720859585E+02  0.39214185466E+02 -0.52287283098E+02  0.12762551226E+03  0.91266293202E+02 0.  0.
          5    1    4    4  502    0 -0.28058606964E+01  0.55111175377E+02 -0.17599366052E+02  0.58111463509E+02  0.47000000000E+01 0. -1.
         -5    1    3    3    0  503  0.90999181197E+01 -0.24272113399E+02 -0.31956824438E+02  0.41415849947E+02  0.47000000000E+01 0.  1.
          5    1    3    3  503    0  0.51620941466E+02 -0.14942072067E+02 -0.51235398837E+03  0.51518606979E+03  0.47000000000E+01 0. -1.
         -5    1    4    4    0  502 -0.57914998889E+02 -0.15896989911E+02 -0.34687917046E+02  0.69514048749E+02  0.47000000000E+01 0.  1.
<mgrwt>
<rscale>  0 0.11639841E+03</rscale>
<asrwt>0</asrwt>
<pdfrwt beam="1">  1        1 0.98525032E-01 0.11642298E+03</pdfrwt>
<pdfrwt beam="2">  1       -1 0.67407187E-02 0.11642298E+03</pdfrwt>
<totfact> 0.34760696E+03</totfact>
</mgrwt>
</event>
<event>
 8    1  0.8174053E-004  0.9904634E+02  0.7546771E-02  0.1284672E+00
         -1   -1    0    0    0  501 -0.00000000000E+00  0.00000000000E+00  0.36182971052E+03  0.36182971052E+03  0.00000000000E+00 0.  1.
          1   -1    0    0  501    0  0.00000000000E+00 -0.00000000000E+00 -0.47631894340E+02  0.47631894340E+02  0.00000000000E+00 0. -1.
         23    2    1    2    0    0  0.16662092696E+02 -0.37219768597E+02  0.20873774669E+02  0.10122199218E+03  0.90262066918E+02 0.  0.
         23    2    1    2    0    0 -0.16662092696E+02  0.37219768597E+02  0.29332404151E+03  0.30823961268E+03  0.85496953105E+02 0.  0.
          5    1    3    3  502    0 -0.60180931946E+00 -0.64152384841E+02  0.32789902040E+01  0.64410654647E+02  0.47000000000E+01 0. -1.
         -5    1    3    3    0  502  0.17263902016E+02  0.26932616244E+02  0.17594784465E+02  0.36811337532E+02  0.47000000000E+01 0.  1.
          5    1    4    4  503    0 -0.21247178265E+02 -0.17939003454E+02  0.40286253113E+02  0.49176443742E+02  0.47000000000E+01 0. -1.
         -5    1    4    4    0  503  0.45850855688E+01  0.55158772051E+02  0.25303778840E+03  0.25906316894E+03  0.47000000000E+01 0.  1.
<mgrwt>
<rscale>  0 0.97947646E+02</rscale>
<asrwt>0</asrwt>
<pdfrwt beam="1">  1        1 0.73279840E-02 0.99046339E+02</pdfrwt>
<pdfrwt beam="2">  1       -1 0.55666107E-01 0.99046339E+02</pdfrwt>
<totfact> 0.31105822E+03</totfact>
</mgrwt>
</event>
<event>
 8    1  0.8174053E-004  0.1047867E+03  0.7546771E-02  0.1272917E+00
          2   -1    0    0  501    0  0.00000000000E+00  0.00000000000E+00  0.27725685619E+03  0.27725685619E+03  0.00000000000E+00 0. -1.
         -2   -1    0    0    0  501 -0.00000000000E+00 -0.00000000000E+00 -0.11250437493E+03  0.11250437493E+03  0.00000000000E+00 0.  1.
         23    2    1    2    0    0  0.11087730099E+02  0.43979487945E+02 -0.75724924354E+02  0.12928466590E+03  0.94462307558E+02 0.  0.
         23    2    1    2    0    0 -0.11087730099E+02 -0.43979487945E+02  0.24047740561E+03  0.26047656522E+03  0.89227379773E+02 0.  0.
          5    1    4    4  502    0 -0.28894817954E+02 -0.20200318208E+02  0.22273368327E+03  0.22555564064E+03  0.47000000000E+01 0. -1.
         -5    1    4    4    0  502  0.17807087855E+02 -0.23779169736E+02  0.17743722341E+02  0.34920924583E+02  0.47000000000E+01 0.  1.
          5    1    3    3  503    0 -0.23526438370E+02 -0.13268609002E+02  0.93281853077E+00  0.27431905469E+02  0.47000000000E+01 0. -1.
         -5    1    3    3    0  503  0.34614168469E+02  0.57248096947E+02 -0.76657742884E+02  0.10185276043E+03  0.47000000000E+01 0.  1.
<mgrwt>
<rscale>  0 0.10359313E+03</rscale>
<asrwt>0</asrwt>
<pdfrwt beam="1">  1        2 0.42654901E-01 0.10478674E+03</pdfrwt>
<pdfrwt beam="2">  1       -2 0.17308365E-01 0.10478674E+03</pdfrwt>
<totfact> 0.30626244E+03</totfact>
</mgrwt>
</event>
<event>
 8    1  0.8174053E-004  0.1387403E+03  0.7546771E-02  0.1215573E+00
          2   -1    0    0  501    0  0.00000000000E+00  0.00000000000E+00  0.47183817360E+03  0.47183817360E+03  0.00000000000E+00 0. -1.
         -2   -1    0    0    0  501 -0.00000000000E+00 -0.00000000000E+00 -0.89566607913E+02  0.89566607913E+02  0.00000000000E+00 0.  1.
         23    2    1    2    0    0 -0.58426836837E+02  0.86186329260E+02 -0.16484444269E+02  0.13971621617E+03  0.91690269623E+02 0.  0.
         23    2    1    2    0    0  0.58426836837E+02 -0.86186329260E+02  0.39875600996E+03  0.42168856535E+03  0.89292284399E+02 0.  0.
          5    1    3    3  502    0  0.20585602121E+02  0.71522126256E+00 -0.90595838682E+01  0.22987923264E+02  0.47000000000E+01 0. -1.
         -5    1    4    4    0  503  0.52531974558E+02 -0.59654192253E+01  0.11397291311E+03  0.12572632779E+03  0.47000000000E+01 0.  1.
          5    1    4    4  503    0  0.58948622794E+01 -0.80220910035E+02  0.28478309685E+03  0.29596223756E+03  0.47000000000E+01 0. -1.
         -5    1    3    3    0  502 -0.79012438958E+02  0.85471107998E+02 -0.74248604006E+01  0.11672829290E+03  0.47000000000E+01 0.  1.
<mgrwt>
<rscale>  0 0.13834542E+03</rscale>
<asrwt>0</asrwt>
<pdfrwt beam="1">  1        2 0.72590487E-01 0.13874035E+03</pdfrwt>
<pdfrwt beam="2">  1       -2 0.13779478E-01 0.13874035E+03</pdfrwt>
<totfact> 0.25586570E+03</totfact>
</mgrwt>
</event>
<event>
 8    1  0.8174053E-004  0.9584857E+02  0.7546771E-02  0.1289282E+00
          1   -1    0    0  501    0  0.00000000000E+00  0.00000000000E+00  0.67022473188E+03  0.67022473188E+03  0.00000000000E+00 0. -1.
         -1   -1    0    0    0  501 -0.00000000000E+00 -0.00000000000E+00 -0.14067327724E+02  0.14067327724E+02  0.00000000000E+00 0.  1.
         23    2    1    2    0    0 -0.12525902812E+02 -0.28474422022E+02  0.27320255213E+03  0.28952457494E+03  0.90648519301E+02 0.  0.
         23    2    1    2    0    0  0.12525902812E+02  0.28474422022E+02  0.38295485202E+03  0.39476748467E+03  0.90660119728E+02 0.  0.
          5    1    3    3  502    0 -0.40148224836E+02  0.18478275803E+01  0.60054977544E+02  0.72415362680E+02  0.47000000000E+01 0. -1.
         -5    1    4    4    0  503  0.39191073703E+02 -0.12615014400E+02  0.24072635459E+03  0.24426695774E+03  0.47000000000E+01 0.  1.
          5    1    4    4  503    0 -0.26665170891E+02  0.41089436423E+02  0.14222849743E+03  0.15050052693E+03  0.47000000000E+01 0. -1.
         -5    1    3    3    0  502  0.27622322024E+02 -0.30322249603E+02  0.21314757459E+03  0.21710921226E+03  0.47000000000E+01 0.  1.
<mgrwt>
<rscale>  0 0.95845826E+02</rscale>
<asrwt>0</asrwt>
<pdfrwt beam="1">  1        1 0.10311147E+00 0.95848569E+02</pdfrwt>
<pdfrwt beam="2">  1       -1 0.21642048E-02 0.95848569E+02</pdfrwt>
<totfact> 0.16886110E+04</totfact>
</mgrwt>
</event>
<event>
 7    1  0.8174053E-004  0.1407091E+03  0.7546771E-02  0.1230868E+00
          1   -1    0    0  501    0  0.00000000000E+00  0.00000000000E+00  0.23278441012E+03  0.23278441012E+03  0.00000000000E+00 0. -1.
         -1   -1    0    0    0  501 -0.00000000000E+00 -0.00000000000E+00 -0.10829182253E+03  0.10829182253E+03  0.00000000000E+00 0.  1.
         23    2    1    2    0    0  0.56564475589E+01 -0.25406635967E+02 -0.57138225239E+02  0.11131809565E+03  0.91920884932E+02 0.  0.
          5    1    3    3  502    0  0.26476026168E+02 -0.53222759409E+02 -0.42984975976E+02  0.73508096428E+02  0.47000000000E+01 0. -1.
         -5    1    1    2    0  503 -0.62680027223E+02  0.46976765760E+02  0.11607453112E+03  0.14011063168E+03  0.47000000000E+01 0.  1.
          5    1    1    2  503    0  0.57023579664E+02 -0.21570129793E+02  0.65556281706E+02  0.89647505309E+02  0.47000000000E+01 0. -1.
         -5    1    3    3    0  502 -0.20819578609E+02  0.27816123443E+02 -0.14153249262E+02  0.37809999227E+02  0.47000000000E+01 0.  1.
<mgrwt>
<rscale>  0 0.12772687E+03</rscale>
<asrwt>0</asrwt>
<pdfrwt beam="1">  1        1 0.35812986E-01 0.14070909E+03</pdfrwt>
<pdfrwt beam="2">  1       -1 0.16660280E-01 0.14070909E+03</pdfrwt>
<totfact> 0.31786361E+03</totfact>
</mgrwt>
</event>
<event>
 8    1  0.8174053E-004  0.9350761E+02  0.7546771E-02  0.1295322E+00
          1   -1    0    0  501    0  0.00000000000E+00  0.00000000000E+00  0.18771834911E+03  0.18771834911E+03  0.00000000000E+00 0. -1.
         -1   -1    0    0    0  501 -0.00000000000E+00 -0.00000000000E+00 -0.28414575299E+03  0.28414575299E+03  0.00000000000E+00 0.  1.
         23    2    1    2    0    0  0.18575984983E+02 -0.70475874228E+01 -0.26417910790E+03  0.27981122531E+03  0.90049903106E+02 0.  0.
         23    2    1    2    0    0 -0.18575984983E+02  0.70475874228E+01  0.16775170402E+03  0.19205287679E+03  0.91372520892E+02 0.  0.
          5    1    4    4  502    0 -0.36706013230E+02 -0.32748074915E+02  0.93385152542E+02  0.10565341704E+03  0.47000000000E+01 0. -1.
         -5    1    3    3    0  503  0.12199629687E+02  0.22579747994E+02 -0.23818261520E+03  0.23960743763E+03  0.47000000000E+01 0.  1.
          5    1    3    3  503    0  0.63763552964E+01 -0.29627335417E+02 -0.25996492701E+02  0.40203787676E+02  0.47000000000E+01 0.  1.
         -5    1    4    4    0  502  0.18130028247E+02  0.39795662338E+02  0.74366551477E+02  0.86399459742E+02  0.47000000000E+01 0.  1.
<mgrwt>
<rscale>  0 0.93182926E+02</rscale>
<asrwt>0</asrwt>
<pdfrwt beam="1">  1        1 0.28879746E-01 0.93507611E+02</pdfrwt>
<pdfrwt beam="2">  1       -1 0.43714731E-01 0.93507611E+02</pdfrwt>
<totfact> 0.82632283E+02</totfact>
</mgrwt>
</event>
<event>
 8    1  0.8174053E-004  0.1112292E+03  0.7546771E-02  0.1260145E+00
         -1   -1    0    0    0  501 -0.00000000000E+00  0.00000000000E+00  0.74058897098E+02  0.74058897098E+02  0.00000000000E+00 0.  1.
          1   -1    0    0  501    0  0.00000000000E+00 -0.00000000000E+00 -0.18839932878E+03  0.18839932878E+03  0.00000000000E+00 0. -1.
         23    2    1    2    0    0 -0.58004524986E+02  0.33614913212E+01 -0.10792407613E+03  0.15498241070E+03  0.94847861730E+02 0.  0.
         23    2    1    2    0    0  0.58004524986E+02 -0.33614913212E+01 -0.64163555524E+01  0.10747581518E+03  0.90189005357E+02 0.  0.
          5    1    3    3  502    0 -0.36282648890E+02 -0.35496204220E+02 -0.95940131221E+02  0.10864165823E+03  0.47000000000E+01 0. -1.
         -5    1    3    3    0  502 -0.21721876096E+02  0.38857695541E+02 -0.11983944913E+02  0.46340752471E+02  0.47000000000E+01 0.  1.
          5    1    4    4  503    0  0.44603450200E+01 -0.33503810154E+02 -0.25904232580E+02  0.42842960193E+02  0.47000000000E+01 0. -1.
         -5    1    4    4    0  503  0.53544179966E+02  0.30142318833E+02  0.19487877027E+02  0.64632854988E+02  0.47000000000E+01 0.  1.
<mgrwt>
<rscale>  0 0.11022955E+03</rscale>
<asrwt>0</asrwt>
<pdfrwt beam="1">  1        1 0.28984512E-01 0.11122923E+03</pdfrwt>
<pdfrwt beam="2">  1       -1 0.11393676E-01 0.11122923E+03</pdfrwt>
<totfact> 0.73499419E+03</totfact>
</mgrwt>
</event>
<event>
 8    1  0.8174053E-004  0.1077238E+03  0.7546771E-02  0.1266353E+00
          1   -1    0    0  501    0  0.00000000000E+00  0.00000000000E+00  0.39811935029E+02  0.39811935029E+02  0.00000000000E+00 0. -1.
         -1   -1    0    0    0  501 -0.00000000000E+00 -0.00000000000E+00 -0.29265741233E+03  0.29265741233E+03  0.00000000000E+00 0.  1.
         23    2    1    2    0    0 -0.21917146433E+02  0.48090788727E+02 -0.94589588526E+02  0.14102917738E+03  0.90271553368E+02 0.  0.
         23    2    1    2    0    0  0.21917146433E+02 -0.48090788727E+02 -0.15825588877E+03  0.19144016998E+03  0.93868669322E+02 0.  0.
          5    1    3    3  502    0 -0.80374179367E+01 -0.26145423249E+02 -0.35270944823E+02  0.44881096162E+02  0.47000000000E+01 0. -1.
         -5    1    3    3    0  502 -0.13879728497E+02  0.74236211976E+02 -0.59318643702E+02  0.96148081221E+02  0.47000000000E+01 0.  1.
          5    1    4    4  503    0  0.39631160246E+02 -0.60719374420E+02 -0.71745198544E+02  0.10211236363E+03  0.47000000000E+01 0. -1.
         -5    1    4    4    0  503 -0.17714013813E+02  0.12628585693E+02 -0.86510690231E+02  0.89327806344E+02  0.47000000000E+01 0.  1.
<mgrwt>
<rscale>  0 0.10693527E+03</rscale>
<asrwt>0</asrwt>
<pdfrwt beam="1">  1        1 0.61249128E-02 0.10772378E+03</pdfrwt>
<pdfrwt beam="2">  1       -1 0.45024219E-01 0.10772378E+03</pdfrwt>
<totfact> 0.58479386E+03</totfact>
</mgrwt>
</event>
<event>
 8    1  0.8174053E-004  0.1348270E+03  0.7546771E-02  0.1236596E+00
          1   -1    0    0  501    0  0.00000000000E+00  0.00000000000E+00  0.94393212641E+02  0.94393212641E+02  0.00000000000E+00 0. -1.
         -1   -1    0    0    0  501 -0.00000000000E+00 -0.00000000000E+00 -0.21677557663E+03  0.21677557663E+03  0.00000000000E+00 0.  1.
         23    2    1    2    0    0 -0.33260295039E+02  0.36446625578E+02  0.36114147066E+02  0.10308354880E+03  0.82990256496E+02 0.  0.
         23    2    1    2    0    0  0.33260295039E+02 -0.36446625578E+02 -0.15849651105E+03  0.20808524047E+03  0.12547397954E+03 0.  0.
          5    1    3    3  502    0 -0.56355696725E+02  0.38332757142E+02  0.39932359051E+02  0.79133103836E+02  0.47000000000E+01 0. -1.
         -5    1    4    4    0  503  0.64101330647E+02  0.14046098897E+02 -0.12143450274E+03  0.13811119412E+03  0.47000000000E+01 0.  1.
          5    1    4    4  503    0 -0.30841035608E+02 -0.50492724474E+02 -0.37062008315E+02  0.69974046350E+02  0.47000000000E+01 0. -1.
         -5    1    3    3    0  502  0.23095401686E+02 -0.18861315636E+01 -0.38182119855E+01  0.23950444966E+02  0.47000000000E+01 0.  1.
<mgrwt>
<rscale>  0 0.12402843E+03</rscale>
<asrwt>0</asrwt>
<pdfrwt beam="1">  1        1 0.14522033E-01 0.13482701E+03</pdfrwt>
<pdfrwt beam="2">  1       -1 0.33350089E-01 0.13482701E+03</pdfrwt>
<totfact> 0.31885668E+03</totfact>
</mgrwt>
</event>
<event>
 8    1  0.1181379E-003  0.1192161E+03  0.7546771E-02  0.1245022E+00
          1   -1    0    0  501    0  0.00000000000E+00  0.00000000000E+00  0.21197899522E+03  0.21197899522E+03  0.00000000000E+00 0. -1.
         -1   -1    0    0    0  501 -0.00000000000E+00 -0.00000000000E+00 -0.19664346360E+03  0.19664346360E+03  0.00000000000E+00 0.  1.
         23    2    1    2    0    0 -0.69165275294E+02  0.18136703464E+02  0.17404924432E+03  0.21012177328E+03  0.93516013812E+02 0.  0.
         23    2    1    2    0    0  0.69165275294E+02 -0.18136703464E+02 -0.15871371270E+03  0.19850068554E+03  0.95392369940E+02 0.  0.
          5    1    3    3  502    0 -0.89108186781E+02 -0.15882214998E+01  0.13409394186E+03  0.16107782791E+03  0.47000000000E+01 0. -1.
         -5    1    3    3    0  502  0.19942911487E+02  0.19724924963E+02  0.39955302452E+02  0.49043945370E+02  0.47000000000E+01 0.  1.
          5    1    4    4  503    0 -0.76801985570E+01 -0.23559167165E+02 -0.95389472926E+02  0.98667428022E+02  0.47000000000E+01 0. -1.
         -5    1    4    4    0  503  0.76845473851E+02  0.54224637018E+01 -0.63324239770E+02  0.99833257517E+02  0.47000000000E+01 0.  1.
<mgrwt>
<rscale>  0 0.11884033E+03</rscale>
<asrwt>0</asrwt>
<pdfrwt beam="1">  1        1 0.32612153E-01 0.11921610E+03</pdfrwt>
<pdfrwt beam="2">  1       -1 0.30252840E-01 0.11921610E+03</pdfrwt>
<totfact> 0.13459246E+03</totfact>
</mgrwt>
</event>
<event>
 8    1  0.8174053E-004  0.1390593E+03  0.7546771E-02  0.1214753E+00
          1   -1    0    0  501    0  0.00000000000E+00  0.00000000000E+00  0.13422310285E+04  0.13422310285E+04  0.00000000000E+00 0. -1.
         -1   -1    0    0    0  501 -0.00000000000E+00 -0.00000000000E+00 -0.14438475860E+02  0.14438475860E+02  0.00000000000E+00 0.  1.
         23    2    1    2    0    0  0.25598511698E+02  0.10210098870E+03  0.61303342050E+03  0.62850874411E+03  0.90185204344E+02 0.  0.
         23    2    1    2    0    0 -0.25598511698E+02 -0.10210098870E+03  0.71475913210E+03  0.72816076021E+03  0.90871228056E+02 0.  0.
          5    1    3    3  502    0  0.32909344422E+02  0.51867987013E+02  0.14283284541E+03  0.15555264304E+03  0.47000000000E+01 0. -1.
         -5    1    3    3    0  502 -0.73108327244E+01  0.50233001692E+02  0.47020057508E+03  0.47295610107E+03  0.47000000000E+01 0.  1.
          5    1    4    4  503    0 -0.18994509881E+02  0.12704209055E+02  0.14882256029E+03  0.15064007695E+03  0.47000000000E+01 0. -1.
         -5    1    4    4    0  503 -0.66040018167E+01 -0.11480519776E+03  0.56593657181E+03  0.57752068326E+03  0.47000000000E+01 0.  1.
<mgrwt>
<rscale>  0 0.13894729E+03</rscale>
<asrwt>0</asrwt>
<pdfrwt beam="1">  1        1 0.20649698E+00 0.13905925E+03</pdfrwt>
<pdfrwt beam="2">  1       -1 0.22213050E-02 0.13905925E+03</pdfrwt>
<totfact> 0.52677361E+03</totfact>
</mgrwt>
</event>
<event>
 8    1  0.8174053E-004  0.1453707E+03  0.7546771E-02  0.1210050E+00
          1   -1    0    0  501    0  0.00000000000E+00  0.00000000000E+00  0.58807244433E+03  0.58807244433E+03  0.00000000000E+00 0. -1.
         -1   -1    0    0    0  501 -0.00000000000E+00 -0.00000000000E+00 -0.46862543413E+02  0.46862543413E+02  0.00000000000E+00 0.  1.
         23    2    1    2    0    0  0.32558278959E+02  0.93490375303E+02  0.44964814272E+03  0.47256330897E+03  0.10645251021E+03 0.  0.
         23    2    1    2    0    0 -0.32558278959E+02 -0.93490375303E+02  0.91561758199E+02  0.16237167878E+03  0.90446197825E+02 0.  0.
          5    1    3    3  502    0  0.34682670230E+02  0.11649827325E+03  0.38423751984E+03  0.40303262515E+03  0.47000000000E+01 0. -1.
         -5    1    4    4    0  503 -0.56960614698E+02 -0.90885246319E+02  0.63241957666E+02  0.12460447357E+03  0.47000000000E+01 0.  1.
          5    1    4    4  503    0  0.24402335739E+02 -0.26051289837E+01  0.28319800533E+02  0.37767205202E+02  0.47000000000E+01 0. -1.
         -5    1    3    3    0  502 -0.21243912708E+01 -0.23007897950E+02  0.65410622878E+02  0.69530683814E+02  0.47000000000E+01 0.  1.
<mgrwt>
<rscale>  0 0.14246537E+03</rscale>
<asrwt>0</asrwt>
<pdfrwt beam="1">  1        1 0.90472679E-01 0.14537066E+03</pdfrwt>
<pdfrwt beam="2">  1       -1 0.72096225E-02 0.14537066E+03</pdfrwt>
<totfact> 0.35639835E+03</totfact>
</mgrwt>
</event>
<event>
 8    1  0.8174053E-004  0.1115511E+03  0.7546771E-02  0.1258249E+00
          4   -1    0    0  501    0  0.00000000000E+00  0.00000000000E+00  0.20310167924E+02  0.20310167924E+02  0.00000000000E+00 0. -1.
         -4   -1    0    0    0  501 -0.00000000000E+00 -0.00000000000E+00 -0.93789248120E+03  0.93789248120E+03  0.00000000000E+00 0.  1.
         23    2    1    2    0    0 -0.65288972987E+02 -0.41478348681E+00 -0.74208966531E+03  0.75025716735E+03  0.89027657273E+02 0.  0.
         23    2    1    2    0    0  0.65288972987E+02  0.41478348681E+00 -0.17549264796E+03  0.20794548177E+03  0.90447951115E+02 0.  0.
          5    1    3    3  502    0  0.90176199627E+01 -0.17863032430E+02 -0.51562186477E+02  0.55508147795E+02  0.47000000000E+01 0. -1.
         -5    1    3    3    0  502 -0.74306592949E+02  0.17448248943E+02 -0.69052747884E+03  0.69474901956E+03  0.47000000000E+01 0.  1.
          5    1    4    4  503    0  0.12224852455E+02 -0.19155007907E+02  0.31282285602E+00  0.23206662914E+02  0.47000000000E+01 0. -1.
         -5    1    4    4    0  503  0.53064120532E+02  0.19569791394E+02 -0.17580547082E+03  0.18473881886E+03  0.47000000000E+01 0.  1.
<mgrwt>
<rscale>  0 0.11126289E+03</rscale>
<asrwt>0</asrwt>
<pdfrwt beam="1">  1        4 0.31246412E-02 0.11155113E+03</pdfrwt>
<pdfrwt beam="2">  1       -4 0.14429115E+00 0.11155113E+03</pdfrwt>
<totfact> 0.28646687E+02</totfact>
</mgrwt>
</event>
<event>
 8    1  0.8174053E-004  0.1013862E+03  0.7546771E-02  0.1279141E+00
          2   -1    0    0  501    0  0.00000000000E+00  0.00000000000E+00  0.23566936034E+03  0.23566936034E+03  0.00000000000E+00 0. -1.
         -2   -1    0    0    0  501 -0.00000000000E+00 -0.00000000000E+00 -0.42640439302E+02  0.42640439302E+02  0.00000000000E+00 0.  1.
         23    2    1    2    0    0  0.28706220469E+02  0.22423972137E+02  0.10892632841E+03  0.14658123547E+03  0.91072674020E+02 0.  0.
         23    2    1    2    0    0 -0.28706220469E+02 -0.22423972137E+02  0.84102592633E+02  0.13172856417E+03  0.94616525566E+02 0.  0.
          5    1    4    4  502    0  0.31090944858E+02  0.85726907791E+01  0.17964613662E+02  0.37214986543E+02  0.47000000000E+01 0. -1.
         -5    1    4    4    0  502 -0.59797165327E+02 -0.30996662916E+02  0.66137978970E+02  0.94513577625E+02  0.47000000000E+01 0.  1.
          5    1    3    3  503    0  0.17638217781E+02  0.51212276515E+02  0.30869881844E+02  0.62520745336E+02  0.47000000000E+01 0. -1.
         -5    1    3    3    0  503  0.11068002688E+02 -0.28788304377E+02  0.78056446562E+02  0.84060490138E+02  0.47000000000E+01 0.  1.
<mgrwt>
<rscale>  0 0.10055124E+03</rscale>
<asrwt>0</asrwt>
<pdfrwt beam="1">  1        2 0.36256824E-01 0.10138623E+03</pdfrwt>
<pdfrwt beam="2">  1       -2 0.65600677E-02 0.10138623E+03</pdfrwt>
<totfact> 0.16682323E+04</totfact>
</mgrwt>
</event>
<event>
 8    1  0.8174053E-004  0.1119915E+03  0.7546771E-02  0.1259563E+00
          2   -1    0    0  501    0  0.00000000000E+00  0.00000000000E+00  0.11780366532E+04  0.11780366532E+04  0.00000000000E+00 0. -1.
         -2   -1    0    0    0  501 -0.00000000000E+00 -0.00000000000E+00 -0.12356496042E+02  0.12356496042E+02  0.00000000000E+00 0.  1.
         23    2    1    2    0    0 -0.34121466158E+02 -0.45637666910E+02  0.84872419162E+03  0.85608110399E+03  0.96410746727E+02 0.  0.
         23    2    1    2    0    0  0.34121466158E+02  0.45637666910E+02  0.31695596552E+03  0.33431204522E+03  0.89757386393E+02 0.  0.
          5    1    3    3  502    0 -0.64398068787E+02 -0.13423916664E+02  0.43425005759E+03  0.43922945634E+03  0.47000000000E+01 0. -1.
         -5    1    3    3    0  502  0.30276602628E+02 -0.32213750245E+02  0.41447413403E+03  0.41685164765E+03  0.47000000000E+01 0.  1.
          5    1    4    4  503    0 -0.28920297862E+02  0.10416179676E+02  0.13407262563E+03  0.13763153480E+03  0.47000000000E+01 0. -1.
         -5    1    4    4    0  503  0.63041764021E+02  0.35221487233E+02  0.18288333989E+03  0.19668051043E+03  0.47000000000E+01 0.  1.
<mgrwt>
<rscale>  0 0.11054531E+03</rscale>
<asrwt>0</asrwt>
<pdfrwt beam="1">  1        2 0.18123632E+00 0.11199153E+03</pdfrwt>
<pdfrwt beam="2">  1       -2 0.19010003E-02 0.11199153E+03</pdfrwt>
<totfact> 0.16258773E+04</totfact>
</mgrwt>
</event>
<event>
 8    1  0.8174053E-004  0.1618413E+03  0.7546771E-02  0.1186975E+00
          1   -1    0    0  501    0  0.00000000000E+00  0.00000000000E+00  0.26896166123E+03  0.26896166123E+03  0.00000000000E+00 0. -1.
         -1   -1    0    0    0  501 -0.00000000000E+00 -0.00000000000E+00 -0.96924850596E+02  0.96924850596E+02  0.00000000000E+00 0.  1.
         23    2    1    2    0    0  0.10546174241E+03  0.79851025541E+02  0.96100852365E+02  0.18822325752E+03  0.93242991442E+02 0.  0.
         23    2    1    2    0    0 -0.10546174241E+03 -0.79851025541E+02  0.75935958266E+02  0.17766325431E+03  0.91102122818E+02 0.  0.
          5    1    3    3  502    0  0.91755843909E+02  0.26684257065E+02  0.26165584375E+02  0.99186250419E+02  0.47000000000E+01 0. -1.
         -5    1    4    4    0  503 -0.46543120566E+02 -0.11875957767E+02 -0.14122285274E+02  0.50287467487E+02  0.47000000000E+01 0.  1.
          5    1    4    4  503    0 -0.58918621840E+02 -0.67975067774E+02  0.90058243540E+02  0.12737578682E+03  0.47000000000E+01 0. -1.
         -5    1    3    3    0  502  0.13705898498E+02  0.53166768476E+02  0.69935267990E+02  0.89037007097E+02  0.47000000000E+01 0.  1.
<mgrwt>
<rscale>  0 0.16153450E+03</rscale>
<asrwt>0</asrwt>
<pdfrwt beam="1">  1        1 0.41378717E-01 0.16184134E+03</pdfrwt>
<pdfrwt beam="2">  1       -1 0.14911516E-01 0.16184134E+03</pdfrwt>
<totfact> 0.31851362E+03</totfact>
</mgrwt>
</event>
<event>
 8    1  0.8174053E-004  0.3649138E+03  0.7546771E-02  0.1056661E+00
         -1   -1    0    0    0  501 -0.00000000000E+00  0.00000000000E+00  0.38375628008E+03  0.38375628008E+03  0.00000000000E+00 0.  1.
          1   -1    0    0  501    0  0.00000000000E+00 -0.00000000000E+00 -0.57528890465E+03  0.57528890465E+03  0.00000000000E+00 0. -1.
         23    2    1    2    0    0 -0.11441914930E+03  0.33459861366E+03  0.20634339555E+03  0.41921316153E+03  0.90078321051E+02 0.  0.
         23    2    1    2    0    0  0.11441914930E+03 -0.33459861366E+03 -0.39787602012E+03  0.53983202320E+03  0.89807081561E+02 0.  0.
          5    1    3    3  502    0 -0.92142102327E+02  0.16428614907E+03  0.74425291542E+02  0.20258657364E+03  0.47000000000E+01 0. -1.
         -5    1    4    4    0  503  0.71767436191E+01 -0.46585858975E+02 -0.10536959458E+03  0.11552743989E+03  0.47000000000E+01 0.  1.
          5    1    4    4  503    0  0.10724240568E+03 -0.28801275469E+03 -0.29250642554E+03  0.42430458331E+03  0.47000000000E+01 0. -1.
         -5    1    3    3    0  502 -0.22277046973E+02  0.17031246459E+03  0.13191810401E+03  0.21662658789E+03  0.47000000000E+01 0.  1.
<mgrwt>
<rscale>  0 0.36489708E+03</rscale>
<asrwt>0</asrwt>
<pdfrwt beam="1">  1        1 0.88505985E-01 0.36491380E+03</pdfrwt>
<pdfrwt beam="2">  1       -1 0.59039428E-01 0.36491380E+03</pdfrwt>
<totfact> 0.11159387E+02</totfact>
</mgrwt>
</event>
<event>
 8    1  0.8174053E-004  0.1996653E+03  0.7546771E-02  0.1150495E+00
          1   -1    0    0  501    0  0.00000000000E+00  0.00000000000E+00  0.48787339353E+03  0.48787339353E+03  0.00000000000E+00 0. -1.
         -1   -1    0    0    0  501 -0.00000000000E+00 -0.00000000000E+00 -0.14403748020E+03  0.14403748020E+03  0.00000000000E+00 0.  1.
         23    2    1    2    0    0 -0.13290172348E+03 -0.11529748116E+03 -0.37962834027E+02  0.20105533300E+03  0.89586231616E+02 0.  0.
         23    2    1    2    0    0  0.13290172348E+03  0.11529748116E+03  0.38179874736E+03  0.43085554073E+03  0.94391928818E+02 0.  0.
          5    1    4    4  502    0  0.33896619216E+02  0.87521327639E+02  0.21808727808E+03  0.23747234459E+03  0.47000000000E+01 0. -1.
         -5    1    3    3    0  503 -0.11466789054E+03 -0.85581062842E+02 -0.64469607414E+02  0.15700720913E+03  0.47000000000E+01 0.  1.
          5    1    3    3  503    0 -0.18233832940E+02 -0.29716418321E+02  0.26506773387E+02  0.44048123875E+02  0.47000000000E+01 0. -1.
         -5    1    4    4    0  502  0.99005104263E+02  0.27776153524E+02  0.16371146928E+03  0.19338319614E+03  0.47000000000E+01 0.  1.
<mgrwt>
<rscale>  0 0.19910629E+03</rscale>
<asrwt>0</asrwt>
<pdfrwt beam="1">  1        1 0.75057444E-01 0.19966525E+03</pdfrwt>
<pdfrwt beam="2">  1       -1 0.22159613E-01 0.19966525E+03</pdfrwt>
<totfact> 0.79715664E+02</totfact>
</mgrwt>
</event>
<event>
 8    1  0.8174053E-004  0.1015025E+03  0.7546771E-02  0.1278115E+00
          1   -1    0    0  501    0  0.00000000000E+00  0.00000000000E+00  0.73530764947E+02  0.73530764947E+02  0.00000000000E+00 0. -1.
         -1   -1    0    0    0  501 -0.00000000000E+00 -0.00000000000E+00 -0.16169754968E+03  0.16169754968E+03  0.00000000000E+00 0.  1.
         23    2    1    2    0    0 -0.39348632554E+02 -0.13977385993E+02  0.16448375597E+01  0.99696428177E+02  0.90515137395E+02 0.  0.
         23    2    1    2    0    0  0.39348632554E+02  0.13977385993E+02 -0.89811622298E+02  0.13553188645E+03  0.92515309776E+02 0.  0.
          5    1    4    4  502    0  0.20577150413E+02  0.45820744396E+02 -0.83763409181E+02  0.97782199064E+02  0.47000000000E+01 0. -1.
         -5    1    3    3    0  503  0.23907956061E+02  0.20877172306E+01  0.20160341917E+02  0.31693505840E+02  0.47000000000E+01 0. -1.
          5    1    3    3  503    0 -0.63256588615E+02 -0.16065103224E+02 -0.18515504357E+02  0.68002922337E+02  0.47000000000E+01 0.  1.
         -5    1    4    4    0  502  0.18771482140E+02 -0.31843358403E+02 -0.60482131163E+01  0.37749687390E+02  0.47000000000E+01 0.  1.
<mgrwt>
<rscale>  0 0.10104453E+03</rscale>
<asrwt>0</asrwt>
<pdfrwt beam="1">  1        1 0.11312426E-01 0.10150254E+03</pdfrwt>
<pdfrwt beam="2">  1       -1 0.24876546E-01 0.10150254E+03</pdfrwt>
<totfact> 0.70534115E+03</totfact>
</mgrwt>
</event>
<event>
 8    1  0.8174053E-004  0.9411144E+02  0.7546771E-02  0.1302070E+00
          3   -1    0    0  501    0  0.00000000000E+00  0.00000000000E+00  0.30582404475E+03  0.30582404475E+03  0.00000000000E+00 0. -1.
         -3   -1    0    0    0  501 -0.00000000000E+00 -0.00000000000E+00 -0.30057370620E+02  0.30057370620E+02  0.00000000000E+00 0.  1.
         23    2    1    2    0    0 -0.19498368148E+02  0.38510840255E+01  0.19902884866E+03  0.21444971777E+03  0.77338099562E+02 0.  0.
         23    2    1    2    0    0  0.19498368148E+02 -0.38510840255E+01  0.76737825468E+02  0.12143169760E+03  0.91988836907E+02 0.  0.
          5    1    4    4  502    0 -0.32047937717E+02 -0.12915904943E+02  0.53761364173E+02  0.64080146615E+02  0.47000000000E+01 0. -1.
         -5    1    3    3    0  503 -0.43543780939E+02  0.21023654700E+02  0.10328611556E+03  0.11414099431E+03  0.47000000000E+01 0.  1.
          5    1    3    3  503    0  0.24045412791E+02 -0.17172570675E+02  0.95742733103E+02  0.10030872346E+03  0.47000000000E+01 0. -1.
         -5    1    4    4    0  502  0.51546305865E+02  0.90648209176E+01  0.22976461295E+02  0.57351550984E+02  0.47000000000E+01 0.  1.
<mgrwt>
<rscale>  0 0.90323768E+02</rscale>
<asrwt>0</asrwt>
<pdfrwt beam="1">  1        3 0.47049851E-01 0.94111441E+02</pdfrwt>
<pdfrwt beam="2">  1       -3 0.46242111E-02 0.94111441E+02</pdfrwt>
<totfact> 0.24857777E+03</totfact>
</mgrwt>
</event>
<event>
 8    1  0.8174053E-004  0.1345705E+03  0.7546771E-02  0.1221389E+00
         -2   -1    0    0    0  501 -0.00000000000E+00  0.00000000000E+00  0.15484410805E+03  0.15484410805E+03  0.00000000000E+00 0.  1.
          2   -1    0    0  501    0  0.00000000000E+00 -0.00000000000E+00 -0.16214227822E+03  0.16214227822E+03  0.00000000000E+00 0. -1.
         23    2    1    2    0    0  0.14908303570E+02 -0.97062144639E+02  0.81292186583E+02  0.15587314129E+03  0.89692246809E+02 0.  0.
         23    2    1    2    0    0 -0.14908303570E+02  0.97062144639E+02 -0.88590356751E+02  0.16111324499E+03  0.92010374227E+02 0.  0.
          5    1    4    4  502    0  0.38170686662E+02  0.52412013303E+02 -0.40812114962E+02  0.76757665326E+02  0.47000000000E+01 0. -1.
         -5    1    4    4    0  502 -0.53078990231E+02  0.44650131336E+02 -0.47778241790E+02  0.84355579666E+02  0.47000000000E+01 0.  1.
          5    1    3    3  503    0  0.49038165384E+02 -0.30267943833E+02  0.36751761424E+02  0.68510379183E+02  0.47000000000E+01 0. -1.
         -5    1    3    3    0  503 -0.34129861814E+02 -0.66794200806E+02  0.44540425159E+02  0.87362762103E+02  0.47000000000E+01 0.  1.
<mgrwt>
<rscale>  0 0.13417523E+03</rscale>
<asrwt>0</asrwt>
<pdfrwt beam="1">  1        2 0.24944966E-01 0.13457053E+03</pdfrwt>
<pdfrwt beam="2">  1       -2 0.23822171E-01 0.13457053E+03</pdfrwt>
<totfact> 0.32162597E+03</totfact>
</mgrwt>
</event>
<event>
 8    1  0.8174053E-004  0.1145365E+03  0.7546771E-02  0.1254753E+00
         -1   -1    0    0    0  501 -0.00000000000E+00  0.00000000000E+00  0.21643343672E+02  0.21643343672E+02  0.00000000000E+00 0.  1.
          1   -1    0    0  501    0  0.00000000000E+00 -0.00000000000E+00 -0.94212406608E+03  0.94212406608E+03  0.00000000000E+00 0. -1.
         23    2    1    2    0    0 -0.55571648098E+02  0.40640379994E+02 -0.15436245192E+03  0.18913471723E+03  0.84878301951E+02 0.  0.
         23    2    1    2    0    0  0.55571648098E+02 -0.40640379994E+02 -0.76611827048E+03  0.77463269251E+03  0.91535541649E+02 0.  0.
          5    1    4    4  502    0  0.56862701895E+02 -0.66292995881E+02 -0.54429117724E+03  0.55127407321E+03  0.47000000000E+01 0. -1.
         -5    1    4    4    0  502 -0.12910537975E+01  0.25652615887E+02 -0.22182709324E+03  0.22335861931E+03  0.47000000000E+01 0.  1.
          5    1    3    3  503    0 -0.41371083182E+02  0.21640176140E+01 -0.13894883331E+03  0.14506935505E+03  0.47000000000E+01 0. -1.
         -5    1    3    3    0  503 -0.14200564915E+02  0.38476362380E+02 -0.15413618611E+02  0.44065362186E+02  0.47000000000E+01 0.  1.
<mgrwt>
<rscale>  0 0.11320155E+03</rscale>
<asrwt>0</asrwt>
<pdfrwt beam="1">  1        1 0.14494211E+00 0.11453647E+03</pdfrwt>
<pdfrwt beam="2">  1       -1 0.33297464E-02 0.11453647E+03</pdfrwt>
<totfact> 0.55241496E+03</totfact>
</mgrwt>
</event>
<event>
 8    1  0.8174053E-004  0.1138586E+03  0.7546771E-02  0.1253798E+00
         -2   -1    0    0    0  501 -0.00000000000E+00  0.00000000000E+00  0.31543104452E+03  0.31543104452E+03  0.00000000000E+00 0.  1.
          2   -1    0    0  501    0  0.00000000000E+00 -0.00000000000E+00 -0.49949411925E+02  0.49949411925E+02  0.00000000000E+00 0. -1.
         23    2    1    2    0    0 -0.50937760103E+02  0.43414277610E+02  0.21015950544E+03  0.23879328562E+03  0.91519181743E+02 0.  0.
         23    2    1    2    0    0  0.50937760103E+02 -0.43414277610E+02  0.55322127156E+02  0.12658717082E+03  0.92110364016E+02 0.  0.
          5    1    4    4  502    0  0.76115133005E+02 -0.21550751373E+02  0.31215649356E+02  0.85173089188E+02  0.47000000000E+01 0. -1.
         -5    1    4    4    0  502 -0.25177372902E+02 -0.21863526238E+02  0.24106477800E+02  0.41414081635E+02  0.47000000000E+01 0.  1.
          5    1    3    3  503    0 -0.42104000090E+02 -0.21094782813E+02  0.10230142670E+03  0.11271827088E+03  0.47000000000E+01 0. -1.
         -5    1    3    3    0  503 -0.88337600129E+01  0.64509060423E+02  0.10785807874E+03  0.12607501474E+03  0.47000000000E+01 0.  1.
<mgrwt>
<rscale>  0 0.11373895E+03</rscale>
<asrwt>0</asrwt>
<pdfrwt beam="1">  1        2 0.76845251E-02 0.11385857E+03</pdfrwt>
<pdfrwt beam="2">  1       -2 0.48527852E-01 0.11385857E+03</pdfrwt>
<totfact> 0.34488979E+03</totfact>
</mgrwt>
</event>
<event>
 8    1  0.8174053E-004  0.9575797E+02  0.7546771E-02  0.1291480E+00
          2   -1    0    0  501    0  0.00000000000E+00  0.00000000000E+00  0.13469093513E+03  0.13469093513E+03  0.00000000000E+00 0.  1.
         -2   -1    0    0    0  501 -0.00000000000E+00 -0.00000000000E+00 -0.68422015836E+02  0.68422015836E+02  0.00000000000E+00 0. -1.
         23    2    1    2    0    0 -0.21455293617E+02  0.20796384220E+01  0.53165803407E+02  0.10646265021E+03  0.89682990130E+02 0.  0.
         23    2    1    2    0    0  0.21455293617E+02 -0.20796384220E+01  0.13103115886E+02  0.96650300752E+02  0.93300238313E+02 0.  0.
          5    1    4    4  502    0  0.47358830600E+02 -0.29959750952E+02  0.15177852443E+02  0.58248628462E+02  0.47000000000E+01 0. -1.
         -5    1    3    3    0  503 -0.29692470283E+01  0.40119415225E+02  0.49196052139E+02  0.63723821699E+02  0.47000000000E+01 0.  1.
          5    1    3    3  503    0 -0.18486046589E+02 -0.38039776803E+02  0.39697512679E+01  0.42738828515E+02  0.47000000000E+01 0. -1.
         -5    1    4    4    0  502 -0.25903536983E+02  0.27880112530E+02 -0.20747365569E+01  0.38401672290E+02  0.47000000000E+01 0.  1.
<mgrwt>
<rscale>  0 0.94865364E+02</rscale>
<asrwt>0</asrwt>
<pdfrwt beam="1">  1        2 0.20721682E-01 0.95757971E+02</pdfrwt>
<pdfrwt beam="2">  1       -2 0.10526464E-01 0.95757971E+02</pdfrwt>
<totfact> 0.14700954E+04</totfact>
</mgrwt>
</event>
<event>
 8    1  0.8174053E-004  0.1120681E+03  0.7546771E-02  0.1259396E+00
         -1   -1    0    0    0  501 -0.00000000000E+00  0.00000000000E+00  0.28086750473E+02  0.28086750473E+02  0.00000000000E+00 0.  1.
          1   -1    0    0  501    0  0.00000000000E+00 -0.00000000000E+00 -0.77738393646E+03  0.77738393646E+03  0.00000000000E+00 0. -1.
         23    2    1    2    0    0  0.60748711492E+02 -0.19800010066E+02 -0.65100775202E+03  0.66058334736E+03  0.92069643556E+02 0.  0.
         23    2    1    2    0    0 -0.60748711492E+02  0.19800010066E+02 -0.98289433963E+02  0.14488733958E+03  0.85141540942E+02 0.  0.
          5    1    3    3  502    0  0.40379587620E+02  0.25603232997E+02 -0.48062040318E+03  0.48301562976E+03  0.47000000000E+01 0. -1.
         -5    1    4    4    0  503 -0.61629618017E+02 -0.15720366867E+02 -0.85854709576E+02  0.10695074057E+03  0.47000000000E+01 0.  1.
          5    1    4    4  503    0  0.88090652497E+00  0.35520376933E+02 -0.12434724387E+02  0.37936599009E+02  0.47000000000E+01 0. -1.
         -5    1    3    3    0  502  0.20369123872E+02 -0.45403243063E+02 -0.17038734884E+03  0.17756771760E+03  0.47000000000E+01 0.  1.
<mgrwt>
<rscale>  0 0.11063630E+03</rscale>
<asrwt>0</asrwt>
<pdfrwt beam="1">  1        1 0.11959751E+00 0.11206813E+03</pdfrwt>
<pdfrwt beam="2">  1       -1 0.43210390E-02 0.11206813E+03</pdfrwt>
<totfact> 0.50771452E+03</totfact>
</mgrwt>
</event>
<event>
 8    1  0.8174053E-004  0.9745081E+02  0.7546771E-02  0.1285964E+00
         -1   -1    0    0    0  501 -0.00000000000E+00  0.00000000000E+00  0.23271132874E+02  0.23271132874E+02  0.00000000000E+00 0.  1.
          1   -1    0    0  501    0  0.00000000000E+00 -0.00000000000E+00 -0.51153852500E+03  0.51153852500E+03  0.00000000000E+00 0. -1.
         23    2    1    2    0    0 -0.17588678754E+02  0.26533768588E+02 -0.36494732797E+03  0.37763301283E+03  0.91688263641E+02 0.  0.
         23    2    1    2    0    0  0.17588678754E+02 -0.26533768588E+02 -0.12332006416E+03  0.15717664505E+03  0.92104598304E+02 0.  0.
          5    1    4    4  502    0  0.67448660388E+01 -0.59832309918E+02 -0.91452946900E+02  0.10959530111E+03  0.47000000000E+01 0. -1.
         -5    1    4    4    0  502  0.10843812715E+02  0.33298541330E+02 -0.31867117258E+02  0.47581343941E+02  0.47000000000E+01 0.  1.
          5    1    3    3  503    0 -0.48453971318E+02 -0.23514626510E+01 -0.12935832274E+03  0.13823524288E+03  0.47000000000E+01 0. -1.
         -5    1    3    3    0  503  0.30865292564E+02  0.28885231239E+02 -0.23558900523E+03  0.23939776995E+03  0.47000000000E+01 0.  1.
<mgrwt>
<rscale>  0 0.97352307E+02</rscale>
<asrwt>0</asrwt>
<pdfrwt beam="1">  1        1 0.78698231E-01 0.97450806E+02</pdfrwt>
<pdfrwt beam="2">  1       -1 0.35801744E-02 0.97450806E+02</pdfrwt>
<totfact> 0.11753191E+04</totfact>
</mgrwt>
</event>
<event>
 8    1  0.8174053E-004  0.1200758E+03  0.7546771E-02  0.1247550E+00
         -1   -1    0    0    0  501 -0.00000000000E+00  0.00000000000E+00  0.10416740082E+03  0.10416740082E+03  0.00000000000E+00 0.  1.
          1   -1    0    0  501    0  0.00000000000E+00 -0.00000000000E+00 -0.12776523578E+03  0.12776523578E+03  0.00000000000E+00 0. -1.
         23    2    1    2    0    0  0.56336118698E+02  0.19422714293E+02 -0.77878293995E+00  0.12007831685E+03  0.10424584200E+03 0.  0.
         23    2    1    2    0    0 -0.56336118698E+02 -0.19422714293E+02 -0.22819052022E+02  0.11185431974E+03  0.91867728882E+02 0.  0.
          5    1    4    4  502    0 -0.39836940276E+01 -0.39686516360E+02 -0.36071579883E+02  0.53982759045E+02  0.47000000000E+01 0. -1.
         -5    1    3    3    0  503  0.70086264476E+02  0.10161720055E+01  0.34067558627E+02  0.78075640404E+02  0.47000000000E+01 0.  1.
          5    1    3    3  503    0 -0.13750145777E+02  0.18406542288E+02 -0.34846341567E+02  0.42002676444E+02  0.47000000000E+01 0. -1.
         -5    1    4    4    0  502 -0.52352424671E+02  0.20263802066E+02  0.13252527861E+02  0.57871560700E+02  0.47000000000E+01 0.  1.
<mgrwt>
<rscale>  0 0.11734027E+03</rscale>
<asrwt>0</asrwt>
<pdfrwt beam="1">  1        1 0.19656190E-01 0.12007579E+03</pdfrwt>
<pdfrwt beam="2">  1       -1 0.16025754E-01 0.12007579E+03</pdfrwt>
<totfact> 0.70871797E+03</totfact>
</mgrwt>
</event>
<event>
 8    1  0.8174053E-004  0.1017323E+03  0.7546771E-02  0.1277308E+00
          2   -1    0    0  501    0  0.00000000000E+00  0.00000000000E+00  0.83119764342E+03  0.83119764342E+03  0.00000000000E+00 0. -1.
         -2   -1    0    0    0  501 -0.00000000000E+00 -0.00000000000E+00 -0.12319180955E+02  0.12319180955E+02  0.00000000000E+00 0.  1.
         23    2    1    2    0    0  0.44137937327E+02  0.10574518750E+02  0.39826961567E+03  0.41105735821E+03  0.91046619987E+02 0.  0.
         23    2    1    2    0    0 -0.44137937327E+02 -0.10574518750E+02  0.42060884679E+03  0.43245946617E+03  0.89718503770E+02 0.  0.
          5    1    3    3  502    0  0.48100466510E+02 -0.13132630676E+02  0.37115784393E+03  0.37452150269E+03  0.47000000000E+01 0. -1.
         -5    1    3    3    0  502 -0.39625291823E+01  0.23707149426E+02  0.27111771745E+02  0.36535855520E+02  0.47000000000E+01 0.  1.
          5    1    4    4  503    0 -0.63124914526E+01 -0.40685994626E+02  0.29303564397E+03  0.29595130739E+03  0.47000000000E+01 0. -1.
         -5    1    4    4    0  503 -0.37825445875E+02  0.30111475876E+02  0.12757320282E+03  0.13650815878E+03  0.47000000000E+01 0.  1.
<mgrwt>
<rscale>  0 0.10143430E+03</rscale>
<asrwt>0</asrwt>
<pdfrwt beam="1">  1        2 0.12787652E+00 0.10173232E+03</pdfrwt>
<pdfrwt beam="2">  1       -2 0.18952593E-02 0.10173232E+03</pdfrwt>
<totfact> 0.26029831E+04</totfact>
</mgrwt>
</event>
<event>
 8    1  0.8174053E-004  0.9429644E+02  0.7546771E-02  0.1293969E+00
          4   -1    0    0  501    0  0.00000000000E+00  0.00000000000E+00  0.57242530534E+03  0.57242530534E+03  0.00000000000E+00 0. -1.
         -4   -1    0    0    0  501 -0.00000000000E+00 -0.00000000000E+00 -0.20295664985E+02  0.20295664985E+02  0.00000000000E+00 0.  1.
         23    2    1    2    0    0 -0.17633336085E+01 -0.17633388223E+02  0.12976738323E+03  0.16041007264E+03  0.92616261684E+02 0.  0.
         23    2    1    2    0    0  0.17633336085E+01  0.17633388223E+02  0.42236225712E+03  0.43231089768E+03  0.90491934938E+02 0.  0.
          5    1    3    3  502    0 -0.68239273850E+01  0.27203737924E+02  0.66561179984E+01  0.29206219352E+02  0.47000000000E+01 0. -1.
         -5    1    3    3    0  502  0.50605937766E+01 -0.44837126148E+02  0.12311126524E+03  0.13120385329E+03  0.47000000000E+01 0.  1.
          5    1    4    4  503    0 -0.35643570114E+02 -0.64401012719E+01  0.29640069660E+03  0.29864259901E+03  0.47000000000E+01 0. -1.
         -5    1    4    4    0  503  0.37406903723E+02  0.24073489495E+02  0.12596156052E+03  0.13366829867E+03  0.47000000000E+01 0.  1.
<mgrwt>
<rscale>  0 0.93770651E+02</rscale>
<asrwt>0</asrwt>
<pdfrwt beam="1">  1        4 0.88065419E-01 0.94296435E+02</pdfrwt>
<pdfrwt beam="2">  1       -4 0.31224104E-02 0.94296435E+02</pdfrwt>
<totfact> 0.88548171E+02</totfact>
</mgrwt>
</event>
<event>
 8    1  0.8174053E-004  0.1000835E+03  0.7546771E-02  0.1281110E+00
         -2   -1    0    0    0  501 -0.00000000000E+00  0.00000000000E+00  0.56261360559E+03  0.56261360559E+03  0.00000000000E+00 0.  1.
          2   -1    0    0  501    0  0.00000000000E+00 -0.00000000000E+00 -0.26030949156E+02  0.26030949156E+02  0.00000000000E+00 0. -1.
         23    2    1    2    0    0 -0.12595317965E+02 -0.38469167161E+02  0.43534392334E+03  0.44628589727E+03  0.89488835345E+02 0.  0.
         23    2    1    2    0    0  0.12595317965E+02  0.38469167161E+02  0.10123873309E+03  0.14235865748E+03  0.91532439190E+02 0.  0.
          5    1    3    3  502    0 -0.18324626792E+02  0.12945896542E+02  0.30662217131E+02  0.38283805241E+02  0.47000000000E+01 0. -1.
         -5    1    3    3    0  502  0.57293088268E+01 -0.51415063704E+02  0.40468170621E+03  0.40800209202E+03  0.47000000000E+01 0.  1.
          5    1    4    4  503    0  0.11665662132E+02  0.60062163946E+02  0.31061371309E+02  0.68778266905E+02  0.47000000000E+01 0. -1.
         -5    1    4    4    0  503  0.92965583334E+00 -0.21592996785E+02  0.70177361780E+02  0.73580390571E+02  0.47000000000E+01 0.  1.
<mgrwt>
<rscale>  0 0.99613820E+02</rscale>
<asrwt>0</asrwt>
<pdfrwt beam="1">  1        2 0.40047618E-02 0.10008350E+03</pdfrwt>
<pdfrwt beam="2">  1       -2 0.86555930E-01 0.10008350E+03</pdfrwt>
<totfact> 0.23669131E+03</totfact>
</mgrwt>
</event>
<event>
 8    1  0.8174053E-004  0.9197794E+02  0.7546771E-02  0.1299878E+00
         -2   -1    0    0    0  501 -0.00000000000E+00  0.00000000000E+00  0.16852893675E+03  0.16852893675E+03  0.00000000000E+00 0.  1.
          2   -1    0    0  501    0  0.00000000000E+00 -0.00000000000E+00 -0.48669848336E+02  0.48669848336E+02  0.00000000000E+00 0. -1.
         23    2    1    2    0    0  0.14677286348E+01 -0.51725446678E+01  0.57359403250E+02  0.10839761489E+03  0.91820653047E+02 0.  0.
         23    2    1    2    0    0 -0.14677286348E+01  0.51725446678E+01  0.62499685162E+02  0.10880117020E+03  0.88896425943E+02 0.  0.
          5    1    3    3  502    0 -0.21629780541E+01 -0.48137306539E+02  0.33725894715E+02  0.59003429809E+02  0.47000000000E+01 0. -1.
         -5    1    3    3    0  502  0.36307066889E+01  0.42964761871E+02  0.23633508536E+02  0.49394185077E+02  0.47000000000E+01 0.  1.
          5    1    4    4  503    0  0.32035775616E+02 -0.99626647794E+01 -0.25089438161E+01  0.33969551188E+02  0.47000000000E+01 0. -1.
         -5    1    4    4    0  503 -0.33503504251E+02  0.15135209447E+02  0.65008628978E+02  0.74831619011E+02  0.47000000000E+01 0.  1.
<mgrwt>
<rscale>  0 0.91239327E+02</rscale>
<asrwt>0</asrwt>
<pdfrwt beam="1">  1        2 0.74876690E-02 0.91977942E+02</pdfrwt>
<pdfrwt beam="2">  1       -2 0.25927529E-01 0.91977942E+02</pdfrwt>
<totfact> 0.11105681E+04</totfact>
</mgrwt>
</event>
<event>
 8    1  0.8174053E-004  0.1235676E+03  0.7546771E-02  0.1237573E+00
          1   -1    0    0  501    0  0.00000000000E+00  0.00000000000E+00  0.31629548460E+03  0.31629548460E+03  0.00000000000E+00 0. -1.
         -1   -1    0    0    0  501 -0.00000000000E+00 -0.00000000000E+00 -0.62463392764E+02  0.62463392764E+02  0.00000000000E+00 0.  1.
         23    2    1    2    0    0 -0.17773721672E+02  0.78863976678E+02  0.21819426906E+03  0.25075425119E+03  0.93453322245E+02 0.  0.
         23    2    1    2    0    0  0.17773721672E+02 -0.78863976678E+02  0.35637822769E+02  0.12800462617E+03  0.92626658740E+02 0.  0.
          5    1    4    4  502    0  0.40458392892E+02 -0.54583648572E+02  0.56498966575E+02  0.88489996446E+02  0.47000000000E+01 0. -1.
         -5    1    3    3    0  503 -0.34168532853E+02  0.94097437237E+02  0.18573863627E+03  0.21105152768E+03  0.47000000000E+01 0.  1.
          5    1    3    3  503    0  0.16394811180E+02 -0.15233460560E+02  0.32455632794E+02  0.39702723513E+02  0.47000000000E+01 0. -1.
         -5    1    4    4    0  502 -0.22684671220E+02 -0.24280328105E+02 -0.20861143806E+02  0.39514629723E+02  0.47000000000E+01 0. -1.
<mgrwt>
<rscale>  0 0.12341132E+03</rscale>
<asrwt>0</asrwt>
<pdfrwt beam="1">  1        1 0.48660843E-01 0.12356761E+03</pdfrwt>
<pdfrwt beam="2">  1       -1 0.96097529E-02 0.12356761E+03</pdfrwt>
<totfact> 0.50661185E+03</totfact>
</mgrwt>
</event>
<event>
 8    1  0.8174053E-004  0.1083786E+03  0.7546771E-02  0.1264136E+00
         -2   -1    0    0    0  501 -0.00000000000E+00  0.00000000000E+00  0.19194824571E+02  0.19194824571E+02  0.00000000000E+00 0.  1.
          2   -1    0    0  501    0  0.00000000000E+00 -0.00000000000E+00 -0.74191720794E+03  0.74191720794E+03  0.00000000000E+00 0. -1.
         23    2    1    2    0    0 -0.57326527821E+02  0.15025163964E+02 -0.52294290205E+03  0.53382859905E+03  0.89395794207E+02 0.  0.
         23    2    1    2    0    0  0.57326527821E+02 -0.15025163964E+02 -0.19977948132E+03  0.22728343346E+03  0.90740462987E+02 0.  0.
          5    1    3    3  502    0 -0.74445410859E+02 -0.11350702287E+02 -0.37112245758E+03  0.37871483488E+03  0.47000000000E+01 0. -1.
         -5    1    4    4    0  503  0.32859367485E+02 -0.29401963425E+02 -0.19259631058E+03  0.19763512424E+03  0.47000000000E+01 0.  1.
          5    1    4    4  503    0  0.24467160336E+02  0.14376799461E+02 -0.71831707451E+01  0.29648309220E+02  0.47000000000E+01 0. -1.
         -5    1    3    3    0  502  0.17118883038E+02  0.26375866251E+02 -0.15182044446E+03  0.15511376417E+03  0.47000000000E+01 0.  1.
<mgrwt>
<rscale>  0 0.10809666E+03</rscale>
<asrwt>0</asrwt>
<pdfrwt beam="1">  1        2 0.11414110E+00 0.10837859E+03</pdfrwt>
<pdfrwt beam="2">  1       -2 0.29530502E-02 0.10837859E+03</pdfrwt>
<totfact> 0.15814919E+04</totfact>
</mgrwt>
</event>
<event>
 8    1  0.8174053E-004  0.1723864E+03  0.7546771E-02  0.1177466E+00
          3   -1    0    0  501    0  0.00000000000E+00  0.00000000000E+00  0.48324671415E+03  0.48324671415E+03  0.00000000000E+00 0. -1.
         -3   -1    0    0    0  501 -0.00000000000E+00 -0.00000000000E+00 -0.58704824461E+02  0.58704824461E+02  0.00000000000E+00 0.  1.
         23    2    1    2    0    0 -0.13248357022E+03 -0.35609003936E+02  0.21397596993E+03  0.27477768111E+03  0.10438946684E+03 0.  0.
         23    2    1    2    0    0  0.13248357022E+03  0.35609003936E+02  0.21056591976E+03  0.26717385750E+03  0.90686085078E+02 0.  0.
          5    1    3    3  502    0 -0.54725090609E+02  0.85980683592E+01  0.16187729200E+03  0.17115814321E+03  0.47000000000E+01 0. -1.
         -5    1    3    3    0  502 -0.77758479616E+02 -0.44207072295E+02  0.52098677935E+02  0.10361953791E+03  0.47000000000E+01 0.  1.
          5    1    4    4  503    0  0.94089899686E+02  0.65771349592E+02  0.15689266352E+03  0.19446382059E+03  0.47000000000E+01 0. -1.
         -5    1    4    4    0  503  0.38393670539E+02 -0.30162345656E+02  0.53673256235E+02  0.72710036912E+02  0.47000000000E+01 0.  1.
<mgrwt>
<rscale>  0 0.17036712E+03</rscale>
<asrwt>0</asrwt>
<pdfrwt beam="1">  1        3 0.74345646E-01 0.17238636E+03</pdfrwt>
<pdfrwt beam="2">  1       -3 0.90315118E-02 0.17238636E+03</pdfrwt>
<totfact> 0.36691079E+02</totfact>
</mgrwt>
</event>
<event>
 8    1  0.8174053E-004  0.2364746E+03  0.7546771E-02  0.1122290E+00
         -1   -1    0    0    0  501 -0.00000000000E+00  0.00000000000E+00  0.11406354452E+04  0.11406354452E+04  0.00000000000E+00 0.  1.
          1   -1    0    0  501    0  0.00000000000E+00 -0.00000000000E+00 -0.64843761078E+02  0.64843761078E+02  0.00000000000E+00 0. -1.
         23    2    1    2    0    0 -0.19107595289E+03  0.10182477025E+03  0.83766714132E+03  0.87040591429E+03  0.95088970836E+02 0.  0.
         23    2    1    2    0    0  0.19107595289E+03 -0.10182477025E+03  0.23812454280E+03  0.33507329199E+03  0.93233628640E+02 0.  0.
          5    1    4    4  502    0  0.11234879114E+03 -0.75367964347E+01  0.10875549062E+03  0.15661705179E+03  0.47000000000E+01 0. -1.
         -5    1    3    3    0  503 -0.18570183495E+03  0.74538606309E+02  0.63536472614E+03  0.66614683108E+03  0.47000000000E+01 0.  1.
          5    1    3    3  503    0 -0.53741179386E+01  0.27286163942E+02  0.20230241518E+03  0.20425908321E+03  0.47000000000E+01 0. -1.
         -5    1    4    4    0  502  0.78727161751E+02 -0.94287973816E+02  0.12936905218E+03  0.17845624020E+03  0.47000000000E+01 0.  1.
<mgrwt>
<rscale>  0 0.23628936E+03</rscale>
<asrwt>0</asrwt>
<pdfrwt beam="1">  1        1 0.99759641E-02 0.23647456E+03</pdfrwt>
<pdfrwt beam="2">  1       -1 0.17548236E+00 0.23647456E+03</pdfrwt>
<totfact> 0.15917385E+02</totfact>
</mgrwt>
</event>
<event>
 8    1  0.8174053E-004  0.1405134E+03  0.7546771E-02  0.1221805E+00
          1   -1    0    0  501    0  0.00000000000E+00  0.00000000000E+00  0.51001948374E+03  0.51001948374E+03  0.00000000000E+00 0. -1.
         -1   -1    0    0    0  501 -0.00000000000E+00 -0.00000000000E+00 -0.32759307796E+02  0.32759307796E+02  0.00000000000E+00 0.  1.
         23    2    1    2    0    0  0.54710112616E+02  0.44258822740E+02  0.22612484441E+03  0.26622631655E+03  0.12162222884E+03 0.  0.
         23    2    1    2    0    0 -0.54710112616E+02 -0.44258822740E+02  0.25113533154E+03  0.27655247499E+03  0.91979763349E+02 0.  0.
          5    1    3    3  502    0 -0.12899020339E+02 -0.33740142347E+02  0.47378568224E+02  0.59762870231E+02  0.47000000000E+01 0. -1.
         -5    1    3    3    0  502  0.67609132955E+02  0.77998965087E+02  0.17874627619E+03  0.20646344632E+03  0.47000000000E+01 0.  1.
          5    1    4    4  503    0 -0.77011169187E+02 -0.34923616454E+02  0.22606722536E+03  0.24141014798E+03  0.47000000000E+01 0. -1.
         -5    1    4    4    0  503  0.22301056571E+02 -0.93352062862E+01  0.25068106177E+02  0.35142327013E+02  0.47000000000E+01 0.  1.
<mgrwt>
<rscale>  0 0.13388324E+03</rscale>
<asrwt>0</asrwt>
<pdfrwt beam="1">  1        1 0.78464530E-01 0.14051337E+03</pdfrwt>
<pdfrwt beam="2">  1       -1 0.50398939E-02 0.14051337E+03</pdfrwt>
<totfact> 0.73388813E+03</totfact>
</mgrwt>
</event>
<event>
 8    1  0.8174053E-004  0.1286836E+03  0.7546771E-02  0.1229709E+00
          1   -1    0    0  501    0  0.00000000000E+00  0.00000000000E+00  0.20907548916E+03  0.20907548916E+03  0.00000000000E+00 0. -1.
         -1   -1    0    0    0  501 -0.00000000000E+00 -0.00000000000E+00 -0.97577802871E+02  0.97577802871E+02  0.00000000000E+00 0.  1.
         23    2    1    2    0    0 -0.78350068485E+02  0.43710804957E+02  0.12325913885E+03  0.17819169235E+03  0.92250182713E+02 0.  0.
         23    2    1    2    0    0  0.78350068485E+02 -0.43710804957E+02 -0.11761452560E+02  0.12846159968E+03  0.91184884301E+02 0.  0.
          5    1    4    4  502    0  0.66953100883E+02  0.14272234900E+02 -0.75608400830E+01  0.69033837426E+02  0.47000000000E+01 0. -1.
         -5    1    4    4    0  502  0.11396967601E+02 -0.57983039857E+02 -0.42006124769E+01  0.59427762256E+02  0.47000000000E+01 0.  1.
          5    1    3    3  503    0  0.26572904970E+01  0.47126715994E+02  0.43504803330E+02  0.64364170669E+02  0.47000000000E+01 0. -1.
         -5    1    3    3    0  503 -0.81007358982E+02 -0.34159110374E+01  0.79754335516E+02  0.11382752168E+03  0.47000000000E+01 0.  1.
<mgrwt>
<rscale>  0 0.12849277E+03</rscale>
<asrwt>0</asrwt>
<pdfrwt beam="1">  1        1 0.32165460E-01 0.12868358E+03</pdfrwt>
<pdfrwt beam="2">  1       -1 0.15011970E-01 0.12868358E+03</pdfrwt>
<totfact> 0.42579738E+03</totfact>
</mgrwt>
</event>
<event>
 8    1  0.8174053E-004  0.1070882E+03  0.7546771E-02  0.1267338E+00
         -3   -1    0    0    0  501 -0.00000000000E+00  0.00000000000E+00  0.56529521558E+02  0.56529521558E+02  0.00000000000E+00 0.  1.
          3   -1    0    0  501    0  0.00000000000E+00 -0.00000000000E+00 -0.20158254624E+03  0.20158254624E+03  0.00000000000E+00 0. -1.
         23    2    1    2    0    0  0.35286486261E+02 -0.41079622594E+02 -0.56000091612E+02  0.12084656011E+03  0.92386196612E+02 0.  0.
         23    2    1    2    0    0 -0.35286486261E+02  0.41079622594E+02 -0.89052933070E+02  0.13726550769E+03  0.89323699025E+02 0.  0.
          5    1    4    4  502    0 -0.14261198928E+02  0.63099018645E+02 -0.31768768985E+02  0.72223352398E+02  0.47000000000E+01 0. -1.
         -5    1    3    3    0  503  0.59683216379E+02 -0.47971120829E+02 -0.25354994568E+02  0.80797775344E+02  0.47000000000E+01 0.  1.
          5    1    3    3  503    0 -0.24396730118E+02  0.68914982350E+01 -0.30645097044E+02  0.40048784765E+02  0.47000000000E+01 0. -1.
         -5    1    4    4    0  502 -0.21025287333E+02 -0.22019396051E+02 -0.57284164085E+02  0.65042155290E+02  0.47000000000E+01 0.  1.
<mgrwt>
<rscale>  0 0.10642440E+03</rscale>
<asrwt>0</asrwt>
<pdfrwt beam="1">  1        3 0.31012699E-01 0.10708819E+03</pdfrwt>
<pdfrwt beam="2">  1       -3 0.86968495E-02 0.10708819E+03</pdfrwt>
<totfact> 0.20591985E+03</totfact>
</mgrwt>
</event>
<event>
 8    1  0.8174053E-004  0.1263233E+03  0.7546771E-02  0.1233809E+00
         -1   -1    0    0    0  501 -0.00000000000E+00  0.00000000000E+00  0.37112098204E+03  0.37112098204E+03  0.00000000000E+00 0.  1.
          1   -1    0    0  501    0  0.00000000000E+00 -0.00000000000E+00 -0.49155331350E+02  0.49155331350E+02  0.00000000000E+00 0. -1.
         23    2    1    2    0    0 -0.76768587042E+02  0.40763759903E+02  0.81419968044E+02  0.14857830389E+03  0.88832432774E+02 0.  0.
         23    2    1    2    0    0  0.76768587042E+02 -0.40763759903E+02  0.24054568265E+03  0.27169800950E+03  0.91665057950E+02 0.  0.
          5    1    3    3  502    0 -0.39751726878E+02  0.44239096218E+02  0.79113284179E+00  0.59665847142E+02  0.47000000000E+01 0. -1.
         -5    1    3    3    0  502 -0.37016860164E+02 -0.34753363146E+01  0.80628835203E+02  0.88912456748E+02  0.47000000000E+01 0.  1.
          5    1    4    4  503    0  0.75224412260E+02 -0.22284725209E+01  0.20721598266E+03  0.22050902874E+03  0.47000000000E+01 0. -1.
         -5    1    4    4    0  503  0.15441747817E+01 -0.38535287383E+02  0.33329699989E+02  0.51188980756E+02  0.47000000000E+01 0.  1.
<mgrwt>
<rscale>  0 0.12581016E+03</rscale>
<asrwt>0</asrwt>
<pdfrwt beam="1">  1        1 0.75623589E-02 0.12632333E+03</pdfrwt>
<pdfrwt beam="2">  1       -1 0.57095534E-01 0.12632333E+03</pdfrwt>
<totfact> 0.28859635E+03</totfact>
</mgrwt>
</event>
<event>
 8    1  0.8174053E-004  0.1402668E+03  0.7546771E-02  0.1214982E+00
          1   -1    0    0  501    0  0.00000000000E+00  0.00000000000E+00  0.32991149861E+03  0.32991149861E+03  0.00000000000E+00 0. -1.
         -1   -1    0    0    0  501 -0.00000000000E+00 -0.00000000000E+00 -0.99029431589E+02  0.99029431589E+02  0.00000000000E+00 0.  1.
         23    2    1    2    0    0  0.93763753952E+02  0.26381812277E+02  0.25343630680E+03  0.28687241948E+03  0.92618474836E+02 0.  0.
         23    2    1    2    0    0 -0.93763753952E+02 -0.26381812277E+02 -0.22554239777E+02  0.14206851072E+03  0.10093129560E+03 0.  0.
          5    1    3    3  502    0  0.93595431545E+02  0.52741236732E+02  0.19841864642E+03  0.22568516147E+03  0.47000000000E+01 0. -1.
         -5    1    4    4    0  503 -0.94679173354E+02 -0.55583934787E+02 -0.11544670837E+02  0.11049474693E+03  0.47000000000E+01 0.  1.
          5    1    4    4  503    0  0.91541940175E+00  0.29202122510E+02 -0.11009568940E+02  0.31573763792E+02  0.47000000000E+01 0. -1.
         -5    1    3    3    0  502  0.16832240732E+00 -0.26359424455E+02  0.55017660377E+02  0.61187258015E+02  0.47000000000E+01 0.  1.
<mgrwt>
<rscale>  0 0.13877886E+03</rscale>
<asrwt>0</asrwt>
<pdfrwt beam="1">  1        1 0.50755615E-01 0.14026677E+03</pdfrwt>
<pdfrwt beam="2">  1       -1 0.15235297E-01 0.14026677E+03</pdfrwt>
<totfact> 0.23755692E+03</totfact>
</mgrwt>
</event>
<event>
 8    1  0.8174053E-004  0.9605466E+02  0.7546771E-02  0.1290754E+00
         -3   -1    0    0    0  501 -0.00000000000E+00  0.00000000000E+00  0.11747150511E+03  0.11747150511E+03  0.00000000000E+00 0.  1.
          3   -1    0    0  501    0  0.00000000000E+00 -0.00000000000E+00 -0.10135104563E+03  0.10135104563E+03  0.00000000000E+00 0. -1.
         23    2    1    2    0    0 -0.17714621471E+02 -0.65301790969E+00 -0.47010162256E+02  0.10387920706E+03  0.90921394934E+02 0.  0.
         23    2    1    2    0    0  0.17714621471E+02  0.65301790969E+00  0.63130621734E+02  0.11494334368E+03  0.94404780647E+02 0.  0.
          5    1    3    3  502    0  0.18442581836E+01  0.42920534965E+02 -0.31372524494E+02  0.53403173155E+02  0.47000000000E+01 0. -1.
         -5    1    4    4    0  503 -0.28791639687E+02  0.17995724015E+02 -0.28248493116E+00  0.34277899533E+02  0.47000000000E+01 0.  1.
          5    1    4    4  503    0  0.46506261158E+02 -0.17342706105E+02  0.63413106666E+02  0.80665444144E+02  0.47000000000E+01 0. -1.
         -5    1    3    3    0  502 -0.19558879655E+02 -0.43573552875E+02 -0.15637637762E+02  0.50476033900E+02  0.47000000000E+01 0.  1.
<mgrwt>
<rscale>  0 0.95187657E+02</rscale>
<asrwt>0</asrwt>
<pdfrwt beam="1">  1        3 0.15592469E-01 0.96054656E+02</pdfrwt>
<pdfrwt beam="2">  1       -3 0.18072539E-01 0.96054656E+02</pdfrwt>
<totfact> 0.20017937E+03</totfact>
</mgrwt>
</event>
<event>
 8    1  0.8174053E-004  0.1561892E+03  0.7546771E-02  0.1194205E+00
          1   -1    0    0  501    0  0.00000000000E+00  0.00000000000E+00  0.15735899590E+03  0.15735899590E+03  0.00000000000E+00 0. -1.
         -1   -1    0    0    0  501 -0.00000000000E+00 -0.00000000000E+00 -0.16435172125E+03  0.16435172125E+03  0.00000000000E+00 0.  1.
         23    2    1    2    0    0  0.12307707440E+03  0.13311428747E+02 -0.48907700140E+02  0.15999511271E+03  0.88776756968E+02 0.  0.
         23    2    1    2    0    0 -0.12307707440E+03 -0.13311428747E+02  0.41914974791E+02  0.16171560444E+03  0.95236081551E+02 0.  0.
          5    1    4    4  502    0 -0.97812630385E+02 -0.16221704113E+01 -0.14138375117E+02  0.98954159845E+02  0.47000000000E+01 0. -1.
         -5    1    3    3    0  503  0.10754683597E+03 -0.10737809845E+02 -0.65605419080E+02  0.12652186965E+03  0.47000000000E+01 0.  1.
          5    1    3    3  503    0  0.15530238429E+02  0.24049238592E+02  0.16697718940E+02  0.33473243050E+02  0.47000000000E+01 0. -1.
         -5    1    4    4    0  502 -0.25264444018E+02 -0.11689258335E+02  0.56053349907E+02  0.62761444596E+02  0.47000000000E+01 0.  1.
<mgrwt>
<rscale>  0 0.15521705E+03</rscale>
<asrwt>0</asrwt>
<pdfrwt beam="1">  1        1 0.24209076E-01 0.15618922E+03</pdfrwt>
<pdfrwt beam="2">  1       -1 0.25284880E-01 0.15618922E+03</pdfrwt>
<totfact> 0.26562968E+03</totfact>
</mgrwt>
</event>
<event>
 8    1  0.8174053E-004  0.1212667E+03  0.7546771E-02  0.1247496E+00
          1   -1    0    0  501    0  0.00000000000E+00  0.00000000000E+00  0.20360299230E+03  0.20360299230E+03  0.00000000000E+00 0. -1.
         -1   -1    0    0    0  501 -0.00000000000E+00 -0.00000000000E+00 -0.69811100442E+02  0.69811100442E+02  0.00000000000E+00 0.  1.
         23    2    1    2    0    0 -0.82766180104E+01 -0.56692787076E+02  0.30360484543E+02  0.12500946267E+03  0.10687858637E+03 0.  0.
         23    2    1    2    0    0  0.82766180104E+01  0.56692787076E+02  0.10343140731E+03  0.14840463007E+03  0.89684467411E+02 0.  0.
          5    1    3    3  502    0 -0.49907670140E+02 -0.38026952401E+02  0.44440228098E+02  0.77031477469E+02  0.47000000000E+01 0. -1.
         -5    1    3    3    0  502  0.41631052129E+02 -0.18665834675E+02 -0.14079743555E+02  0.47977985202E+02  0.47000000000E+01 0.  1.
          5    1    4    4  503    0 -0.29085515281E+02  0.29343371850E+02  0.81630548740E+01  0.42376008962E+02  0.47000000000E+01 0. -1.
         -5    1    4    4    0  503  0.37362133291E+02  0.27349415226E+02  0.95268352437E+02  0.10602862110E+03  0.47000000000E+01 0.  1.
<mgrwt>
<rscale>  0 0.11737216E+03</rscale>
<asrwt>0</asrwt>
<pdfrwt beam="1">  1        1 0.31323537E-01 0.12126668E+03</pdfrwt>
<pdfrwt beam="2">  1       -1 0.10740169E-01 0.12126668E+03</pdfrwt>
<totfact> 0.73544670E+03</totfact>
</mgrwt>
</event>
<event>
 8    1  0.8174053E-004  0.1200951E+03  0.7546771E-02  0.1243042E+00
          1   -1    0    0  501    0  0.00000000000E+00  0.00000000000E+00  0.33287678677E+03  0.33287678677E+03  0.00000000000E+00 0. -1.
         -1   -1    0    0    0  501 -0.00000000000E+00 -0.00000000000E+00 -0.52123057605E+02  0.52123057605E+02  0.00000000000E+00 0.  1.
         23    2    1    2    0    0 -0.76061512794E+02 -0.18453495374E+02  0.21973204959E+03  0.25029096724E+03  0.90760726349E+02 0.  0.
         23    2    1    2    0    0  0.76061512794E+02  0.18453495374E+02  0.61021679574E+02  0.13470887713E+03  0.91087600579E+02 0.  0.
          5    1    3    3  502    0 -0.39956074574E+02 -0.46357205261E+02  0.17796323501E+03  0.18825111259E+03  0.47000000000E+01 0. -1.
         -5    1    4    4    0  503  0.70345024003E+02  0.49765134665E+02  0.53930525720E+02  0.10176238320E+03  0.47000000000E+01 0.  1.
          5    1    4    4  503    0  0.57164887905E+01 -0.31311639291E+02  0.70911538539E+01  0.32946493928E+02  0.47000000000E+01 0. -1.
         -5    1    3    3    0  502 -0.36105438219E+02  0.27903709887E+02  0.41768814577E+02  0.62039854655E+02  0.47000000000E+01 0.  1.
<mgrwt>
<rscale>  0 0.12003313E+03</rscale>
<asrwt>0</asrwt>
<pdfrwt beam="1">  1        1 0.51211812E-01 0.12009511E+03</pdfrwt>
<pdfrwt beam="2">  1       -1 0.80189321E-02 0.12009511E+03</pdfrwt>
<totfact> 0.62406045E+03</totfact>
</mgrwt>
</event>
<event>
 8    1  0.8174053E-004  0.9765310E+02  0.7546771E-02  0.1286619E+00
         -1   -1    0    0    0  501 -0.00000000000E+00  0.00000000000E+00  0.42676461474E+02  0.42676461474E+02  0.00000000000E+00 0.  1.
          1   -1    0    0  501    0  0.00000000000E+00 -0.00000000000E+00 -0.26976692309E+03  0.26976692309E+03  0.00000000000E+00 0. -1.
         23    2    1    2    0    0 -0.20405141682E+02 -0.17502203658E+02 -0.18081746920E+03  0.20438174874E+03  0.91401559661E+02 0.  0.
         23    2    1    2    0    0  0.20405141682E+02  0.17502203658E+02 -0.46272992416E+02  0.10806163583E+03  0.93879872022E+02 0.  0.
          5    1    3    3  502    0 -0.40020281191E+02  0.13782415950E+02 -0.38952067710E+02  0.57714222467E+02  0.47000000000E+01 0. -1.
         -5    1    4    4    0  503  0.50763603090E+02  0.35320170020E+02 -0.31976466426E+02  0.69778522584E+02  0.47000000000E+01 0.  1.
          5    1    4    4  503    0 -0.30358461408E+02 -0.17817966362E+02 -0.14296525990E+02  0.38283113245E+02  0.47000000000E+01 0. -1.
         -5    1    3    3    0  502  0.19615139510E+02 -0.31284619608E+02 -0.14186540149E+03  0.14666752627E+03  0.47000000000E+01 0.  1.
<mgrwt>
<rscale>  0 0.97052552E+02</rscale>
<asrwt>0</asrwt>
<pdfrwt beam="1">  1        1 0.41502604E-01 0.97653097E+02</pdfrwt>
<pdfrwt beam="2">  1       -1 0.65656094E-02 0.97653097E+02</pdfrwt>
<totfact> 0.10720489E+04</totfact>
</mgrwt>
</event>
<event>
 8    1  0.8174053E-004  0.1108819E+03  0.7546771E-02  0.1260699E+00
          2   -1    0    0  501    0  0.00000000000E+00  0.00000000000E+00  0.48728713889E+03  0.48728713889E+03  0.00000000000E+00 0. -1.
         -2   -1    0    0    0  501 -0.00000000000E+00 -0.00000000000E+00 -0.27154922709E+02  0.27154922709E+02  0.00000000000E+00 0.  1.
         23    2    1    2    0    0  0.34849136567E+02 -0.52552920603E+02  0.15146302698E+03  0.18771213419E+03  0.91205948249E+02 0.  0.
         23    2    1    2    0    0 -0.34849136567E+02  0.52552920603E+02  0.30866918920E+03  0.32672992741E+03  0.86599684300E+02 0.  0.
          5    1    3    3  502    0  0.53682578656E+02 -0.65838645332E+02  0.10116359628E+03  0.13218437760E+03  0.47000000000E+01 0. -1.
         -5    1    4    4    0  503 -0.23897522838E+02  0.70630690439E+02  0.16110649188E+03  0.17758709907E+03  0.47000000000E+01 0.  1.
          5    1    4    4  503    0 -0.10951613729E+02 -0.18077769836E+02  0.14756269732E+03  0.14914282834E+03  0.47000000000E+01 0. -1.
         -5    1    3    3    0  502 -0.18833442089E+02  0.13285724729E+02  0.50299430700E+02  0.55527756584E+02  0.47000000000E+01 0.  1.
<mgrwt>
<rscale>  0 0.10993052E+03</rscale>
<asrwt>0</asrwt>
<pdfrwt beam="1">  1        2 0.74967246E-01 0.11088190E+03</pdfrwt>
<pdfrwt beam="2">  1       -2 0.41776808E-02 0.11088190E+03</pdfrwt>
<totfact> 0.15319165E+04</totfact>
</mgrwt>
</event>
<event>
 8    1  0.8174053E-004  0.9873900E+02  0.7546771E-02  0.1283654E+00
         -1   -1    0    0    0  501 -0.00000000000E+00  0.00000000000E+00  0.10518939447E+04  0.10518939447E+04  0.00000000000E+00 0.  1.
          1   -1    0    0  501    0  0.00000000000E+00 -0.00000000000E+00 -0.92380511700E+01  0.92380511700E+01  0.00000000000E+00 0. -1.
         23    2    1    2    0    0 -0.11458825780E+02 -0.34980475236E+02  0.46605187561E+03  0.47613491552E+03  0.90250588277E+02 0.  0.
         23    2    1    2    0    0  0.11458825780E+02  0.34980475236E+02  0.57660401793E+03  0.58499708035E+03  0.91621243155E+02 0.  0.
          5    1    4    4  502    0  0.73549307112E+00  0.64038193168E+02  0.45082558192E+03  0.45537591773E+03  0.47000000000E+01 0. -1.
         -5    1    4    4    0  502  0.10723332709E+02 -0.29057717932E+02  0.12577843600E+03  0.12962116262E+03  0.47000000000E+01 0.  1.
          5    1    3    3  503    0  0.35046134493E+02 -0.30231227885E+02  0.16476223618E+03  0.17120409795E+03  0.47000000000E+01 0. -1.
         -5    1    3    3    0  503 -0.46504960273E+02 -0.47492473512E+01  0.30128963942E+03  0.30493081757E+03  0.47000000000E+01 0.  1.
<mgrwt>
<rscale>  0 0.98419830E+02</rscale>
<asrwt>0</asrwt>
<pdfrwt beam="1">  1        1 0.14212395E-02 0.98739002E+02</pdfrwt>
<pdfrwt beam="2">  1       -1 0.16182974E+00 0.98739002E+02</pdfrwt>
<totfact> 0.28586631E+03</totfact>
</mgrwt>
</event>
<event>
 8    1  0.8174053E-004  0.1731088E+03  0.7546771E-02  0.1174940E+00
          1   -1    0    0  501    0  0.00000000000E+00  0.00000000000E+00  0.51431096648E+03  0.51431096648E+03  0.00000000000E+00 0. -1.
         -1   -1    0    0    0  501 -0.00000000000E+00 -0.00000000000E+00 -0.66658016761E+02  0.66658016761E+02  0.00000000000E+00 0.  1.
         23    2    1    2    0    0 -0.20339683025E+02  0.14346730631E+03  0.32860526424E+03  0.37087614901E+03  0.92580384175E+02 0.  0.
         23    2    1    2    0    0  0.20339683025E+02 -0.14346730631E+03  0.11904768548E+03  0.21009283423E+03  0.94710489877E+02 0.  0.
          5    1    3    3  502    0  0.29424563997E+02  0.61781096467E+02  0.19330087327E+03  0.20510979122E+03  0.47000000000E+01 0. -1.
         -5    1    3    3    0  502 -0.49764247022E+02  0.81686209839E+02  0.13530439097E+03  0.16576635779E+03  0.47000000000E+01 0.  1.
          5    1    4    4  503    0  0.15651725474E+02 -0.63433582672E+02  0.11164605446E+03  0.12944391603E+03  0.47000000000E+01 0. -1.
         -5    1    4    4    0  503  0.46879575506E+01 -0.80033723635E+02  0.74016310175E+01  0.80648918198E+02  0.47000000000E+01 0.  1.
<mgrwt>
<rscale>  0 0.17281900E+03</rscale>
<asrwt>0</asrwt>
<pdfrwt beam="1">  1        1 0.79124762E-01 0.17310877E+03</pdfrwt>
<pdfrwt beam="2">  1       -1 0.10255080E-01 0.17310877E+03</pdfrwt>
<totfact> 0.25111430E+03</totfact>
</mgrwt>
</event>
<event>
 8    1  0.8174053E-004  0.1207478E+03  0.7546771E-02  0.1242407E+00
         -1   -1    0    0    0  501 -0.00000000000E+00  0.00000000000E+00  0.59742696427E+02  0.59742696427E+02  0.00000000000E+00 0.  1.
          1   -1    0    0  501    0  0.00000000000E+00 -0.00000000000E+00 -0.45976112313E+03  0.45976112313E+03  0.00000000000E+00 0. -1.
         23    2    1    2    0    0  0.76870935842E+02  0.84374136766E+01 -0.20431265000E+02  0.12117423707E+03  0.91024328683E+02 0.  0.
         23    2    1    2    0    0 -0.76870935842E+02 -0.84374136766E+01 -0.37958716171E+03  0.39832958250E+03  0.92734633395E+02 0.  0.
          5    1    3    3  502    0  0.49336187001E+01  0.32488552332E+02 -0.29791025116E+02  0.44603159121E+02  0.47000000000E+01 0. -1.
         -5    1    3    3    0  502  0.71937317142E+02 -0.24051138655E+02  0.93597601163E+01  0.76571077945E+02  0.47000000000E+01 0.  1.
          5    1    4    4  503    0 -0.93300265714E+02 -0.22764524837E+02 -0.33424946432E+03  0.34780448181E+03  0.47000000000E+01 0. -1.
         -5    1    4    4    0  503  0.16429329872E+02  0.14327111160E+02 -0.45337697391E+02  0.50525100682E+02  0.47000000000E+01 0.  1.
<mgrwt>
<rscale>  0 0.12041939E+03</rscale>
<asrwt>0</asrwt>
<pdfrwt beam="1">  1        1 0.70732478E-01 0.12074785E+03</pdfrwt>
<pdfrwt beam="2">  1       -1 0.91911844E-02 0.12074785E+03</pdfrwt>
<totfact> 0.33879620E+03</totfact>
</mgrwt>
</event>
<event>
 8    1  0.8174053E-004  0.9452945E+02  0.7546771E-02  0.1292267E+00
         -2   -1    0    0    0  501 -0.00000000000E+00  0.00000000000E+00  0.10267793447E+02  0.10267793447E+02  0.00000000000E+00 0.  1.
          2   -1    0    0  501    0  0.00000000000E+00 -0.00000000000E+00 -0.94268006918E+03  0.94268006918E+03  0.00000000000E+00 0. -1.
         23    2    1    2    0    0 -0.25448821350E+02 -0.13378807511E+02 -0.33386200169E+03  0.34698653166E+03  0.90050996579E+02 0.  0.
         23    2    1    2    0    0  0.25448821350E+02  0.13378807511E+02 -0.59855027405E+03  0.60596133097E+03  0.90000383712E+02 0.  0.
          5    1    4    4  502    0  0.27582914451E+02  0.47722627125E+02 -0.45093400343E+03  0.45431468363E+03  0.47000000000E+01 0. -1.
         -5    1    3    3    0  503 -0.10769859426E+02  0.28834728137E+02 -0.24919009183E+03  0.25112790224E+03  0.47000000000E+01 0.  1.
          5    1    3    3  503    0 -0.14678961924E+02 -0.42213535648E+02 -0.84671909862E+02  0.95858629422E+02  0.47000000000E+01 0. -1.
         -5    1    4    4    0  502 -0.21340931013E+01 -0.34343819614E+02 -0.14761627062E+03  0.15164664734E+03  0.47000000000E+01 0.  1.
<mgrwt>
<rscale>  0 0.94517395E+02</rscale>
<asrwt>0</asrwt>
<pdfrwt beam="1">  1        2 0.14502771E+00 0.94529450E+02</pdfrwt>
<pdfrwt beam="2">  1       -2 0.15796604E-02 0.94529450E+02</pdfrwt>
<totfact> 0.28578383E+04</totfact>
</mgrwt>
</event>
<event>
 8    1  0.8174053E-004  0.1031775E+03  0.7546771E-02  0.1274843E+00
          2   -1    0    0  501    0  0.00000000000E+00  0.00000000000E+00  0.16810978378E+03  0.16810978378E+03  0.00000000000E+00 0. -1.
         -2   -1    0    0    0  501 -0.00000000000E+00 -0.00000000000E+00 -0.72748271134E+02  0.72748271134E+02  0.00000000000E+00 0.  1.
         23    2    1    2    0    0  0.78401513757E+00  0.43839997348E+02  0.10083500251E+01  0.10104348937E+03  0.91028621467E+02 0.  0.
         23    2    1    2    0    0 -0.78401513757E+00 -0.43839997348E+02  0.94353162620E+02  0.13981456555E+03  0.93397180875E+02 0.  0.
          5    1    4    4  502    0 -0.33496007552E+02 -0.20191383909E+02  0.26156747258E+01  0.39479187686E+02  0.47000000000E+01 0.  1.
         -5    1    3    3    0  503  0.29860748397E+02 -0.42650176690E+01 -0.24494737558E+02  0.39139964724E+02  0.47000000000E+01 0. -1.
          5    1    3    3  503    0 -0.29076733260E+02  0.48105015017E+02  0.25503087583E+02  0.61903524642E+02  0.47000000000E+01 0.  1.
         -5    1    4    4    0  502  0.32711992414E+02 -0.23648613439E+02  0.91737487894E+02  0.10033537786E+03  0.47000000000E+01 0. -1.
<mgrwt>
<rscale>  0 0.10263852E+03</rscale>
<asrwt>0</asrwt>
<pdfrwt beam="1">  1        2 0.25863044E-01 0.10317749E+03</pdfrwt>
<pdfrwt beam="2">  1       -2 0.11192042E-01 0.10317749E+03</pdfrwt>
<totfact> 0.10533170E+04</totfact>
</mgrwt>
</event>
<event>
 8    1  0.8174053E-004  0.1012228E+03  0.7546771E-02  0.1278116E+00
          1   -1    0    0  501    0  0.00000000000E+00  0.00000000000E+00  0.52964186774E+03  0.52964186774E+03  0.00000000000E+00 0. -1.
         -1   -1    0    0    0  501 -0.00000000000E+00 -0.00000000000E+00 -0.19217156640E+02  0.19217156640E+02  0.00000000000E+00 0.  1.
         23    2    1    2    0    0  0.23869916822E+02  0.33903079362E+02  0.25054204401E+03  0.27021725264E+03  0.92340977278E+02 0.  0.
         23    2    1    2    0    0 -0.23869916822E+02 -0.33903079362E+02  0.25988266708E+03  0.27864177174E+03  0.91558967826E+02 0.  0.
          5    1    3    3  502    0 -0.21446632363E+02  0.46858141791E+02  0.15799809646E+03  0.16625622387E+03  0.47000000000E+01 0. -1.
         -5    1    4    4    0  503  0.41244076567E+01 -0.38493028148E+02  0.36493831038E+02  0.53409864804E+02  0.47000000000E+01 0.  1.
          5    1    4    4  503    0 -0.27994324479E+02  0.45899487868E+01  0.22338883604E+03  0.22523190694E+03  0.47000000000E+01 0. -1.
         -5    1    3    3    0  502  0.45316549185E+02 -0.12955062430E+02  0.92543947553E+02  0.10396102876E+03  0.47000000000E+01 0.  1.
<mgrwt>
<rscale>  0 0.10104407E+03</rscale>
<asrwt>0</asrwt>
<pdfrwt beam="1">  1        1 0.81483353E-01 0.10122276E+03</pdfrwt>
<pdfrwt beam="2">  1       -1 0.29564860E-02 0.10122276E+03</pdfrwt>
<totfact> 0.14867811E+04</totfact>
</mgrwt>
</event>
<event>
 8    1  0.8174053E-004  0.1318617E+03  0.7546771E-02  0.1229554E+00
          1   -1    0    0  501    0  0.00000000000E+00  0.00000000000E+00  0.51118486202E+03  0.51118486202E+03  0.00000000000E+00 0. -1.
         -1   -1    0    0    0  501 -0.00000000000E+00 -0.00000000000E+00 -0.88869214681E+02  0.88869214681E+02  0.00000000000E+00 0.  1.
         23    2    1    2    0    0  0.71838173760E+02 -0.51111650245E+02  0.44981047434E+03  0.46535637358E+03  0.80336589444E+02 0.  0.
         23    2    1    2    0    0 -0.71838173760E+02  0.51111650245E+02 -0.27494826996E+02  0.13469770313E+03  0.98052953636E+02 0.  0.
          5    1    4    4  502    0 -0.51885865529E+02  0.29785764290E+02  0.32178957506E+02  0.68094861056E+02  0.47000000000E+01 0. -1.
         -5    1    3    3    0  503  0.89197214416E+02 -0.38514234868E+02  0.36165891166E+03  0.37451134527E+03  0.47000000000E+01 0. -1.
          5    1    3    3  503    0 -0.17359040656E+02 -0.12597415378E+02  0.88151562674E+02  0.90845028310E+02  0.47000000000E+01 0.  1.
         -5    1    4    4    0  502 -0.19952308231E+02  0.21325885956E+02 -0.59673784501E+02  0.66602842073E+02  0.47000000000E+01 0.  1.
<mgrwt>
<rscale>  0 0.12859631E+03</rscale>
<asrwt>0</asrwt>
<pdfrwt beam="1">  1        1 0.78643823E-01 0.13186169E+03</pdfrwt>
<pdfrwt beam="2">  1       -1 0.13672187E-01 0.13186169E+03</pdfrwt>
<totfact> 0.16112503E+03</totfact>
</mgrwt>
</event>
<event>
 8    1  0.8174053E-004  0.9315037E+02  0.7546771E-02  0.1295676E+00
         -3   -1    0    0    0  501 -0.00000000000E+00  0.00000000000E+00  0.38228483273E+02  0.38228483273E+02  0.00000000000E+00 0.  1.
          3   -1    0    0  501    0  0.00000000000E+00 -0.00000000000E+00 -0.30418278882E+03  0.30418278882E+03  0.00000000000E+00 0. -1.
         23    2    1    2    0    0 -0.54012144801E+01 -0.15465838755E+02 -0.46327507974E+02  0.10403475435E+03  0.91698565044E+02 0.  0.
         23    2    1    2    0    0  0.54012144801E+01  0.15465838755E+02 -0.21962679758E+03  0.23837651775E+03  0.91208928912E+02 0.  0.
          5    1    4    4  502    0  0.46079190312E+02  0.14949540632E+02 -0.88460409160E+02  0.10096590778E+03  0.47000000000E+01 0.  1.
         -5    1    4    4    0  502 -0.40677975832E+02  0.51629812283E+00 -0.13116638842E+03  0.13741060997E+03  0.47000000000E+01 0. -1.
          5    1    3    3  503    0 -0.25465028580E+02 -0.22586024982E+02 -0.66166828112E+02  0.74556926891E+02  0.47000000000E+01 0. -1.
         -5    1    3    3    0  503  0.20063814100E+02  0.71201862268E+01  0.19839320137E+02  0.29477827458E+02  0.47000000000E+01 0.  1.
<mgrwt>
<rscale>  0 0.93029648E+02</rscale>
<asrwt>0</asrwt>
<pdfrwt beam="1">  1        3 0.46797350E-01 0.93150374E+02</pdfrwt>
<pdfrwt beam="2">  1       -3 0.58813053E-02 0.93150374E+02</pdfrwt>
<totfact> 0.17178737E+03</totfact>
</mgrwt>
</event>
<event>
 8    1  0.8174053E-004  0.9516761E+02  0.7546771E-02  0.1291699E+00
          2   -1    0    0  501    0  0.00000000000E+00  0.00000000000E+00  0.37035022962E+03  0.37035022962E+03  0.00000000000E+00 0. -1.
         -2   -1    0    0    0  501 -0.00000000000E+00 -0.00000000000E+00 -0.24565617260E+02  0.24565617260E+02  0.00000000000E+00 0.  1.
         23    2    1    2    0    0  0.11562450490E+02  0.18555398111E+02  0.20295643832E+03  0.22416107828E+03  0.92622244092E+02 0.  0.
         23    2    1    2    0    0 -0.11562450490E+02 -0.18555398111E+02  0.14282817405E+03  0.17075476860E+03  0.90990717323E+02 0.  0.
          5    1    4    4  502    0  0.33668031149E+02 -0.30059718546E+02  0.56110213962E+02  0.72163488770E+02  0.47000000000E+01 0. -1.
         -5    1    4    4    0  502 -0.45230481640E+02  0.11504320435E+02  0.86717960084E+02  0.98591279834E+02  0.47000000000E+01 0.  1.
          5    1    3    3  503    0 -0.11280226800E+02 -0.34593661312E+02  0.89288067919E+02  0.96531932500E+02  0.47000000000E+01 0. -1.
         -5    1    3    3    0  503  0.22842677290E+02  0.53149059423E+02  0.11366837040E+03  0.12762914578E+03  0.47000000000E+01 0.  1.
<mgrwt>
<rscale>  0 0.94768315E+02</rscale>
<asrwt>0</asrwt>
<pdfrwt beam="1">  1        2 0.56976954E-01 0.95167606E+02</pdfrwt>
<pdfrwt beam="2">  1       -2 0.37793260E-02 0.95167606E+02</pdfrwt>
<totfact> 0.23438852E+04</totfact>
</mgrwt>
</event>
<event>
 8    1  0.8174053E-004  0.9392490E+02  0.7546771E-02  0.1293752E+00
         -1   -1    0    0    0  501 -0.00000000000E+00  0.00000000000E+00  0.32603086265E+02  0.32603086265E+02  0.00000000000E+00 0.  1.
          1   -1    0    0  501    0  0.00000000000E+00 -0.00000000000E+00 -0.27587721403E+03  0.27587721403E+03  0.00000000000E+00 0. -1.
         23    2    1    2    0    0  0.13332940257E+02 -0.21888513882E+02 -0.98787897272E+02  0.13614876601E+03  0.90114169265E+02 0.  0.
         23    2    1    2    0    0 -0.13332940257E+02  0.21888513882E+02 -0.14448623049E+03  0.17233153429E+03  0.90360459115E+02 0.  0.
          5    1    3    3  502    0 -0.24553142183E+02 -0.25946311808E+02 -0.70660062817E+01  0.36716295188E+02  0.47000000000E+01 0. -1.
         -5    1    3    3    0  502  0.37886082440E+02  0.40577979265E+01 -0.91721890991E+02  0.99432470821E+02  0.47000000000E+01 0.  1.
          5    1    4    4  503    0 -0.23909170682E+02 -0.59746474933E+01 -0.13951580548E+03  0.14175364135E+03  0.47000000000E+01 0. -1.
         -5    1    4    4    0  503  0.10576230425E+02  0.27863161375E+02 -0.49704250095E+01  0.30577892939E+02  0.47000000000E+01 0.  1.
<mgrwt>
<rscale>  0 0.93865614E+02</rscale>
<asrwt>0</asrwt>
<pdfrwt beam="1">  1        1 0.42442649E-01 0.93924900E+02</pdfrwt>
<pdfrwt beam="2">  1       -1 0.50158594E-02 0.93924900E+02</pdfrwt>
<totfact> 0.15453627E+04</totfact>
</mgrwt>
</event>
<event>
 8    1  0.8174053E-004  0.9209390E+02  0.7546771E-02  0.1298952E+00
          2   -1    0    0  501    0  0.00000000000E+00  0.00000000000E+00  0.10193610783E+03  0.10193610783E+03  0.00000000000E+00 0. -1.
         -2   -1    0    0    0  501 -0.00000000000E+00 -0.00000000000E+00 -0.16676299568E+03  0.16676299568E+03  0.00000000000E+00 0.  1.
         23    2    1    2    0    0  0.30541425270E+01 -0.79541616267E+01 -0.12861047142E+03  0.15818324953E+03  0.91698912744E+02 0.  0.
         23    2    1    2    0    0 -0.30541425270E+01  0.79541616267E+01  0.63783583571E+02  0.11051585399E+03  0.89848828465E+02 0.  0.
          5    1    4    4  502    0  0.57503176721E+01 -0.29371747810E+02 -0.58739556172E+01  0.30860315575E+02  0.47000000000E+01 0. -1.
         -5    1    3    3    0  503  0.13838523910E+02  0.40011932245E+02 -0.55737804844E+02  0.70151638290E+02  0.47000000000E+01 0.  1.
          5    1    3    3  503    0 -0.10784381383E+02 -0.47966093872E+02 -0.72872666575E+02  0.88031611237E+02  0.47000000000E+01 0. -1.
         -5    1    4    4    0  502 -0.88044601991E+01  0.37325909437E+02  0.69657539188E+02  0.79655538416E+02  0.47000000000E+01 0.  1.
<mgrwt>
<rscale>  0 0.91629912E+02</rscale>
<asrwt>0</asrwt>
<pdfrwt beam="1">  1        2 0.15682478E-01 0.92093904E+02</pdfrwt>
<pdfrwt beam="2">  1       -2 0.25655845E-01 0.92093904E+02</pdfrwt>
<totfact> 0.46554075E+03</totfact>
</mgrwt>
</event>
<event>
 8    1  0.8174053E-004  0.1047978E+03  0.7546771E-02  0.1271847E+00
         -2   -1    0    0    0  501 -0.00000000000E+00  0.00000000000E+00  0.32274737040E+02  0.32274737040E+02  0.00000000000E+00 0.  1.
          2   -1    0    0  501    0  0.00000000000E+00 -0.00000000000E+00 -0.34463873794E+03  0.34463873794E+03  0.00000000000E+00 0. -1.
         23    2    1    2    0    0 -0.35910945499E+02  0.24839962080E+02 -0.19073191780E+03  0.21636147728E+03  0.92341781765E+02 0.  0.
         23    2    1    2    0    0  0.35910945499E+02 -0.24839962080E+02 -0.12163208310E+03  0.16055199770E+03  0.95267836145E+02 0.  0.
          5    1    4    4  502    0  0.60803961525E+02  0.38044866855E+01 -0.98339090683E+02  0.11577677925E+03  0.47000000000E+01 0.  1.
         -5    1    3    3    0  503 -0.22065590754E+02  0.50200280183E+02 -0.56120341269E+02  0.78603696668E+02  0.47000000000E+01 0.  1.
          5    1    3    3  503    0 -0.13845354745E+02 -0.25360318103E+02 -0.13461157653E+03  0.13775778061E+03  0.47000000000E+01 0. -1.
         -5    1    4    4    0  502 -0.24893016026E+02 -0.28644448765E+02 -0.23292992415E+02  0.44775218454E+02  0.47000000000E+01 0. -1.
<mgrwt>
<rscale>  0 0.10412824E+03</rscale>
<asrwt>0</asrwt>
<pdfrwt beam="1">  1        2 0.53021345E-01 0.10479781E+03</pdfrwt>
<pdfrwt beam="2">  1       -2 0.49653441E-02 0.10479781E+03</pdfrwt>
<totfact> 0.17046343E+04</totfact>
</mgrwt>
</event>
<event>
 8    1  0.8174053E-004  0.1325792E+03  0.7546771E-02  0.1223977E+00
         -3   -1    0    0    0  501 -0.00000000000E+00  0.00000000000E+00  0.62582251423E+03  0.62582251423E+03  0.00000000000E+00 0.  1.
          3   -1    0    0  501    0  0.00000000000E+00 -0.00000000000E+00 -0.32073063159E+02  0.32073063159E+02  0.00000000000E+00 0. -1.
         23    2    1    2    0    0 -0.94240128063E+02  0.12494465681E+02  0.41454772476E+03  0.43498193543E+03  0.91225844122E+02 0.  0.
         23    2    1    2    0    0  0.94240128063E+02 -0.12494465681E+02  0.17920172631E+03  0.22291364196E+03  0.92411685672E+02 0.  0.
          5    1    3    3  502    0 -0.24068929217E+02 -0.24549882063E+02  0.24825005777E+03  0.25066350202E+03  0.47000000000E+01 0. -1.
         -5    1    4    4    0  503  0.10939090674E+03  0.40507602001E+01  0.14498890031E+03  0.18173235911E+03  0.47000000000E+01 0.  1.
          5    1    4    4  503    0 -0.15150778676E+02 -0.16545225881E+02  0.34212826005E+02  0.41181282851E+02  0.47000000000E+01 0. -1.
         -5    1    3    3    0  502 -0.70171198846E+02  0.37044347744E+02  0.16629766699E+03  0.18431843340E+03  0.47000000000E+01 0.  1.
<mgrwt>
<rscale>  0 0.13237272E+03</rscale>
<asrwt>0</asrwt>
<pdfrwt beam="1">  1        3 0.49343179E-02 0.13257916E+03</pdfrwt>
<pdfrwt beam="2">  1       -3 0.96280377E-01 0.13257916E+03</pdfrwt>
<totfact> 0.53105005E+02</totfact>
</mgrwt>
</event>
<event>
 8    1  0.8174053E-004  0.9949385E+02  0.7546771E-02  0.1282782E+00
          1   -1    0    0  501    0  0.00000000000E+00  0.00000000000E+00  0.61843412194E+02  0.61843412194E+02  0.00000000000E+00 0. -1.
         -1   -1    0    0    0  501 -0.00000000000E+00 -0.00000000000E+00 -0.18166434072E+03  0.18166434072E+03  0.00000000000E+00 0.  1.
         23    2    1    2    0    0 -0.29451152668E+02  0.20417974861E+01 -0.13323648392E+02  0.97765865959E+02  0.92244813458E+02 0.  0.
         23    2    1    2    0    0  0.29451152668E+02 -0.20417974861E+01 -0.10649728014E+03  0.14574188696E+03  0.95013091766E+02 0.  0.
          5    1    4    4  502    0  0.46693083018E+02  0.31700492700E+02 -0.40958541324E+02  0.69891754496E+02  0.47000000000E+01 0. -1.
         -5    1    4    4    0  502 -0.17241930350E+02 -0.33742290187E+02 -0.65538738812E+02  0.75850132461E+02  0.47000000000E+01 0.  1.
          5    1    3    3  503    0  0.13489013315E+02 -0.21218156393E+02  0.24805126768E+02  0.35630716452E+02  0.47000000000E+01 0. -1.
         -5    1    3    3    0  503 -0.42940165982E+02  0.23259953879E+02 -0.38128775160E+02  0.62135149507E+02  0.47000000000E+01 0.  1.
<mgrwt>
<rscale>  0 0.98827151E+02</rscale>
<asrwt>0</asrwt>
<pdfrwt beam="1">  1        1 0.95143710E-02 0.99493854E+02</pdfrwt>
<pdfrwt beam="2">  1       -1 0.27948360E-01 0.99493854E+02</pdfrwt>
<totfact> 0.72999379E+03</totfact>
</mgrwt>
</event>
<event>
 8    1  0.8174053E-004  0.1117435E+03  0.7546771E-02  0.1257680E+00
         -3   -1    0    0    0  501 -0.00000000000E+00  0.00000000000E+00  0.56583147757E+02  0.56583147757E+02  0.00000000000E+00 0.  1.
          3   -1    0    0  501    0  0.00000000000E+00 -0.00000000000E+00 -0.21960989142E+03  0.21960989142E+03  0.00000000000E+00 0. -1.
         23    2    1    2    0    0 -0.25152495505E+02 -0.60643938257E+02 -0.86451619742E+02  0.14128163199E+03  0.90422794163E+02 0.  0.
         23    2    1    2    0    0  0.25152495505E+02  0.60643938257E+02 -0.76575123919E+02  0.13491140718E+03  0.89593542780E+02 0.  0.
          5    1    3    3  502    0 -0.11404816663E+02  0.19913550860E+02 -0.42108417265E+02  0.48185352085E+02  0.47000000000E+01 0. -1.
         -5    1    4    4    0  503  0.20831348730E+02  0.47492453011E+01  0.15638395418E+02  0.26891445333E+02  0.47000000000E+01 0.  1.
          5    1    4    4  503    0  0.43211467754E+01  0.55894692956E+02 -0.92213519337E+02  0.10801996185E+03  0.47000000000E+01 0. -1.
         -5    1    3    3    0  502 -0.13747678842E+02 -0.80557489116E+02 -0.44343202477E+02  0.93096279905E+02  0.47000000000E+01 0.  1.
<mgrwt>
<rscale>  0 0.11157566E+03</rscale>
<asrwt>0</asrwt>
<pdfrwt beam="1">  1        3 0.33786137E-01 0.11174353E+03</pdfrwt>
<pdfrwt beam="2">  1       -3 0.87050996E-02 0.11174353E+03</pdfrwt>
<totfact> 0.17674719E+03</totfact>
</mgrwt>
</event>
<event>
 7    1  0.8174053E-004  0.3665871E+03  0.7546771E-02  0.1056006E+00
         -1   -1    0    0    0  501 -0.00000000000E+00  0.00000000000E+00  0.21663114426E+03  0.21663114426E+03  0.00000000000E+00 0.  1.
          1   -1    0    0  501    0  0.00000000000E+00 -0.00000000000E+00 -0.15508630961E+03  0.15508630961E+03  0.00000000000E+00 0. -1.
         23    2    1    2    0    0  0.34520456867E+02 -0.43470552015E+02 -0.92618142683E+02  0.14178665392E+03  0.91891153223E+02 0.  0.
          5    1    1    2  502    0  0.28743215488E+02 -0.46404901189E+01 -0.21878833407E+02  0.36721654870E+02  0.47000000000E+01 0. -1.
         -5    1    3    3    0  503 -0.19405251611E+02 -0.23556202658E+02  0.20333088464E+01  0.30946450825E+02  0.47000000000E+01 0.  1.
          5    1    3    3  503    0  0.53925708479E+02 -0.19914349356E+02 -0.94651451530E+02  0.11084020309E+03  0.47000000000E+01 0. -1.
         -5    1    1    2    0  502 -0.63263672355E+02  0.48111042133E+02  0.17604181074E+03  0.19320914509E+03  0.47000000000E+01 0.  1.
<mgrwt>
<rscale>  0 0.36658710E+03</rscale>
<asrwt>0</asrwt>
<pdfrwt beam="1">  1        1 0.23859432E-01 0.36658710E+03</pdfrwt>
<pdfrwt beam="2">  1       -1 0.33327868E-01 0.36658710E+03</pdfrwt>
<totfact> 0.17382833E+03</totfact>
</mgrwt>
</event>
<event>
 8    1  0.8174053E-004  0.1049429E+03  0.7546771E-02  0.1273015E+00
          1   -1    0    0  501    0  0.00000000000E+00  0.00000000000E+00  0.27935027350E+03  0.27935027350E+03  0.00000000000E+00 0. -1.
         -1   -1    0    0    0  501 -0.00000000000E+00 -0.00000000000E+00 -0.37454209506E+02  0.37454209506E+02  0.00000000000E+00 0.  1.
         23    2    1    2    0    0  0.74831594099E+01  0.25399653952E+02  0.13072457646E+03  0.16763632349E+03  0.10154743703E+03 0.  0.
         23    2    1    2    0    0 -0.74831594099E+01 -0.25399653952E+02  0.11117148753E+03  0.14916815951E+03  0.95869182102E+02 0.  0.
          5    1    3    3  502    0 -0.35017627001E+02 -0.16798545096E+02  0.26223426829E+02  0.47097594766E+02  0.47000000000E+01 0. -1.
         -5    1    4    4    0  503  0.28644440833E+02 -0.33406634788E+01 -0.94551740666E+00  0.29234363791E+02  0.47000000000E+01 0.  1.
          5    1    4    4  503    0 -0.36127600242E+02 -0.22058990473E+02  0.11211700494E+03  0.11993379572E+03  0.47000000000E+01 0. -1.
         -5    1    3    3    0  502  0.42500786410E+02  0.42198199048E+02  0.10450114963E+03  0.12053872873E+03  0.47000000000E+01 0.  1.
<mgrwt>
<rscale>  0 0.10354418E+03</rscale>
<asrwt>0</asrwt>
<pdfrwt beam="1">  1        1 0.42976964E-01 0.10494295E+03</pdfrwt>
<pdfrwt beam="2">  1       -1 0.57621863E-02 0.10494295E+03</pdfrwt>
<totfact> 0.12540268E+04</totfact>
</mgrwt>
</event>
<event>
 8    1  0.8174053E-004  0.1056944E+03  0.7546771E-02  0.1271389E+00
         -2   -1    0    0    0  501 -0.00000000000E+00  0.00000000000E+00  0.35441634315E+03  0.35441634315E+03  0.00000000000E+00 0.  1.
          2   -1    0    0  501    0  0.00000000000E+00 -0.00000000000E+00 -0.10092501854E+03  0.10092501854E+03  0.00000000000E+00 0. -1.
         23    2    1    2    0    0 -0.24978011633E+02  0.44076238947E+02  0.31665892383E+03  0.33220950971E+03  0.86739082272E+02 0.  0.
         23    2    1    2    0    0  0.24978011633E+02 -0.44076238947E+02 -0.63167599225E+02  0.12313185198E+03  0.92761476251E+02 0.  0.
          5    1    3    3  502    0 -0.20686286138E+02 -0.20798052853E+02  0.54534540095E+02  0.62101429130E+02  0.47000000000E+01 0. -1.
         -5    1    3    3    0  502 -0.42917254958E+01  0.64874291799E+02  0.26212438374E+03  0.27010808058E+03  0.47000000000E+01 0.  1.
          5    1    4    4  503    0 -0.99309238633E+01 -0.54816249374E+02 -0.65643123808E+02  0.86223860662E+02  0.47000000000E+01 0. -1.
         -5    1    4    4    0  503  0.34908935497E+02  0.10740010427E+02  0.24755245825E+01  0.36907991322E+02  0.47000000000E+01 0.  1.
<mgrwt>
<rscale>  0 0.10435828E+03</rscale>
<asrwt>0</asrwt>
<pdfrwt beam="1">  1        2 0.15526926E-01 0.10569441E+03</pdfrwt>
<pdfrwt beam="2">  1       -2 0.54525591E-01 0.10569441E+03</pdfrwt>
<totfact> 0.11669249E+03</totfact>
</mgrwt>
</event>
<event>
 8    1  0.8174053E-004  0.9628395E+02  0.7546771E-02  0.1289543E+00
          2   -1    0    0  501    0  0.00000000000E+00  0.00000000000E+00  0.22913916759E+03  0.22913916759E+03  0.00000000000E+00 0. -1.
         -2   -1    0    0    0  501 -0.00000000000E+00 -0.00000000000E+00 -0.50733040257E+02  0.50733040257E+02  0.00000000000E+00 0.  1.
         23    2    1    2    0    0  0.14508747478E+02  0.20596433207E+02  0.22670715076E+02  0.96776282426E+02  0.90647507985E+02 0.  0.
         23    2    1    2    0    0 -0.14508747478E+02 -0.20596433207E+02  0.15573541225E+03  0.18309592542E+03  0.92929448833E+02 0.  0.
          5    1    4    4  502    0 -0.52627776368E+02 -0.15331180145E+02  0.70237001023E+02  0.89219136079E+02  0.47000000000E+01 0. -1.
         -5    1    3    3    0  503  0.49737088653E+02  0.22338140278E+02  0.26378479649E+00  0.54725954365E+02  0.47000000000E+01 0.  1.
          5    1    3    3  503    0 -0.35228341175E+02 -0.17417070716E+01  0.22406930279E+02  0.42050328061E+02  0.47000000000E+01 0. -1.
         -5    1    4    4    0  502  0.38119028890E+02 -0.52652530619E+01  0.85498411232E+02  0.93876789339E+02  0.47000000000E+01 0.  1.
<mgrwt>
<rscale>  0 0.95729036E+02</rscale>
<asrwt>0</asrwt>
<pdfrwt beam="1">  1        2 0.35252179E-01 0.96283951E+02</pdfrwt>
<pdfrwt beam="2">  1       -2 0.78050832E-02 0.96283951E+02</pdfrwt>
<totfact> 0.13130928E+04</totfact>
</mgrwt>
</event>
<event>
 8    1  0.8174053E-004  0.1532785E+03  0.7546771E-02  0.1196672E+00
          2   -1    0    0  501    0  0.00000000000E+00  0.00000000000E+00  0.55721982029E+02  0.55721982029E+02  0.00000000000E+00 0.  1.
         -2   -1    0    0    0  501 -0.00000000000E+00 -0.00000000000E+00 -0.42472632416E+03  0.42472632416E+03  0.00000000000E+00 0. -1.
         23    2    1    2    0    0  0.19431404765E+02 -0.12125429817E+03 -0.20932241857E+03  0.25910553175E+03  0.90772338017E+02 0.  0.
         23    2    1    2    0    0 -0.19431404765E+02  0.12125429817E+03 -0.15968192356E+03  0.22134277444E+03  0.91728527579E+02 0.  0.
          5    1    3    3  502    0  0.28332040535E+02 -0.58662441799E+01 -0.15111755525E+02  0.32978364069E+02  0.47000000000E+01 0.  1.
         -5    1    3    3    0  502 -0.89006357695E+01 -0.11538805399E+03 -0.19421066305E+03  0.22612716768E+03  0.47000000000E+01 0. -1.
          5    1    4    4  503    0  0.97304414512E+01  0.20835929674E+02 -0.95983846336E+02  0.98811974040E+02  0.47000000000E+01 0. -1.
         -5    1    4    4    0  503 -0.29161846216E+02  0.10041836849E+03 -0.63698077220E+02  0.12253080040E+03  0.47000000000E+01 0.  1.
<mgrwt>
<rscale>  0 0.15313575E+03</rscale>
<asrwt>0</asrwt>
<pdfrwt beam="1">  1        2 0.85726128E-02 0.15327853E+03</pdfrwt>
<pdfrwt beam="2">  1       -2 0.65342510E-01 0.15327853E+03</pdfrwt>
<totfact> 0.16749667E+03</totfact>
</mgrwt>
</event>
<event>
 8    1  0.8174053E-004  0.9574151E+02  0.7546771E-02  0.1289763E+00
         -1   -1    0    0    0  501 -0.00000000000E+00  0.00000000000E+00  0.20367950348E+03  0.20367950348E+03  0.00000000000E+00 0.  1.
          1   -1    0    0  501    0  0.00000000000E+00 -0.00000000000E+00 -0.88146693133E+02  0.88146693133E+02  0.00000000000E+00 0. -1.
         23    2    1    2    0    0  0.23740843487E+02 -0.19433994908E+02  0.16002507388E+03  0.18625158667E+03  0.90223730035E+02 0.  0.
         23    2    1    2    0    0 -0.23740843487E+02  0.19433994908E+02 -0.44492263525E+02  0.10557460994E+03  0.90692496624E+02 0.  0.
          5    1    3    3  502    0 -0.10211865668E+01 -0.49699401418E+02  0.56040912485E+02  0.75058291983E+02  0.47000000000E+01 0. -1.
         -5    1    4    4    0  503  0.22125235549E+02  0.37196664510E+02 -0.82762594765E+01  0.44313704085E+02  0.47000000000E+01 0.  1.
          5    1    4    4  503    0 -0.45866079036E+02 -0.17762669602E+02 -0.36216004049E+02  0.61260905860E+02  0.47000000000E+01 0. -1.
         -5    1    3    3    0  502  0.24762030054E+02  0.30265406510E+02  0.10398416139E+03  0.11119329469E+03  0.47000000000E+01 0.  1.
<mgrwt>
<rscale>  0 0.95630335E+02</rscale>
<asrwt>0</asrwt>
<pdfrwt beam="1">  1        1 0.13561030E-01 0.95741510E+02</pdfrwt>
<pdfrwt beam="2">  1       -1 0.31335308E-01 0.95741510E+02</pdfrwt>
<totfact> 0.37923389E+03</totfact>
</mgrwt>
</event>
<event>
 8    1  0.8174053E-004  0.1030670E+03  0.7546771E-02  0.1274807E+00
         -1   -1    0    0    0  501 -0.00000000000E+00  0.00000000000E+00  0.80487700327E+02  0.80487700327E+02  0.00000000000E+00 0.  1.
          1   -1    0    0  501    0  0.00000000000E+00 -0.00000000000E+00 -0.22454008464E+03  0.22454008464E+03  0.00000000000E+00 0. -1.
         23    2    1    2    0    0 -0.12454459486E+02  0.44180168479E+02  0.26654620038E+02  0.10645788055E+03  0.92281150373E+02 0.  0.
         23    2    1    2    0    0  0.12454459486E+02 -0.44180168479E+02 -0.17070700435E+03  0.19856990442E+03  0.90455098018E+02 0.  0.
          5    1    4    4  502    0  0.22149706954E+02  0.18704693026E+02 -0.21817871147E+02  0.36586671900E+02  0.47000000000E+01 0. -1.
         -5    1    4    4    0  502 -0.96952474676E+01 -0.62884861506E+02 -0.14888913321E+03  0.16198323252E+03  0.47000000000E+01 0.  1.
          5    1    3    3  503    0  0.25206488001E+02  0.50059238762E+02 -0.53051507214E+01  0.56493619524E+02  0.47000000000E+01 0. -1.
         -5    1    3    3    0  503 -0.37660947487E+02 -0.58790702830E+01  0.31959770759E+02  0.49964261027E+02  0.47000000000E+01 0.  1.
<mgrwt>
<rscale>  0 0.10265666E+03</rscale>
<asrwt>0</asrwt>
<pdfrwt beam="1">  1        1 0.34544627E-01 0.10306702E+03</pdfrwt>
<pdfrwt beam="2">  1       -1 0.12382724E-01 0.10306702E+03</pdfrwt>
<totfact> 0.51827241E+03</totfact>
</mgrwt>
</event>
<event>
 8    1  0.8174053E-004  0.1026926E+03  0.7546771E-02  0.1276986E+00
         -3   -1    0    0    0  501 -0.00000000000E+00  0.00000000000E+00  0.39908035711E+03  0.39908035711E+03  0.00000000000E+00 0.  1.
          3   -1    0    0  501    0  0.00000000000E+00 -0.00000000000E+00 -0.30708938737E+02  0.30708938737E+02  0.00000000000E+00 0. -1.
         23    2    1    2    0    0  0.33876480400E+02 -0.26729922817E+02  0.27090472248E+03  0.28820704517E+03  0.88384543480E+02 0.  0.
         23    2    1    2    0    0 -0.33876480400E+02  0.26729922817E+02  0.97466695890E+02  0.14158225067E+03  0.93186223231E+02 0.  0.
          5    1    3    3  502    0 -0.12165356469E+02 -0.27951126583E+02  0.30473074873E+02  0.43358501675E+02  0.47000000000E+01 0. -1.
         -5    1    3    3    0  502  0.46041836869E+02  0.12212037667E+01  0.24043164761E+03  0.24484854350E+03  0.47000000000E+01 0.  1.
          5    1    4    4  503    0 -0.39798473701E+02 -0.10790535347E+02  0.53692893183E+01  0.41848218956E+02  0.47000000000E+01 0. -1.
         -5    1    4    4    0  503  0.59219933010E+01  0.37520458163E+02  0.92097406572E+02  0.99734031718E+02  0.47000000000E+01 0.  1.
<mgrwt>
<rscale>  0 0.10159091E+03</rscale>
<asrwt>0</asrwt>
<pdfrwt beam="1">  1        3 0.47244524E-02 0.10269263E+03</pdfrwt>
<pdfrwt beam="2">  1       -3 0.61396975E-01 0.10269263E+03</pdfrwt>
<totfact> 0.14328358E+03</totfact>
</mgrwt>
</event>
<event>
 8    1  0.8174053E-004  0.1092217E+03  0.7546771E-02  0.1271721E+00
         -2   -1    0    0    0  501 -0.00000000000E+00  0.00000000000E+00  0.11053324326E+03  0.11053324326E+03  0.00000000000E+00 0.  1.
          2   -1    0    0  501    0  0.00000000000E+00 -0.00000000000E+00 -0.14304279226E+03  0.14304279226E+03  0.00000000000E+00 0. -1.
         23    2    1    2    0    0 -0.23175658060E+01  0.93743860485E+01 -0.92157815660E+02  0.12912808010E+03  0.89931906785E+02 0.  0.
         23    2    1    2    0    0  0.23175658060E+01 -0.93743860485E+01  0.59648266658E+02  0.12444795543E+03  0.10879396890E+03 0.  0.
          5    1    4    4  502    0  0.35950398761E+02 -0.27411013167E+02 -0.84619606346E+01  0.46232992458E+02  0.47000000000E+01 0. -1.
         -5    1    3    3    0  503  0.14109237198E+02 -0.36814604101E+02 -0.29668286890E+02  0.49564936159E+02  0.47000000000E+01 0.  1.
          5    1    3    3  503    0 -0.16426803004E+02  0.46188990149E+02 -0.62489528770E+02  0.79563143941E+02  0.47000000000E+01 0. -1.
         -5    1    4    4    0  502 -0.33632832955E+02  0.18036627118E+02  0.68110227293E+02  0.78214962969E+02  0.47000000000E+01 0.  1.
<mgrwt>
<rscale>  0 0.10419154E+03</rscale>
<asrwt>0</asrwt>
<pdfrwt beam="1">  1        2 0.22006583E-01 0.10922169E+03</pdfrwt>
<pdfrwt beam="2">  1       -2 0.17005114E-01 0.10922169E+03</pdfrwt>
<totfact> 0.64448226E+03</totfact>
</mgrwt>
</event>
<event>
 8    1  0.8174053E-004  0.1914920E+03  0.7546771E-02  0.1157561E+00
         -3   -1    0    0    0  501 -0.00000000000E+00  0.00000000000E+00  0.14595859857E+03  0.14595859857E+03  0.00000000000E+00 0.  1.
          3   -1    0    0  501    0  0.00000000000E+00 -0.00000000000E+00 -0.31068519738E+03  0.31068519738E+03  0.00000000000E+00 0. -1.
         23    2    1    2    0    0  0.16313134720E+03 -0.34838866736E+02 -0.18402956464E+03  0.26418132594E+03  0.89996162342E+02 0.  0.
         23    2    1    2    0    0 -0.16313134720E+03  0.34838866736E+02  0.19302965828E+02  0.19246247001E+03  0.94040495518E+02 0.  0.
          5    1    3    3  502    0  0.11974756804E+03  0.79800747877E+01 -0.82653980822E+02  0.14579757265E+03  0.47000000000E+01 0. -1.
         -5    1    4    4    0  503 -0.14108457784E+03 -0.69358048175E+01  0.28326323358E+02  0.14414379656E+03  0.47000000000E+01 0.  1.
          5    1    4    4  503    0 -0.22046769365E+02  0.41774671553E+02 -0.90233575301E+01  0.48318673450E+02  0.47000000000E+01 0. -1.
         -5    1    3    3    0  502  0.43383779163E+02 -0.42818941524E+02 -0.10137558382E+03  0.11838375329E+03  0.47000000000E+01 0.  1.
<mgrwt>
<rscale>  0 0.19100180E+03</rscale>
<asrwt>0</asrwt>
<pdfrwt beam="1">  1        3 0.47797722E-01 0.19149203E+03</pdfrwt>
<pdfrwt beam="2">  1       -3 0.22455169E-01 0.19149203E+03</pdfrwt>
<totfact> 0.19407293E+02</totfact>
</mgrwt>
</event>
<event>
 8    1  0.8174053E-004  0.1038493E+03  0.7546771E-02  0.1272516E+00
         -1   -1    0    0    0  501 -0.00000000000E+00  0.00000000000E+00  0.11914118852E+03  0.11914118852E+03  0.00000000000E+00 0.  1.
          1   -1    0    0  501    0  0.00000000000E+00 -0.00000000000E+00 -0.94156848599E+02  0.94156848599E+02  0.00000000000E+00 0. -1.
         23    2    1    2    0    0  0.48827892789E+02 -0.12511639027E+01 -0.90109270033E+01  0.10423951016E+03  0.91645786308E+02 0.  0.
         23    2    1    2    0    0 -0.48827892789E+02  0.12511639027E+01  0.33995266923E+02  0.10905852695E+03  0.91391222789E+02 0.  0.
          5    1    3    3  502    0  0.59482476654E+02  0.23990868878E+02 -0.28445964416E+02  0.70320620802E+02  0.47000000000E+01 0. -1.
         -5    1    3    3    0  502 -0.10654583864E+02 -0.25242032781E+02  0.19435037413E+02  0.33918889361E+02  0.47000000000E+01 0.  1.
          5    1    4    4  503    0 -0.26355152343E+02  0.10444174233E+02 -0.29338648116E+02  0.41067275338E+02  0.47000000000E+01 0. -1.
         -5    1    4    4    0  503 -0.22472740446E+02 -0.91930103303E+01  0.63333915039E+02  0.67991251616E+02  0.47000000000E+01 0.  1.
<mgrwt>
<rscale>  0 0.10379312E+03</rscale>
<asrwt>0</asrwt>
<pdfrwt beam="1">  1        1 0.14485669E-01 0.10384931E+03</pdfrwt>
<pdfrwt beam="2">  1       -1 0.18329414E-01 0.10384931E+03</pdfrwt>
<totfact> 0.83727901E+03</totfact>
</mgrwt>
</event>
<event>
 8    1  0.8174053E-004  0.9944540E+02  0.7546771E-02  0.1281758E+00
         -2   -1    0    0    0  501 -0.00000000000E+00  0.00000000000E+00  0.49792603063E+03  0.49792603063E+03  0.00000000000E+00 0.  1.
          2   -1    0    0  501    0  0.00000000000E+00 -0.00000000000E+00 -0.19857552320E+02  0.19857552320E+02  0.00000000000E+00 0. -1.
         23    2    1    2    0    0 -0.24311074616E+02 -0.27239093305E+02  0.21948399863E+03  0.24073607749E+03  0.91911026520E+02 0.  0.
         23    2    1    2    0    0  0.24311074616E+02  0.27239093305E+02  0.25858447968E+03  0.27704750546E+03  0.92500759991E+02 0.  0.
          5    1    4    4  502    0  0.43158503625E+02  0.40922961853E+02  0.98128330050E+02  0.11484164924E+03  0.47000000000E+01 0. -1.
         -5    1    3    3    0  503 -0.53860518239E+02 -0.37703188078E+02  0.12906410948E+03  0.14492108257E+03  0.47000000000E+01 0.  1.
          5    1    3    3  503    0  0.29549443623E+02  0.10464094772E+02  0.90419889146E+02  0.95814994917E+02  0.47000000000E+01 0. -1.
         -5    1    4    4    0  502 -0.18847429009E+02 -0.13683868547E+02  0.16045614963E+03  0.16220585622E+03  0.47000000000E+01 0.  1.
<mgrwt>
<rscale>  0 0.99308035E+02</rscale>
<asrwt>0</asrwt>
<pdfrwt beam="1">  1        2 0.30550084E-02 0.99445398E+02</pdfrwt>
<pdfrwt beam="2">  1       -2 0.76603995E-01 0.99445398E+02</pdfrwt>
<totfact> 0.44172994E+03</totfact>
</mgrwt>
</event>
<event>
 8    1  0.8174053E-004  0.9221397E+02  0.7546771E-02  0.1299106E+00
          1   -1    0    0  501    0  0.00000000000E+00  0.00000000000E+00  0.13364683195E+03  0.13364683195E+03  0.00000000000E+00 0. -1.
         -1   -1    0    0    0  501 -0.00000000000E+00 -0.00000000000E+00 -0.79569030721E+02  0.79569030721E+02  0.00000000000E+00 0.  1.
         23    2    1    2    0    0 -0.11902152583E+02  0.56723466403E+00 -0.23540521299E+02  0.92683625537E+02  0.88848834030E+02 0.  0.
         23    2    1    2    0    0  0.11902152583E+02 -0.56723466403E+00  0.77618322531E+02  0.12053223714E+03  0.91440872729E+02 0.  0.
          5    1    3    3  502    0  0.37191886259E+01 -0.40764514110E+02  0.23263817024E+01  0.41268390161E+02  0.47000000000E+01 0. -1.
         -5    1    4    4    0  503  0.43871542871E+02  0.19539652109E+02  0.21745110661E+02  0.52928726756E+02  0.47000000000E+01 0.  1.
          5    1    4    4  503    0 -0.31969390288E+02 -0.20106886773E+02  0.55873211870E+02  0.67603510381E+02  0.47000000000E+01 0. -1.
         -5    1    3    3    0  502 -0.15621341209E+02  0.41331748774E+02 -0.25866903002E+02  0.51415235376E+02  0.47000000000E+01 0.  1.
<mgrwt>
<rscale>  0 0.91564725E+02</rscale>
<asrwt>0</asrwt>
<pdfrwt beam="1">  1        1 0.20561051E-01 0.92213970E+02</pdfrwt>
<pdfrwt beam="2">  1       -1 0.12241389E-01 0.92213970E+02</pdfrwt>
<totfact> 0.99435394E+03</totfact>
</mgrwt>
</event>
<event>
 8    1  0.8174053E-004  0.1135842E+03  0.7546771E-02  0.1255680E+00
         -1   -1    0    0    0  501 -0.00000000000E+00  0.00000000000E+00  0.22595065219E+03  0.22595065219E+03  0.00000000000E+00 0.  1.
          1   -1    0    0  501    0  0.00000000000E+00 -0.00000000000E+00 -0.11377865822E+03  0.11377865822E+03  0.00000000000E+00 0. -1.
         23    2    1    2    0    0  0.56521008481E+02  0.21326512900E+02 -0.65228274787E+02  0.13098130788E+03  0.96186956657E+02 0.  0.
         23    2    1    2    0    0 -0.56521008481E+02 -0.21326512900E+02  0.17740026875E+03  0.20874800253E+03  0.91953404806E+02 0.  0.
          5    1    4    4  502    0 -0.37858312183E+02  0.60461148656E+01  0.17019110623E+03  0.17451908189E+03  0.47000000000E+01 0.  1.
         -5    1    3    3    0  503 -0.13491753687E+02  0.36589253660E+02 -0.10402741467E+02  0.40633827422E+02  0.47000000000E+01 0.  1.
          5    1    3    3  503    0  0.70012762168E+02 -0.15262740760E+02 -0.54825533320E+02  0.90347480461E+02  0.47000000000E+01 0. -1.
         -5    1    4    4    0  502 -0.18662696298E+02 -0.27372627765E+02  0.72091625287E+01  0.34228920641E+02  0.47000000000E+01 0. -1.
<mgrwt>
<rscale>  0 0.11268303E+03</rscale>
<asrwt>0</asrwt>
<pdfrwt beam="1">  1        1 0.17504409E-01 0.11358422E+03</pdfrwt>
<pdfrwt beam="2">  1       -1 0.34761639E-01 0.11358422E+03</pdfrwt>
<totfact> 0.23165744E+03</totfact>
</mgrwt>
</event>
<event>
 8    1  0.8174053E-004  0.1359814E+03  0.7546771E-02  0.1220940E+00
          1   -1    0    0  501    0  0.00000000000E+00  0.00000000000E+00  0.42295885687E+03  0.42295885687E+03  0.00000000000E+00 0. -1.
         -1   -1    0    0    0  501 -0.00000000000E+00 -0.00000000000E+00 -0.45311515575E+02  0.45311515575E+02  0.00000000000E+00 0.  1.
         23    2    1    2    0    0 -0.53662136692E+02 -0.78383081998E+02  0.12030702316E+03  0.17721200662E+03  0.88920093398E+02 0.  0.
         23    2    1    2    0    0  0.53662136692E+02  0.78383081998E+02  0.25734031814E+03  0.29105836583E+03  0.97300567943E+02 0.  0.
          5    1    3    3  502    0 -0.13057245998E+02  0.19355089550E+02  0.17188917286E+02  0.29371074921E+02  0.47000000000E+01 0. -1.
         -5    1    3    3    0  502 -0.40604890694E+02 -0.97738171549E+02  0.10311810587E+03  0.14784093170E+03  0.47000000000E+01 0.  1.
          5    1    4    4  503    0  0.51085927706E+02  0.53914995055E+02  0.25530102854E+03  0.26592725297E+03  0.47000000000E+01 0. -1.
         -5    1    4    4    0  503  0.25762089857E+01  0.24468086944E+02  0.20392896029E+01  0.25131112858E+02  0.47000000000E+01 0.  1.
<mgrwt>
<rscale>  0 0.13449084E+03</rscale>
<asrwt>0</asrwt>
<pdfrwt beam="1">  1        1 0.65070591E-01 0.13598137E+03</pdfrwt>
<pdfrwt beam="2">  1       -1 0.69710027E-02 0.13598137E+03</pdfrwt>
<totfact> 0.57500563E+03</totfact>
</mgrwt>
</event>
<event>
 8    1  0.8174053E-004  0.1357155E+03  0.7546771E-02  0.1220061E+00
          4   -1    0    0  501    0  0.00000000000E+00  0.00000000000E+00  0.76784137297E+02  0.76784137297E+02  0.00000000000E+00 0. -1.
         -4   -1    0    0    0  501 -0.00000000000E+00 -0.00000000000E+00 -0.24605970079E+03  0.24605970079E+03  0.00000000000E+00 0.  1.
         23    2    1    2    0    0 -0.40705219371E+02  0.86508976470E+02 -0.52174659829E+02  0.14539910090E+03  0.96322300220E+02 0.  0.
         23    2    1    2    0    0  0.40705219371E+02 -0.86508976470E+02 -0.11710090366E+03  0.17744473718E+03  0.92915527350E+02 0.  0.
          5    1    3    3  502    0 -0.16700061748E+02  0.10347463860E+03 -0.32986639635E+02  0.10998227717E+03  0.47000000000E+01 0. -1.
         -5    1    3    3    0  502 -0.24005157623E+02 -0.16965662134E+02 -0.19188020195E+02  0.35416823730E+02  0.47000000000E+01 0.  1.
          5    1    4    4  503    0 -0.19041613360E+02 -0.67673160240E+02 -0.59745812521E+02  0.92379065648E+02  0.47000000000E+01 0. -1.
         -5    1    4    4    0  503  0.59746832731E+02 -0.18835816230E+02 -0.57355091139E+02  0.85065671537E+02  0.47000000000E+01 0.  1.
<mgrwt>
<rscale>  0 0.13511244E+03</rscale>
<asrwt>0</asrwt>
<pdfrwt beam="1">  1        4 0.11812944E-01 0.13571552E+03</pdfrwt>
<pdfrwt beam="2">  1       -4 0.37855338E-01 0.13571552E+03</pdfrwt>
<totfact> 0.64121899E+02</totfact>
</mgrwt>
</event>
<event>
 8    1  0.8174053E-004  0.1113039E+03  0.7546771E-02  0.1262389E+00
          2   -1    0    0  501    0  0.00000000000E+00  0.00000000000E+00  0.17376494382E+03  0.17376494382E+03  0.00000000000E+00 0. -1.
         -2   -1    0    0    0  501 -0.00000000000E+00 -0.00000000000E+00 -0.68828810682E+02  0.68828810682E+02  0.00000000000E+00 0.  1.
         23    2    1    2    0    0 -0.34729971893E+02 -0.22916614454E+02  0.24724269207E+02  0.10539861889E+03  0.93628185985E+02 0.  0.
         23    2    1    2    0    0  0.34729971893E+02  0.22916614454E+02  0.80211863930E+02  0.13719513561E+03  0.10323381207E+03 0.  0.
          5    1    3    3  502    0 -0.24542651769E+02  0.24695167834E+02  0.40862885015E+02  0.53889316585E+02  0.47000000000E+01 0. -1.
         -5    1    3    3    0  502 -0.10187320124E+02 -0.47611782288E+02 -0.16138615809E+02  0.51509302307E+02  0.47000000000E+01 0.  1.
          5    1    4    4  503    0  0.49644460385E+02  0.55768643903E+02  0.56777556537E+02  0.93917490469E+02  0.47000000000E+01 0. -1.
         -5    1    4    4    0  503 -0.14914488491E+02 -0.32852029449E+02  0.23434307393E+02  0.43277645140E+02  0.47000000000E+01 0.  1.
<mgrwt>
<rscale>  0 0.10902321E+03</rscale>
<asrwt>0</asrwt>
<pdfrwt beam="1">  1        2 0.26733068E-01 0.11130392E+03</pdfrwt>
<pdfrwt beam="2">  1       -2 0.10589048E-01 0.11130392E+03</pdfrwt>
<totfact> 0.11159799E+04</totfact>
</mgrwt>
</event>
<event>
 8    1  0.8174053E-004  0.3338427E+03  0.7546771E-02  0.1069450E+00
         -1   -1    0    0    0  501 -0.00000000000E+00  0.00000000000E+00  0.61860309416E+03  0.61860309416E+03  0.00000000000E+00 0.  1.
          1   -1    0    0  501    0  0.00000000000E+00 -0.00000000000E+00 -0.18098657366E+03  0.18098657366E+03  0.00000000000E+00 0. -1.
         23    2    1    2    0    0  0.26537993374E+03  0.18100427769E+03  0.24583766459E+03  0.41458305925E+03  0.90850965372E+02 0.  0.
         23    2    1    2    0    0 -0.26537993374E+03 -0.18100427769E+03  0.19177885591E+03  0.38500660857E+03  0.90895001484E+02 0.  0.
          5    1    4    4  502    0 -0.21451289735E+03 -0.13091467019E+03  0.10464140096E+03  0.27226154116E+03  0.47000000000E+01 0. -1.
         -5    1    3    3    0  503  0.16621372166E+03  0.16188115158E+03  0.15904034003E+03  0.28133330457E+03  0.47000000000E+01 0.  1.
          5    1    3    3  503    0  0.99166212084E+02  0.19123126119E+02  0.86797324561E+02  0.13324975468E+03  0.47000000000E+01 0. -1.
         -5    1    4    4    0  502 -0.50867036395E+02 -0.50089607508E+02  0.87137454945E+02  0.11274506741E+03  0.47000000000E+01 0.  1.
<mgrwt>
<rscale>  0 0.33383972E+03</rscale>
<asrwt>0</asrwt>
<pdfrwt beam="1">  1        1 0.27844089E-01 0.33384272E+03</pdfrwt>
<pdfrwt beam="2">  1       -1 0.95169705E-01 0.33384272E+03</pdfrwt>
<totfact> 0.18755154E+02</totfact>
</mgrwt>
</event>
<event>
 8    1  0.8174053E-004  0.9336815E+02  0.7546771E-02  0.1296549E+00
         -1   -1    0    0    0  501 -0.00000000000E+00  0.00000000000E+00  0.15801480849E+02  0.15801480849E+02  0.00000000000E+00 0.  1.
          1   -1    0    0  501    0  0.00000000000E+00 -0.00000000000E+00 -0.62758095455E+03  0.62758095455E+03  0.00000000000E+00 0. -1.
         23    2    1    2    0    0  0.19710286667E+02  0.90517372826E+01 -0.43334541605E+03  0.44328981707E+03  0.90814002031E+02 0.  0.
         23    2    1    2    0    0 -0.19710286667E+02 -0.90517372826E+01 -0.17843405766E+03  0.20009261833E+03  0.87908552649E+02 0.  0.
          5    1    3    3  502    0  0.73276027098E+01  0.44104075031E+02 -0.33578377001E+03  0.33877971220E+03  0.47000000000E+01 0. -1.
         -5    1    3    3    0  502  0.12382683957E+02 -0.35052337749E+02 -0.97561646039E+02  0.10451010488E+03  0.47000000000E+01 0.  1.
          5    1    4    4  503    0  0.19780124980E+02  0.17309611458E+02 -0.12764306940E+03  0.13040597824E+03  0.47000000000E+01 0. -1.
         -5    1    4    4    0  503 -0.39490411647E+02 -0.26361348741E+02 -0.50790988254E+02  0.69686640092E+02  0.47000000000E+01 0.  1.
<mgrwt>
<rscale>  0 0.92654143E+02</rscale>
<asrwt>0</asrwt>
<pdfrwt beam="1">  1        1 0.96550907E-01 0.93368155E+02</pdfrwt>
<pdfrwt beam="2">  1       -1 0.24309973E-02 0.93368155E+02</pdfrwt>
<totfact> 0.15610012E+04</totfact>
</mgrwt>
</event>
<event>
 8    1  0.8174053E-004  0.9324557E+02  0.7546771E-02  0.1295629E+00
          2   -1    0    0  501    0  0.00000000000E+00  0.00000000000E+00  0.77844025663E+03  0.77844025663E+03  0.00000000000E+00 0. -1.
         -2   -1    0    0    0  501 -0.00000000000E+00 -0.00000000000E+00 -0.20848870448E+02  0.20848870448E+02  0.00000000000E+00 0.  1.
         23    2    1    2    0    0 -0.58534121551E+01  0.11195501390E+02  0.10434090966E+03  0.13941723002E+03  0.91599873983E+02 0.  0.
         23    2    1    2    0    0  0.58534121551E+01 -0.11195501390E+02  0.65325047653E+03  0.65987189706E+03  0.92385787647E+02 0.  0.
          5    1    3    3  502    0 -0.37834511624E+02 -0.14703400789E+02  0.83693358381E+02  0.93135967819E+02  0.47000000000E+01 0. -1.
         -5    1    4    4    0  503  0.14839941242E+02  0.37765592524E+02  0.36936351856E+03  0.37161534236E+03  0.47000000000E+01 0.  1.
          5    1    4    4  503    0 -0.89865290868E+01 -0.48961093915E+02  0.28388695797E+03  0.28825655470E+03  0.47000000000E+01 0. -1.
         -5    1    3    3    0  502  0.31981099469E+02  0.25898902180E+02  0.20647551277E+02  0.46281262203E+02  0.47000000000E+01 0.  1.
<mgrwt>
<rscale>  0 0.93050301E+02</rscale>
<asrwt>0</asrwt>
<pdfrwt beam="1">  1        2 0.11976002E+00 0.93245565E+02</pdfrwt>
<pdfrwt beam="2">  1       -2 0.32075191E-02 0.93245565E+02</pdfrwt>
<totfact> 0.13072386E+04</totfact>
</mgrwt>
</event>
<event>
 8    1  0.8174053E-004  0.1224347E+03  0.7546771E-02  0.1240268E+00
         -1   -1    0    0    0  501 -0.00000000000E+00  0.00000000000E+00  0.13829668945E+03  0.13829668945E+03  0.00000000000E+00 0.  1.
          1   -1    0    0  501    0  0.00000000000E+00 -0.00000000000E+00 -0.16320137027E+03  0.16320137027E+03  0.00000000000E+00 0. -1.
         23    2    1    2    0    0 -0.13443742706E+02  0.81717290425E+02  0.76934359962E+02  0.14224528986E+03  0.86350315407E+02 0.  0.
         23    2    1    2    0    0  0.13443742706E+02 -0.81717290425E+02 -0.10183904079E+03  0.15925276986E+03  0.90176519716E+02 0.  0.
          5    1    3    3  502    0  0.36448882443E+02  0.28468572972E+02  0.28216981926E+02  0.54380775531E+02  0.47000000000E+01 0. -1.
         -5    1    4    4    0  503 -0.17211687120E+02 -0.17106602254E+02  0.97995293452E+01  0.26589448839E+02  0.47000000000E+01 0.  1.
          5    1    4    4  503    0  0.30655429826E+02 -0.64610688171E+02 -0.11163857013E+03  0.13266332102E+03  0.47000000000E+01 0. -1.
         -5    1    3    3    0  502 -0.49892625149E+02  0.53248717453E+02  0.48717378036E+02  0.87864514324E+02  0.47000000000E+01 0.  1.
<mgrwt>
<rscale>  0 0.12173113E+03</rscale>
<asrwt>0</asrwt>
<pdfrwt beam="1">  1        1 0.25107903E-01 0.12243469E+03</pdfrwt>
<pdfrwt beam="2">  1       -1 0.21276414E-01 0.12243469E+03</pdfrwt>
<totfact> 0.33229099E+03</totfact>
</mgrwt>
</event>
<event>
 8    1  0.8174053E-004  0.9709239E+02  0.7546771E-02  0.1287708E+00
         -1   -1    0    0    0  501 -0.00000000000E+00  0.00000000000E+00  0.96963234549E+02  0.96963234549E+02  0.00000000000E+00 0.  1.
          1   -1    0    0  501    0  0.00000000000E+00 -0.00000000000E+00 -0.15711078285E+03  0.15711078285E+03  0.00000000000E+00 0. -1.
         23    2    1    2    0    0  0.64929880684E+00 -0.28105230230E+02 -0.11007910308E+03  0.14677990732E+03  0.92933345492E+02 0.  0.
         23    2    1    2    0    0 -0.64929880684E+00  0.28105230230E+02  0.49931554773E+02  0.10729411008E+03  0.90711302164E+02 0.  0.
          5    1    4    4  502    0  0.81959428679E+01  0.60408630434E+02  0.32622002503E+02  0.69301234893E+02  0.47000000000E+01 0. -1.
         -5    1    3    3    0  503  0.20275562353E+00 -0.51173228344E+02 -0.11192795526E+03  0.12316126655E+03  0.47000000000E+01 0.  1.
          5    1    3    3  503    0  0.44654318331E+00  0.23067998114E+02  0.18488521802E+01  0.23618640778E+02  0.47000000000E+01 0. -1.
         -5    1    4    4    0  502 -0.88452416747E+01 -0.32303400205E+02  0.17309552270E+02  0.37992875185E+02  0.47000000000E+01 0.  1.
<mgrwt>
<rscale>  0 0.96556805E+02</rscale>
<asrwt>0</asrwt>
<pdfrwt beam="1">  1        1 0.24170890E-01 0.97092390E+02</pdfrwt>
<pdfrwt beam="2">  1       -1 0.14917421E-01 0.97092390E+02</pdfrwt>
<totfact> 0.60168601E+03</totfact>
</mgrwt>
</event>
<event>
 8    1  0.8174053E-004  0.9542899E+02  0.7546771E-02  0.1290362E+00
          1   -1    0    0  501    0  0.00000000000E+00  0.00000000000E+00  0.68755103108E+03  0.68755103108E+03  0.00000000000E+00 0. -1.
         -1   -1    0    0    0  501 -0.00000000000E+00 -0.00000000000E+00 -0.15871024327E+02  0.15871024327E+02  0.00000000000E+00 0.  1.
         23    2    1    2    0    0  0.31005434325E+02  0.50567058645E+01  0.19138710401E+03  0.21374056235E+03  0.89828153605E+02 0.  0.
         23    2    1    2    0    0 -0.31005434325E+02 -0.50567058645E+01  0.48029290275E+03  0.48968149306E+03  0.90109849548E+02 0.  0.
          5    1    3    3  502    0 -0.22365129171E+02 -0.24833652286E+02  0.71677564615E+02  0.79225453977E+02  0.47000000000E+01 0.  1.
         -5    1    4    4    0  503  0.20831122451E+02 -0.28283905346E+02  0.12834263263E+03  0.13314592114E+03  0.47000000000E+01 0.  1.
          5    1    4    4  503    0 -0.51836556776E+02  0.23227199481E+02  0.35195027011E+03  0.35653557192E+03  0.47000000000E+01 0. -1.
         -5    1    3    3    0  502  0.53370563497E+02  0.29890358150E+02  0.11970953939E+03  0.13451510837E+03  0.47000000000E+01 0. -1.
<mgrwt>
<rscale>  0 0.95362434E+02</rscale>
<asrwt>0</asrwt>
<pdfrwt beam="1">  1        1 0.10577706E+00 0.95428990E+02</pdfrwt>
<pdfrwt beam="2">  1       -1 0.24416966E-02 0.95428990E+02</pdfrwt>
<totfact> 0.13702997E+04</totfact>
</mgrwt>
</event>
<event>
 8    1  0.8174053E-004  0.1126708E+03  0.7546771E-02  0.1258705E+00
          2   -1    0    0  501    0  0.00000000000E+00  0.00000000000E+00  0.84747878230E+03  0.84747878230E+03  0.00000000000E+00 0. -1.
         -2   -1    0    0    0  501 -0.00000000000E+00 -0.00000000000E+00 -0.27348865273E+02  0.27348865273E+02  0.00000000000E+00 0.  1.
         23    2    1    2    0    0  0.56103407514E+02  0.24875701994E+01  0.11230401950E+03  0.15908144434E+03  0.97677698570E+02 0.  0.
         23    2    1    2    0    0 -0.56103407514E+02 -0.24875701994E+01  0.70782589752E+03  0.71574620322E+03  0.90118510250E+02 0.  0.
          5    1    3    3  502    0 -0.24255818253E+01  0.38362905416E+02  0.18964403965E+02  0.43120002051E+02  0.47000000000E+01 0. -1.
         -5    1    4    4    0  503  0.20829031834E+02 -0.53544933140E+01  0.72859245533E+02  0.76112277758E+02  0.47000000000E+01 0.  1.
          5    1    4    4  503    0 -0.76932439349E+02  0.28669231146E+01  0.63496665199E+03  0.63963392547E+03  0.47000000000E+01 0. -1.
         -5    1    3    3    0  502  0.58528989340E+02 -0.35875335216E+02  0.93339615537E+02  0.11596144229E+03  0.47000000000E+01 0.  1.
<mgrwt>
<rscale>  0 0.11101298E+03</rscale>
<asrwt>0</asrwt>
<pdfrwt beam="1">  1        2 0.13038133E+00 0.11267082E+03</pdfrwt>
<pdfrwt beam="2">  1       -2 0.42075184E-02 0.11267082E+03</pdfrwt>
<totfact> 0.80000149E+03</totfact>
</mgrwt>
</event>
<event>
 8    1  0.8174053E-004  0.9594011E+02  0.7546771E-02  0.1290300E+00
          1   -1    0    0  501    0  0.00000000000E+00  0.00000000000E+00  0.81180671019E+02  0.81180671019E+02  0.00000000000E+00 0. -1.
         -1   -1    0    0    0  501 -0.00000000000E+00 -0.00000000000E+00 -0.11313860979E+03  0.11313860979E+03  0.00000000000E+00 0.  1.
         23    2    1    2    0    0 -0.14528746873E+01  0.23242522807E+02 -0.30066528909E+02  0.10054104117E+03  0.93070828341E+02 0.  0.
         23    2    1    2    0    0  0.14528746873E+01 -0.23242522807E+02 -0.18914098666E+01  0.93778239640E+02  0.90821005761E+02 0.  0.
          5    1    3    3  502    0  0.38607364863E+02 -0.28893156655E+01 -0.34773369164E+02  0.52250875300E+02  0.47000000000E+01 0. -1.
         -5    1    3    3    0  502 -0.40060239550E+02  0.26131838472E+02  0.47068402548E+01  0.48290165872E+02  0.47000000000E+01 0.  1.
          5    1    4    4  503    0  0.29797069373E+02 -0.55164009972E+01  0.33123558119E+02  0.45139296911E+02  0.47000000000E+01 0. -1.
         -5    1    4    4    0  503 -0.28344194685E+02 -0.17726121810E+02 -0.35014967986E+02  0.48638942729E+02  0.47000000000E+01 0.  1.
<mgrwt>
<rscale>  0 0.95390163E+02</rscale>
<asrwt>0</asrwt>
<pdfrwt beam="1">  1        1 0.12489334E-01 0.95940110E+02</pdfrwt>
<pdfrwt beam="2">  1       -1 0.17405940E-01 0.95940110E+02</pdfrwt>
<totfact> 0.10921844E+04</totfact>
</mgrwt>
</event>
<event>
 8    1  0.8174053E-004  0.9646402E+02  0.7546771E-02  0.1288984E+00
         -1   -1    0    0    0  501 -0.00000000000E+00  0.00000000000E+00  0.48193402915E+02  0.48193402915E+02  0.00000000000E+00 0.  1.
          1   -1    0    0  501    0  0.00000000000E+00 -0.00000000000E+00 -0.20501038413E+03  0.20501038413E+03  0.00000000000E+00 0. -1.
         23    2    1    2    0    0  0.33512823259E+02  0.88108397387E+00 -0.42585290107E+02  0.10369061985E+03  0.88398823970E+02 0.  0.
         23    2    1    2    0    0 -0.33512823259E+02 -0.88108397387E+00 -0.11423169111E+03  0.14951316720E+03  0.90451214916E+02 0.  0.
          5    1    3    3  502    0  0.15435783021E+02  0.32123376249E+02 -0.54589280989E+02  0.65362483872E+02  0.47000000000E+01 0. -1.
         -5    1    4    4    0  503  0.22982823867E+02 -0.71114481876E+01 -0.32397930441E+01  0.24725880110E+02  0.47000000000E+01 0.  1.
          5    1    4    4  503    0 -0.56495647126E+02  0.62303642138E+01 -0.11099189807E+03  0.12478728709E+03  0.47000000000E+01 0. -1.
         -5    1    3    3    0  502  0.18077040238E+02 -0.31242292275E+02  0.12003990882E+02  0.38328135976E+02  0.47000000000E+01 0.  1.
<mgrwt>
<rscale>  0 0.95979950E+02</rscale>
<asrwt>0</asrwt>
<pdfrwt beam="1">  1        1 0.31540059E-01 0.96464024E+02</pdfrwt>
<pdfrwt beam="2">  1       -1 0.74143696E-02 0.96464024E+02</pdfrwt>
<totfact> 0.12510471E+04</totfact>
</mgrwt>
</event>
<event>
 8    1  0.8174053E-004  0.2795868E+03  0.7546771E-02  0.1096079E+00
          2   -1    0    0  501    0  0.00000000000E+00  0.00000000000E+00  0.14085302328E+03  0.14085302328E+03  0.00000000000E+00 0. -1.
         -2   -1    0    0    0  501 -0.00000000000E+00 -0.00000000000E+00 -0.93418405648E+03  0.93418405648E+03  0.00000000000E+00 0.  1.
         23    2    1    2    0    0  0.14236337193E+03 -0.22272420138E+03 -0.53631245838E+02  0.28468418219E+03  0.91078941082E+02 0.  0.
         23    2    1    2    0    0 -0.14236337193E+03  0.22272420138E+03 -0.73969978736E+03  0.79035289757E+03  0.87341443414E+02 0.  0.
          5    1    3    3  502    0  0.14689512956E+03 -0.16708704901E+03 -0.32869579898E+02  0.22494168204E+03  0.47000000000E+01 0. -1.
         -5    1    4    4    0  503 -0.35561972315E+02  0.13386274783E+03 -0.33950030791E+03  0.36669665693E+03  0.47000000000E+01 0.  1.
          5    1    4    4  503    0 -0.10680139961E+03  0.88861453550E+02 -0.40019947945E+03  0.42365624064E+03  0.47000000000E+01 0. -1.
         -5    1    3    3    0  502 -0.45317576319E+01 -0.55637152372E+02 -0.20761665940E+02  0.59742500148E+02  0.47000000000E+01 0.  1.
<mgrwt>
<rscale>  0 0.27928753E+03</rscale>
<asrwt>0</asrwt>
<pdfrwt beam="1">  1        2 0.21669696E-01 0.27958679E+03</pdfrwt>
<pdfrwt beam="2">  1       -2 0.14372062E+00 0.27958679E+03</pdfrwt>
<totfact> 0.89997442E+01</totfact>
</mgrwt>
</event>
<event>
 8    1  0.8174053E-004  0.1139419E+03  0.7546771E-02  0.1253971E+00
         -1   -1    0    0    0  501 -0.00000000000E+00  0.00000000000E+00  0.96318365444E+02  0.96318365444E+02  0.00000000000E+00 0.  1.
          1   -1    0    0  501    0  0.00000000000E+00 -0.00000000000E+00 -0.15091857538E+03  0.15091857538E+03  0.00000000000E+00 0. -1.
         23    2    1    2    0    0 -0.56917243155E+02 -0.35777252577E+02 -0.69570385727E+02  0.13350201884E+03  0.91995467783E+02 0.  0.
         23    2    1    2    0    0  0.56917243155E+02  0.35777252577E+02  0.14970175790E+02  0.11373492199E+03  0.90509347287E+02 0.  0.
          5    1    3    3  502    0 -0.80217948714E+02 -0.24130246447E+02 -0.66089522707E+02  0.10680404066E+03  0.47000000000E+01 0. -1.
         -5    1    3    3    0  502  0.23300705559E+02 -0.11647006130E+02 -0.34808630201E+01  0.26697978176E+02  0.47000000000E+01 0.  1.
          5    1    4    4  503    0 -0.21602817889E+02  0.24673516788E+02  0.15225590783E+01  0.33164323566E+02  0.47000000000E+01 0. -1.
         -5    1    4    4    0  503  0.78520061045E+02  0.11103735789E+02  0.13447616712E+02  0.80570598422E+02  0.47000000000E+01 0.  1.
<mgrwt>
<rscale>  0 0.11364157E+03</rscale>
<asrwt>0</asrwt>
<pdfrwt beam="1">  1        1 0.23218242E-01 0.11394187E+03</pdfrwt>
<pdfrwt beam="2">  1       -1 0.14818210E-01 0.11394187E+03</pdfrwt>
<totfact> 0.64692753E+03</totfact>
</mgrwt>
</event>
<event>
 8    1  0.8174053E-004  0.1415053E+03  0.7546771E-02  0.1213836E+00
         -1   -1    0    0    0  501 -0.00000000000E+00  0.00000000000E+00  0.50633333356E+02  0.50633333356E+02  0.00000000000E+00 0.  1.
          1   -1    0    0  501    0  0.00000000000E+00 -0.00000000000E+00 -0.37730878470E+03  0.37730878470E+03  0.00000000000E+00 0. -1.
         23    2    1    2    0    0 -0.27375950185E+02  0.98085011746E+02 -0.14268556206E+03  0.19583001260E+03  0.87293253095E+02 0.  0.
         23    2    1    2    0    0  0.27375950185E+02 -0.98085011746E+02 -0.18398988928E+03  0.23211210546E+03  0.98252928528E+02 0.  0.
          5    1    3    3  502    0  0.19330318337E+01  0.49342370005E+02 -0.12744861492E+03  0.13676127206E+03  0.47000000000E+01 0. -1.
         -5    1    3    3    0  502 -0.29308982019E+02  0.48742641741E+02 -0.15236947141E+02  0.59068740540E+02  0.47000000000E+01 0.  1.
          5    1    4    4  503    0  0.13433062856E+02 -0.11658490092E+03 -0.15947204506E+03  0.19805531918E+03  0.47000000000E+01 0.  1.
         -5    1    4    4    0  503  0.13942887329E+02  0.18499889170E+02 -0.24517844225E+02  0.34056786281E+02  0.47000000000E+01 0. -1.
<mgrwt>
<rscale>  0 0.13962369E+03</rscale>
<asrwt>0</asrwt>
<pdfrwt beam="1">  1        1 0.58047506E-01 0.14150530E+03</pdfrwt>
<pdfrwt beam="2">  1       -1 0.77897435E-02 0.14150530E+03</pdfrwt>
<totfact> 0.56327364E+03</totfact>
</mgrwt>
</event>
<event>
 8    1  0.8174053E-004  0.9508873E+02  0.7546771E-02  0.1291922E+00
          1   -1    0    0  501    0  0.00000000000E+00  0.00000000000E+00  0.57219028450E+03  0.57219028450E+03  0.00000000000E+00 0. -1.
         -1   -1    0    0    0  501 -0.00000000000E+00 -0.00000000000E+00 -0.15645262985E+02  0.15645262985E+02  0.00000000000E+00 0.  1.
         23    2    1    2    0    0 -0.24385145355E+01 -0.13254962148E+02  0.25023388829E+03  0.26710454365E+03  0.92445648972E+02 0.  0.
         23    2    1    2    0    0  0.24385145355E+01  0.13254962148E+02  0.30631113323E+03  0.32073100384E+03  0.94128774082E+02 0.  0.
          5    1    4    4  502    0 -0.30775625768E+02 -0.19389049802E+01  0.25853291984E+03  0.26040787072E+03  0.47000000000E+01 0. -1.
         -5    1    4    4    0  502  0.33214140304E+02  0.15193867128E+02  0.47778213390E+02  0.60323133118E+02  0.47000000000E+01 0.  1.
          5    1    3    3  503    0 -0.44733808975E+02 -0.20930547990E+02  0.11890906978E+03  0.12884354225E+03  0.47000000000E+01 0. -1.
         -5    1    3    3    0  503  0.42295294440E+02  0.76755858421E+01  0.13132481851E+03  0.13826100140E+03  0.47000000000E+01 0.  1.
<mgrwt>
<rscale>  0 0.94669508E+02</rscale>
<asrwt>0</asrwt>
<pdfrwt beam="1">  1        1 0.88029258E-01 0.95088730E+02</pdfrwt>
<pdfrwt beam="2">  1       -1 0.24069640E-02 0.95088730E+02</pdfrwt>
<totfact> 0.17953923E+04</totfact>
</mgrwt>
</event>
<event>
 8    1  0.8174053E-004  0.9239073E+02  0.7546771E-02  0.1298515E+00
         -1   -1    0    0    0  501 -0.00000000000E+00  0.00000000000E+00  0.27366020141E+03  0.27366020141E+03  0.00000000000E+00 0.  1.
          1   -1    0    0  501    0  0.00000000000E+00 -0.00000000000E+00 -0.14146335407E+03  0.14146335407E+03  0.00000000000E+00 0. -1.
         23    2    1    2    0    0 -0.14148657670E+01 -0.62313504210E+01 -0.11796635545E+03  0.14844458209E+03  0.89882708905E+02 0.  0.
         23    2    1    2    0    0  0.14148657670E+01  0.62313504210E+01  0.25016320279E+03  0.26667897339E+03  0.92169491944E+02 0.  0.
          5    1    4    4  502    0  0.39452549909E+02  0.18084271899E+02  0.73226049852E+02  0.85250741705E+02  0.47000000000E+01 0. -1.
         -5    1    3    3    0  503  0.14257044878E+02  0.29503805963E+02 -0.11645552828E+02  0.35091976229E+02  0.47000000000E+01 0.  1.
          5    1    3    3  503    0 -0.15671910645E+02 -0.35735156384E+02 -0.10632080262E+03  0.11335260586E+03  0.47000000000E+01 0. -1.
         -5    1    4    4    0  502 -0.38037684142E+02 -0.11852921478E+02  0.17693715294E+03  0.18142823169E+03  0.47000000000E+01 0.  1.
<mgrwt>
<rscale>  0 0.91815079E+02</rscale>
<asrwt>0</asrwt>
<pdfrwt beam="1">  1        1 0.21763593E-01 0.92390729E+02</pdfrwt>
<pdfrwt beam="2">  1       -1 0.42101569E-01 0.92390729E+02</pdfrwt>
<totfact> 0.12533784E+03</totfact>
</mgrwt>
</event>
<event>
 8    1  0.8174053E-004  0.9142807E+02  0.7546771E-02  0.1303940E+00
         -1   -1    0    0    0  501 -0.00000000000E+00  0.00000000000E+00  0.65313073644E+02  0.65313073644E+02  0.00000000000E+00 0.  1.
          1   -1    0    0  501    0  0.00000000000E+00 -0.00000000000E+00 -0.18099089519E+03  0.18099089519E+03  0.00000000000E+00 0. -1.
         23    2    1    2    0    0  0.38730305100E+01  0.61067894556E+01 -0.12888708123E+03  0.15392660964E+03  0.83840492624E+02 0.  0.
         23    2    1    2    0    0 -0.38730305100E+01 -0.61067894556E+01  0.13209259684E+02  0.92377359197E+02  0.91141640912E+02 0.  0.
          5    1    4    4  502    0 -0.37319240130E+02 -0.12069674264E+02 -0.20312091397E+02  0.44419295105E+02  0.47000000000E+01 0. -1.
         -5    1    4    4    0  502  0.33446209620E+02  0.59628848081E+01  0.33521351081E+02  0.47958064092E+02  0.47000000000E+01 0.  1.
          5    1    3    3  503    0 -0.20892051071E+02  0.14374955587E+02 -0.12437015163E+03  0.12701630511E+03  0.47000000000E+01 0. -1.
         -5    1    3    3    0  503  0.24765081581E+02 -0.82681661318E+01 -0.45169295984E+01  0.26910304530E+02  0.47000000000E+01 0.  1.
<mgrwt>
<rscale>  0 0.89552040E+02</rscale>
<asrwt>0</asrwt>
<pdfrwt beam="1">  1        1 0.27844753E-01 0.91428070E+02</pdfrwt>
<pdfrwt beam="2">  1       -1 0.10048165E-01 0.91428070E+02</pdfrwt>
<totfact> 0.92001666E+03</totfact>
</mgrwt>
</event>
<event>
 8    1  0.8174053E-004  0.2882303E+03  0.7546771E-02  0.1091296E+00
         -3   -1    0    0    0  501 -0.00000000000E+00  0.00000000000E+00  0.48719388779E+03  0.48719388779E+03  0.00000000000E+00 0.  1.
          3   -1    0    0  501    0  0.00000000000E+00 -0.00000000000E+00 -0.19772038032E+03  0.19772038032E+03  0.00000000000E+00 0. -1.
         23    2    1    2    0    0 -0.25484279511E+03 -0.96974336674E+02  0.27192464541E+03  0.39615019412E+03  0.92968227520E+02 0.  0.
         23    2    1    2    0    0  0.25484279511E+03  0.96974336674E+02  0.17548862062E+02  0.28876407400E+03  0.93422993316E+02 0.  0.
          5    1    4    4  502    0  0.17940446664E+03  0.10241175396E+03 -0.13043813470E+02  0.20704193070E+03  0.47000000000E+01 0. -1.
         -5    1    4    4    0  502  0.75438328468E+02 -0.54374172817E+01  0.30592675532E+02  0.81722143297E+02  0.47000000000E+01 0.  1.
          5    1    3    3  503    0 -0.10127484714E+03  0.66838567655E+01  0.11345270999E+03  0.15229864087E+03  0.47000000000E+01 0. -1.
         -5    1    3    3    0  503 -0.15356794796E+03 -0.10365819344E+03  0.15847193542E+03  0.24385155325E+03  0.47000000000E+01 0.  1.
<mgrwt>
<rscale>  0 0.28819356E+03</rscale>
<asrwt>0</asrwt>
<pdfrwt beam="1">  1        3 0.30418520E-01 0.28823034E+03</pdfrwt>
<pdfrwt beam="2">  1       -3 0.74952906E-01 0.28823034E+03</pdfrwt>
<totfact> 0.44972387E+01</totfact>
</mgrwt>
</event>
<event>
 8    1  0.8174053E-004  0.1358521E+03  0.7546771E-02  0.1220256E+00
         -1   -1    0    0    0  501 -0.00000000000E+00  0.00000000000E+00  0.95529601142E+02  0.95529601142E+02  0.00000000000E+00 0.  1.
          1   -1    0    0  501    0  0.00000000000E+00 -0.00000000000E+00 -0.21213959042E+03  0.21213959042E+03  0.00000000000E+00 0. -1.
         23    2    1    2    0    0 -0.43133100817E+02  0.90957611883E+02 -0.10922019685E+03  0.17161627283E+03  0.85961282890E+02 0.  0.
         23    2    1    2    0    0  0.43133100817E+02 -0.90957611883E+02 -0.73897924238E+01  0.13605291872E+03  0.91225194522E+02 0.  0.
          5    1    4    4  502    0 -0.93601959359E+00 -0.91402080833E+02 -0.54154701108E+01  0.91687697265E+02  0.47000000000E+01 0. -1.
         -5    1    3    3    0  503 -0.54863898179E+02  0.17497717329E+02 -0.50212900918E+02  0.76548304055E+02  0.47000000000E+01 0. -1.
          5    1    3    3  503    0  0.11730797361E+02  0.73459894554E+02 -0.59007295932E+02  0.95067968779E+02  0.47000000000E+01 0.  1.
         -5    1    4    4    0  502  0.44069120411E+02  0.44446895045E+00 -0.19743223130E+01  0.44365221458E+02  0.47000000000E+01 0.  1.
<mgrwt>
<rscale>  0 0.13497429E+03</rscale>
<asrwt>0</asrwt>
<pdfrwt beam="1">  1        1 0.32636860E-01 0.13585208E+03</pdfrwt>
<pdfrwt beam="2">  1       -1 0.14696862E-01 0.13585208E+03</pdfrwt>
<totfact> 0.43363464E+03</totfact>
</mgrwt>
</event>
<event>
 8    1  0.8174053E-004  0.1124459E+03  0.7546771E-02  0.1258838E+00
         -1   -1    0    0    0  501 -0.00000000000E+00  0.00000000000E+00  0.12101409113E+03  0.12101409113E+03  0.00000000000E+00 0.  1.
          1   -1    0    0  501    0  0.00000000000E+00 -0.00000000000E+00 -0.99073768689E+02  0.99073768689E+02  0.00000000000E+00 0. -1.
         23    2    1    2    0    0  0.55344077343E+02 -0.42985389412E+00  0.10931699480E+02  0.10710432911E+03  0.91042207732E+02 0.  0.
         23    2    1    2    0    0 -0.55344077343E+02  0.42985389412E+00  0.11008622966E+02  0.11298353072E+03  0.97882259690E+02 0.  0.
          5    1    4    4  502    0  0.29790031986E+00  0.28723932819E+02 -0.27039051776E+02  0.39728495846E+02  0.47000000000E+01 0. -1.
         -5    1    3    3    0  503  0.20419094707E+02  0.37276561373E+02 -0.19707432000E+02  0.47084544518E+02  0.47000000000E+01 0.  1.
          5    1    3    3  503    0  0.34924982637E+02 -0.37706415267E+02  0.30639131480E+02  0.60019784590E+02  0.47000000000E+01 0. -1.
         -5    1    4    4    0  502 -0.55641977663E+02 -0.28294078925E+02  0.38047674743E+02  0.73255034870E+02  0.47000000000E+01 0.  1.
<mgrwt>
<rscale>  0 0.11094075E+03</rscale>
<asrwt>0</asrwt>
<pdfrwt beam="1">  1        1 0.15242118E-01 0.11244594E+03</pdfrwt>
<pdfrwt beam="2">  1       -1 0.18617553E-01 0.11244594E+03</pdfrwt>
<totfact> 0.77014938E+03</totfact>
</mgrwt>
</event>
<event>
 8    1  0.8174053E-004  0.1156517E+03  0.7546771E-02  0.1253206E+00
         -1   -1    0    0    0  501 -0.00000000000E+00  0.00000000000E+00  0.79954961729E+02  0.79954961729E+02  0.00000000000E+00 0.  1.
          1   -1    0    0  501    0  0.00000000000E+00 -0.00000000000E+00 -0.23967031780E+03  0.23967031780E+03  0.00000000000E+00 0. -1.
         23    2    1    2    0    0 -0.63755041974E+02 -0.43135944836E+01 -0.17431096232E+03  0.20918803357E+03  0.96395069013E+02 0.  0.
         23    2    1    2    0    0  0.63755041974E+02  0.43135944836E+01  0.14595606250E+02  0.11043724596E+03  0.88882175369E+02 0.  0.
          5    1    4    4  502    0  0.12760014116E+02  0.40944162049E+02  0.19372468061E+02  0.47292968662E+02  0.47000000000E+01 0. -1.
         -5    1    3    3    0  503  0.46999595221E+00 -0.33899071173E+02 -0.10347355699E+03  0.10898731540E+03  0.47000000000E+01 0.  1.
          5    1    3    3  503    0 -0.64225037926E+02  0.29585476689E+02 -0.70837405332E+02  0.10020071817E+03  0.47000000000E+01 0. -1.
         -5    1    4    4    0  502  0.50995027858E+02 -0.36630567565E+02 -0.47768618112E+01  0.63144277295E+02  0.47000000000E+01 0.  1.
<mgrwt>
<rscale>  0 0.11407393E+03</rscale>
<asrwt>0</asrwt>
<pdfrwt beam="1">  1        1 0.36872356E-01 0.11565173E+03</pdfrwt>
<pdfrwt beam="2">  1       -1 0.12300763E-01 0.11565173E+03</pdfrwt>
<totfact> 0.48687894E+03</totfact>
</mgrwt>
</event>
<event>
 8    1  0.8174053E-004  0.9347044E+02  0.7546771E-02  0.1297015E+00
          3   -1    0    0  501    0  0.00000000000E+00  0.00000000000E+00  0.51061637559E+02  0.51061637559E+02  0.00000000000E+00 0. -1.
         -3   -1    0    0    0  501 -0.00000000000E+00 -0.00000000000E+00 -0.19451050642E+03  0.19451050642E+03  0.00000000000E+00 0.  1.
         23    2    1    2    0    0  0.10442230163E+02  0.54971184914E+01 -0.24313170165E+02  0.96580811947E+02  0.92722513503E+02 0.  0.
         23    2    1    2    0    0 -0.10442230163E+02 -0.54971184914E+01 -0.11913569869E+03  0.14899133203E+03  0.88689592593E+02 0.  0.
          5    1    3    3  502    0 -0.33087184645E+02  0.19427706047E+02  0.91707394730E+01  0.39728956851E+02  0.47000000000E+01 0. -1.
         -5    1    4    4    0  503  0.35218026846E+02 -0.20695044034E+02 -0.55136408552E+02  0.68780141105E+02  0.47000000000E+01 0.  1.
          5    1    4    4  503    0 -0.45660257009E+02  0.15197925543E+02 -0.63999290140E+02  0.80211190923E+02  0.47000000000E+01 0. -1.
         -5    1    3    3    0  502  0.43529414808E+02 -0.13930587555E+02 -0.33483909638E+02  0.56851855096E+02  0.47000000000E+01 0.  1.
<mgrwt>
<rscale>  0 0.92454185E+02</rscale>
<asrwt>0</asrwt>
<pdfrwt beam="1">  1        3 0.78556364E-02 0.93470439E+02</pdfrwt>
<pdfrwt beam="2">  1       -3 0.29924694E-01 0.93470439E+02</pdfrwt>
<totfact> 0.25233952E+03</totfact>
</mgrwt>
</event>
<event>
 7    1  0.8174053E-004  0.1474594E+03  0.7546771E-02  0.1218479E+00
          1   -1    0    0  501    0  0.00000000000E+00  0.00000000000E+00  0.13446586168E+03  0.13446586168E+03  0.00000000000E+00 0. -1.
         -1   -1    0    0    0  501 -0.00000000000E+00 -0.00000000000E+00 -0.14427352294E+03  0.14427352294E+03  0.00000000000E+00 0.  1.
         23    2    1    2    0    0 -0.53600179489E+02 -0.21420721079E+02  0.51363047063E+02  0.11909563620E+03  0.90629914628E+02 0.  0.
          5    1    1    2  502    0 -0.92163436631E+01 -0.21588639453E+02  0.31535456613E+02  0.39592743877E+02  0.47000000000E+01 0. -1.
         -5    1    3    3    0  503  0.37891270558E+01 -0.41119294950E+02  0.39003161940E+02  0.56995530898E+02  0.47000000000E+01 0.  1.
          5    1    3    3  503    0 -0.57389306544E+02  0.19698573871E+02  0.12359885123E+02  0.62100105301E+02  0.47000000000E+01 0. -1.
         -5    1    1    2    0  502  0.62816523152E+02  0.43009360532E+02 -0.92706164933E+02  0.12005100454E+03  0.47000000000E+01 0.  1.
<mgrwt>
<rscale>  0 0.13624056E+03</rscale>
<asrwt>0</asrwt>
<pdfrwt beam="1">  1        1 0.20687056E-01 0.14745939E+03</pdfrwt>
<pdfrwt beam="2">  1       -1 0.22195927E-01 0.14745939E+03</pdfrwt>
<totfact> 0.40014694E+03</totfact>
</mgrwt>
</event>
<event>
 8    1  0.8174053E-004  0.1860676E+03  0.7546771E-02  0.1162576E+00
          2   -1    0    0  501    0  0.00000000000E+00  0.00000000000E+00  0.15656890276E+04  0.15656890276E+04  0.00000000000E+00 0. -1.
         -2   -1    0    0    0  501 -0.00000000000E+00 -0.00000000000E+00 -0.26812076262E+02  0.26812076262E+02  0.00000000000E+00 0.  1.
         23    2    1    2    0    0 -0.29961955060E+02  0.15811644534E+03  0.43062415095E+03  0.46910372093E+03  0.93394927979E+02 0.  0.
         23    2    1    2    0    0  0.29961955060E+02 -0.15811644534E+03  0.11082528004E+04  0.11233973829E+04  0.88875651172E+02 0.  0.
          5    1    3    3  502    0 -0.48491387826E+02  0.13301974332E+03  0.40299240765E+03  0.42716581959E+03  0.47000000000E+01 0. -1.
         -5    1    4    4    0  503  0.60981428313E+02 -0.11796971121E+03  0.80545784363E+03  0.81634552441E+03  0.47000000000E+01 0.  1.
          5    1    4    4  503    0 -0.31019473253E+02 -0.40146734129E+02  0.30279495674E+03  0.30705185850E+03  0.47000000000E+01 0. -1.
         -5    1    3    3    0  502  0.18529432766E+02  0.25096702015E+02  0.27631743301E+02  0.41937901336E+02  0.47000000000E+01 0.  1.
<mgrwt>
<rscale>  0 0.18550834E+03</rscale>
<asrwt>0</asrwt>
<pdfrwt beam="1">  1        2 0.24087516E+00 0.18606757E+03</pdfrwt>
<pdfrwt beam="2">  1       -2 0.41249360E-02 0.18606757E+03</pdfrwt>
<totfact> 0.32937594E+03</totfact>
</mgrwt>
</event>
<event>
 8    1  0.8174053E-004  0.1001460E+03  0.7546771E-02  0.1284094E+00
          1   -1    0    0  501    0  0.00000000000E+00  0.00000000000E+00  0.21515374287E+02  0.21515374287E+02  0.00000000000E+00 0. -1.
         -1   -1    0    0    0  501 -0.00000000000E+00 -0.00000000000E+00 -0.47172090113E+03  0.47172090113E+03  0.00000000000E+00 0.  1.
         23    2    1    2    0    0  0.30706347802E+01  0.13540976884E+02 -0.28870870115E+03  0.30320881334E+03  0.91597399069E+02 0.  0.
         23    2    1    2    0    0 -0.30706347802E+01 -0.13540976884E+02 -0.16149682569E+03  0.19002746207E+03  0.99178751656E+02 0.  0.
          5    1    4    4  502    0  0.28763206105E+02 -0.45938502611E+02 -0.84018037948E+02  0.10009389966E+03  0.47000000000E+01 0. -1.
         -5    1    3    3    0  503  0.32819068411E+02  0.40417813931E+02 -0.16201306038E+03  0.17023810580E+03  0.47000000000E+01 0.  1.
          5    1    3    3  503    0 -0.29748433631E+02 -0.26876837046E+02 -0.12669564077E+03  0.13297070754E+03  0.47000000000E+01 0. -1.
         -5    1    4    4    0  502 -0.31833840886E+02  0.32397525727E+02 -0.77478787741E+02  0.89933562414E+02  0.47000000000E+01 0.  1.
<mgrwt>
<rscale>  0 0.98215293E+02</rscale>
<asrwt>0</asrwt>
<pdfrwt beam="1">  1        1 0.33100578E-02 0.10014595E+03</pdfrwt>
<pdfrwt beam="2">  1       -1 0.72572441E-01 0.10014595E+03</pdfrwt>
<totfact> 0.54996647E+03</totfact>
</mgrwt>
</event>
<event>
 8    1  0.8174053E-004  0.1237703E+03  0.7546771E-02  0.1237415E+00
         -1   -1    0    0    0  501 -0.00000000000E+00  0.00000000000E+00  0.80417563808E+02  0.80417563808E+02  0.00000000000E+00 0.  1.
          1   -1    0    0  501    0  0.00000000000E+00 -0.00000000000E+00 -0.41129512102E+03  0.41129512102E+03  0.00000000000E+00 0. -1.
         23    2    1    2    0    0  0.57449952129E+02  0.62700447216E+02  0.15663566457E+02  0.12373191268E+03  0.88500823848E+02 0.  0.
         23    2    1    2    0    0 -0.57449952129E+02 -0.62700447216E+02 -0.34654112366E+03  0.36798077214E+03  0.89929167645E+02 0.  0.
          5    1    3    3  502    0 -0.10175032727E+02  0.52853420588E+02  0.10486225881E+02  0.55036953877E+02  0.47000000000E+01 0. -1.
         -5    1    4    4    0  503 -0.56427774547E+02 -0.11044467254E+01 -0.11289558748E+03  0.12630446237E+03  0.47000000000E+01 0.  1.
          5    1    4    4  503    0 -0.10221775823E+01 -0.61596000491E+02 -0.23364553619E+03  0.24167630977E+03  0.47000000000E+01 0. -1.
         -5    1    3    3    0  502  0.67624984856E+02  0.98470266285E+01  0.51773405757E+01  0.68694958808E+02  0.47000000000E+01 0.  1.
<mgrwt>
<rscale>  0 0.12351106E+03</rscale>
<asrwt>0</asrwt>
<pdfrwt beam="1">  1        1 0.63276173E-01 0.12377034E+03</pdfrwt>
<pdfrwt beam="2">  1       -1 0.12371933E-01 0.12377034E+03</pdfrwt>
<totfact> 0.24808907E+03</totfact>
</mgrwt>
</event>
<event>
 8    1  0.8174053E-004  0.1045251E+03  0.7546771E-02  0.1272713E+00
         -1   -1    0    0    0  501 -0.00000000000E+00  0.00000000000E+00  0.37774103387E+02  0.37774103387E+02  0.00000000000E+00 0.  1.
          1   -1    0    0  501    0  0.00000000000E+00 -0.00000000000E+00 -0.28022070947E+03  0.28022070947E+03  0.00000000000E+00 0. -1.
         23    2    1    2    0    0 -0.33927418037E+02  0.37257641527E+02 -0.11925221249E+03  0.15643255739E+03  0.87811464404E+02 0.  0.
         23    2    1    2    0    0  0.33927418037E+02 -0.37257641527E+02 -0.12319439360E+03  0.16156225547E+03  0.91576755962E+02 0.  0.
          5    1    4    4  502    0 -0.34544092327E+01 -0.59862843297E+02 -0.63781853865E+02  0.87668168871E+02  0.47000000000E+01 0. -1.
         -5    1    4    4    0  502  0.37381827270E+02  0.22605201770E+02 -0.59412539732E+02  0.73894086601E+02  0.47000000000E+01 0.  1.
          5    1    3    3  503    0 -0.55600349029E+02  0.14646757723E+00 -0.50733100797E+02  0.75414572739E+02  0.47000000000E+01 0. -1.
         -5    1    3    3    0  503  0.21672930992E+02  0.37111173950E+02 -0.68519111690E+02  0.81017984649E+02  0.47000000000E+01 0.  1.
<mgrwt>
<rscale>  0 0.10369464E+03</rscale>
<asrwt>0</asrwt>
<pdfrwt beam="1">  1        1 0.43110876E-01 0.10452513E+03</pdfrwt>
<pdfrwt beam="2">  1       -1 0.58114008E-02 0.10452513E+03</pdfrwt>
<totfact> 0.12332162E+04</totfact>
</mgrwt>
</event>
<event>
 8    1  0.8174053E-004  0.1396838E+03  0.7546771E-02  0.1214085E+00
          2   -1    0    0  501    0  0.00000000000E+00  0.00000000000E+00  0.10736961304E+04  0.10736961304E+04  0.00000000000E+00 0. -1.
         -2   -1    0    0    0  501 -0.00000000000E+00 -0.00000000000E+00 -0.18853899263E+02  0.18853899263E+02  0.00000000000E+00 0.  1.
         23    2    1    2    0    0  0.85367797460E+02  0.60404014695E+02  0.64228897974E+03  0.65730258869E+03  0.92602666119E+02 0.  0.
         23    2    1    2    0    0 -0.85367797460E+02 -0.60404014695E+02  0.41255325144E+03  0.43524744102E+03  0.91125428949E+02 0.  0.
          5    1    4    4  502    0 -0.10180671449E+03 -0.39140609197E+02  0.29455841996E+03  0.31413905706E+03  0.47000000000E+01 0. -1.
         -5    1    3    3    0  503  0.56378557916E+02 -0.59092150361E+01  0.16487649161E+03  0.17441275212E+03  0.47000000000E+01 0.  1.
          5    1    3    3  503    0  0.28989239543E+02  0.66313229731E+02  0.47741248813E+03  0.48288983658E+03  0.47000000000E+01 0. -1.
         -5    1    4    4    0  502  0.16438917035E+02 -0.21263405498E+02  0.11799483149E+03  0.12110838395E+03  0.47000000000E+01 0.  1.
<mgrwt>
<rscale>  0 0.13943941E+03</rscale>
<asrwt>0</asrwt>
<pdfrwt beam="1">  1        2 0.16518397E+00 0.13968378E+03</pdfrwt>
<pdfrwt beam="2">  1       -2 0.29006007E-02 0.13968378E+03</pdfrwt>
<totfact> 0.10203934E+04</totfact>
</mgrwt>
</event>
<event>
 8    1  0.8174053E-004  0.1142659E+03  0.7546771E-02  0.1252905E+00
          1   -1    0    0  501    0  0.00000000000E+00  0.00000000000E+00  0.29486222266E+03  0.29486222266E+03  0.00000000000E+00 0. -1.
         -1   -1    0    0    0  501 -0.00000000000E+00 -0.00000000000E+00 -0.56734828595E+02  0.56734828595E+02  0.00000000000E+00 0.  1.
         23    2    1    2    0    0  0.67240862246E+02 -0.18038182362E+02  0.20150327683E+03  0.23160524722E+03  0.90502543564E+02 0.  0.
         23    2    1    2    0    0 -0.67240862246E+02  0.18038182362E+02  0.36624117241E+02  0.11999180403E+03  0.90609036486E+02 0.  0.
          5    1    4    4  502    0 -0.66267446013E+02 -0.10593135320E+02  0.53906041136E+02  0.86206381365E+02  0.47000000000E+01 0. -1.
         -5    1    4    4    0  502 -0.97341623299E+00  0.28631317681E+02 -0.17281923895E+02  0.33785422668E+02  0.47000000000E+01 0.  1.
          5    1    3    3  503    0  0.42032239764E+02 -0.47500838591E+02  0.70714773296E+02  0.95108927072E+02  0.47000000000E+01 0. -1.
         -5    1    3    3    0  503  0.25208622483E+02  0.29462656229E+02  0.13078850353E+03  0.13649632015E+03  0.47000000000E+01 0.  1.
<mgrwt>
<rscale>  0 0.11424484E+03</rscale>
<asrwt>0</asrwt>
<pdfrwt beam="1">  1        1 0.45363418E-01 0.11426595E+03</pdfrwt>
<pdfrwt beam="2">  1       -1 0.87284353E-02 0.11426595E+03</pdfrwt>
<totfact> 0.63581688E+03</totfact>
</mgrwt>
</event>
<event>
 8    1  0.8174053E-004  0.9526664E+02  0.7546771E-02  0.1293132E+00
          2   -1    0    0  501    0  0.00000000000E+00  0.00000000000E+00  0.19131658056E+03  0.19131658056E+03  0.00000000000E+00 0. -1.
         -2   -1    0    0    0  501 -0.00000000000E+00 -0.00000000000E+00 -0.70057864756E+02  0.70057864756E+02  0.00000000000E+00 0.  1.
         23    2    1    2    0    0  0.19274781138E+02  0.79229658426E+00  0.13931120821E+03  0.16877009441E+03  0.93293017485E+02 0.  0.
         23    2    1    2    0    0 -0.19274781138E+02 -0.79229658426E+00 -0.18052492402E+02  0.92604350913E+02  0.88755441548E+02 0.  0.
          5    1    3    3  502    0  0.39451629416E+02  0.24685965234E+02  0.31441716602E+02  0.56360442564E+02  0.47000000000E+01 0. -1.
         -5    1    4    4    0  503 -0.23116452579E+02  0.40570254674E+02  0.34158644743E+00  0.46931041172E+02  0.47000000000E+01 0.  1.
          5    1    4    4  503    0  0.38416714410E+01 -0.41362551258E+02 -0.18394078849E+02  0.45673309742E+02  0.47000000000E+01 0. -1.
         -5    1    3    3    0  502 -0.20176848277E+02 -0.23893668649E+02  0.10786949161E+03  0.11240965184E+03  0.47000000000E+01 0.  1.
<mgrwt>
<rscale>  0 0.94136971E+02</rscale>
<asrwt>0</asrwt>
<pdfrwt beam="1">  1        2 0.29433320E-01 0.95266637E+02</pdfrwt>
<pdfrwt beam="2">  1       -2 0.10778133E-01 0.95266637E+02</pdfrwt>
<totfact> 0.96501905E+03</totfact>
</mgrwt>
</event>
<event>
 8    1  0.8174053E-004  0.1098475E+03  0.7546771E-02  0.1264331E+00
          1   -1    0    0  501    0  0.00000000000E+00  0.00000000000E+00  0.79309710257E+03  0.79309710257E+03  0.00000000000E+00 0. -1.
         -1   -1    0    0    0  501 -0.00000000000E+00 -0.00000000000E+00 -0.14458249921E+02  0.14458249921E+02  0.00000000000E+00 0.  1.
         23    2    1    2    0    0  0.56306678928E+02 -0.28057175554E+02  0.32553482658E+03  0.34132608426E+03  0.81073579475E+02 0.  0.
         23    2    1    2    0    0 -0.56306678928E+02  0.28057175554E+02  0.45310402607E+03  0.46622926823E+03  0.90049013998E+02 0.  0.
          5    1    3    3  502    0  0.56198485972E+02  0.13355625703E+02  0.14748473563E+03  0.15846286570E+03  0.47000000000E+01 0. -1.
         -5    1    4    4    0  503  0.51925780049E+01 -0.22348252591E+02  0.48496902693E+02  0.53855796633E+02  0.47000000000E+01 0.  1.
          5    1    4    4  503    0 -0.61499256933E+02  0.50405428145E+02  0.40460712337E+03  0.41237347159E+03  0.47000000000E+01 0. -1.
         -5    1    3    3    0  502  0.10819295641E+00 -0.41412801257E+02  0.17805009095E+03  0.18286321856E+03  0.47000000000E+01 0.  1.
<mgrwt>
<rscale>  0 0.10799387E+03</rscale>
<asrwt>0</asrwt>
<pdfrwt beam="1">  1        1 0.12201490E+00 0.10984749E+03</pdfrwt>
<pdfrwt beam="2">  1       -1 0.22243468E-02 0.10984749E+03</pdfrwt>
<totfact> 0.12893601E+04</totfact>
</mgrwt>
</event>
<event>
 8    1  0.8174053E-004  0.1213317E+03  0.7546771E-02  0.1241007E+00
          1   -1    0    0  501    0  0.00000000000E+00  0.00000000000E+00  0.10506865374E+04  0.10506865374E+04  0.00000000000E+00 0. -1.
         -1   -1    0    0    0  501 -0.00000000000E+00 -0.00000000000E+00 -0.23425705622E+02  0.23425705622E+02  0.00000000000E+00 0.  1.
         23    2    1    2    0    0 -0.79247992700E+02  0.43130125718E+01  0.17241821587E+03  0.21070198360E+03  0.91479168700E+02 0.  0.
         23    2    1    2    0    0  0.79247992700E+02 -0.43130125718E+01  0.85484261592E+03  0.86341025943E+03  0.91774351935E+02 0.  0.
          5    1    3    3  502    0 -0.32559779518E+02 -0.25294752847E+02  0.14091444281E+03  0.14689769895E+03  0.47000000000E+01 0. -1.
         -5    1    3    3    0  502 -0.46688213182E+02  0.29607765419E+02  0.31503773058E+02  0.63804284653E+02  0.47000000000E+01 0.  1.
          5    1    4    4  503    0  0.56653352863E+02 -0.39915346504E+02  0.67801263120E+03  0.68156148317E+03  0.47000000000E+01 0. -1.
         -5    1    4    4    0  503  0.22594639837E+02  0.35602333932E+02  0.17682998472E+03  0.18184877626E+03  0.47000000000E+01 0.  1.
<mgrwt>
<rscale>  0 0.12127587E+03</rscale>
<asrwt>0</asrwt>
<pdfrwt beam="1">  1        1 0.16164405E+00 0.12133169E+03</pdfrwt>
<pdfrwt beam="2">  1       -1 0.36039555E-02 0.12133169E+03</pdfrwt>
<totfact> 0.41120883E+03</totfact>
</mgrwt>
</event>
<event>
 8    1  0.8174053E-004  0.9034885E+02  0.7546771E-02  0.1302219E+00
         -1   -1    0    0    0  501 -0.00000000000E+00  0.00000000000E+00  0.36936108076E+02  0.36936108076E+02  0.00000000000E+00 0.  1.
          1   -1    0    0  501    0  0.00000000000E+00 -0.00000000000E+00 -0.23402267733E+03  0.23402267733E+03  0.00000000000E+00 0. -1.
         23    2    1    2    0    0 -0.38751101341E+01  0.39013952290E+01 -0.13170820721E+03  0.15971839901E+03  0.90181360440E+02 0.  0.
         23    2    1    2    0    0  0.38751101341E+01 -0.39013952290E+01 -0.65378362039E+02  0.11124038640E+03  0.89832377124E+02 0.  0.
          5    1    3    3  502    0  0.30845837780E+02 -0.15296891118E+02 -0.17875237982E+02  0.39077803407E+02  0.47000000000E+01 0. -1.
         -5    1    3    3    0  502 -0.34720947914E+02  0.19198286347E+02 -0.11383296923E+03  0.12064059560E+03  0.47000000000E+01 0.  1.
          5    1    4    4  503    0 -0.78680902422E+01  0.32435632464E+02 -0.64475616446E+02  0.72754190350E+02  0.47000000000E+01 0. -1.
         -5    1    4    4    0  503  0.11743200376E+02 -0.36337027693E+02 -0.90274559274E+00  0.38486196048E+02  0.47000000000E+01 0.  1.
<mgrwt>
<rscale>  0 0.90261643E+02</rscale>
<asrwt>0</asrwt>
<pdfrwt beam="1">  1        1 0.36003489E-01 0.90348852E+02</pdfrwt>
<pdfrwt beam="2">  1       -1 0.56824781E-02 0.90348852E+02</pdfrwt>
<totfact> 0.15669661E+04</totfact>
</mgrwt>
</event>
<event>
 8    1  0.8174053E-004  0.9782226E+02  0.7546771E-02  0.1287232E+00
         -1   -1    0    0    0  501 -0.00000000000E+00  0.00000000000E+00  0.66770033939E+02  0.66770033939E+02  0.00000000000E+00 0.  1.
          1   -1    0    0  501    0  0.00000000000E+00 -0.00000000000E+00 -0.13779255620E+03  0.13779255620E+03  0.00000000000E+00 0. -1.
         23    2    1    2    0    0  0.17457763482E+00 -0.28170521934E+02 -0.28823795795E+02  0.98026556993E+02  0.89357629156E+02 0.  0.
         23    2    1    2    0    0 -0.17457763482E+00  0.28170521934E+02 -0.42198726467E+02  0.10653603315E+03  0.93678092743E+02 0.  0.
          5    1    3    3  502    0  0.33108535178E+02  0.21114583989E+01 -0.39493656375E+02  0.51792588775E+02  0.47000000000E+01 0. -1.
         -5    1    4    4    0  503 -0.54593310604E+01 -0.33771533338E+02 -0.80714752517E+01  0.35462084997E+02  0.47000000000E+01 0.  1.
          5    1    4    4  503    0  0.52847534256E+01  0.61942055272E+02 -0.34127251216E+02  0.71073948150E+02  0.47000000000E+01 0. -1.
         -5    1    3    3    0  502 -0.32933957543E+02 -0.30281980333E+02  0.10669860580E+02  0.46233968217E+02  0.47000000000E+01 0.  1.
<mgrwt>
<rscale>  0 0.96773210E+02</rscale>
<asrwt>0</asrwt>
<pdfrwt beam="1">  1        1 0.21198855E-01 0.97822256E+02</pdfrwt>
<pdfrwt beam="2">  1       -1 0.10272313E-01 0.97822256E+02</pdfrwt>
<totfact> 0.12565792E+04</totfact>
</mgrwt>
</event>
<event>
 8    1  0.8174053E-004  0.9264351E+02  0.7546771E-02  0.1296686E+00
          1   -1    0    0  501    0  0.00000000000E+00  0.00000000000E+00  0.25210897275E+03  0.25210897275E+03  0.00000000000E+00 0. -1.
         -1   -1    0    0    0  501 -0.00000000000E+00 -0.00000000000E+00 -0.36195997121E+02  0.36195997121E+02  0.00000000000E+00 0.  1.
         23    2    1    2    0    0 -0.10405614491E+02 -0.10206755643E+01  0.14378250753E+03  0.17104452492E+03  0.92051623774E+02 0.  0.
         23    2    1    2    0    0  0.10405614491E+02  0.10206755643E+01  0.72130468093E+02  0.11726044495E+03  0.91857982406E+02 0.  0.
          5    1    3    3  502    0  0.78910963744E+01 -0.29195202430E+02  0.13142600272E+03  0.13494263018E+03  0.47000000000E+01 0. -1.
         -5    1    4    4    0  503  0.33160844181E+02  0.34608096279E+02  0.22998448762E+02  0.53370221663E+02  0.47000000000E+01 0.  1.
          5    1    4    4  503    0 -0.22755229690E+02 -0.33587420715E+02  0.49132019331E+02  0.63890223290E+02  0.47000000000E+01 0. -1.
         -5    1    3    3    0  502 -0.18296710866E+02  0.28174526866E+02  0.12356504809E+02  0.36101894739E+02  0.47000000000E+01 0.  1.
<mgrwt>
<rscale>  0 0.92595373E+02</rscale>
<asrwt>0</asrwt>
<pdfrwt beam="1">  1        1 0.38785995E-01 0.92643510E+02</pdfrwt>
<pdfrwt beam="2">  1       -1 0.55686151E-02 0.92643510E+02</pdfrwt>
<totfact> 0.14776688E+04</totfact>
</mgrwt>
</event>
<event>
 8    1  0.8174053E-004  0.1190154E+03  0.7546771E-02  0.1247608E+00
          1   -1    0    0  501    0  0.00000000000E+00  0.00000000000E+00  0.56037186583E+02  0.56037186583E+02  0.00000000000E+00 0. -1.
         -1   -1    0    0    0  501 -0.00000000000E+00 -0.00000000000E+00 -0.26760957534E+03  0.26760957534E+03  0.00000000000E+00 0.  1.
         23    2    1    2    0    0  0.31656624529E+02  0.61214352486E+02 -0.49949543854E+02  0.12293154581E+03  0.88701010130E+02 0.  0.
         23    2    1    2    0    0 -0.31656624529E+02 -0.61214352486E+02 -0.16162284491E+03  0.20071521611E+03  0.97032546893E+02 0.  0.
          5    1    4    4  502    0 -0.31122239456E+02 -0.38564764578E+01 -0.28559600425E+01  0.31838855305E+02  0.47000000000E+01 0. -1.
         -5    1    4    4    0  502 -0.53438507394E+00 -0.57357876028E+02 -0.15876688487E+03  0.16887636081E+03  0.47000000000E+01 0.  1.
          5    1    3    3  503    0 -0.28971890992E+02  0.24539378703E+02 -0.31508593919E+02  0.49562415856E+02  0.47000000000E+01 0. -1.
         -5    1    3    3    0  503  0.60628515521E+02  0.36674973782E+02 -0.18440949935E+02  0.73369129958E+02  0.47000000000E+01 0.  1.
<mgrwt>
<rscale>  0 0.11730665E+03</rscale>
<asrwt>0</asrwt>
<pdfrwt beam="1">  1        1 0.86211056E-02 0.11901535E+03</pdfrwt>
<pdfrwt beam="2">  1       -1 0.41170704E-01 0.11901535E+03</pdfrwt>
<totfact> 0.43640808E+03</totfact>
</mgrwt>
</event>
<event>
 8    1  0.8174053E-004  0.1148806E+03  0.7546771E-02  0.1252321E+00
          2   -1    0    0  501    0  0.00000000000E+00  0.00000000000E+00  0.32632057194E+03  0.32632057194E+03  0.00000000000E+00 0. -1.
         -2   -1    0    0    0  501 -0.00000000000E+00 -0.00000000000E+00 -0.46212846193E+02  0.46212846193E+02  0.00000000000E+00 0.  1.
         23    2    1    2    0    0 -0.68647425887E+02  0.30906062367E+01  0.20760246511E+03  0.23668584573E+03  0.90550456224E+02 0.  0.
         23    2    1    2    0    0  0.68647425887E+02 -0.30906062367E+01  0.72505260644E+02  0.13584757241E+03  0.92062637265E+02 0.  0.
          5    1    4    4  502    0 -0.57369218440E+01 -0.32556670454E+02  0.31133354619E+02  0.45653311305E+02  0.47000000000E+01 0. -1.
         -5    1    4    4    0  502  0.74384347731E+02  0.29466064217E+02  0.41371906025E+02  0.90194261103E+02  0.47000000000E+01 0.  1.
          5    1    3    3  503    0 -0.71865166416E+02  0.27222821084E+02  0.99681364442E+02  0.12595296165E+03  0.47000000000E+01 0. -1.
         -5    1    3    3    0  503  0.32177405287E+01 -0.24132214847E+02  0.10792110066E+03  0.11073288408E+03  0.47000000000E+01 0.  1.
<mgrwt>
<rscale>  0 0.11457734E+03</rscale>
<asrwt>0</asrwt>
<pdfrwt beam="1">  1        2 0.50203164E-01 0.11488059E+03</pdfrwt>
<pdfrwt beam="2">  1       -2 0.71096688E-02 0.11488059E+03</pdfrwt>
<totfact> 0.10594418E+04</totfact>
</mgrwt>
</event>
<event>
 8    1  0.8174053E-004  0.1065588E+03  0.7546771E-02  0.1269160E+00
         -2   -1    0    0    0  501 -0.00000000000E+00  0.00000000000E+00  0.14814471012E+02  0.14814471012E+02  0.00000000000E+00 0.  1.
          2   -1    0    0  501    0  0.00000000000E+00 -0.00000000000E+00 -0.76711305435E+03  0.76711305435E+03  0.00000000000E+00 0. -1.
         23    2    1    2    0    0  0.52395345928E+02 -0.40540602375E+01 -0.30526510802E+03  0.32332886703E+03  0.92698772386E+02 0.  0.
         23    2    1    2    0    0 -0.52395345928E+02  0.40540602375E+01 -0.44703347532E+03  0.45859865833E+03  0.87818527024E+02 0.  0.
          5    1    4    4  502    0 -0.57111081931E+01  0.41051310209E+02 -0.15496569868E+03  0.16048141510E+03  0.47000000000E+01 0. -1.
         -5    1    4    4    0  502 -0.46684237735E+02 -0.36997249972E+02 -0.29206777664E+03  0.29811724323E+03  0.47000000000E+01 0.  1.
          5    1    3    3  503    0  0.38462950918E+02  0.42470162431E+02 -0.17663644958E+03  0.18575693422E+03  0.47000000000E+01 0. -1.
         -5    1    3    3    0  503  0.13932395010E+02 -0.46524222668E+02 -0.12862865844E+03  0.13757193281E+03  0.47000000000E+01 0.  1.
<mgrwt>
<rscale>  0 0.10548845E+03</rscale>
<asrwt>0</asrwt>
<pdfrwt beam="1">  1        2 0.11801738E+00 0.10655876E+03</pdfrwt>
<pdfrwt beam="2">  1       -2 0.22791496E-02 0.10655876E+03</pdfrwt>
<totfact> 0.22106226E+04</totfact>
</mgrwt>
</event>
<event>
 8    1  0.8174053E-004  0.9422162E+02  0.7546771E-02  0.1293722E+00
         -2   -1    0    0    0  501 -0.00000000000E+00  0.00000000000E+00  0.46736849076E+02  0.46736849076E+02  0.00000000000E+00 0.  1.
          2   -1    0    0  501    0  0.00000000000E+00 -0.00000000000E+00 -0.31120678476E+03  0.31120678476E+03  0.00000000000E+00 0. -1.
         23    2    1    2    0    0 -0.13028024660E+02 -0.11066856780E+02 -0.24578416133E+03  0.26322531743E+03  0.92658021931E+02 0.  0.
         23    2    1    2    0    0  0.13028024660E+02  0.11066856780E+02 -0.18685774350E+02  0.94718316405E+02  0.91269910452E+02 0.  0.
          5    1    3    3  502    0 -0.41404802203E+02  0.23723614857E+02 -0.14682635836E+03  0.15445788117E+03  0.47000000000E+01 0. -1.
         -5    1    3    3    0  502  0.28376777543E+02 -0.34790471637E+02 -0.98957802974E+02  0.10876743626E+03  0.47000000000E+01 0.  1.
          5    1    4    4  503    0 -0.25515539328E+02  0.34692602703E+02 -0.23025052303E+02  0.49059784580E+02  0.47000000000E+01 0. -1.
         -5    1    4    4    0  503  0.38543563988E+02 -0.23625745922E+02  0.43392779531E+01  0.45658531825E+02  0.47000000000E+01 0.  1.
<mgrwt>
<rscale>  0 0.93878568E+02</rscale>
<asrwt>0</asrwt>
<pdfrwt beam="1">  1        2 0.47877967E-01 0.94221621E+02</pdfrwt>
<pdfrwt beam="2">  1       -2 0.71902845E-02 0.94221621E+02</pdfrwt>
<totfact> 0.10767026E+04</totfact>
</mgrwt>
</event>
<event>
 8    1  0.8174053E-004  0.1143970E+03  0.7546771E-02  0.1255141E+00
          3   -1    0    0  501    0  0.00000000000E+00  0.00000000000E+00  0.17022616148E+03  0.17022616148E+03  0.00000000000E+00 0. -1.
         -3   -1    0    0    0  501 -0.00000000000E+00 -0.00000000000E+00 -0.73196182685E+02  0.73196182685E+02  0.00000000000E+00 0.  1.
         23    2    1    2    0    0 -0.57860573007E+02  0.13999890665E+02  0.49659462251E+02  0.12471064471E+03  0.97687460126E+02 0.  0.
         23    2    1    2    0    0  0.57860573007E+02 -0.13999890665E+02  0.47370516541E+02  0.11871169945E+03  0.91129901251E+02 0.  0.
          5    1    4    4  502    0  0.39577534700E+02  0.30679403815E+01 -0.21429706186E+02  0.45355438685E+02  0.47000000000E+01 0. -1.
         -5    1    3    3    0  503 -0.18030829375E+02 -0.20041573682E+02 -0.22488951182E+02  0.35420593006E+02  0.47000000000E+01 0.  1.
          5    1    3    3  503    0 -0.39829743632E+02  0.34041464347E+02  0.72148413433E+02  0.89290051706E+02  0.47000000000E+01 0. -1.
         -5    1    4    4    0  502  0.18283038307E+02 -0.17067831046E+02  0.68800222727E+02  0.73356260766E+02  0.47000000000E+01 0.  1.
<mgrwt>
<rscale>  0 0.11298454E+03</rscale>
<asrwt>0</asrwt>
<pdfrwt beam="1">  1        3 0.26188640E-01 0.11439704E+03</pdfrwt>
<pdfrwt beam="2">  1       -3 0.11260951E-01 0.11439704E+03</pdfrwt>
<totfact> 0.18570121E+03</totfact>
</mgrwt>
</event>
<event>
 8    1  0.8174053E-004  0.1624427E+03  0.7546771E-02  0.1186553E+00
          2   -1    0    0  501    0  0.00000000000E+00  0.00000000000E+00  0.61334225511E+03  0.61334225511E+03  0.00000000000E+00 0. -1.
         -2   -1    0    0    0  501 -0.00000000000E+00 -0.00000000000E+00 -0.68209793471E+02  0.68209793471E+02  0.00000000000E+00 0.  1.
         23    2    1    2    0    0  0.56175522805E+02  0.12017876559E+03  0.64325681318E+02  0.17471529046E+03  0.93749743368E+02 0.  0.
         23    2    1    2    0    0 -0.56175522805E+02 -0.12017876559E+03  0.48080678032E+03  0.50683675812E+03  0.90053952277E+02 0.  0.
          5    1    4    4  502    0 -0.80845008497E+02 -0.91738893305E+02  0.37106763537E+03  0.39072396902E+03  0.47000000000E+01 0. -1.
         -5    1    4    4    0  502  0.24669485691E+02 -0.28439872284E+02  0.10973914495E+03  0.11611278911E+03  0.47000000000E+01 0.  1.
          5    1    3    3  503    0  0.68033663798E+02  0.37353627279E+02  0.40074079250E+02  0.87475109079E+02  0.47000000000E+01 0. -1.
         -5    1    3    3    0  503 -0.11858140993E+02  0.82825138311E+02  0.24251602068E+02  0.87240181378E+02  0.47000000000E+01 0.  1.
<mgrwt>
<rscale>  0 0.16191402E+03</rscale>
<asrwt>0</asrwt>
<pdfrwt beam="1">  1        2 0.94360343E-01 0.16244273E+03</pdfrwt>
<pdfrwt beam="2">  1       -2 0.10493815E-01 0.16244273E+03</pdfrwt>
<totfact> 0.29679867E+03</totfact>
</mgrwt>
</event>
<event>
 8    1  0.8174053E-004  0.9439699E+02  0.7546771E-02  0.1293571E+00
         -1   -1    0    0    0  501 -0.00000000000E+00  0.00000000000E+00  0.51630078679E+02  0.51630078679E+02  0.00000000000E+00 0.  1.
          1   -1    0    0  501    0  0.00000000000E+00 -0.00000000000E+00 -0.19816799377E+03  0.19816799377E+03  0.00000000000E+00 0. -1.
         23    2    1    2    0    0  0.11298875808E+02 -0.16796410472E+02 -0.12152218646E+03  0.15387798529E+03  0.92200914070E+02 0.  0.
         23    2    1    2    0    0 -0.11298875808E+02  0.16796410472E+02 -0.25015728632E+02  0.95920087161E+02  0.90360901073E+02 0.  0.
          5    1    4    4  502    0  0.21918653801E+02 -0.28361214757E+02 -0.67677071244E+01  0.36778767607E+02  0.47000000000E+01 0. -1.
         -5    1    3    3    0  503 -0.21079074832E+02  0.22922852120E+02 -0.85356235961E+02  0.90981105525E+02  0.47000000000E+01 0.  1.
          5    1    3    3  503    0  0.32377950640E+02 -0.39719262592E+02 -0.36165950496E+02  0.62896879761E+02  0.47000000000E+01 0. -1.
         -5    1    4    4    0  502 -0.33217529609E+02  0.45157625229E+02 -0.18248021508E+02  0.59141319554E+02  0.47000000000E+01 0.  1.
<mgrwt>
<rscale>  0 0.93944662E+02</rscale>
<asrwt>0</asrwt>
<pdfrwt beam="1">  1        1 0.30487384E-01 0.94396994E+02</pdfrwt>
<pdfrwt beam="2">  1       -1 0.79430890E-02 0.94396994E+02</pdfrwt>
<totfact> 0.11746213E+04</totfact>
</mgrwt>
</event>
<event>
 8    1  0.8174053E-004  0.1189120E+03  0.7546771E-02  0.1247401E+00
          1   -1    0    0  501    0  0.00000000000E+00  0.00000000000E+00  0.26432920498E+02  0.26432920498E+02  0.00000000000E+00 0. -1.
         -1   -1    0    0    0  501 -0.00000000000E+00 -0.00000000000E+00 -0.71108817297E+03  0.71108817297E+03  0.00000000000E+00 0.  1.
         23    2    1    2    0    0  0.10161104058E+02 -0.67416233292E+02 -0.53268892270E+03  0.54456038756E+03  0.90223781726E+02 0.  0.
         23    2    1    2    0    0 -0.10161104058E+02  0.67416233292E+02 -0.15196632978E+03  0.19296070591E+03  0.97426239241E+02 0.  0.
          5    1    3    3  502    0 -0.25088326241E+02 -0.10443193114E+02 -0.48973133484E+02  0.56204467787E+02  0.47000000000E+01 0. -1.
         -5    1    3    3    0  502  0.35249430299E+02 -0.56973040178E+02 -0.48371578921E+03  0.48835591977E+03  0.47000000000E+01 0.  1.
          5    1    4    4  503    0 -0.18552985759E+02  0.90666574187E+02 -0.12943345719E+03  0.15918464372E+03  0.47000000000E+01 0. -1.
         -5    1    4    4    0  503  0.83918817014E+01 -0.23250340895E+02 -0.22532872583E+02  0.33776062190E+02  0.47000000000E+01 0.  1.
<mgrwt>
<rscale>  0 0.11742806E+03</rscale>
<asrwt>0</asrwt>
<pdfrwt beam="1">  1        1 0.40666039E-02 0.11891202E+03</pdfrwt>
<pdfrwt beam="2">  1       -1 0.10939816E+00 0.11891202E+03</pdfrwt>
<totfact> 0.17650291E+03</totfact>
</mgrwt>
</event>
<event>
 8    1  0.8174053E-004  0.1123679E+03  0.7546771E-02  0.1257191E+00
         -1   -1    0    0    0  501 -0.00000000000E+00  0.00000000000E+00  0.98473682085E+01  0.98473682085E+01  0.00000000000E+00 0.  1.
          1   -1    0    0  501    0  0.00000000000E+00 -0.00000000000E+00 -0.12621664531E+04  0.12621664531E+04  0.00000000000E+00 0. -1.
         23    2    1    2    0    0  0.49740012001E+02  0.39943505227E+02 -0.59829143123E+03  0.60875215518E+03  0.92504039654E+02 0.  0.
         23    2    1    2    0    0 -0.49740012001E+02 -0.39943505227E+02 -0.65402765368E+03  0.66326166615E+03  0.89968403316E+02 0.  0.
          5    1    4    4  502    0 -0.72541620546E+02 -0.21618172952E+02 -0.54610496024E+03  0.55134594378E+03  0.47000000000E+01 0. -1.
         -5    1    3    3    0  503  0.57313743909E+02 -0.48908614149E+01 -0.44686448347E+03  0.45057601174E+03  0.47000000000E+01 0.  1.
          5    1    3    3  503    0 -0.75737319082E+01  0.44834366642E+02 -0.15142694776E+03  0.15817614344E+03  0.47000000000E+01 0. -1.
         -5    1    4    4    0  502  0.22801608545E+02 -0.18325332275E+02 -0.10792269344E+03  0.11191572237E+03  0.47000000000E+01 0.  1.
<mgrwt>
<rscale>  0 0.11184478E+03</rscale>
<asrwt>0</asrwt>
<pdfrwt beam="1">  1        1 0.19417958E+00 0.11236792E+03</pdfrwt>
<pdfrwt beam="2">  1       -1 0.15149787E-02 0.11236792E+03</pdfrwt>
<totfact> 0.10222932E+04</totfact>
</mgrwt>
</event>
<event>
 8    1  0.8174053E-004  0.1239354E+03  0.7546771E-02  0.1238508E+00
          1   -1    0    0  501    0  0.00000000000E+00  0.00000000000E+00  0.60291624226E+03  0.60291624226E+03  0.00000000000E+00 0. -1.
         -1   -1    0    0    0  501 -0.00000000000E+00 -0.00000000000E+00 -0.25056735098E+02  0.25056735098E+02  0.00000000000E+00 0.  1.
         23    2    1    2    0    0  0.55699720449E+02 -0.54883918174E+02  0.24066938181E+03  0.26872771361E+03  0.90433010491E+02 0.  0.
         23    2    1    2    0    0 -0.55699720449E+02  0.54883918174E+02  0.33719012535E+03  0.35924526375E+03  0.96152355986E+02 0.  0.
          5    1    3    3  502    0 -0.24510152459E+01 -0.60214521747E+02  0.10966349917E+03  0.12521968358E+03  0.47000000000E+01 0. -1.
         -5    1    4    4    0  503 -0.29142930869E+02  0.65370805248E+02  0.11753607439E+03  0.13769339629E+03  0.47000000000E+01 0.  1.
          5    1    4    4  503    0 -0.26556789580E+02 -0.10486887073E+02  0.21965405096E+03  0.22155186746E+03  0.47000000000E+01 0. -1.
         -5    1    3    3    0  502  0.58150735695E+02  0.53306035726E+01  0.13100588264E+03  0.14350803003E+03  0.47000000000E+01 0.  1.
<mgrwt>
<rscale>  0 0.12282486E+03</rscale>
<asrwt>0</asrwt>
<pdfrwt beam="1">  1        1 0.92756334E-01 0.12393538E+03</pdfrwt>
<pdfrwt beam="2">  1       -1 0.38548828E-02 0.12393538E+03</pdfrwt>
<totfact> 0.86424441E+03</totfact>
</mgrwt>
</event>
<event>
 8    1  0.8174053E-004  0.9575683E+02  0.7546771E-02  0.1291347E+00
         -3   -1    0    0    0  501 -0.00000000000E+00  0.00000000000E+00  0.64794906005E+02  0.64794906005E+02  0.00000000000E+00 0.  1.
          3   -1    0    0  501    0  0.00000000000E+00 -0.00000000000E+00 -0.13964793714E+03  0.13964793714E+03  0.00000000000E+00 0. -1.
         23    2    1    2    0    0 -0.47080033271E+01 -0.19548377838E+02 -0.52925404921E+02  0.10940963932E+03  0.93621932893E+02 0.  0.
         23    2    1    2    0    0  0.47080033271E+01  0.19548377838E+02 -0.21927626210E+02  0.95033203821E+02  0.90256216771E+02 0.  0.
          5    1    4    4  502    0  0.35374029275E+02  0.18450288636E+02 -0.41957768814E+02  0.58088548456E+02  0.47000000000E+01 0. -1.
         -5    1    3    3    0  503  0.40146036804E+02 -0.27935095396E+02 -0.20527945124E+02  0.53249979877E+02  0.47000000000E+01 0.  1.
          5    1    3    3  503    0 -0.44854040131E+02  0.83867175579E+01 -0.32397459797E+02  0.56159659443E+02  0.47000000000E+01 0. -1.
         -5    1    4    4    0  502 -0.30666025947E+02  0.10980892021E+01  0.20030142604E+02  0.36944655365E+02  0.47000000000E+01 0.  1.
<mgrwt>
<rscale>  0 0.94924036E+02</rscale>
<asrwt>0</asrwt>
<pdfrwt beam="1">  1        3 0.21484298E-01 0.95756831E+02</pdfrwt>
<pdfrwt beam="2">  1       -3 0.99684472E-02 0.95756831E+02</pdfrwt>
<totfact> 0.31224547E+03</totfact>
</mgrwt>
</event>
<event>
 8    1  0.8174053E-004  0.9554846E+02  0.7546771E-02  0.1291555E+00
          1   -1    0    0  501    0  0.00000000000E+00  0.00000000000E+00  0.37265537153E+02  0.37265537153E+02  0.00000000000E+00 0. -1.
         -1   -1    0    0    0  501 -0.00000000000E+00 -0.00000000000E+00 -0.37752677478E+03  0.37752677478E+03  0.00000000000E+00 0.  1.
         23    2    1    2    0    0  0.23798187425E+02  0.67909884974E+01 -0.42341958910E+02  0.10192587841E+03  0.89350836343E+02 0.  0.
         23    2    1    2    0    0 -0.23798187425E+02 -0.67909884974E+01 -0.29791927872E+03  0.31286643353E+03  0.92287796306E+02 0.  0.
          5    1    4    4  502    0 -0.28815030201E+02 -0.45363345651E+02 -0.20597318302E+03  0.21292059839E+03  0.47000000000E+01 0. -1.
         -5    1    4    4    0  502  0.50168427753E+01  0.38572357154E+02 -0.91946095695E+02  0.99945835137E+02  0.47000000000E+01 0.  1.
          5    1    3    3  503    0 -0.15679096644E+02 -0.30055550985E+02 -0.18634087583E+01  0.34274371020E+02  0.47000000000E+01 0. -1.
         -5    1    3    3    0  503  0.39477284069E+02  0.36846539483E+02 -0.40478550152E+02  0.67651507387E+02  0.47000000000E+01 0.  1.
<mgrwt>
<rscale>  0 0.94832041E+02</rscale>
<asrwt>0</asrwt>
<pdfrwt beam="1">  1        1 0.57331593E-02 0.95548462E+02</pdfrwt>
<pdfrwt beam="2">  1       -1 0.58081045E-01 0.95548462E+02</pdfrwt>
<totfact> 0.39842085E+03</totfact>
</mgrwt>
</event>
<event>
 8    1  0.8174053E-004  0.9639081E+02  0.7546771E-02  0.1289584E+00
          1   -1    0    0  501    0  0.00000000000E+00  0.00000000000E+00  0.50970973053E+02  0.50970973053E+02  0.00000000000E+00 0. -1.
         -1   -1    0    0    0  501 -0.00000000000E+00 -0.00000000000E+00 -0.33172891089E+03  0.33172891089E+03  0.00000000000E+00 0.  1.
         23    2    1    2    0    0 -0.22135018813E+01 -0.27730454054E+02 -0.26989741065E+03  0.28569917055E+03  0.89473605637E+02 0.  0.
         23    2    1    2    0    0  0.22135018813E+01  0.27730454054E+02 -0.10860527189E+02  0.97000713394E+02  0.92289271725E+02 0.  0.
          5    1    4    4  502    0  0.44332320752E+02  0.87939242569E+01  0.93190312510E+01  0.46385580848E+02  0.47000000000E+01 0. -1.
         -5    1    3    3    0  503  0.24434051409E+01 -0.57578232977E+02 -0.21730746512E+03  0.22486851167E+03  0.47000000000E+01 0.  1.
          5    1    3    3  503    0 -0.46569070222E+01  0.29847778924E+02 -0.52589945526E+02  0.60830658883E+02  0.47000000000E+01 0. -1.
         -5    1    4    4    0  502 -0.42118818871E+02  0.18936529797E+02 -0.20179558440E+02  0.50615132546E+02  0.47000000000E+01 0.  1.
<mgrwt>
<rscale>  0 0.95710555E+02</rscale>
<asrwt>0</asrwt>
<pdfrwt beam="1">  1        1 0.78416882E-02 0.96390805E+02</pdfrwt>
<pdfrwt beam="2">  1       -1 0.51035217E-01 0.96390805E+02</pdfrwt>
<totfact> 0.33272147E+03</totfact>
</mgrwt>
</event>
<event>
 8    1  0.8174053E-004  0.1017172E+03  0.7546771E-02  0.1276851E+00
         -1   -1    0    0    0  501 -0.00000000000E+00  0.00000000000E+00  0.21709248189E+03  0.21709248189E+03  0.00000000000E+00 0.  1.
          1   -1    0    0  501    0  0.00000000000E+00 -0.00000000000E+00 -0.56641687590E+02  0.56641687590E+02  0.00000000000E+00 0. -1.
         23    2    1    2    0    0  0.13078743511E+02 -0.39752525265E+02  0.25456078929E+02  0.10485423544E+03  0.92709664751E+02 0.  0.
         23    2    1    2    0    0 -0.13078743511E+02  0.39752525265E+02  0.13499471537E+03  0.16887993404E+03  0.92442101592E+02 0.  0.
          5    1    4    4  502    0 -0.42079876830E+02  0.38487087367E+01  0.24568304201E+02  0.49104176648E+02  0.47000000000E+01 0. -1.
         -5    1    3    3    0  503  0.40911623281E+02 -0.27520538981E+02  0.46214581621E+02  0.67742295058E+02  0.47000000000E+01 0.  1.
          5    1    3    3  503    0 -0.27832879770E+02 -0.12231986284E+02 -0.20758502693E+02  0.37111940380E+02  0.47000000000E+01 0. -1.
         -5    1    4    4    0  502  0.29001133319E+02  0.35903816529E+02  0.11042641117E+03  0.11977575739E+03  0.47000000000E+01 0.  1.
<mgrwt>
<rscale>  0 0.10165624E+03</rscale>
<asrwt>0</asrwt>
<pdfrwt beam="1">  1        1 0.87141059E-02 0.10171725E+03</pdfrwt>
<pdfrwt beam="2">  1       -1 0.33398843E-01 0.10171725E+03</pdfrwt>
<totfact> 0.60983177E+03</totfact>
</mgrwt>
</event>
<event>
 8    1  0.8174053E-004  0.1026663E+03  0.7546771E-02  0.1278614E+00
          2   -1    0    0  501    0  0.00000000000E+00  0.00000000000E+00  0.20858149066E+03  0.20858149066E+03  0.00000000000E+00 0. -1.
         -2   -1    0    0    0  501 -0.00000000000E+00 -0.00000000000E+00 -0.73172738113E+02  0.73172738113E+02  0.00000000000E+00 0.  1.
         23    2    1    2    0    0  0.22359799666E+02  0.27787272992E+02 -0.18058693846E+02  0.97112366808E+02  0.88501989707E+02 0.  0.
         23    2    1    2    0    0 -0.22359799666E+02 -0.27787272992E+02  0.15346744639E+03  0.18464186196E+03  0.96271838594E+02 0.  0.
          5    1    3    3  502    0  0.26658898867E+02 -0.40485946477E+01  0.29040965178E+02  0.39906837333E+02  0.47000000000E+01 0. -1.
         -5    1    4    4    0  503 -0.32832968893E+02  0.26075355770E+02  0.96935356845E+02  0.10571887926E+03  0.47000000000E+01 0.  1.
          5    1    4    4  503    0  0.10473169227E+02 -0.53862628762E+02  0.56532089548E+02  0.78922982707E+02  0.47000000000E+01 0. -1.
         -5    1    3    3    0  502 -0.42990992010E+01  0.31835867640E+02 -0.47099659024E+02  0.57205529475E+02  0.47000000000E+01 0.  1.
<mgrwt>
<rscale>  0 0.10080428E+03</rscale>
<asrwt>0</asrwt>
<pdfrwt beam="1">  1        2 0.32089460E-01 0.10266626E+03</pdfrwt>
<pdfrwt beam="2">  1       -2 0.11257344E-01 0.10266626E+03</pdfrwt>
<totfact> 0.82681120E+03</totfact>
</mgrwt>
</event>
<event>
 8    1  0.8174053E-004  0.9597668E+02  0.7546771E-02  0.1290677E+00
         -2   -1    0    0    0  501 -0.00000000000E+00  0.00000000000E+00  0.19764582767E+02  0.19764582767E+02  0.00000000000E+00 0. -1.
          2   -1    0    0  501    0  0.00000000000E+00 -0.00000000000E+00 -0.45479160765E+03  0.45479160765E+03  0.00000000000E+00 0.  1.
         23    2    1    2    0    0  0.14010280179E+02 -0.16930797411E+01 -0.23369528195E+03  0.25151808977E+03  0.91916865724E+02 0.  0.
         23    2    1    2    0    0 -0.14010280179E+02  0.16930797411E+01 -0.20133174293E+03  0.22303810065E+03  0.94933498616E+02 0.  0.
          5    1    3    3  502    0  0.47983161088E+02  0.13401999331E+02 -0.17385866439E+03  0.18091689395E+03  0.47000000000E+01 0. -1.
         -5    1    3    3    0  502 -0.33972880909E+02 -0.15095079072E+02 -0.59836617566E+02  0.70601195820E+02  0.47000000000E+01 0.  1.
          5    1    4    4  503    0 -0.80717344612E+01  0.35997755289E+02 -0.28994928220E+02  0.47157047677E+02  0.47000000000E+01 0. -1.
         -5    1    4    4    0  503 -0.59385457177E+01 -0.34304675548E+02 -0.17233681471E+03  0.17588105297E+03  0.47000000000E+01 0.  1.
<mgrwt>
<rscale>  0 0.95222134E+02</rscale>
<asrwt>0</asrwt>
<pdfrwt beam="1">  1        2 0.69967943E-01 0.95976683E+02</pdfrwt>
<pdfrwt beam="2">  1       -2 0.30407049E-02 0.95976683E+02</pdfrwt>
<totfact> 0.25947365E+04</totfact>
</mgrwt>
</event>
<event>
 8    1  0.8174053E-004  0.9836665E+02  0.7546771E-02  0.1283901E+00
          1   -1    0    0  501    0  0.00000000000E+00  0.00000000000E+00  0.26486649532E+03  0.26486649532E+03  0.00000000000E+00 0. -1.
         -1   -1    0    0    0  501 -0.00000000000E+00 -0.00000000000E+00 -0.51163839790E+02  0.51163839790E+02  0.00000000000E+00 0.  1.
         23    2    1    2    0    0  0.28916942083E+02  0.21477110611E+02  0.21989776810E+02  0.10055452383E+03  0.91269963069E+02 0.  0.
         23    2    1    2    0    0 -0.28916942083E+02 -0.21477110611E+02  0.19171287872E+03  0.21547581129E+03  0.91534373656E+02 0.  0.
          5    1    3    3  502    0 -0.16886286124E+02 -0.24770972103E+02  0.17752821316E+02  0.35156797105E+02  0.47000000000E+01 0. -1.
         -5    1    3    3    0  502  0.45803228206E+02  0.46248082714E+02  0.42369554941E+01  0.65397726724E+02  0.47000000000E+01 0.  1.
          5    1    4    4  503    0 -0.49596305226E+02 -0.40667726606E+01  0.17783840451E+03  0.18472931616E+03  0.47000000000E+01 0. -1.
         -5    1    4    4    0  503  0.20679363143E+02 -0.17410337951E+02  0.13874474218E+02  0.30746495124E+02  0.47000000000E+01 0.  1.
<mgrwt>
<rscale>  0 0.98305091E+02</rscale>
<asrwt>0</asrwt>
<pdfrwt beam="1">  1        1 0.40748691E-01 0.98366648E+02</pdfrwt>
<pdfrwt beam="2">  1       -1 0.78713601E-02 0.98366648E+02</pdfrwt>
<totfact> 0.83749739E+03</totfact>
</mgrwt>
</event>
<event>
 8    1  0.8174053E-004  0.1148762E+03  0.7546771E-02  0.1252168E+00
          1   -1    0    0  501    0  0.00000000000E+00  0.00000000000E+00  0.70302127582E+02  0.70302127582E+02  0.00000000000E+00 0. -1.
         -1   -1    0    0    0  501 -0.00000000000E+00 -0.00000000000E+00 -0.19601870165E+03  0.19601870165E+03  0.00000000000E+00 0.  1.
         23    2    1    2    0    0 -0.21344242019E+02 -0.64159600965E+02 -0.92679061286E+02  0.14760062264E+03  0.92868209523E+02 0.  0.
         23    2    1    2    0    0  0.21344242019E+02  0.64159600965E+02 -0.33037512779E+02  0.11872020659E+03  0.91820363419E+02 0.  0.
          5    1    4    4  502    0  0.35958689944E+02 -0.58714707291E+00 -0.37319909145E+02  0.52040731573E+02  0.47000000000E+01 0. -1.
         -5    1    4    4    0  502 -0.14614447925E+02  0.64746748038E+02  0.42823963655E+01  0.66679475015E+02  0.47000000000E+01 0.  1.
          5    1    3    3  503    0  0.63722681555E+01 -0.52931432840E+02 -0.37398454464E+01  0.53650897736E+02  0.47000000000E+01 0. -1.
         -5    1    3    3    0  503 -0.27716510174E+02 -0.11228168125E+02 -0.88939215840E+02  0.93949724906E+02  0.47000000000E+01 0.  1.
<mgrwt>
<rscale>  0 0.11466423E+03</rscale>
<asrwt>0</asrwt>
<pdfrwt beam="1">  1        1 0.10815712E-01 0.11487617E+03</pdfrwt>
<pdfrwt beam="2">  1       -1 0.30156723E-01 0.11487617E+03</pdfrwt>
<totfact> 0.54965998E+03</totfact>
</mgrwt>
</event>
<event>
 7    1  0.8174053E-004  0.2117613E+03  0.7546771E-02  0.1169981E+00
          1   -1    0    0  501    0  0.00000000000E+00  0.00000000000E+00  0.11425612704E+03  0.11425612704E+03  0.00000000000E+00 0. -1.
         -1   -1    0    0    0  501 -0.00000000000E+00 -0.00000000000E+00 -0.23386192887E+03  0.23386192887E+03  0.00000000000E+00 0.  1.
         23    2    1    2    0    0 -0.26912380716E+02  0.39935654050E+02 -0.81284574003E+02  0.13291727329E+03  0.93491640624E+02 0.  0.
          5    1    3    3  502    0 -0.26416214188E+02  0.68894107486E+02 -0.46207516775E+02  0.87186231854E+02  0.47000000000E+01 0. -1.
         -5    1    1    2    0  503 -0.45301637897E+02 -0.75151997507E+02  0.45534870029E+02  0.98972599814E+02  0.47000000000E+01 0.  1.
          5    1    1    2  503    0  0.72214018613E+02  0.35216343457E+02 -0.83856097855E+02  0.11622818281E+03  0.47000000000E+01 0. -1.
         -5    1    3    3    0  502 -0.49616652828E+00 -0.28958453436E+02 -0.35077057228E+02  0.45731041431E+02  0.47000000000E+01 0.  1.
<mgrwt>
<rscale>  0 0.17776796E+03</rscale>
<asrwt>0</asrwt>
<pdfrwt beam="1">  1        1 0.17577866E-01 0.21176133E+03</pdfrwt>
<pdfrwt beam="2">  1       -1 0.35978758E-01 0.21176133E+03</pdfrwt>
<totfact> 0.22268544E+03</totfact>
</mgrwt>
</event>
<event>
 8    1  0.8174053E-004  0.9546988E+02  0.7546771E-02  0.1290566E+00
          3   -1    0    0  501    0  0.00000000000E+00  0.00000000000E+00  0.44343540882E+03  0.44343540882E+03  0.00000000000E+00 0. -1.
         -3   -1    0    0    0  501 -0.00000000000E+00 -0.00000000000E+00 -0.39420411470E+02  0.39420411470E+02  0.00000000000E+00 0.  1.
         23    2    1    2    0    0 -0.20360215198E+02  0.12805629656E+02  0.36934306465E+03  0.38128495555E+03  0.91571804630E+02 0.  0.
         23    2    1    2    0    0  0.20360215198E+02 -0.12805629656E+02  0.34671932696E+02  0.10157086475E+03  0.92390341132E+02 0.  0.
          5    1    4    4  502    0 -0.10083305136E+02 -0.26379831626E+02  0.55171728312E+02  0.62157687891E+02  0.47000000000E+01 0. -1.
         -5    1    3    3    0  503  0.22419180911E+02 -0.26982184616E+02  0.11771260714E+03  0.12291869606E+03  0.47000000000E+01 0.  1.
          5    1    3    3  503    0 -0.42779396109E+02  0.39787814271E+02  0.25163045751E+03  0.25836625949E+03  0.47000000000E+01 0. -1.
         -5    1    4    4    0  502  0.30443520334E+02  0.13574201971E+02 -0.20499795615E+02  0.39413176854E+02  0.47000000000E+01 0.  1.
<mgrwt>
<rscale>  0 0.95271282E+02</rscale>
<asrwt>0</asrwt>
<pdfrwt beam="1">  1        3 0.68220829E-01 0.95469878E+02</pdfrwt>
<pdfrwt beam="2">  1       -3 0.60646790E-02 0.95469878E+02</pdfrwt>
<totfact> 0.76754553E+02</totfact>
</mgrwt>
</event>
<event>
 8    1  0.8174053E-004  0.1159973E+03  0.7546771E-02  0.1250484E+00
         -1   -1    0    0    0  501 -0.00000000000E+00  0.00000000000E+00  0.13702097991E+03  0.13702097991E+03  0.00000000000E+00 0.  1.
          1   -1    0    0  501    0  0.00000000000E+00 -0.00000000000E+00 -0.97017974635E+02  0.97017974635E+02  0.00000000000E+00 0. -1.
         23    2    1    2    0    0 -0.25396422210E+02 -0.64693691583E+02  0.22553124049E+02  0.11673645185E+03  0.91041220305E+02 0.  0.
         23    2    1    2    0    0  0.25396422210E+02  0.64693691583E+02  0.17449881224E+02  0.11730250269E+03  0.92871560725E+02 0.  0.
          5    1    4    4  502    0  0.23805036105E+02  0.33565437018E+02 -0.36246161543E+02  0.55038100737E+02  0.47000000000E+01 0. -1.
         -5    1    3    3    0  503 -0.25829366333E+02  0.16524914301E+02 -0.37203493625E+01  0.31243558652E+02  0.47000000000E+01 0.  1.
          5    1    3    3  503    0  0.43294412344E+00 -0.81218605884E+02  0.26273473412E+02  0.85492893199E+02  0.47000000000E+01 0. -1.
         -5    1    4    4    0  502  0.15913861051E+01  0.31128254565E+02  0.53696042767E+02  0.62264401956E+02  0.47000000000E+01 0.  1.
<mgrwt>
<rscale>  0 0.11563054E+03</rscale>
<asrwt>0</asrwt>
<pdfrwt beam="1">  1        1 0.14925842E-01 0.11599732E+03</pdfrwt>
<pdfrwt beam="2">  1       -1 0.21080151E-01 0.11599732E+03</pdfrwt>
<totfact> 0.65037459E+03</totfact>
</mgrwt>
</event>
<event>
 8    1  0.8174053E-004  0.9202556E+02  0.7546771E-02  0.1298256E+00
          3   -1    0    0  501    0  0.00000000000E+00  0.00000000000E+00  0.18775652108E+02  0.18775652108E+02  0.00000000000E+00 0. -1.
         -3   -1    0    0    0  501 -0.00000000000E+00 -0.00000000000E+00 -0.48892831260E+03  0.48892831260E+03  0.00000000000E+00 0.  1.
         23    2    1    2    0    0 -0.13428561913E+02 -0.11265109467E+01 -0.16213648531E+03  0.18623442124E+03  0.90627945370E+02 0.  0.
         23    2    1    2    0    0  0.13428561913E+02  0.11265109467E+01 -0.30801617517E+03  0.32146954346E+03  0.91033553733E+02 0.  0.
          5    1    4    4  502    0  0.26636849205E+02  0.38208278343E+02 -0.11038288708E+03  0.11989939962E+03  0.47000000000E+01 0. -1.
         -5    1    4    4    0  502 -0.13208287292E+02 -0.37081767397E+02 -0.19763328809E+03  0.20157014384E+03  0.47000000000E+01 0.  1.
          5    1    3    3  503    0  0.18049895997E+02  0.25117054036E+02 -0.17535382943E+02  0.35864255240E+02  0.47000000000E+01 0. -1.
         -5    1    3    3    0  503 -0.31478457909E+02 -0.26243564983E+02 -0.14460110237E+03  0.15037016600E+03  0.47000000000E+01 0.  1.
<mgrwt>
<rscale>  0 0.91925089E+02</rscale>
<asrwt>0</asrwt>
<pdfrwt beam="1">  1        3 0.28885616E-02 0.92025557E+02</pdfrwt>
<pdfrwt beam="2">  1       -3 0.75219748E-01 0.92025557E+02</pdfrwt>
<totfact> 0.19651896E+03</totfact>
</mgrwt>
</event>
<event>
 8    1  0.8174053E-004  0.9991037E+02  0.7546771E-02  0.1282138E+00
          3   -1    0    0  501    0  0.00000000000E+00  0.00000000000E+00  0.84955037306E+03  0.84955037306E+03  0.00000000000E+00 0. -1.
         -3   -1    0    0    0  501 -0.00000000000E+00 -0.00000000000E+00 -0.15572189239E+02  0.15572189239E+02  0.00000000000E+00 0.  1.
         23    2    1    2    0    0 -0.12668645023E+02 -0.35276497467E+02  0.19761408700E+03  0.22143488931E+03  0.92612941768E+02 0.  0.
         23    2    1    2    0    0  0.12668645023E+02  0.35276497467E+02  0.63636409683E+03  0.64368767299E+03  0.89272788656E+02 0.  0.
          5    1    4    4  502    0  0.47060981797E+02  0.31804923202E+01  0.38593596733E+03  0.38883609969E+03  0.47000000000E+01 0. -1.
         -5    1    3    3    0  503  0.41989272541E+01 -0.63283737703E+02  0.10124262224E+03  0.11956011461E+03  0.47000000000E+01 0.  1.
          5    1    3    3  503    0 -0.16867572277E+02  0.28007240236E+02  0.96371464757E+02  0.10187477470E+03  0.47000000000E+01 0. -1.
         -5    1    4    4    0  502 -0.34392336774E+02  0.32096005147E+02  0.25042812949E+03  0.25485157331E+03  0.47000000000E+01 0.  1.
<mgrwt>
<rscale>  0 0.99129241E+02</rscale>
<asrwt>0</asrwt>
<pdfrwt beam="1">  1        3 0.13070002E+00 0.99910374E+02</pdfrwt>
<pdfrwt beam="2">  1       -3 0.23957221E-02 0.99910374E+02</pdfrwt>
<totfact> 0.76843741E+02</totfact>
</mgrwt>
</event>
<event>
 8    1  0.8174053E-004  0.9606212E+02  0.7546771E-02  0.1289359E+00
         -1   -1    0    0    0  501 -0.00000000000E+00  0.00000000000E+00  0.10471403837E+02  0.10471403837E+02  0.00000000000E+00 0.  1.
          1   -1    0    0  501    0  0.00000000000E+00 -0.00000000000E+00 -0.92972607015E+03  0.92972607015E+03  0.00000000000E+00 0. -1.
         23    2    1    2    0    0 -0.17958340679E+02  0.23308106952E+02 -0.34485722565E+03  0.35798664279E+03  0.91444849398E+02 0.  0.
         23    2    1    2    0    0  0.17958340679E+02 -0.23308106952E+02 -0.57439744066E+03  0.58221083120E+03  0.90395034576E+02 0.  0.
          5    1    3    3  502    0  0.20402210739E+02 -0.12433718344E+02 -0.23402379126E+03  0.23528721264E+03  0.47000000000E+01 0. -1.
         -5    1    4    4    0  503  0.21974504079E+02 -0.50096398463E+02 -0.49799333195E+03  0.50101095460E+03  0.47000000000E+01 0.  1.
          5    1    4    4  503    0 -0.40161634005E+01  0.26788291511E+02 -0.76404108713E+02  0.81199876593E+02  0.47000000000E+01 0. -1.
         -5    1    3    3    0  502 -0.38360551417E+02  0.35741825295E+02 -0.11083343439E+03  0.12269943015E+03  0.47000000000E+01 0.  1.
<mgrwt>
<rscale>  0 0.95811435E+02</rscale>
<asrwt>0</asrwt>
<pdfrwt beam="1">  1        1 0.14303482E+00 0.96062117E+02</pdfrwt>
<pdfrwt beam="2">  1       -1 0.16109848E-02 0.96062117E+02</pdfrwt>
<totfact> 0.15844983E+04</totfact>
</mgrwt>
</event>
<event>
 8    1  0.8174053E-004  0.1031789E+03  0.7546771E-02  0.1274085E+00
          1   -1    0    0  501    0  0.00000000000E+00  0.00000000000E+00  0.37404487259E+03  0.37404487259E+03  0.00000000000E+00 0. -1.
         -1   -1    0    0    0  501 -0.00000000000E+00 -0.00000000000E+00 -0.28680891587E+02  0.28680891587E+02  0.00000000000E+00 0.  1.
         23    2    1    2    0    0 -0.48361357149E+02 -0.98859623724E+00  0.19706096895E+03  0.22243857011E+03  0.91137773736E+02 0.  0.
         23    2    1    2    0    0  0.48361357149E+02  0.98859623724E+00  0.14830301206E+03  0.18028719407E+03  0.90387448093E+02 0.  0.
          5    1    3    3  502    0 -0.30809373667E+02  0.36733047398E+02  0.49578089349E+02  0.69127499741E+02  0.47000000000E+01 0. -1.
         -5    1    4    4    0  503 -0.26479937535E+02 -0.45807073239E+01  0.41745132300E+02  0.49868988783E+02  0.47000000000E+01 0.  1.
          5    1    4    4  503    0  0.74841294685E+02  0.55693035611E+01  0.10655787976E+03  0.13041820529E+03  0.47000000000E+01 0. -1.
         -5    1    3    3    0  502 -0.17551983483E+02 -0.37721643635E+02  0.14748287960E+03  0.15331107037E+03  0.47000000000E+01 0.  1.
<mgrwt>
<rscale>  0 0.10301299E+03</rscale>
<asrwt>0</asrwt>
<pdfrwt beam="1">  1        1 0.57545362E-01 0.10317893E+03</pdfrwt>
<pdfrwt beam="2">  1       -1 0.44124451E-02 0.10317893E+03</pdfrwt>
<totfact> 0.12937154E+04</totfact>
</mgrwt>
</event>
<event>
 8    1  0.8174053E-004  0.9649901E+02  0.7546771E-02  0.1288635E+00
         -2   -1    0    0    0  501 -0.00000000000E+00  0.00000000000E+00  0.21663744904E+02  0.21663744904E+02  0.00000000000E+00 0.  1.
          2   -1    0    0  501    0  0.00000000000E+00 -0.00000000000E+00 -0.58168702563E+03  0.58168702563E+03  0.00000000000E+00 0. -1.
         23    2    1    2    0    0 -0.32557577424E+02 -0.14467737406E+02 -0.12420635649E+03  0.15728724851E+03  0.89681370849E+02 0.  0.
         23    2    1    2    0    0  0.32557577424E+02  0.14467737406E+02 -0.43581692423E+03  0.44606352202E+03  0.88130374782E+02 0.  0.
          5    1    4    4  502    0  0.25891781290E+02  0.34673254688E+02 -0.40989656586E+03  0.41220129019E+03  0.47000000000E+01 0. -1.
         -5    1    3    3    0  503 -0.45343769524E+02 -0.42504142283E+02 -0.63114797886E+02  0.88703028460E+02  0.47000000000E+01 0.  1.
          5    1    3    3  503    0  0.12786192100E+02  0.28036404877E+02 -0.61091558605E+02  0.68584220048E+02  0.47000000000E+01 0. -1.
         -5    1    4    4    0  502  0.66657961340E+01 -0.20205517282E+02 -0.25920358373E+02  0.33862231835E+02  0.47000000000E+01 0.  1.
<mgrwt>
<rscale>  0 0.96137058E+02</rscale>
<asrwt>0</asrwt>
<pdfrwt beam="1">  1        2 0.89490307E-01 0.96499013E+02</pdfrwt>
<pdfrwt beam="2">  1       -2 0.33328840E-02 0.96499013E+02</pdfrwt>
<totfact> 0.17368503E+04</totfact>
</mgrwt>
</event>
<event>
 8    1  0.8174053E-004  0.9142420E+02  0.7546771E-02  0.1302858E+00
         -1   -1    0    0    0  501 -0.00000000000E+00  0.00000000000E+00  0.20724973803E+02  0.20724973803E+02  0.00000000000E+00 0.  1.
          1   -1    0    0  501    0  0.00000000000E+00 -0.00000000000E+00 -0.40800311039E+03  0.40800311039E+03  0.00000000000E+00 0. -1.
         23    2    1    2    0    0  0.16137704908E+02 -0.10387757100E+02 -0.25634663629E+03  0.27216168479E+03  0.89387100391E+02 0.  0.
         23    2    1    2    0    0 -0.16137704908E+02  0.10387757100E+02 -0.13093150030E+03  0.15656639940E+03  0.83675854541E+02 0.  0.
          5    1    4    4  502    0 -0.14279883483E+02  0.30996606658E+02 -0.13088920293E+03  0.13534688080E+03  0.47000000000E+01 0. -1.
         -5    1    4    4    0  502 -0.18578214248E+01 -0.20608849558E+02 -0.42297361694E-01  0.21219518600E+02  0.47000000000E+01 0.  1.
          5    1    3    3  503    0  0.42540235722E+02 -0.22452327971E+02 -0.80662916765E+02  0.94033902544E+02  0.47000000000E+01 0. -1.
         -5    1    3    3    0  503 -0.26402530814E+02  0.12064570872E+02 -0.17568371952E+03  0.17812778225E+03  0.47000000000E+01 0.  1.
<mgrwt>
<rscale>  0 0.89997236E+02</rscale>
<asrwt>0</asrwt>
<pdfrwt beam="1">  1        1 0.62769703E-01 0.91424202E+02</pdfrwt>
<pdfrwt beam="2">  1       -1 0.31884578E-02 0.91424202E+02</pdfrwt>
<totfact> 0.18403909E+04</totfact>
</mgrwt>
</event>
<event>
 8    1  0.8174053E-004  0.2901590E+03  0.7546771E-02  0.1090623E+00
          2   -1    0    0  501    0  0.00000000000E+00  0.00000000000E+00  0.28482795059E+04  0.28482795059E+04  0.00000000000E+00 0. -1.
         -2   -1    0    0    0  501 -0.00000000000E+00 -0.00000000000E+00 -0.35164861457E+02  0.35164861457E+02  0.00000000000E+00 0.  1.
         23    2    1    2    0    0  0.15607047752E+03  0.22530786201E+03  0.82240573074E+03  0.87209142570E+03  0.95239919066E+02 0.  0.
         23    2    1    2    0    0 -0.15607047752E+03 -0.22530786201E+03  0.19907089137E+04  0.20113529417E+04  0.86585507946E+02 0.  0.
          5    1    4    4  502    0 -0.34370156076E+02 -0.96322878133E+02  0.96508106835E+03  0.97049624572E+03  0.47000000000E+01 0. -1.
         -5    1    3    3    0  503  0.98021598700E+02  0.18390154688E+03  0.49719218505E+03  0.53911981194E+03  0.47000000000E+01 0.  1.
          5    1    3    3  503    0  0.58048878818E+02  0.41406315133E+02  0.32521354569E+03  0.33297161375E+03  0.47000000000E+01 0. -1.
         -5    1    4    4    0  502 -0.12170032144E+03 -0.12898498388E+03  0.10256278454E+04  0.10408566960E+04  0.47000000000E+01 0.  1.
<mgrwt>
<rscale>  0 0.28947553E+03</rscale>
<asrwt>0</asrwt>
<pdfrwt beam="1">  1        2 0.43819666E+00 0.29015904E+03</pdfrwt>
<pdfrwt beam="2">  1       -2 0.54099810E-02 0.29015904E+03</pdfrwt>
<totfact> 0.44173987E+02</totfact>
</mgrwt>
</event>
<event>
 8    1  0.8174053E-004  0.9147000E+02  0.7546771E-02  0.1299742E+00
         -1   -1    0    0    0  501 -0.00000000000E+00  0.00000000000E+00  0.18019273436E+02  0.18019273436E+02  0.00000000000E+00 0.  1.
          1   -1    0    0  501    0  0.00000000000E+00 -0.00000000000E+00 -0.49439106670E+03  0.49439106670E+03  0.00000000000E+00 0. -1.
         23    2    1    2    0    0  0.13095363488E+01 -0.63465524227E+01 -0.17057591533E+03  0.19322719408E+03  0.90546187267E+02 0.  0.
         23    2    1    2    0    0 -0.13095363488E+01  0.63465524227E+01 -0.30579587794E+03  0.31918314606E+03  0.91240167425E+02 0.  0.
          5    1    4    4  502    0 -0.61774575687E+01  0.28607046578E+02 -0.28893092813E+03  0.29044740544E+03  0.47000000000E+01 0. -1.
         -5    1    4    4    0  502  0.48679212198E+01 -0.22260494156E+02 -0.16864949809E+02  0.28735740623E+02  0.47000000000E+01 0.  1.
          5    1    3    3  503    0  0.15874478652E+02  0.25569724689E+02 -0.14831991305E+03  0.15141564153E+03  0.47000000000E+01 0. -1.
         -5    1    3    3    0  503 -0.14564942303E+02 -0.31916277112E+02 -0.22256002276E+02  0.41811552546E+02  0.47000000000E+01 0.  1.
<mgrwt>
<rscale>  0 0.91296456E+02</rscale>
<asrwt>0</asrwt>
<pdfrwt beam="1">  1        1 0.76060157E-01 0.91470005E+02</pdfrwt>
<pdfrwt beam="2">  1       -1 0.27721962E-02 0.91470005E+02</pdfrwt>
<totfact> 0.17666430E+04</totfact>
</mgrwt>
</event>
<event>
 8    1  0.8174053E-004  0.9319196E+02  0.7546771E-02  0.1296337E+00
          2   -1    0    0  501    0  0.00000000000E+00  0.00000000000E+00  0.25333341278E+02  0.25333341278E+02  0.00000000000E+00 0. -1.
         -2   -1    0    0    0  501 -0.00000000000E+00 -0.00000000000E+00 -0.66503330691E+03  0.66503330691E+03  0.00000000000E+00 0.  1.
         23    2    1    2    0    0  0.15075955927E+02  0.10019634163E+02 -0.78729490074E+02  0.12199620675E+03  0.91416980578E+02 0.  0.
         23    2    1    2    0    0 -0.15075955927E+02 -0.10019634163E+02 -0.56097047556E+03  0.56837044144E+03  0.89606956974E+02 0.  0.
          5    1    4    4  502    0  0.35325026898E+02 -0.18272794214E+02 -0.25790186736E+03  0.26099275033E+03  0.47000000000E+01 0. -1.
         -5    1    4    4    0  502 -0.50400982824E+02  0.82531600510E+01 -0.30306860819E+03  0.30737769111E+03  0.47000000000E+01 0.  1.
          5    1    3    3  503    0  0.36328191531E+02 -0.15975929725E+02 -0.42820779944E+01  0.40191964650E+02  0.47000000000E+01 0. -1.
         -5    1    3    3    0  503 -0.21252235604E+02  0.25995563888E+02 -0.74447412080E+02  0.81804242099E+02  0.47000000000E+01 0.  1.
<mgrwt>
<rscale>  0 0.92745039E+02</rscale>
<asrwt>0</asrwt>
<pdfrwt beam="1">  1        2 0.38974371E-02 0.93191962E+02</pdfrwt>
<pdfrwt beam="2">  1       -2 0.10231282E+00 0.93191962E+02</pdfrwt>
<totfact> 0.16733173E+03</totfact>
</mgrwt>
</event>
<event>
 8    1  0.8174053E-004  0.1153500E+03  0.7546771E-02  0.1251245E+00
         -2   -1    0    0    0  501 -0.00000000000E+00  0.00000000000E+00  0.68156933924E+02  0.68156933924E+02  0.00000000000E+00 0.  1.
          2   -1    0    0  501    0  0.00000000000E+00 -0.00000000000E+00 -0.25331903943E+03  0.25331903943E+03  0.00000000000E+00 0. -1.
         23    2    1    2    0    0  0.20095235623E+01 -0.70038794506E+02 -0.14711357796E+02  0.11566274489E+03  0.90840385213E+02 0.  0.
         23    2    1    2    0    0 -0.20095235623E+01  0.70038794506E+02 -0.17045074770E+03  0.20581322846E+03  0.91630544561E+02 0.  0.
          5    1    4    4  502    0 -0.32625746835E+02  0.75954922630E+02 -0.13497732274E+03  0.15834947832E+03  0.47000000000E+01 0. -1.
         -5    1    3    3    0  503 -0.31568497353E+02 -0.20431557751E+02  0.23371811591E+02  0.44523590986E+02  0.47000000000E+01 0.  1.
          5    1    3    3  503    0  0.33578020915E+02 -0.49607236755E+02 -0.38083169387E+02  0.71139153900E+02  0.47000000000E+01 0. -1.
         -5    1    4    4    0  502  0.30616223273E+02 -0.59161281240E+01 -0.35473424963E+02  0.47463750147E+02  0.47000000000E+01 0.  1.
<mgrwt>
<rscale>  0 0.11519303E+03</rscale>
<asrwt>0</asrwt>
<pdfrwt beam="1">  1        2 0.38972160E-01 0.11535002E+03</pdfrwt>
<pdfrwt beam="2">  1       -2 0.10485682E-01 0.11535002E+03</pdfrwt>
<totfact> 0.75877658E+03</totfact>
</mgrwt>
</event>
<event>
 8    1  0.8174053E-004  0.1225898E+03  0.7546771E-02  0.1239054E+00
         -1   -1    0    0    0  501 -0.00000000000E+00  0.00000000000E+00  0.14314522331E+03  0.14314522331E+03  0.00000000000E+00 0.  1.
          1   -1    0    0  501    0  0.00000000000E+00 -0.00000000000E+00 -0.14114722482E+03  0.14114722482E+03  0.00000000000E+00 0. -1.
         23    2    1    2    0    0  0.79706238622E+02 -0.17215632954E+02 -0.71304584114E+02  0.14181886867E+03  0.91535705066E+02 0.  0.
         23    2    1    2    0    0 -0.79706238622E+02  0.17215632954E+02  0.73302582597E+02  0.14247357946E+03  0.90972466911E+02 0.  0.
          5    1    4    4  502    0  0.25249247879E+01 -0.24860973439E+02  0.16594173736E+01  0.25481108915E+02  0.47000000000E+01 0. -1.
         -5    1    3    3    0  503  0.63683715111E+02  0.28832328104E+02 -0.24932746463E+02  0.74368343806E+02  0.47000000000E+01 0.  1.
          5    1    3    3  503    0  0.16022523511E+02 -0.46047961058E+02 -0.46371837651E+02  0.67450524864E+02  0.47000000000E+01 0. -1.
         -5    1    4    4    0  502 -0.82231163410E+02  0.42076606393E+02  0.71643165223E+02  0.11699247055E+03  0.47000000000E+01 0.  1.
<mgrwt>
<rscale>  0 0.12248462E+03</rscale>
<asrwt>0</asrwt>
<pdfrwt beam="1">  1        1 0.21714957E-01 0.12258975E+03</pdfrwt>
<pdfrwt beam="2">  1       -1 0.22022342E-01 0.12258975E+03</pdfrwt>
<totfact> 0.37721244E+03</totfact>
</mgrwt>
</event>
<event>
 8    1  0.1673149E-003  0.1199321E+03  0.7546771E-02  0.1243480E+00
         -2   -1    0    0    0  501 -0.00000000000E+00  0.00000000000E+00  0.50181928699E+03  0.50181928699E+03  0.00000000000E+00 0.  1.
          2   -1    0    0  501    0  0.00000000000E+00 -0.00000000000E+00 -0.15748759873E+03  0.15748759873E+03  0.00000000000E+00 0. -1.
         23    2    1    2    0    0 -0.68795302278E+02 -0.39510931322E+02 -0.12607867793E+03  0.17401015679E+03  0.89943283951E+02 0.  0.
         23    2    1    2    0    0  0.68795302278E+02  0.39510931322E+02  0.47041036619E+03  0.48529672893E+03  0.89067924542E+02 0.  0.
          5    1    4    4  502    0  0.42469760033E+02  0.76105562812E+01  0.67548703921E+02  0.80290214133E+02  0.47000000000E+01 0. -1.
         -5    1    4    4    0  502  0.26325542246E+02  0.31900375041E+02  0.40286166227E+03  0.40500651479E+03  0.47000000000E+01 0.  1.
          5    1    3    3  503    0 -0.57083313692E+02 -0.65178386134E+02 -0.71666301793E+02  0.11253832918E+03  0.47000000000E+01 0. -1.
         -5    1    3    3    0  503 -0.11711988586E+02  0.25667454812E+02 -0.54412376138E+02  0.61471827614E+02  0.47000000000E+01 0.  1.
<mgrwt>
<rscale>  0 0.11976797E+03</rscale>
<asrwt>0</asrwt>
<pdfrwt beam="1">  1        2 0.24228862E-01 0.11993207E+03</pdfrwt>
<pdfrwt beam="2">  1       -2 0.77202966E-01 0.11993207E+03</pdfrwt>
<totfact> 0.34335112E+02</totfact>
</mgrwt>
</event>
<event>
 8    1  0.8174053E-004  0.1049696E+03  0.7546771E-02  0.1271157E+00
          2   -1    0    0  501    0  0.00000000000E+00  0.00000000000E+00  0.39576737875E+02  0.39576737875E+02  0.00000000000E+00 0. -1.
         -2   -1    0    0    0  501 -0.00000000000E+00 -0.00000000000E+00 -0.28403486534E+03  0.28403486534E+03  0.00000000000E+00 0.  1.
         23    2    1    2    0    0  0.15846324235E+02 -0.47017572268E+02 -0.91776644400E+02  0.13943303255E+03  0.92503297323E+02 0.  0.
         23    2    1    2    0    0 -0.15846324235E+02  0.47017572268E+02 -0.15268148306E+03  0.18417857066E+03  0.90268225455E+02 0.  0.
          5    1    4    4  502    0 -0.29155443513E+02  0.69403364042E+02 -0.12412931920E+03  0.14524821758E+03  0.47000000000E+01 0. -1.
         -5    1    3    3    0  503 -0.14949242210E+02 -0.43365397704E+02 -0.97218365145E+02  0.10759896878E+03  0.47000000000E+01 0.  1.
          5    1    3    3  503    0  0.30795566445E+02 -0.36521745636E+01  0.54417207442E+01  0.31834063774E+02  0.47000000000E+01 0. -1.
         -5    1    4    4    0  502  0.13309119278E+02 -0.22385791775E+02 -0.28552163867E+02  0.38930353079E+02  0.47000000000E+01 0.  1.
<mgrwt>
<rscale>  0 0.10447507E+03</rscale>
<asrwt>0</asrwt>
<pdfrwt beam="1">  1        2 0.60887288E-02 0.10496961E+03</pdfrwt>
<pdfrwt beam="2">  1       -2 0.43697673E-01 0.10496961E+03</pdfrwt>
<totfact> 0.56363000E+03</totfact>
</mgrwt>
</event>
<event>
 8    1  0.8174053E-004  0.9750200E+02  0.7546771E-02  0.1288364E+00
          1   -1    0    0  501    0  0.00000000000E+00  0.00000000000E+00  0.49994591064E+02  0.49994591064E+02  0.00000000000E+00 0. -1.
         -1   -1    0    0    0  501 -0.00000000000E+00 -0.00000000000E+00 -0.21623618964E+03  0.21623618964E+03  0.00000000000E+00 0.  1.
         23    2    1    2    0    0 -0.12676811091E+02 -0.94061654130E+01 -0.27439964373E+02  0.96606098661E+02  0.91272170821E+02 0.  0.
         23    2    1    2    0    0  0.12676811091E+02  0.94061654130E+01 -0.13880163420E+03  0.16962468204E+03  0.96215703570E+02 0.  0.
          5    1    3    3  502    0 -0.23354974013E+02  0.23646207792E+02  0.18885752336E+02  0.38514407634E+02  0.47000000000E+01 0. -1.
         -5    1    4    4    0  503 -0.18780548219E+02 -0.23713086648E+02 -0.11274717468E+03  0.11682908400E+03  0.47000000000E+01 0.  1.
          5    1    4    4  503    0  0.31457359310E+02  0.33119252061E+02 -0.26054459525E+02  0.52795598045E+02  0.47000000000E+01 0. -1.
         -5    1    3    3    0  502  0.10678162922E+02 -0.33052373205E+02 -0.46325716708E+02  0.58091691027E+02  0.47000000000E+01 0.  1.
<mgrwt>
<rscale>  0 0.96259741E+02</rscale>
<asrwt>0</asrwt>
<pdfrwt beam="1">  1        1 0.76914755E-02 0.97501995E+02</pdfrwt>
<pdfrwt beam="2">  1       -1 0.33267106E-01 0.97501995E+02</pdfrwt>
<totfact> 0.72200173E+03</totfact>
</mgrwt>
</event>
<event>
 8    1  0.8174053E-004  0.1083179E+03  0.7546771E-02  0.1263993E+00
         -1   -1    0    0    0  501 -0.00000000000E+00  0.00000000000E+00  0.20720991129E+02  0.20720991129E+02  0.00000000000E+00 0.  1.
          1   -1    0    0  501    0  0.00000000000E+00 -0.00000000000E+00 -0.57209753071E+03  0.57209753071E+03  0.00000000000E+00 0. -1.
         23    2    1    2    0    0 -0.13171262316E+02  0.55916110956E+02 -0.23796161965E+03  0.26121382788E+03  0.91141855558E+02 0.  0.
         23    2    1    2    0    0  0.13171262316E+02 -0.55916110956E+02 -0.31341491993E+03  0.33160469396E+03  0.91829556268E+02 0.  0.
          5    1    3    3  502    0 -0.25010737537E+02 -0.17023595926E+02 -0.10074054725E+03  0.10529049184E+03  0.47000000000E+01 0. -1.
         -5    1    4    4    0  503  0.25583727172E+02 -0.12919519191E+02 -0.21231418072E+02  0.35976439311E+02  0.47000000000E+01 0.  1.
          5    1    4    4  503    0 -0.12412464857E+02 -0.42996591765E+02 -0.29218350186E+03  0.29562825465E+03  0.47000000000E+01 0. -1.
         -5    1    3    3    0  502  0.11839475221E+02  0.72939706882E+02 -0.13722107240E+03  0.15592333605E+03  0.47000000000E+01 0.  1.
<mgrwt>
<rscale>  0 0.10817198E+03</rscale>
<asrwt>0</asrwt>
<pdfrwt beam="1">  1        1 0.88015004E-01 0.10831787E+03</pdfrwt>
<pdfrwt beam="2">  1       -1 0.31878448E-02 0.10831787E+03</pdfrwt>
<totfact> 0.12112425E+04</totfact>
</mgrwt>
</event>
<event>
 8    1  0.1135330E-003  0.1209264E+03  0.7546771E-02  0.1241971E+00
         -1   -1    0    0    0  501 -0.00000000000E+00  0.00000000000E+00  0.64942088932E+02  0.64942088932E+02  0.00000000000E+00 0.  1.
          1   -1    0    0  501    0  0.00000000000E+00 -0.00000000000E+00 -0.79945909181E+03  0.79945909181E+03  0.00000000000E+00 0. -1.
         23    2    1    2    0    0 -0.66568613067E+02 -0.41445104107E+02 -0.73372986587E+03  0.74347223659E+03  0.90787519039E+02 0.  0.
         23    2    1    2    0    0  0.66568613067E+02  0.41445104107E+02 -0.78713700755E+00  0.12092894415E+03  0.92054945813E+02 0.  0.
          5    1    4    4  502    0  0.17744444514E+02 -0.28774452353E+02 -0.77241508872E+01  0.34994098449E+02  0.47000000000E+01 0. -1.
         -5    1    3    3    0  503 -0.48641655001E+02  0.22023800228E+02 -0.35219499088E+03  0.35625055786E+03  0.47000000000E+01 0.  1.
          5    1    3    3  503    0 -0.17926958066E+02 -0.63468904335E+02 -0.38153487499E+03  0.38722167873E+03  0.47000000000E+01 0. -1.
         -5    1    4    4    0  502  0.48824168553E+02  0.70219556460E+02  0.69370138797E+01  0.85934845702E+02  0.47000000000E+01 0.  1.
<mgrwt>
<rscale>  0 0.12068516E+03</rscale>
<asrwt>0</asrwt>
<pdfrwt beam="1">  1        1 0.12299370E+00 0.12092638E+03</pdfrwt>
<pdfrwt beam="2">  1       -1 0.99910907E-02 0.12092638E+03</pdfrwt>
<totfact> 0.13995665E+03</totfact>
</mgrwt>
</event>
<event>
 8    1  0.8174053E-004  0.1014468E+03  0.7546771E-02  0.1277525E+00
          2   -1    0    0  501    0  0.00000000000E+00  0.00000000000E+00  0.34534191949E+03  0.34534191949E+03  0.00000000000E+00 0. -1.
         -2   -1    0    0    0  501 -0.00000000000E+00 -0.00000000000E+00 -0.38666701981E+02  0.38666701981E+02  0.00000000000E+00 0.  1.
         23    2    1    2    0    0 -0.47391577051E+02 -0.24527450279E+01  0.24571506357E+03  0.26565498073E+03  0.89133039821E+02 0.  0.
         23    2    1    2    0    0  0.47391577051E+02  0.24527450279E+01  0.60960153943E+02  0.11835364074E+03  0.89663071412E+02 0.  0.
          5    1    3    3  502    0  0.25102379782E+02  0.26254193709E+01  0.92783355767E+02  0.96269742936E+02  0.47000000000E+01 0. -1.
         -5    1    4    4    0  503 -0.14081795626E+02  0.15602238342E+02  0.49902903129E+02  0.54351785159E+02  0.47000000000E+01 0.  1.
          5    1    4    4  503    0  0.61473372678E+02 -0.13149493314E+02  0.11057250815E+02  0.64001855585E+02  0.47000000000E+01 0. -1.
         -5    1    3    3    0  502 -0.72493956833E+02 -0.50781643988E+01  0.15293170780E+03  0.16938523779E+03  0.47000000000E+01 0.  1.
<mgrwt>
<rscale>  0 0.10132951E+03</rscale>
<asrwt>0</asrwt>
<pdfrwt beam="1">  1        2 0.53129524E-01 0.10144675E+03</pdfrwt>
<pdfrwt beam="2">  1       -2 0.59487236E-02 0.10144675E+03</pdfrwt>
<totfact> 0.12939209E+04</totfact>
</mgrwt>
</event>
<event>
 8    1  0.8174053E-004  0.9517554E+02  0.7546771E-02  0.1290821E+00
         -3   -1    0    0    0  501 -0.00000000000E+00  0.00000000000E+00  0.47940592067E+02  0.47940592067E+02  0.00000000000E+00 0.  1.
          3   -1    0    0  501    0  0.00000000000E+00 -0.00000000000E+00 -0.43939522143E+03  0.43939522143E+03  0.00000000000E+00 0. -1.
         23    2    1    2    0    0  0.95116285354E+01  0.31051557571E+02 -0.11745662974E+02  0.95897570198E+02  0.89463473364E+02 0.  0.
         23    2    1    2    0    0 -0.95116285354E+01 -0.31051557571E+02 -0.37970896639E+03  0.39143824330E+03  0.89388639412E+02 0.  0.
          5    1    4    4  502    0 -0.26261850813E+02 -0.55533939538E+02 -0.29994610134E+03  0.30620819218E+03  0.47000000000E+01 0. -1.
         -5    1    4    4    0  502  0.16750222277E+02  0.24482381967E+02 -0.79762865051E+02  0.85230051122E+02  0.47000000000E+01 0.  1.
          5    1    3    3  503    0 -0.32264301432E+02 -0.10913350858E+02 -0.12236859337E+02  0.36495439445E+02  0.47000000000E+01 0. -1.
         -5    1    3    3    0  503  0.41775929968E+02  0.41964908429E+02  0.49119636311E+00  0.59402130753E+02  0.47000000000E+01 0.  1.
<mgrwt>
<rscale>  0 0.95157950E+02</rscale>
<asrwt>0</asrwt>
<pdfrwt beam="1">  1        3 0.67599264E-01 0.95175540E+02</pdfrwt>
<pdfrwt beam="2">  1       -3 0.73754758E-02 0.95175540E+02</pdfrwt>
<totfact> 0.57229978E+02</totfact>
</mgrwt>
</event>
<event>
 8    1  0.8174053E-004  0.1313879E+03  0.7546771E-02  0.1226842E+00
          2   -1    0    0  501    0  0.00000000000E+00  0.00000000000E+00  0.15123932615E+03  0.15123932615E+03  0.00000000000E+00 0. -1.
         -2   -1    0    0    0  501 -0.00000000000E+00 -0.00000000000E+00 -0.27423873674E+03  0.27423873674E+03  0.00000000000E+00 0.  1.
         23    2    1    2    0    0 -0.21799846427E+02  0.87069662809E+02 -0.22608417354E+03  0.26148962949E+03  0.95950056397E+02 0.  0.
         23    2    1    2    0    0  0.21799846427E+02 -0.87069662809E+02  0.10308476295E+03  0.16398843340E+03  0.90605620411E+02 0.  0.
          5    1    4    4  502    0  0.52372971347E+02 -0.42419599392E+02  0.32634685765E+02  0.75029749135E+02  0.47000000000E+01 0.  1.
         -5    1    4    4    0  502 -0.30573124920E+02 -0.44650063417E+02  0.70450077185E+02  0.88958684264E+02  0.47000000000E+01 0. -1.
          5    1    3    3  503    0  0.18864850991E+02 -0.11213914110E+02 -0.22690007180E+02  0.31914900884E+02  0.47000000000E+01 0. -1.
         -5    1    3    3    0  503 -0.40664697418E+02  0.98283576920E+02 -0.20339416636E+03  0.22957472861E+03  0.47000000000E+01 0.  1.
<mgrwt>
<rscale>  0 0.13041444E+03</rscale>
<asrwt>0</asrwt>
<pdfrwt beam="1">  1        2 0.23267589E-01 0.13138787E+03</pdfrwt>
<pdfrwt beam="2">  1       -2 0.42190575E-01 0.13138787E+03</pdfrwt>
<totfact> 0.12286074E+03</totfact>
</mgrwt>
</event>
<event>
 8    1  0.8174053E-004  0.1167525E+03  0.7546771E-02  0.1248695E+00
         -2   -1    0    0    0  501 -0.00000000000E+00  0.00000000000E+00  0.26906214982E+03  0.26906214982E+03  0.00000000000E+00 0.  1.
          2   -1    0    0  501    0  0.00000000000E+00 -0.00000000000E+00 -0.10458027817E+03  0.10458027817E+03  0.00000000000E+00 0. -1.
         23    2    1    2    0    0 -0.28803007665E+02  0.65272661966E+02 -0.52139229944E+02  0.12756145444E+03  0.91996150506E+02 0.  0.
         23    2    1    2    0    0  0.28803007665E+02 -0.65272661966E+02  0.21662110159E+03  0.24608097356E+03  0.92417586221E+02 0.  0.
          5    1    4    4  502    0 -0.15253051964E+02 -0.60448674424E+02  0.75153380196E+02  0.97758981116E+02  0.47000000000E+01 0. -1.
         -5    1    3    3    0  503  0.21978127591E+02 -0.10446673261E+02 -0.15235202437E+02  0.29092481295E+02  0.47000000000E+01 0.  1.
          5    1    3    3  503    0 -0.50781135256E+02  0.75719335227E+02 -0.36904027507E+02  0.98468973140E+02  0.47000000000E+01 0. -1.
         -5    1    4    4    0  502  0.44056059629E+02 -0.48239875412E+01  0.14146772140E+03  0.14832199245E+03  0.47000000000E+01 0.  1.
<mgrwt>
<rscale>  0 0.11666907E+03</rscale>
<asrwt>0</asrwt>
<pdfrwt beam="1">  1        2 0.16089274E-01 0.11675249E+03</pdfrwt>
<pdfrwt beam="2">  1       -2 0.41394177E-01 0.11675249E+03</pdfrwt>
<totfact> 0.19251829E+03</totfact>
</mgrwt>
</event>
<event>
 8    1  0.8174053E-004  0.9486763E+02  0.7546771E-02  0.1292185E+00
         -1   -1    0    0    0  501 -0.00000000000E+00  0.00000000000E+00  0.39051066510E+03  0.39051066510E+03  0.00000000000E+00 0.  1.
          1   -1    0    0  501    0  0.00000000000E+00 -0.00000000000E+00 -0.43243828325E+03  0.43243828325E+03  0.00000000000E+00 0. -1.
         23    2    1    2    0    0 -0.22630584946E+02 -0.13007350387E+01  0.37953628258E+03  0.39121305746E+03  0.92119657195E+02 0.  0.
         23    2    1    2    0    0  0.22630584946E+02  0.13007350387E+01 -0.42146390073E+03  0.43173589090E+03  0.90830746916E+02 0.  0.
          5    1    3    3  502    0 -0.49379383113E+02 -0.37413523467E+01  0.11528904439E+03  0.12556263358E+03  0.47000000000E+01 0. -1.
         -5    1    3    3    0  502  0.26748798167E+02  0.24406173080E+01  0.26424723819E+03  0.26565042388E+03  0.47000000000E+01 0.  1.
          5    1    4    4  503    0  0.41014969335E+02  0.15163379942E+02 -0.38996226830E+03  0.39243447414E+03  0.47000000000E+01 0. -1.
         -5    1    4    4    0  503 -0.18384384389E+02 -0.13862644904E+02 -0.31501632434E+02  0.39301416757E+02  0.47000000000E+01 0.  1.
<mgrwt>
<rscale>  0 0.94553300E+02</rscale>
<asrwt>0</asrwt>
<pdfrwt beam="1">  1        1 0.66528966E-01 0.94867626E+02</pdfrwt>
<pdfrwt beam="2">  1       -1 0.60078565E-01 0.94867626E+02</pdfrwt>
<totfact> 0.16615734E+02</totfact>
</mgrwt>
</event>
<event>
 8    1  0.8174053E-004  0.9571447E+02  0.7546771E-02  0.1289806E+00
         -1   -1    0    0    0  501 -0.00000000000E+00  0.00000000000E+00  0.27393439068E+03  0.27393439068E+03  0.00000000000E+00 0.  1.
          1   -1    0    0  501    0  0.00000000000E+00 -0.00000000000E+00 -0.33305491648E+02  0.33305491648E+02  0.00000000000E+00 0. -1.
         23    2    1    2    0    0 -0.35682868205E-01 -0.27368614059E+02  0.12275397666E+03  0.15565923987E+03  0.91718143574E+02 0.  0.
         23    2    1    2    0    0  0.35682868205E-01  0.27368614059E+02  0.11787492237E+03  0.15158064247E+03  0.91286097173E+02 0.  0.
          5    1    4    4  502    0  0.16917005122E+02  0.57501175971E+02  0.80503068776E+02  0.10047588956E+03  0.47000000000E+01 0. -1.
         -5    1    3    3    0  503 -0.35861730835E+02 -0.29120763065E+02  0.10613653439E+03  0.11584962888E+03  0.47000000000E+01 0.  1.
          5    1    3    3  503    0  0.35826047967E+02  0.17521490064E+01  0.16617442275E+02  0.39809610986E+02  0.47000000000E+01 0. -1.
         -5    1    4    4    0  502 -0.16881322254E+02 -0.30132561912E+02  0.37371853598E+02  0.51104752908E+02  0.47000000000E+01 0.  1.
<mgrwt>
<rscale>  0 0.95610822E+02</rscale>
<asrwt>0</asrwt>
<pdfrwt beam="1">  1        1 0.51239220E-02 0.95714472E+02</pdfrwt>
<pdfrwt beam="2">  1       -1 0.42143751E-01 0.95714472E+02</pdfrwt>
<totfact> 0.82772063E+03</totfact>
</mgrwt>
</event>
<event>
 8    1  0.8174053E-004  0.9558598E+02  0.7546771E-02  0.1297302E+00
          1   -1    0    0  501    0  0.00000000000E+00  0.00000000000E+00  0.41983466080E+02  0.41983466080E+02  0.00000000000E+00 0. -1.
         -1   -1    0    0    0  501 -0.00000000000E+00 -0.00000000000E+00 -0.19844715699E+03  0.19844715699E+03  0.00000000000E+00 0.  1.
         23    2    1    2    0    0  0.70586437699E+01 -0.28840421261E+02 -0.97225082697E+02  0.12797666284E+03  0.77741335053E+02 0.  0.
         23    2    1    2    0    0 -0.70586437699E+01  0.28840421261E+02 -0.59238608214E+02  0.11245396023E+03  0.90857504469E+02 0.  0.
          5    1    3    3  502    0  0.19990122415E+02 -0.11674801858E+02  0.43736589441E+01  0.24023423677E+02  0.47000000000E+01 0. -1.
         -5    1    4    4    0  503  0.23904245326E+02 -0.28632855208E+01  0.12858872329E+02  0.27695702666E+02  0.47000000000E+01 0.  1.
          5    1    4    4  503    0 -0.30962889096E+02  0.31703706781E+02 -0.72097480544E+02  0.84758257566E+02  0.47000000000E+01 0. -1.
         -5    1    3    3    0  502 -0.12931478645E+02 -0.17165619403E+02 -0.10159874164E+03  0.10395323916E+03  0.47000000000E+01 0.  1.
<mgrwt>
<rscale>  0 0.92331643E+02</rscale>
<asrwt>0</asrwt>
<pdfrwt beam="1">  1        1 0.64589949E-02 0.95585985E+02</pdfrwt>
<pdfrwt beam="2">  1       -1 0.30530331E-01 0.95585985E+02</pdfrwt>
<totfact> 0.10509562E+04</totfact>
</mgrwt>
</event>
<event>
 8    1  0.8174053E-004  0.1031308E+03  0.7546771E-02  0.1274044E+00
          1   -1    0    0  501    0  0.00000000000E+00  0.00000000000E+00  0.11302286445E+04  0.11302286445E+04  0.00000000000E+00 0. -1.
         -1   -1    0    0    0  501 -0.00000000000E+00 -0.00000000000E+00 -0.94144052122E+01  0.94144052122E+01  0.00000000000E+00 0.  1.
         23    2    1    2    0    0  0.37197481863E+02  0.28514216871E+02  0.52452182862E+03  0.53456440451E+03  0.91865339738E+02 0.  0.
         23    2    1    2    0    0 -0.37197481863E+02 -0.28514216871E+02  0.59629241071E+03  0.60507864524E+03  0.91426553280E+02 0.  0.
          5    1    3    3  502    0  0.22774610832E+02  0.61794140816E+02  0.36274720499E+03  0.36870696151E+03  0.47000000000E+01 0. -1.
         -5    1    3    3    0  502  0.14422871031E+02 -0.33279923945E+02  0.16177462363E+03  0.16585744299E+03  0.47000000000E+01 0.  1.
          5    1    4    4  503    0  0.28084391887E+02 -0.82204410744E+01  0.10767034204E+03  0.11167498052E+03  0.47000000000E+01 0. -1.
         -5    1    4    4    0  503 -0.65281873750E+02 -0.20293775796E+02  0.48862206866E+03  0.49340366472E+03  0.47000000000E+01 0.  1.
<mgrwt>
<rscale>  0 0.10303296E+03</rscale>
<asrwt>0</asrwt>
<pdfrwt beam="1">  1        1 0.17388122E+00 0.10313076E+03</pdfrwt>
<pdfrwt beam="2">  1       -1 0.14483709E-02 0.10313076E+03</pdfrwt>
<totfact> 0.13322749E+04</totfact>
</mgrwt>
</event>
<event>
 8    1  0.8174053E-004  0.9500099E+02  0.7546771E-02  0.1294045E+00
          1   -1    0    0  501    0  0.00000000000E+00  0.00000000000E+00  0.17529474352E+03  0.17529474352E+03  0.00000000000E+00 0. -1.
         -1   -1    0    0    0  501 -0.00000000000E+00 -0.00000000000E+00 -0.69528096758E+02  0.69528096758E+02  0.00000000000E+00 0.  1.
         23    2    1    2    0    0 -0.30740845169E+02  0.55202156538E+01  0.11865124781E+03  0.14895208566E+03  0.84457876321E+02 0.  0.
         23    2    1    2    0    0  0.30740845169E+02 -0.55202156538E+01 -0.12884601045E+02  0.95870754620E+02  0.89720211239E+02 0.  0.
          5    1    4    4  502    0  0.43092436780E+02  0.29090270341E+02 -0.23619621080E+02  0.57299026485E+02  0.47000000000E+01 0. -1.
         -5    1    4    4    0  502 -0.12351591611E+02 -0.34610485995E+02  0.10735020035E+02  0.38571728135E+02  0.47000000000E+01 0.  1.
          5    1    3    3  503    0 -0.57888117987E+02 -0.92120358131E+01  0.77248825070E+02  0.97084328203E+02  0.47000000000E+01 0. -1.
         -5    1    3    3    0  503  0.27147272819E+02  0.14732251467E+02  0.41402422735E+02  0.51867757452E+02  0.47000000000E+01 0.  1.
<mgrwt>
<rscale>  0 0.93737718E+02</rscale>
<asrwt>0</asrwt>
<pdfrwt beam="1">  1        1 0.26968422E-01 0.95000993E+02</pdfrwt>
<pdfrwt beam="2">  1       -1 0.10696630E-01 0.95000993E+02</pdfrwt>
<totfact> 0.87343967E+03</totfact>
</mgrwt>
</event>
<event>
 8    1  0.8174053E-004  0.9464125E+02  0.7546771E-02  0.1294241E+00
         -1   -1    0    0    0  501 -0.00000000000E+00  0.00000000000E+00  0.79972168334E+02  0.79972168334E+02  0.00000000000E+00 0.  1.
          1   -1    0    0  501    0  0.00000000000E+00 -0.00000000000E+00 -0.29107278540E+03  0.29107278540E+03  0.00000000000E+00 0. -1.
         23    2    1    2    0    0  0.97420913863E+01  0.33026812443E+01 -0.25207713397E+03  0.26791377362E+03  0.90161480556E+02 0.  0.
         23    2    1    2    0    0 -0.97420913863E+01 -0.33026812443E+01  0.40976516908E+02  0.10313118011E+03  0.94080547008E+02 0.  0.
          5    1    4    4  502    0  0.16309520226E+02 -0.29193602357E+02  0.54160383502E+02  0.63825574887E+02  0.47000000000E+01 0. -1.
         -5    1    3    3    0  503 -0.36137074939E+02 -0.63578791067E+01 -0.16296332933E+03  0.16710908867E+03  0.47000000000E+01 0.  1.
          5    1    3    3  503    0  0.45879166325E+02  0.96605603511E+01 -0.89113804645E+02  0.10080468495E+03  0.47000000000E+01 0. -1.
         -5    1    4    4    0  502 -0.26051611613E+02  0.25890921112E+02 -0.13183866594E+02  0.39305605224E+02  0.47000000000E+01 0.  1.
<mgrwt>
<rscale>  0 0.93652135E+02</rscale>
<asrwt>0</asrwt>
<pdfrwt beam="1">  1        1 0.44780429E-01 0.94641246E+02</pdfrwt>
<pdfrwt beam="2">  1       -1 0.12303410E-01 0.94641246E+02</pdfrwt>
<totfact> 0.37894307E+03</totfact>
</mgrwt>
</event>
<event>
 7    1  0.8174053E-004  0.2246622E+03  0.7546771E-02  0.1134073E+00
         -1   -1    0    0    0  501 -0.00000000000E+00  0.00000000000E+00  0.45605655138E+02  0.45605655138E+02  0.00000000000E+00 0.  1.
          1   -1    0    0  501    0  0.00000000000E+00 -0.00000000000E+00 -0.10197086909E+04  0.10197086909E+04  0.00000000000E+00 0. -1.
         23    2    1    2    0    0 -0.17097501495E+03  0.69156418047E+02 -0.50186646449E+03  0.54236075108E+03  0.90940476335E+02 0.  0.
          5    1    3    3  502    0 -0.91156355121E+02  0.34013357282E+01 -0.15038531688E+03  0.17595136742E+03  0.47000000000E+01 0. -1.
         -5    1    3    3    0  502 -0.79818659830E+02  0.65755082319E+02 -0.35148114762E+03  0.36640938366E+03  0.47000000000E+01 0.  1.
          5    1    1    2  503    0  0.15389399521E+03 -0.44178107073E+02 -0.23897920030E+03  0.28769465598E+03  0.47000000000E+01 0. -1.
         -5    1    1    2    0  503  0.17081019744E+02 -0.24978310974E+02 -0.23325737095E+03  0.23525893895E+03  0.47000000000E+01 0.  1.
<mgrwt>
<rscale>  0 0.21974603E+03</rscale>
<asrwt>0</asrwt>
<pdfrwt beam="1">  1        1 0.15687826E+00 0.22466215E+03</pdfrwt>
<pdfrwt beam="2">  1       -1 0.70162545E-02 0.22466215E+03</pdfrwt>
<totfact> 0.16266244E+03</totfact>
</mgrwt>
</event>
<event>
 8    1  0.8174053E-004  0.9250538E+02  0.7546771E-02  0.1297303E+00
          2   -1    0    0  501    0  0.00000000000E+00  0.00000000000E+00  0.58793394636E+03  0.58793394636E+03  0.00000000000E+00 0. -1.
         -2   -1    0    0    0  501 -0.00000000000E+00 -0.00000000000E+00 -0.19819637574E+02  0.19819637574E+02  0.00000000000E+00 0.  1.
         23    2    1    2    0    0 -0.40267268212E+01  0.92818964222E+01  0.12504017608E+03  0.15512577561E+03  0.91250164363E+02 0.  0.
         23    2    1    2    0    0  0.40267268212E+01 -0.92818964222E+01  0.44307413271E+03  0.45262780833E+03  0.91950408698E+02 0.  0.
          5    1    3    3  502    0  0.17641232996E+02 -0.32741049378E+02  0.85336480804E+02  0.93207265661E+02  0.47000000000E+01 0. -1.
         -5    1    4    4    0  503 -0.14358684650E+02 -0.43838783291E+02  0.15256863037E+03  0.15945936071E+03  0.47000000000E+01 0.  1.
          5    1    4    4  503    0  0.18385411472E+02  0.34556886869E+02  0.29050550234E+03  0.29316844761E+03  0.47000000000E+01 0. -1.
         -5    1    3    3    0  502 -0.21667959817E+02  0.42022945800E+02  0.39703695271E+02  0.61918509951E+02  0.47000000000E+01 0.  1.
<mgrwt>
<rscale>  0 0.92330887E+02</rscale>
<asrwt>0</asrwt>
<pdfrwt beam="1">  1        2 0.90451363E-01 0.92505382E+02</pdfrwt>
<pdfrwt beam="2">  1       -2 0.30491755E-02 0.92505382E+02</pdfrwt>
<totfact> 0.19465604E+04</totfact>
</mgrwt>
</event>
<event>
 8    1  0.8174053E-004  0.1058076E+03  0.7546771E-02  0.1269972E+00
          1   -1    0    0  501    0  0.00000000000E+00  0.00000000000E+00  0.36691817703E+02  0.36691817703E+02  0.00000000000E+00 0. -1.
         -1   -1    0    0    0  501 -0.00000000000E+00 -0.00000000000E+00 -0.29688406242E+03  0.29688406242E+03  0.00000000000E+00 0.  1.
         23    2    1    2    0    0  0.87111949660E+01  0.48339979578E+02 -0.13098063644E+03  0.16657021901E+03  0.90427165130E+02 0.  0.
         23    2    1    2    0    0 -0.87111949660E+01 -0.48339979578E+02 -0.12921160827E+03  0.16700566111E+03  0.93715594159E+02 0.  0.
          5    1    3    3  502    0 -0.38687553223E+02  0.17252014924E+02 -0.35665954152E+02  0.55574356307E+02  0.47000000000E+01 0.  1.
         -5    1    4    4    0  503 -0.27865106776E+02 -0.69316776536E+01 -0.11553838247E+03  0.11914579369E+03  0.47000000000E+01 0.  1.
          5    1    4    4  503    0  0.19153911810E+02 -0.41408301924E+02 -0.13673225802E+02  0.47859867423E+02  0.47000000000E+01 0. -1.
         -5    1    3    3    0  502  0.47398748189E+02  0.31087964654E+02 -0.95314682292E+02  0.11099586270E+03  0.47000000000E+01 0. -1.
<mgrwt>
<rscale>  0 0.10507471E+03</rscale>
<asrwt>0</asrwt>
<pdfrwt beam="1">  1        1 0.56448950E-02 0.10580761E+03</pdfrwt>
<pdfrwt beam="2">  1       -1 0.45674471E-01 0.10580761E+03</pdfrwt>
<totfact> 0.63547855E+03</totfact>
</mgrwt>
</event>
<event>
 8    1  0.8174053E-004  0.9160216E+02  0.7546771E-02  0.1299257E+00
          1   -1    0    0  501    0  0.00000000000E+00  0.00000000000E+00  0.14385175693E+03  0.14385175693E+03  0.00000000000E+00 0. -1.
         -1   -1    0    0    0  501 -0.00000000000E+00 -0.00000000000E+00 -0.68624820588E+02  0.68624820588E+02  0.00000000000E+00 0.  1.
         23    2    1    2    0    0 -0.63607348190E+01 -0.48942097801E+00 -0.39737198708E+01  0.91688306387E+02  0.91379738445E+02 0.  0.
         23    2    1    2    0    0  0.63607348190E+01  0.48942097801E+00  0.79200656217E+02  0.12078827113E+03  0.90974524005E+02 0.  0.
          5    1    4    4  502    0 -0.25806967652E+02 -0.16519467945E+02  0.78160500457E+02  0.84083566957E+02  0.47000000000E+01 0. -1.
         -5    1    4    4    0  502  0.32167702471E+02  0.17008888923E+02  0.10401557599E+01  0.36704704176E+02  0.47000000000E+01 0.  1.
          5    1    3    3  503    0 -0.24237726317E+02  0.40036956501E+02 -0.30439123644E+01  0.47135768429E+02  0.47000000000E+01 0. -1.
         -5    1    3    3    0  503  0.17876991498E+02 -0.40526377479E+02 -0.92980750648E+00  0.44552537959E+02  0.47000000000E+01 0.  1.
<mgrwt>
<rscale>  0 0.91500932E+02</rscale>
<asrwt>0</asrwt>
<pdfrwt beam="1">  1        1 0.22131039E-01 0.91602157E+02</pdfrwt>
<pdfrwt beam="2">  1       -1 0.10557665E-01 0.91602157E+02</pdfrwt>
<totfact> 0.11352443E+04</totfact>
</mgrwt>
</event>
<event>
 8    1  0.8174053E-004  0.9385815E+02  0.7546771E-02  0.1295246E+00
          2   -1    0    0  501    0  0.00000000000E+00  0.00000000000E+00  0.47345292557E+03  0.47345292557E+03  0.00000000000E+00 0. -1.
         -2   -1    0    0    0  501 -0.00000000000E+00 -0.00000000000E+00 -0.18788944885E+02  0.18788944885E+02  0.00000000000E+00 0.  1.
         23    2    1    2    0    0  0.12496395610E+02 -0.19189581974E+02  0.18341335438E+03  0.20603351833E+03  0.91021712537E+02 0.  0.
         23    2    1    2    0    0 -0.12496395610E+02  0.19189581974E+02  0.27125062631E+03  0.28620835212E+03  0.88396372053E+02 0.  0.
          5    1    3    3  502    0 -0.35955850837E+02 -0.17567470961E+02  0.11649421774E+03  0.12326569681E+03  0.47000000000E+01 0. -1.
         -5    1    3    3    0  502  0.48452246448E+02 -0.16221110125E+01  0.66919136641E+02  0.82767821517E+02  0.47000000000E+01 0.  1.
          5    1    4    4  503    0 -0.46271383920E+02 -0.25069965023E+01  0.18773606704E+03  0.19342762695E+03  0.47000000000E+01 0. -1.
         -5    1    4    4    0  503  0.33774988310E+02  0.21696578476E+02  0.83514559268E+02  0.92780725168E+02  0.47000000000E+01 0.  1.
<mgrwt>
<rscale>  0 0.93215643E+02</rscale>
<asrwt>0</asrwt>
<pdfrwt beam="1">  1        2 0.72838902E-01 0.93858149E+02</pdfrwt>
<pdfrwt beam="2">  1       -2 0.28906073E-02 0.93858149E+02</pdfrwt>
<totfact> 0.26690657E+04</totfact>
</mgrwt>
</event>
<event>
 8    1  0.8174053E-004  0.1561820E+03  0.7546771E-02  0.1193880E+00
          3   -1    0    0  501    0  0.00000000000E+00  0.00000000000E+00  0.34869116403E+03  0.34869116403E+03  0.00000000000E+00 0. -1.
         -3   -1    0    0    0  501 -0.00000000000E+00 -0.00000000000E+00 -0.89803115476E+02  0.89803115476E+02  0.00000000000E+00 0.  1.
         23    2    1    2    0    0 -0.98271281861E+02 -0.81844885690E+02  0.23475820857E+03  0.28045929331E+03  0.84794861622E+02 0.  0.
         23    2    1    2    0    0  0.98271281861E+02  0.81844885690E+02  0.24129839979E+02  0.15803498620E+03  0.89649191476E+02 0.  0.
          5    1    3    3  502    0 -0.27656412506E+02 -0.11053079370E+01  0.12027272432E+03  0.12350593942E+03  0.47000000000E+01 0. -1.
         -5    1    3    3    0  502 -0.70614869355E+02 -0.80739577753E+02  0.11448548426E+03  0.15695335388E+03  0.47000000000E+01 0.  1.
          5    1    4    4  503    0  0.31894741973E+02 -0.10637010788E+02 -0.15615695888E+02  0.37367907649E+02  0.47000000000E+01 0. -1.
         -5    1    4    4    0  503  0.66376539888E+02  0.92481896478E+02  0.39745535867E+02  0.12066707855E+03  0.47000000000E+01 0.  1.
<mgrwt>
<rscale>  0 0.15549370E+03</rscale>
<asrwt>0</asrwt>
<pdfrwt beam="1">  1        3 0.53644794E-01 0.15618197E+03</pdfrwt>
<pdfrwt beam="2">  1       -3 0.13815864E-01 0.15618197E+03</pdfrwt>
<totfact> 0.35126523E+02</totfact>
</mgrwt>
</event>
<event>
 8    1  0.8174053E-004  0.9657270E+02  0.7546771E-02  0.1288385E+00
          2   -1    0    0  501    0  0.00000000000E+00  0.00000000000E+00  0.23492198744E+03  0.23492198744E+03  0.00000000000E+00 0. -1.
         -2   -1    0    0    0  501 -0.00000000000E+00 -0.00000000000E+00 -0.41273034788E+02  0.41273034788E+02  0.00000000000E+00 0.  1.
         23    2    1    2    0    0  0.13607057439E+02 -0.24443047193E+02  0.66294390870E+02  0.11713766176E+03  0.92431980260E+02 0.  0.
         23    2    1    2    0    0 -0.13607057439E+02  0.24443047193E+02  0.12735456179E+03  0.15905736047E+03  0.91090312014E+02 0.  0.
          5    1    4    4  502    0  0.34319806461E+02  0.11909061045E+02  0.88958531233E+02  0.96204912191E+02  0.47000000000E+01 0. -1.
         -5    1    3    3    0  503 -0.32470295155E+02 -0.21216157501E+02  0.58063454596E+02  0.69984999580E+02  0.47000000000E+01 0.  1.
          5    1    3    3  503    0  0.46077352594E+02 -0.32268896911E+01  0.82309362737E+01  0.47152662185E+02  0.47000000000E+01 0. -1.
         -5    1    4    4    0  502 -0.47926863900E+02  0.12533986148E+02  0.38396030553E+02  0.62852448276E+02  0.47000000000E+01 0.  1.
<mgrwt>
<rscale>  0 0.96250247E+02</rscale>
<asrwt>0</asrwt>
<pdfrwt beam="1">  1        2 0.36141843E-01 0.96572696E+02</pdfrwt>
<pdfrwt beam="2">  1       -2 0.63496978E-02 0.96572696E+02</pdfrwt>
<totfact> 0.17498191E+04</totfact>
</mgrwt>
</event>
<event>
 8    1  0.8174053E-004  0.1118212E+03  0.7546771E-02  0.1258167E+00
         -1   -1    0    0    0  501 -0.00000000000E+00  0.00000000000E+00  0.42398855256E+02  0.42398855256E+02  0.00000000000E+00 0.  1.
          1   -1    0    0  501    0  0.00000000000E+00 -0.00000000000E+00 -0.29965578329E+03  0.29965578329E+03  0.00000000000E+00 0. -1.
         23    2    1    2    0    0 -0.79420653224E+01  0.62379697929E+02 -0.98381760632E+02  0.14893944599E+03  0.92464504706E+02 0.  0.
         23    2    1    2    0    0  0.79420653224E+01 -0.62379697929E+02 -0.15887516740E+03  0.19311519256E+03  0.89988086239E+02 0.  0.
          5    1    4    4  502    0  0.30745913752E+02 -0.66755343664E+02 -0.15125134174E+03  0.16822795694E+03  0.47000000000E+01 0. -1.
         -5    1    4    4    0  502 -0.22803848430E+02  0.43756457347E+01 -0.76238256637E+01  0.24887235615E+02  0.47000000000E+01 0.  1.
          5    1    3    3  503    0 -0.38949461023E+02  0.16570032255E+01 -0.56429533093E+02  0.68747279065E+02  0.47000000000E+01 0. -1.
         -5    1    3    3    0  503  0.31007395701E+02  0.60722694704E+02 -0.41952227539E+02  0.80192166923E+02  0.47000000000E+01 0.  1.
<mgrwt>
<rscale>  0 0.11130798E+03</rscale>
<asrwt>0</asrwt>
<pdfrwt beam="1">  1        1 0.46100889E-01 0.11182123E+03</pdfrwt>
<pdfrwt beam="2">  1       -1 0.65229009E-02 0.11182123E+03</pdfrwt>
<totfact> 0.96258215E+03</totfact>
</mgrwt>
</event>
<event>
 8    1  0.8174053E-004  0.1169651E+03  0.7546771E-02  0.1248702E+00
         -1   -1    0    0    0  501 -0.00000000000E+00  0.00000000000E+00  0.15305200003E+03  0.15305200003E+03  0.00000000000E+00 0.  1.
          1   -1    0    0  501    0  0.00000000000E+00 -0.00000000000E+00 -0.29499902190E+03  0.29499902190E+03  0.00000000000E+00 0. -1.
         23    2    1    2    0    0  0.45543762164E+02 -0.54238861343E+02  0.11636037879E+03  0.16498659412E+03  0.93084639635E+02 0.  0.
         23    2    1    2    0    0 -0.45543762164E+02  0.54238861343E+02 -0.25830740066E+03  0.28306442781E+03  0.91578756847E+02 0.  0.
          5    1    4    4  502    0 -0.50451605148E+02  0.22748617040E+02 -0.58464088841E+02  0.80641203632E+02  0.47000000000E+01 0. -1.
         -5    1    4    4    0  502  0.49078429843E+01  0.31490244303E+02 -0.19984331182E+03  0.20242322418E+03  0.47000000000E+01 0.  1.
          5    1    3    3  503    0 -0.25805201940E+02 -0.37439355381E+01  0.12917576122E+02  0.29476758189E+02  0.47000000000E+01 0. -1.
         -5    1    3    3    0  503  0.71348964104E+02 -0.50494925805E+02  0.10344280266E+03  0.13550983593E+03  0.47000000000E+01 0.  1.
<mgrwt>
<rscale>  0 0.11666526E+03</rscale>
<asrwt>0</asrwt>
<pdfrwt beam="1">  1        1 0.45384464E-01 0.11696512E+03</pdfrwt>
<pdfrwt beam="2">  1       -1 0.23546462E-01 0.11696512E+03</pdfrwt>
<totfact> 0.13539304E+03</totfact>
</mgrwt>
</event>
<event>
 8    1  0.8174053E-004  0.1069027E+03  0.7546771E-02  0.1266568E+00
         -2   -1    0    0    0  501 -0.00000000000E+00  0.00000000000E+00  0.62911111598E+03  0.62911111598E+03  0.00000000000E+00 0.  1.
          2   -1    0    0  501    0  0.00000000000E+00 -0.00000000000E+00 -0.33832076884E+02  0.33832076884E+02  0.00000000000E+00 0. -1.
         23    2    1    2    0    0  0.31411426721E+02  0.46079995906E+02  0.52382541346E+03  0.53462253967E+03  0.91203905544E+02 0.  0.
         23    2    1    2    0    0 -0.31411426721E+02 -0.46079995906E+02  0.71453625633E+02  0.12832065319E+03  0.90832404283E+02 0.  0.
          5    1    4    4  502    0 -0.37600330635E+02 -0.67110123152E+02  0.72589298170E+02  0.10587185510E+03  0.47000000000E+01 0. -1.
         -5    1    3    3    0  503  0.51067031111E+02  0.34819384078E+02  0.48836112460E+03  0.49227929999E+03  0.47000000000E+01 0.  1.
          5    1    3    3  503    0 -0.19655604391E+02  0.11260611828E+02  0.35464288860E+02  0.42343239686E+02  0.47000000000E+01 0. -1.
         -5    1    4    4    0  502  0.61889039149E+01  0.21030127246E+02 -0.11356725363E+01  0.22448798092E+02  0.47000000000E+01 0.  1.
<mgrwt>
<rscale>  0 0.10682346E+03</rscale>
<asrwt>0</asrwt>
<pdfrwt beam="1">  1        2 0.52049354E-02 0.10690274E+03</pdfrwt>
<pdfrwt beam="2">  1       -2 0.96786317E-01 0.10690274E+03</pdfrwt>
<totfact> 0.13154684E+03</totfact>
</mgrwt>
</event>
<event>
 8    1  0.8174053E-004  0.1143898E+03  0.7546771E-02  0.1253208E+00
          1   -1    0    0  501    0  0.00000000000E+00  0.00000000000E+00  0.17608659231E+02  0.17608659231E+02  0.00000000000E+00 0. -1.
         -1   -1    0    0    0  501 -0.00000000000E+00 -0.00000000000E+00 -0.80751032064E+03  0.80751032064E+03  0.00000000000E+00 0.  1.
         23    2    1    2    0    0  0.55435877025E+02 -0.42584596324E+02 -0.26927372814E+03  0.29207257665E+03  0.88946416788E+02 0.  0.
         23    2    1    2    0    0 -0.55435877025E+02  0.42584596324E+02 -0.52062793327E+03  0.53304640322E+03  0.90545230572E+02 0.  0.
          5    1    4    4  502    0  0.28278207901E+01  0.39492133511E+02 -0.89712984170E+02  0.98174002202E+02  0.47000000000E+01 0. -1.
         -5    1    4    4    0  502 -0.58263697815E+02  0.30924628130E+01 -0.43091494910E+03  0.43487240102E+03  0.47000000000E+01 0.  1.
          5    1    3    3  503    0  0.46840024828E+02  0.14787381911E+02 -0.79442627922E+02  0.93519386872E+02  0.47000000000E+01 0. -1.
         -5    1    3    3    0  503  0.85958521971E+01 -0.57371978235E+02 -0.18983110021E+03  0.19855318977E+03  0.47000000000E+01 0.  1.
<mgrwt>
<rscale>  0 0.11407314E+03</rscale>
<asrwt>0</asrwt>
<pdfrwt beam="1">  1        1 0.27090246E-02 0.11438979E+03</pdfrwt>
<pdfrwt beam="2">  1       -1 0.12423235E+00 0.11438979E+03</pdfrwt>
<totfact> 0.22949615E+03</totfact>
</mgrwt>
</event>
<event>
 7    1  0.8174053E-004  0.1783283E+03  0.7546771E-02  0.1181513E+00
          2   -1    0    0  501    0  0.00000000000E+00  0.00000000000E+00  0.21340765348E+03  0.21340765348E+03  0.00000000000E+00 0. -1.
         -2   -1    0    0    0  501 -0.00000000000E+00 -0.00000000000E+00 -0.16253955044E+03  0.16253955044E+03  0.00000000000E+00 0.  1.
         23    2    1    2    0    0  0.84161912271E+02  0.53937072472E+02 -0.77516242940E+02  0.15621208764E+03  0.91657040872E+02 0.  0.
          5    1    1    2  502    0 -0.90286459218E+02 -0.25445700480E+01  0.13981988728E+03  0.16652270246E+03  0.47000000000E+01 0. -1.
         -5    1    3    3    0  503  0.98193167432E+02  0.36760469717E+02 -0.81891368884E+02  0.13312218659E+03  0.47000000000E+01 0.  1.
          5    1    3    3  503    0 -0.14031255161E+02  0.17176602754E+02  0.43751259438E+01  0.23089901052E+02  0.47000000000E+01 0. -1.
         -5    1    1    2    0  502  0.61245469473E+01 -0.51392502424E+02 -0.11435541301E+02  0.53212413829E+02  0.47000000000E+01 0.  1.
<mgrwt>
<rscale>  0 0.16653215E+03</rscale>
<asrwt>0</asrwt>
<pdfrwt beam="1">  1        2 0.32831947E-01 0.17832830E+03</pdfrwt>
<pdfrwt beam="2">  1       -2 0.25006085E-01 0.17832830E+03</pdfrwt>
<totfact> 0.22164597E+03</totfact>
</mgrwt>
</event>
<event>
 8    1  0.8174053E-004  0.9411075E+02  0.7546771E-02  0.1293811E+00
         -2   -1    0    0    0  501 -0.00000000000E+00  0.00000000000E+00  0.12363689243E+02  0.12363689243E+02  0.00000000000E+00 0.  1.
          2   -1    0    0  501    0  0.00000000000E+00 -0.00000000000E+00 -0.72772388936E+03  0.72772388936E+03  0.00000000000E+00 0. -1.
         23    2    1    2    0    0 -0.11628781252E+02 -0.33876444479E+01 -0.29902924770E+03  0.31348895482E+03  0.93328072535E+02 0.  0.
         23    2    1    2    0    0  0.11628781252E+02  0.33876444479E+01 -0.41633095241E+03  0.42659862378E+03  0.92240008615E+02 0.  0.
          5    1    3    3  502    0 -0.45689478184E+02  0.15810668942E+02 -0.21865587623E+03  0.22398657969E+03  0.47000000000E+01 0. -1.
         -5    1    3    3    0  502  0.34060696932E+02 -0.19198313390E+02 -0.80373371467E+02  0.89502375128E+02  0.47000000000E+01 0.  1.
          5    1    4    4  503    0  0.16829301540E+02  0.39562631443E+02 -0.32873788541E+03  0.33157067799E+03  0.47000000000E+01 0. -1.
         -5    1    4    4    0  503 -0.52005202889E+01 -0.36174986995E+02 -0.87593066997E+02  0.95027945792E+02  0.47000000000E+01 0.  1.
<mgrwt>
<rscale>  0 0.93839858E+02</rscale>
<asrwt>0</asrwt>
<pdfrwt beam="1">  1        2 0.11195754E+00 0.94110753E+02</pdfrwt>
<pdfrwt beam="2">  1       -2 0.19021058E-02 0.94110753E+02</pdfrwt>
<totfact> 0.30197928E+04</totfact>
</mgrwt>
</event>
<event>
 8    1  0.8174053E-004  0.1091846E+03  0.7546771E-02  0.1269642E+00
         -1   -1    0    0    0  501 -0.00000000000E+00  0.00000000000E+00  0.18374257869E+03  0.18374257869E+03  0.00000000000E+00 0.  1.
          1   -1    0    0  501    0  0.00000000000E+00 -0.00000000000E+00 -0.11321826918E+03  0.11321826918E+03  0.00000000000E+00 0. -1.
         23    2    1    2    0    0 -0.20075390137E+02  0.54233391365E+02 -0.71153248252E+02  0.11809272784E+03  0.74423286702E+02 0.  0.
         23    2    1    2    0    0  0.20075390137E+02 -0.54233391365E+02  0.14167755777E+03  0.17886812003E+03  0.92612050837E+02 0.  0.
          5    1    4    4  502    0 -0.24513113777E+01 -0.68169629981E+02  0.53915290811E+02  0.87075001938E+02  0.47000000000E+01 0. -1.
         -5    1    3    3    0  503  0.23417537056E+02  0.13221501183E+02 -0.32339510630E+01  0.27490681599E+02  0.47000000000E+01 0.  1.
          5    1    3    3  503    0 -0.43492927193E+02  0.41011890182E+02 -0.67919297189E+02  0.90602046240E+02  0.47000000000E+01 0. -1.
         -5    1    4    4    0  502  0.22526701515E+02  0.13936238616E+02  0.87762266957E+02  0.91793118094E+02  0.47000000000E+01 0.  1.
<mgrwt>
<rscale>  0 0.10524261E+03</rscale>
<asrwt>0</asrwt>
<pdfrwt beam="1">  1        1 0.17418195E-01 0.10918459E+03</pdfrwt>
<pdfrwt beam="2">  1       -1 0.28268089E-01 0.10918459E+03</pdfrwt>
<totfact> 0.32936973E+03</totfact>
</mgrwt>
</event>
<event>
 8    1  0.8174053E-004  0.9555854E+02  0.7546771E-02  0.1290328E+00
         -2   -1    0    0    0  501 -0.00000000000E+00  0.00000000000E+00  0.71256985378E+02  0.71256985378E+02  0.00000000000E+00 0.  1.
          2   -1    0    0  501    0  0.00000000000E+00 -0.00000000000E+00 -0.14973844364E+03  0.14973844364E+03  0.00000000000E+00 0. -1.
         23    2    1    2    0    0  0.85364855984E+01 -0.29105918385E+02 -0.82001688009E+02  0.12537206957E+03  0.89854621027E+02 0.  0.
         23    2    1    2    0    0 -0.85364855984E+01  0.29105918385E+02  0.35202297509E+01  0.95623359446E+02  0.90616823950E+02 0.  0.
          5    1    3    3  502    0 -0.32857992610E+02 -0.32612156524E+02 -0.65675818316E+02  0.80489772909E+02  0.47000000000E+01 0. -1.
         -5    1    3    3    0  502  0.41394478209E+02  0.35062381383E+01 -0.16325869693E+02  0.44882296658E+02  0.47000000000E+01 0.  1.
          5    1    4    4  503    0 -0.23486225765E+02 -0.27442546698E+02  0.58777710669E+01  0.36896264887E+02  0.47000000000E+01 0. -1.
         -5    1    4    4    0  503  0.14949740166E+02  0.56548465083E+02 -0.23575413161E+01  0.58727094559E+02  0.47000000000E+01 0.  1.
<mgrwt>
<rscale>  0 0.95377408E+02</rscale>
<asrwt>0</asrwt>
<pdfrwt beam="1">  1        2 0.23036684E-01 0.95558542E+02</pdfrwt>
<pdfrwt beam="2">  1       -2 0.10962613E-01 0.95558542E+02</pdfrwt>
<totfact> 0.12266086E+04</totfact>
</mgrwt>
</event>
<event>
 8    1  0.8174053E-004  0.1011642E+03  0.7546771E-02  0.1279155E+00
         -1   -1    0    0    0  501 -0.00000000000E+00  0.00000000000E+00  0.90177710762E+02  0.90177710762E+02  0.00000000000E+00 0.  1.
          1   -1    0    0  501    0  0.00000000000E+00 -0.00000000000E+00 -0.90952981448E+03  0.90952981448E+03  0.00000000000E+00 0. -1.
         23    2    1    2    0    0  0.44467947992E+02 -0.57819170292E+01  0.58139993934E+02  0.11668096668E+03  0.90682744373E+02 0.  0.
         23    2    1    2    0    0 -0.44467947992E+02  0.57819170292E+01 -0.87749209765E+03  0.88302655857E+03  0.87935730636E+02 0.  0.
          5    1    4    4  502    0 -0.17900663831E+02 -0.40638374377E+02 -0.36101608625E+03  0.36376725495E+03  0.47000000000E+01 0. -1.
         -5    1    4    4    0  502 -0.26567284162E+02  0.46420291406E+02 -0.51647601140E+03  0.51925930362E+03  0.47000000000E+01 0.  1.
          5    1    3    3  503    0  0.33705258246E+02 -0.40195520971E+02  0.58504654363E+01  0.52990964186E+02  0.47000000000E+01 0. -1.
         -5    1    3    3    0  503  0.10762689747E+02  0.34413603942E+02  0.52289528498E+02  0.63690002492E+02  0.47000000000E+01 0.  1.
<mgrwt>
<rscale>  0 0.10054478E+03</rscale>
<asrwt>0</asrwt>
<pdfrwt beam="1">  1        1 0.13992766E+00 0.10116417E+03</pdfrwt>
<pdfrwt beam="2">  1       -1 0.13873494E-01 0.10116417E+03</pdfrwt>
<totfact> 0.69329617E+02</totfact>
</mgrwt>
</event>
<event>
 8    1  0.8174053E-004  0.1028176E+03  0.7546771E-02  0.1280236E+00
         -3   -1    0    0    0  501 -0.00000000000E+00  0.00000000000E+00  0.59954711846E+02  0.59954711846E+02  0.00000000000E+00 0.  1.
          3   -1    0    0  501    0  0.00000000000E+00 -0.00000000000E+00 -0.65316154431E+03  0.65316154431E+03  0.00000000000E+00 0. -1.
         23    2    1    2    0    0 -0.99129731807E+01 -0.32462246571E+02  0.17551157781E+02  0.93764357437E+02  0.85625037789E+02 0.  0.
         23    2    1    2    0    0  0.99129731807E+01  0.32462246571E+02 -0.61075799025E+03  0.61935189872E+03  0.97053528062E+02 0.  0.
          5    1    3    3  502    0  0.25223841095E+02  0.12161081921E+02  0.22962931521E+02  0.36517397184E+02  0.47000000000E+01 0. -1.
         -5    1    4    4    0  503 -0.18507746304E+01  0.62998692401E+02 -0.28515486493E+03  0.29207472948E+03  0.47000000000E+01 0.  1.
          5    1    4    4  503    0  0.11763747811E+02 -0.30536445830E+02 -0.32560312532E+03  0.32727716923E+03  0.47000000000E+01 0. -1.
         -5    1    3    3    0  502 -0.35136814276E+02 -0.44623328492E+02 -0.54117737404E+01  0.57246960253E+02  0.47000000000E+01 0.  1.
<mgrwt>
<rscale>  0 0.10002849E+03</rscale>
<asrwt>0</asrwt>
<pdfrwt beam="1">  1        3 0.10048640E+00 0.10281757E+03</pdfrwt>
<pdfrwt beam="2">  1       -3 0.92238015E-02 0.10281757E+03</pdfrwt>
<totfact> 0.17089411E+02</totfact>
</mgrwt>
</event>
<event>
 8    1  0.8174053E-004  0.9863295E+02  0.7546771E-02  0.1283569E+00
         -1   -1    0    0    0  501 -0.00000000000E+00  0.00000000000E+00  0.23941699161E+02  0.23941699161E+02  0.00000000000E+00 0.  1.
          1   -1    0    0  501    0  0.00000000000E+00 -0.00000000000E+00 -0.55703771427E+03  0.55703771427E+03  0.00000000000E+00 0. -1.
         23    2    1    2    0    0  0.35015534371E+02 -0.13076017738E+02 -0.11335696535E+03  0.14980737257E+03  0.90528323728E+02 0.  0.
         23    2    1    2    0    0 -0.35015534371E+02  0.13076017738E+02 -0.41973904976E+03  0.43117204086E+03  0.91276442946E+02 0.  0.
          5    1    3    3  502    0  0.49724813382E+02  0.23772231095E+02 -0.82490354337E+02  0.99319809685E+02  0.47000000000E+01 0. -1.
         -5    1    3    3    0  502 -0.14709279011E+02 -0.36848248833E+02 -0.30866611011E+02  0.50487562888E+02  0.47000000000E+01 0.  1.
          5    1    4    4  503    0 -0.44715533311E+02 -0.30019615897E+02 -0.21862381129E+03  0.22520905204E+03  0.47000000000E+01 0.  1.
         -5    1    4    4    0  503  0.96999989401E+01  0.43095633634E+02 -0.20111523847E+03  0.20596298882E+03  0.47000000000E+01 0. -1.
<mgrwt>
<rscale>  0 0.98459516E+02</rscale>
<asrwt>0</asrwt>
<pdfrwt beam="1">  1        1 0.85698105E-01 0.98632950E+02</pdfrwt>
<pdfrwt beam="2">  1       -1 0.36833386E-02 0.98632950E+02</pdfrwt>
<totfact> 0.10100464E+04</totfact>
</mgrwt>
</event>
<event>
 8    1  0.8174053E-004  0.9346137E+02  0.7546771E-02  0.1302903E+00
          1   -1    0    0  501    0  0.00000000000E+00  0.00000000000E+00  0.48375738013E+02  0.48375738013E+02  0.00000000000E+00 0. -1.
         -1   -1    0    0    0  501 -0.00000000000E+00 -0.00000000000E+00 -0.15684537861E+03  0.15684537861E+03  0.00000000000E+00 0.  1.
         23    2    1    2    0    0 -0.15257750281E+02  0.11523667126E+02 -0.57586287312E+02  0.98806162095E+02  0.77980018812E+02 0.  0.
         23    2    1    2    0    0  0.15257750281E+02 -0.11523667126E+02 -0.50883353284E+02  0.10641495453E+03  0.91484605579E+02 0.  0.
          5    1    4    4  502    0 -0.20421865020E+02  0.26723854738E+02 -0.40548114416E+02  0.52890987566E+02  0.47000000000E+01 0. -1.
         -5    1    3    3    0  503  0.35448246097E+00 -0.28638414605E+02 -0.45217079912E+02  0.53730426805E+02  0.47000000000E+01 0.  1.
          5    1    3    3  503    0 -0.15612232742E+02  0.40162081732E+02 -0.12369207401E+02  0.45075735290E+02  0.47000000000E+01 0. -1.
         -5    1    4    4    0  502  0.35679615301E+02 -0.38247521865E+02 -0.10335238869E+02  0.53523966962E+02  0.47000000000E+01 0.  1.
<mgrwt>
<rscale>  0 0.89978635E+02</rscale>
<asrwt>0</asrwt>
<pdfrwt beam="1">  1        1 0.74424212E-02 0.93461366E+02</pdfrwt>
<pdfrwt beam="2">  1       -1 0.24130058E-01 0.93461366E+02</pdfrwt>
<totfact> 0.12774180E+04</totfact>
</mgrwt>
</event>
<event>
 8    1  0.8174053E-004  0.9206217E+02  0.7546771E-02  0.1298424E+00
         -1   -1    0    0    0  501 -0.00000000000E+00  0.00000000000E+00  0.32891913280E+03  0.32891913280E+03  0.00000000000E+00 0.  1.
          1   -1    0    0  501    0  0.00000000000E+00 -0.00000000000E+00 -0.42719643884E+02  0.42719643884E+02  0.00000000000E+00 0. -1.
         23    2    1    2    0    0 -0.18673318858E+01  0.29346122870E+01  0.24859904129E+02  0.94557881984E+02  0.91165121260E+02 0.  0.
         23    2    1    2    0    0  0.18673318858E+01 -0.29346122870E+01  0.26133958479E+03  0.27708089470E+03  0.91996438810E+02 0.  0.
          5    1    4    4  502    0  0.35203954015E+02 -0.29826002050E+01  0.41612614811E+02  0.54789725257E+02  0.47000000000E+01 0. -1.
         -5    1    3    3    0  503 -0.43260118247E+02 -0.10269985666E+02  0.24226267454E+02  0.50851867921E+02  0.47000000000E+01 0.  1.
          5    1    3    3  503    0  0.41392786361E+02  0.13204597953E+02  0.63363667478E+00  0.43706014063E+02  0.47000000000E+01 0. -1.
         -5    1    4    4    0  502 -0.33336622130E+02  0.47987918011E-01  0.21972696997E+03  0.22229116944E+03  0.47000000000E+01 0.  1.
<mgrwt>
<rscale>  0 0.91853787E+02</rscale>
<asrwt>0</asrwt>
<pdfrwt beam="1">  1        1 0.65722531E-02 0.92062173E+02</pdfrwt>
<pdfrwt beam="2">  1       -1 0.50602942E-01 0.92062173E+02</pdfrwt>
<totfact> 0.42623153E+03</totfact>
</mgrwt>
</event>
<event>
 8    1  0.8174053E-004  0.1049176E+03  0.7546771E-02  0.1270716E+00
         -2   -1    0    0    0  501 -0.00000000000E+00  0.00000000000E+00  0.15915329961E+03  0.15915329961E+03  0.00000000000E+00 0.  1.
          2   -1    0    0  501    0  0.00000000000E+00 -0.00000000000E+00 -0.71126720367E+02  0.71126720367E+02  0.00000000000E+00 0. -1.
         23    2    1    2    0    0  0.24916969061E+02  0.41750464141E+02  0.65591194198E+02  0.12299047093E+03  0.91980946829E+02 0.  0.
         23    2    1    2    0    0 -0.24916969061E+02 -0.41750464141E+02  0.22435385049E+02  0.10728954905E+03  0.92971738880E+02 0.  0.
          5    1    4    4  502    0 -0.46223778983E+02 -0.45458578674E+02 -0.12248916234E+02  0.66145642845E+02  0.47000000000E+01 0. -1.
         -5    1    4    4    0  502  0.21306809922E+02  0.37081145332E+01  0.34684301283E+02  0.41143906206E+02  0.47000000000E+01 0.  1.
          5    1    3    3  503    0 -0.19080902973E+02  0.42357925582E+02  0.63326185474E+02  0.78680178473E+02  0.47000000000E+01 0. -1.
         -5    1    3    3    0  503  0.43997872034E+02 -0.60746144103E+00  0.22650087237E+01  0.44310292455E+02  0.47000000000E+01 0.  1.
<mgrwt>
<rscale>  0 0.10469766E+03</rscale>
<asrwt>0</asrwt>
<pdfrwt beam="1">  1        2 0.10942572E-01 0.10491759E+03</pdfrwt>
<pdfrwt beam="2">  1       -2 0.24485123E-01 0.10491759E+03</pdfrwt>
<totfact> 0.77950658E+03</totfact>
</mgrwt>
</event>
<event>
 8    1  0.8174053E-004  0.9382734E+02  0.7546771E-02  0.1295104E+00
          1   -1    0    0  501    0  0.00000000000E+00  0.00000000000E+00  0.62369139002E+02  0.62369139002E+02  0.00000000000E+00 0. -1.
         -1   -1    0    0    0  501 -0.00000000000E+00 -0.00000000000E+00 -0.18725792890E+03  0.18725792890E+03  0.00000000000E+00 0.  1.
         23    2    1    2    0    0 -0.53458060063E+01 -0.82302802152E+01  0.21795296316E+01  0.91671606265E+02  0.91118702205E+02 0.  0.
         23    2    1    2    0    0  0.53458060063E+01  0.82302802152E+01 -0.12706831953E+03  0.15795546164E+03  0.93312672660E+02 0.  0.
          5    1    3    3  502    0 -0.65069802680E+01  0.31532367671E+02  0.28901302225E+02  0.43520182370E+02  0.47000000000E+01 0. -1.
         -5    1    3    3    0  502  0.11611742617E+01 -0.39762647887E+02 -0.26721772594E+02  0.48151423895E+02  0.47000000000E+01 0.  1.
          5    1    4    4  503    0 -0.26174695964E+02  0.33451111919E+02 -0.28576900164E+02  0.51408373057E+02  0.47000000000E+01 0. -1.
         -5    1    4    4    0  503  0.31520501970E+02 -0.25220831704E+02 -0.98491419370E+02  0.10654708858E+03  0.47000000000E+01 0.  1.
<mgrwt>
<rscale>  0 0.93277108E+02</rscale>
<asrwt>0</asrwt>
<pdfrwt beam="1">  1        1 0.95952522E-02 0.93827342E+02</pdfrwt>
<pdfrwt beam="2">  1       -1 0.28808912E-01 0.93827342E+02</pdfrwt>
<totfact> 0.68324249E+03</totfact>
</mgrwt>
</event>
<event>
 8    1  0.8174053E-004  0.2325401E+03  0.7546771E-02  0.1125210E+00
          1   -1    0    0  501    0  0.00000000000E+00  0.00000000000E+00  0.39465627262E+03  0.39465627262E+03  0.00000000000E+00 0. -1.
         -1   -1    0    0    0  501 -0.00000000000E+00 -0.00000000000E+00 -0.26646114336E+03  0.26646114336E+03  0.00000000000E+00 0.  1.
         23    2    1    2    0    0 -0.19865381724E+03  0.73795730960E+02 -0.16719151122E+03  0.28640516920E+03  0.95738030641E+02 0.  0.
         23    2    1    2    0    0  0.19865381724E+03 -0.73795730960E+02  0.29538664048E+03  0.37471224678E+03  0.90812177018E+02 0.  0.
          5    1    3    3  502    0 -0.98673882883E+02  0.83909879508E+02 -0.73870002621E+02  0.14918535561E+03  0.47000000000E+01 0. -1.
         -5    1    4    4    0  503  0.38319734384E+02 -0.52322610613E+02  0.56340269429E+02  0.86037047741E+02  0.47000000000E+01 0.  1.
          5    1    4    4  503    0  0.16033408286E+03 -0.21473120347E+02  0.23904637105E+03  0.28867519903E+03  0.47000000000E+01 0. -1.
         -5    1    3    3    0  502 -0.99979934361E+02 -0.10114148547E+02 -0.93321508595E+02  0.13721981359E+03  0.47000000000E+01 0.  1.
<mgrwt>
<rscale>  0 0.23204248E+03</rscale>
<asrwt>0</asrwt>
<pdfrwt beam="1">  1        1 0.60716349E-01 0.23254015E+03</pdfrwt>
<pdfrwt beam="2">  1       -1 0.40994022E-01 0.23254015E+03</pdfrwt>
<totfact> 0.36765938E+02</totfact>
</mgrwt>
</event>
<event>
 8    1  0.8174053E-004  0.1127799E+03  0.7546771E-02  0.1257493E+00
         -1   -1    0    0    0  501 -0.00000000000E+00  0.00000000000E+00  0.31036951257E+02  0.31036951257E+02  0.00000000000E+00 0.  1.
          1   -1    0    0  501    0  0.00000000000E+00 -0.00000000000E+00 -0.39452955427E+03  0.39452955427E+03  0.00000000000E+00 0. -1.
         23    2    1    2    0    0 -0.58431218743E+02  0.20359629618E+02 -0.17188559601E+03  0.20323217304E+03  0.89050189219E+02 0.  0.
         23    2    1    2    0    0  0.58431218743E+02 -0.20359629618E+02 -0.19160700701E+03  0.22233433249E+03  0.94289916900E+02 0.  0.
          5    1    3    3  502    0 -0.27558278875E+01 -0.29915865475E+02 -0.30268748677E+02  0.42905019996E+02  0.47000000000E+01 0. -1.
         -5    1    4    4    0  503 -0.48675895344E+01 -0.44365819949E+02 -0.79186324453E+02  0.91019686816E+02  0.47000000000E+01 0.  1.
          5    1    4    4  503    0  0.63298808277E+02  0.24006190331E+02 -0.11242068255E+03  0.13131464568E+03  0.47000000000E+01 0. -1.
         -5    1    3    3    0  502 -0.55675390855E+02  0.50275495092E+02 -0.14161684733E+03  0.16032715304E+03  0.47000000000E+01 0.  1.
<mgrwt>
<rscale>  0 0.11167824E+03</rscale>
<asrwt>0</asrwt>
<pdfrwt beam="1">  1        1 0.60696851E-01 0.11277992E+03</pdfrwt>
<pdfrwt beam="2">  1       -1 0.47749158E-02 0.11277992E+03</pdfrwt>
<totfact> 0.10864354E+04</totfact>
</mgrwt>
</event>
<event>
 8    1  0.8174053E-004  0.1015329E+03  0.7546771E-02  0.1281404E+00
          1   -1    0    0  501    0  0.00000000000E+00  0.00000000000E+00  0.11096728114E+03  0.11096728114E+03  0.00000000000E+00 0. -1.
         -1   -1    0    0    0  501 -0.00000000000E+00 -0.00000000000E+00 -0.95433322884E+02  0.95433322884E+02  0.00000000000E+00 0.  1.
         23    2    1    2    0    0  0.39159408567E+02 -0.18822613806E+02 -0.24816211474E+02  0.10452167087E+03  0.91767016188E+02 0.  0.
         23    2    1    2    0    0 -0.39159408567E+02  0.18822613806E+02  0.40350169725E+02  0.10187893315E+03  0.82845825200E+02 0.  0.
          5    1    3    3  502    0 -0.29272824529E+02 -0.10803478738E+02 -0.13517902518E+01  0.31583710131E+02  0.47000000000E+01 0. -1.
         -5    1    4    4    0  503 -0.86262025922E+01 -0.21645653764E+02 -0.13854776077E+02  0.27513460673E+02  0.47000000000E+01 0.  1.
          5    1    4    4  503    0 -0.30533205974E+02  0.40468267570E+02  0.54204945803E+02  0.74365472476E+02  0.47000000000E+01 0. -1.
         -5    1    3    3    0  502  0.68432233095E+02 -0.80191350680E+01 -0.23464421222E+02  0.72937960740E+02  0.47000000000E+01 0.  1.
<mgrwt>
<rscale>  0 0.99474900E+02</rscale>
<asrwt>0</asrwt>
<pdfrwt beam="1">  1        1 0.17071889E-01 0.10153293E+03</pdfrwt>
<pdfrwt beam="2">  1       -1 0.14682050E-01 0.10153293E+03</pdfrwt>
<totfact> 0.95866599E+03</totfact>
</mgrwt>
</event>
<event>
 8    1  0.8174053E-004  0.2139981E+03  0.7546771E-02  0.1138597E+00
         -2   -1    0    0    0  501 -0.00000000000E+00  0.00000000000E+00  0.93685451366E+02  0.93685451366E+02  0.00000000000E+00 0.  1.
          2   -1    0    0  501    0  0.00000000000E+00 -0.00000000000E+00 -0.19630563672E+04  0.19630563672E+04  0.00000000000E+00 0. -1.
         23    2    1    2    0    0  0.17654662366E+03  0.77338194805E+02 -0.18268747151E+04  0.18393657605E+04  0.92979940073E+02 0.  0.
         23    2    1    2    0    0 -0.17654662366E+03 -0.77338194805E+02 -0.42496200702E+02  0.21737605811E+03  0.91085217592E+02 0.  0.
          5    1    4    4  502    0 -0.11371736897E+03 -0.55618160831E+02 -0.70630598457E+02  0.14503720646E+03  0.47000000000E+01 0. -1.
         -5    1    3    3    0  503  0.24342178292E+02 -0.21097978197E+02 -0.25652540458E+03  0.25858275179E+03  0.47000000000E+01 0.  1.
          5    1    3    3  503    0  0.15220444537E+03  0.98436173003E+02 -0.15703493106E+04  0.15807830087E+04  0.47000000000E+01 0. -1.
         -5    1    4    4    0  502 -0.62829254690E+02 -0.21720033975E+02  0.28134397756E+02  0.72338851648E+02  0.47000000000E+01 0.  1.
<mgrwt>
<rscale>  0 0.21379368E+03</rscale>
<asrwt>0</asrwt>
<pdfrwt beam="1">  1        2 0.30200865E+00 0.21399807E+03</pdfrwt>
<pdfrwt beam="2">  1       -2 0.14413147E-01 0.21399807E+03</pdfrwt>
<totfact> 0.28939502E+02</totfact>
</mgrwt>
</event>
<event>
 8    1  0.8174053E-004  0.9619947E+02  0.7546771E-02  0.1289366E+00
          2   -1    0    0  501    0  0.00000000000E+00  0.00000000000E+00  0.22173666524E+03  0.22173666524E+03  0.00000000000E+00 0. -1.
         -2   -1    0    0    0  501 -0.00000000000E+00 -0.00000000000E+00 -0.45974336214E+02  0.45974336214E+02  0.00000000000E+00 0.  1.
         23    2    1    2    0    0  0.17258884554E+02 -0.12236964128E+02  0.13098726459E+03  0.16160188355E+03  0.92249080727E+02 0.  0.
         23    2    1    2    0    0 -0.17258884554E+02  0.12236964128E+02  0.44775064443E+02  0.10610911791E+03  0.93844158693E+02 0.  0.
          5    1    4    4  502    0 -0.54521011582E+02  0.34508627967E+01  0.38577523545E+02  0.67043004712E+02  0.47000000000E+01 0.  1.
         -5    1    3    3    0  503  0.30066762940E+02 -0.35507130535E+02  0.26629775932E+02  0.53814510299E+02  0.47000000000E+01 0.  1.
          5    1    3    3  503    0 -0.12807878386E+02  0.23270166407E+02  0.10435748866E+03  0.10778737325E+03  0.47000000000E+01 0. -1.
         -5    1    4    4    0  502  0.37262127028E+02  0.87861013314E+01  0.61975408982E+01  0.39066113199E+02  0.47000000000E+01 0. -1.
<mgrwt>
<rscale>  0 0.95808249E+02</rscale>
<asrwt>0</asrwt>
<pdfrwt beam="1">  1        2 0.34113332E-01 0.96199472E+02</pdfrwt>
<pdfrwt beam="2">  1       -2 0.70729750E-02 0.96199472E+02</pdfrwt>
<totfact> 0.15794886E+04</totfact>
</mgrwt>
</event>
<event>
 8    1  0.8174053E-004  0.1466262E+03  0.7546771E-02  0.1205205E+00
         -2   -1    0    0    0  501 -0.00000000000E+00  0.00000000000E+00  0.21830465406E+02  0.21830465406E+02  0.00000000000E+00 0.  1.
          2   -1    0    0  501    0  0.00000000000E+00 -0.00000000000E+00 -0.10388729415E+04  0.10388729415E+04  0.00000000000E+00 0. -1.
         23    2    1    2    0    0 -0.23278512301E+02  0.11116768050E+03 -0.37848269196E+03  0.40589209880E+03  0.92731361653E+02 0.  0.
         23    2    1    2    0    0  0.23278512301E+02 -0.11116768050E+03 -0.63855978409E+03  0.65481130807E+03  0.90106098504E+02 0.  0.
          5    1    3    3  502    0 -0.47313262059E+02  0.51176763855E+02 -0.27551505209E+03  0.28423272129E+03  0.47000000000E+01 0. -1.
         -5    1    4    4    0  503 -0.27782135624E+02 -0.15836192626E+02 -0.22544302229E+03  0.22774827849E+03  0.47000000000E+01 0.  1.
          5    1    4    4  503    0  0.51060647925E+02 -0.95331487869E+02 -0.41311676181E+03  0.42706302958E+03  0.47000000000E+01 0. -1.
         -5    1    3    3    0  502  0.24034749758E+02  0.59990916640E+02 -0.10296763987E+03  0.12165937751E+03  0.47000000000E+01 0.  1.
<mgrwt>
<rscale>  0 0.14621296E+03</rscale>
<asrwt>0</asrwt>
<pdfrwt beam="1">  1        2 0.15982659E+00 0.14662622E+03</pdfrwt>
<pdfrwt beam="2">  1       -2 0.33585334E-02 0.14662622E+03</pdfrwt>
<totfact> 0.86365252E+03</totfact>
</mgrwt>
</event>
<event>
 8    1  0.8174053E-004  0.1020540E+03  0.7546771E-02  0.1276324E+00
          2   -1    0    0  501    0  0.00000000000E+00  0.00000000000E+00  0.53736155925E+03  0.53736155925E+03  0.00000000000E+00 0. -1.
         -2   -1    0    0    0  501 -0.00000000000E+00 -0.00000000000E+00 -0.27106923187E+02  0.27106923187E+02  0.00000000000E+00 0.  1.
         23    2    1    2    0    0 -0.38840566062E+02  0.21407836370E+02  0.40633125428E+03  0.41881445917E+03  0.91288432844E+02 0.  0.
         23    2    1    2    0    0  0.38840566062E+02 -0.21407836370E+02  0.10392338178E+03  0.14565402327E+03  0.91913764931E+02 0.  0.
          5    1    3    3  502    0  0.22649387040E+02  0.27337076246E+02  0.98424882978E+02  0.10473709018E+03  0.47000000000E+01 0.  1.
         -5    1    4    4    0  503  0.57793950408E+02  0.56648418980E+01  0.32255830669E+02  0.66593991843E+02  0.47000000000E+01 0.  1.
          5    1    4    4  503    0 -0.18953384346E+02 -0.27072678268E+02  0.71667551113E+02  0.79060031428E+02  0.47000000000E+01 0. -1.
         -5    1    3    3    0  502 -0.61489953102E+02 -0.59292398753E+01  0.30790637130E+03  0.31407736898E+03  0.47000000000E+01 0. -1.
<mgrwt>
<rscale>  0 0.10191303E+03</rscale>
<asrwt>0</asrwt>
<pdfrwt beam="1">  1        2 0.82671001E-01 0.10205403E+03</pdfrwt>
<pdfrwt beam="2">  1       -2 0.41702963E-02 0.10205403E+03</pdfrwt>
<totfact> 0.13705509E+04</totfact>
</mgrwt>
</event>
<event>
 8    1  0.8174053E-004  0.1203016E+03  0.7546771E-02  0.1242736E+00
         -2   -1    0    0    0  501 -0.00000000000E+00  0.00000000000E+00  0.75596747066E+02  0.75596747066E+02  0.00000000000E+00 0.  1.
          2   -1    0    0  501    0  0.00000000000E+00 -0.00000000000E+00 -0.21757794870E+03  0.21757794870E+03  0.00000000000E+00 0. -1.
         23    2    1    2    0    0 -0.33345694692E+02  0.70397142755E+02 -0.19594992092E+02  0.12156219328E+03  0.91245328967E+02 0.  0.
         23    2    1    2    0    0  0.33345694692E+02 -0.70397142755E+02 -0.12238620954E+03  0.17161250248E+03  0.91677552645E+02 0.  0.
          5    1    4    4  502    0 -0.33381792100E+01 -0.81485890435E+02 -0.83529928290E+02  0.11683506623E+03  0.47000000000E+01 0. -1.
         -5    1    4    4    0  502  0.36683873902E+02  0.11088747680E+02 -0.38856281249E+02  0.54777436250E+02  0.47000000000E+01 0.  1.
          5    1    3    3  503    0  0.11675325066E+02  0.73232479339E+02 -0.79045441829E+01  0.74725370954E+02  0.47000000000E+01 0.  1.
         -5    1    3    3    0  503 -0.45021019758E+02 -0.28353365842E+01 -0.11690447909E+02  0.46836822329E+02  0.47000000000E+01 0. -1.
<mgrwt>
<rscale>  0 0.12021922E+03</rscale>
<asrwt>0</asrwt>
<pdfrwt beam="1">  1        2 0.33473529E-01 0.12030157E+03</pdfrwt>
<pdfrwt beam="2">  1       -2 0.11630269E-01 0.12030157E+03</pdfrwt>
<totfact> 0.75982012E+03</totfact>
</mgrwt>
</event>
<event>
 8    1  0.9217820E-004  0.1214035E+03  0.7546771E-02  0.1241529E+00
          1   -1    0    0  501    0  0.00000000000E+00  0.00000000000E+00  0.90111324264E+03  0.90111324264E+03  0.00000000000E+00 0. -1.
         -1   -1    0    0    0  501 -0.00000000000E+00 -0.00000000000E+00 -0.28054096805E+02  0.28054096805E+02  0.00000000000E+00 0.  1.
         23    2    1    2    0    0  0.78763344959E+02 -0.98429307146E+00  0.74142655769E+03  0.75130031063E+03  0.92380641656E+02 0.  0.
         23    2    1    2    0    0 -0.78763344959E+02  0.98429307146E+00  0.13163258815E+03  0.17786702882E+03  0.90027264414E+02 0.  0.
          5    1    4    4  502    0  0.68200449759E+01  0.28026010017E+02  0.25442391327E+02  0.38747587375E+02  0.47000000000E+01 0. -1.
         -5    1    3    3    0  503 -0.19615081210E+02 -0.99556970140E+01  0.14147187778E+03  0.14324890756E+03  0.47000000000E+01 0.  1.
          5    1    3    3  503    0  0.98378426169E+02  0.89714039425E+01  0.59995467991E+03  0.60805140307E+03  0.47000000000E+01 0. -1.
         -5    1    4    4    0  502 -0.85583389935E+02 -0.27041716945E+02  0.10619019682E+03  0.13911944145E+03  0.47000000000E+01 0.  1.
<mgrwt>
<rscale>  0 0.12095580E+03</rscale>
<asrwt>0</asrwt>
<pdfrwt beam="1">  1        1 0.13863278E+00 0.12140353E+03</pdfrwt>
<pdfrwt beam="2">  1       -1 0.43160156E-02 0.12140353E+03</pdfrwt>
<totfact> 0.40717638E+03</totfact>
</mgrwt>
</event>
<event>
 8    1  0.8174053E-004  0.8870954E+02  0.7546771E-02  0.1306717E+00
         -2   -1    0    0    0  501 -0.00000000000E+00  0.00000000000E+00  0.14726922138E+03  0.14726922138E+03  0.00000000000E+00 0.  1.
          2   -1    0    0  501    0  0.00000000000E+00 -0.00000000000E+00 -0.91036279120E+02  0.91036279120E+02  0.00000000000E+00 0. -1.
         23    2    1    2    0    0 -0.37587711725E+01  0.68431005267E+01  0.10549285635E+03  0.13783368376E+03  0.88365294397E+02 0.  0.
         23    2    1    2    0    0  0.37587711725E+01 -0.68431005267E+01 -0.49259914090E+02  0.10047181673E+03  0.87218635830E+02 0.  0.
          5    1    4    4  502    0 -0.26950996040E+02 -0.26116521467E+02 -0.51438296780E+02  0.63846826520E+02  0.47000000000E+01 0. -1.
         -5    1    4    4    0  502  0.30709767213E+02  0.19273420940E+02  0.21783826898E+01  0.36624990213E+02  0.47000000000E+01 0.  1.
          5    1    3    3  503    0 -0.31425368842E+02  0.12679492274E+02  0.65630537458E+01  0.34835140385E+02  0.47000000000E+01 0. -1.
         -5    1    3    3    0  503  0.27666597670E+02 -0.58363917470E+01  0.98929802603E+02  0.10299854338E+03  0.47000000000E+01 0.  1.
<mgrwt>
<rscale>  0 0.88422608E+02</rscale>
<asrwt>0</asrwt>
<pdfrwt beam="1">  1        2 0.14005581E-01 0.88709535E+02</pdfrwt>
<pdfrwt beam="2">  1       -2 0.22656803E-01 0.88709535E+02</pdfrwt>
<totfact> 0.65524112E+03</totfact>
</mgrwt>
</event>
<event>
 8    1  0.8174053E-004  0.1289314E+03  0.7546771E-02  0.1230032E+00
          1   -1    0    0  501    0  0.00000000000E+00  0.00000000000E+00  0.12124914369E+04  0.12124914369E+04  0.00000000000E+00 0. -1.
         -1   -1    0    0    0  501 -0.00000000000E+00 -0.00000000000E+00 -0.14511224020E+02  0.14511224020E+02  0.00000000000E+00 0.  1.
         23    2    1    2    0    0 -0.81171808804E+02  0.21722197925E+02  0.42636506377E+03  0.44468990076E+03  0.94346297290E+02 0.  0.
         23    2    1    2    0    0  0.81171808804E+02 -0.21722197925E+02  0.77161514913E+03  0.78231276018E+03  0.97788547067E+02 0.  0.
          5    1    4    4  502    0  0.83155057674E+02  0.20998620609E+02  0.50883120932E+03  0.51603003330E+03  0.47000000000E+01 0. -1.
         -5    1    3    3    0  503 -0.54070084276E+02 -0.17864377296E+02  0.10331060596E+03  0.11805880439E+03  0.47000000000E+01 0.  1.
          5    1    3    3  503    0 -0.27101724528E+02  0.39586575221E+02  0.32305445780E+03  0.32663109637E+03  0.47000000000E+01 0. -1.
         -5    1    4    4    0  502 -0.19832488699E+01 -0.42720818534E+02  0.26278393981E+03  0.26628272688E+03  0.47000000000E+01 0.  1.
<mgrwt>
<rscale>  0 0.12827878E+03</rscale>
<asrwt>0</asrwt>
<pdfrwt beam="1">  1        1 0.18653706E+00 0.12893144E+03</pdfrwt>
<pdfrwt beam="2">  1       -1 0.22324970E-02 0.12893144E+03</pdfrwt>
<totfact> 0.63728024E+03</totfact>
</mgrwt>
</event>
<event>
 8    1  0.8174053E-004  0.9606215E+02  0.7546771E-02  0.1291091E+00
         -3   -1    0    0    0  501 -0.00000000000E+00  0.00000000000E+00  0.24950762081E+03  0.24950762081E+03  0.00000000000E+00 0.  1.
          3   -1    0    0  501    0  0.00000000000E+00 -0.00000000000E+00 -0.91886044308E+02  0.91886044308E+02  0.00000000000E+00 0. -1.
         23    2    1    2    0    0  0.29888580467E+02  0.35738967595E+01  0.21322877889E+03  0.23386844326E+03  0.91224101106E+02 0.  0.
         23    2    1    2    0    0 -0.29888580467E+02 -0.35738967595E+01 -0.55607202387E+02  0.10752522187E+03  0.86967881424E+02 0.  0.
          5    1    4    4  502    0 -0.26998041488E+02  0.17653910509E+02 -0.72729003193E+02  0.79700393386E+02  0.47000000000E+01 0. -1.
         -5    1    4    4    0  502 -0.28905389787E+01 -0.21227807269E+02  0.17121800806E+02  0.27824828479E+02  0.47000000000E+01 0.  1.
          5    1    3    3  503    0  0.64907087287E+00  0.23128432155E+02  0.70248638755E+01  0.24632993716E+02  0.47000000000E+01 0. -1.
         -5    1    3    3    0  503  0.29239509594E+02 -0.19554535395E+02  0.20620391502E+03  0.20923544954E+03  0.47000000000E+01 0.  1.
<mgrwt>
<rscale>  0 0.95037833E+02</rscale>
<asrwt>0</asrwt>
<pdfrwt beam="1">  1        3 0.14136315E-01 0.96062150E+02</pdfrwt>
<pdfrwt beam="2">  1       -3 0.38385788E-01 0.96062150E+02</pdfrwt>
<totfact> 0.60584014E+02</totfact>
</mgrwt>
</event>
<event>
 8    1  0.8174053E-004  0.1508235E+03  0.7546771E-02  0.1199774E+00
         -1   -1    0    0    0  501 -0.00000000000E+00  0.00000000000E+00  0.10162447448E+03  0.10162447448E+03  0.00000000000E+00 0.  1.
          1   -1    0    0  501    0  0.00000000000E+00 -0.00000000000E+00 -0.30662475971E+03  0.30662475971E+03  0.00000000000E+00 0. -1.
         23    2    1    2    0    0 -0.11707933132E+03  0.25381061121E+02 -0.20976715715E+03  0.25836021630E+03  0.91629542507E+02 0.  0.
         23    2    1    2    0    0  0.11707933132E+03 -0.25381061121E+02  0.47668719159E+01  0.14988901789E+03  0.89956803686E+02 0.  0.
          5    1    3    3  502    0 -0.90812798522E+02  0.36775912587E+02 -0.20718379630E+03  0.22923055549E+03  0.47000000000E+01 0. -1.
         -5    1    4    4    0  503  0.62494277842E+02 -0.55722895783E+02 -0.12828217158E+02  0.84836484091E+02  0.47000000000E+01 0.  1.
          5    1    4    4  503    0  0.54585053479E+02  0.30341834662E+02  0.17595089074E+02  0.65052533797E+02  0.47000000000E+01 0. -1.
         -5    1    3    3    0  502 -0.26266532799E+02 -0.11394851466E+02 -0.25833608480E+01  0.29129660803E+02  0.47000000000E+01 0.  1.
<mgrwt>
<rscale>  0 0.15057032E+03</rscale>
<asrwt>0</asrwt>
<pdfrwt beam="1">  1        1 0.47173039E-01 0.15082354E+03</pdfrwt>
<pdfrwt beam="2">  1       -1 0.15634535E-01 0.15082354E+03</pdfrwt>
<totfact> 0.25049179E+03</totfact>
</mgrwt>
</event>
<event>
 8    1  0.8174053E-004  0.1011406E+03  0.7546771E-02  0.1280439E+00
         -2   -1    0    0    0  501 -0.00000000000E+00  0.00000000000E+00  0.29957815984E+02  0.29957815984E+02  0.00000000000E+00 0.  1.
          2   -1    0    0  501    0  0.00000000000E+00 -0.00000000000E+00 -0.36493999323E+03  0.36493999323E+03  0.00000000000E+00 0. -1.
         23    2    1    2    0    0 -0.43821196939E+02  0.32589032194E+01 -0.23588322203E+03  0.25665214444E+03  0.91096163803E+02 0.  0.
         23    2    1    2    0    0  0.43821196939E+02 -0.32589032194E+01 -0.99098955210E+02  0.13824566477E+03  0.85792442275E+02 0.  0.
          5    1    4    4  502    0  0.20808222933E+02  0.41030053744E+02 -0.46330991012E+02  0.65460661317E+02  0.47000000000E+01 0. -1.
         -5    1    3    3    0  503 -0.56528331535E+02  0.20595147526E+02 -0.85405619045E+02  0.10457448127E+03  0.47000000000E+01 0.  1.
          5    1    3    3  503    0  0.12707134596E+02 -0.17336244307E+02 -0.15047760299E+03  0.15207766318E+03  0.47000000000E+01 0. -1.
         -5    1    4    4    0  502  0.23012974006E+02 -0.44288956964E+02 -0.52767964198E+02  0.72785003449E+02  0.47000000000E+01 0.  1.
<mgrwt>
<rscale>  0 0.99931775E+02</rscale>
<asrwt>0</asrwt>
<pdfrwt beam="1">  1        2 0.56144615E-01 0.10114064E+03</pdfrwt>
<pdfrwt beam="2">  1       -2 0.46088947E-02 0.10114064E+03</pdfrwt>
<totfact> 0.17869200E+04</totfact>
</mgrwt>
</event>
<event>
 8    1  0.8174053E-004  0.9411653E+02  0.7546771E-02  0.1295354E+00
          1   -1    0    0  501    0  0.00000000000E+00  0.00000000000E+00  0.17375216780E+03  0.17375216780E+03  0.00000000000E+00 0. -1.
         -1   -1    0    0    0  501 -0.00000000000E+00 -0.00000000000E+00 -0.56755059565E+02  0.56755059565E+02  0.00000000000E+00 0.  1.
         23    2    1    2    0    0 -0.12270105769E+02 -0.17270478642E+02  0.10217557051E+03  0.13891640787E+03  0.91701124520E+02 0.  0.
         23    2    1    2    0    0  0.12270105769E+02  0.17270478642E+02  0.14821537725E+02  0.91590819494E+02  0.87865666258E+02 0.  0.
          5    1    4    4  502    0  0.43869164911E+02  0.16266384494E+02 -0.13460722019E+02  0.48911961029E+02  0.47000000000E+01 0. -1.
         -5    1    4    4    0  502 -0.31599059142E+02  0.10040941483E+01  0.28282259743E+02  0.42678858465E+02  0.47000000000E+01 0.  1.
          5    1    3    3  503    0 -0.25022040039E+02  0.32750828488E+02  0.54494120993E+02  0.68486629915E+02  0.47000000000E+01 0. -1.
         -5    1    3    3    0  503  0.12751934270E+02 -0.50021307130E+02  0.47681449514E+02  0.70429777952E+02  0.47000000000E+01 0.  1.
<mgrwt>
<rscale>  0 0.93169094E+02</rscale>
<asrwt>0</asrwt>
<pdfrwt beam="1">  1        1 0.26731102E-01 0.94116530E+02</pdfrwt>
<pdfrwt beam="2">  1       -1 0.87315477E-02 0.94116530E+02</pdfrwt>
<totfact> 0.11984595E+04</totfact>
</mgrwt>
</event>
<event>
 8    1  0.8174053E-004  0.9906310E+02  0.7546771E-02  0.1283638E+00
          2   -1    0    0  501    0  0.00000000000E+00  0.00000000000E+00  0.91333599409E+03  0.91333599409E+03  0.00000000000E+00 0.  1.
         -2   -1    0    0    0  501 -0.00000000000E+00 -0.00000000000E+00 -0.11929693268E+02  0.11929693268E+02  0.00000000000E+00 0. -1.
         23    2    1    2    0    0 -0.56681047741E+01  0.33353698532E+02  0.60724422020E+03  0.61487105463E+03  0.90422752839E+02 0.  0.
         23    2    1    2    0    0  0.56681047741E+01 -0.33353698532E+02  0.29416208062E+03  0.31039463273E+03  0.93106937100E+02 0.  0.
          5    1    3    3  502    0  0.16857413584E+02 -0.26864526054E+02  0.20730737737E+03  0.20977205215E+03  0.47000000000E+01 0. -1.
         -5    1    4    4    0  503  0.23472015538E+02  0.14550403251E+02  0.20970039129E+03  0.21156321480E+03  0.47000000000E+01 0.  1.
          5    1    4    4  503    0 -0.17803910764E+02 -0.47904101784E+02  0.84461689324E+02  0.98831417928E+02  0.47000000000E+01 0. -1.
         -5    1    3    3    0  502 -0.22525518358E+02  0.60218224587E+02  0.39993684284E+03  0.40509900248E+03  0.47000000000E+01 0.  1.
<mgrwt>
<rscale>  0 0.98427398E+02</rscale>
<asrwt>0</asrwt>
<pdfrwt beam="1">  1        2 0.14051317E+00 0.99063103E+02</pdfrwt>
<pdfrwt beam="2">  1       -2 0.18353381E-02 0.99063103E+02</pdfrwt>
<totfact> 0.24124679E+04</totfact>
</mgrwt>
</event>
<event>
 8    1  0.8174053E-004  0.3033332E+03  0.7546771E-02  0.1083855E+00
          2   -1    0    0  501    0  0.00000000000E+00  0.00000000000E+00  0.10998331690E+04  0.10998331690E+04  0.00000000000E+00 0. -1.
         -2   -1    0    0    0  501 -0.00000000000E+00 -0.00000000000E+00 -0.83891470494E+02  0.83891470494E+02  0.00000000000E+00 0.  1.
         23    2    1    2    0    0 -0.19334378609E+03 -0.21667819561E+03  0.56503263901E+03  0.64028188952E+03  0.79798213230E+02 0.  0.
         23    2    1    2    0    0  0.19334378609E+03  0.21667819561E+03  0.45090905948E+03  0.54344274995E+03  0.87634368168E+02 0.  0.
          5    1    3    3  502    0 -0.17245665720E+03 -0.19121257019E+03  0.43011502289E+03  0.50132281868E+03  0.47000000000E+01 0. -1.
         -5    1    4    4    0  503  0.17708150576E+03  0.14516232703E+03  0.32363196311E+03  0.39647156067E+03  0.47000000000E+01 0.  1.
          5    1    4    4  503    0  0.16262280329E+02  0.71515868579E+02  0.12727709637E+03  0.14697118928E+03  0.47000000000E+01 0. -1.
         -5    1    3    3    0  502 -0.20887128888E+02 -0.25465625421E+02  0.13491761612E+03  0.13895907085E+03  0.47000000000E+01 0.  1.
<mgrwt>
<rscale>  0 0.30278915E+03</rscale>
<asrwt>0</asrwt>
<pdfrwt beam="1">  1        2 0.16920509E+00 0.30333322E+03</pdfrwt>
<pdfrwt beam="2">  1       -2 0.12906381E-01 0.30333322E+03</pdfrwt>
<totfact> 0.10033633E+03</totfact>
</mgrwt>
</event>
<event>
 8    1  0.8174053E-004  0.1029454E+03  0.7546771E-02  0.1277374E+00
         -1   -1    0    0    0  501 -0.00000000000E+00  0.00000000000E+00  0.86435126191E+02  0.86435126191E+02  0.00000000000E+00 0.  1.
          1   -1    0    0  501    0  0.00000000000E+00 -0.00000000000E+00 -0.27163799972E+03  0.27163799972E+03  0.00000000000E+00 0. -1.
         23    2    1    2    0    0  0.29442106353E+02 -0.16234247063E+02  0.44287046070E+02  0.10655098599E+03  0.90892143565E+02 0.  0.
         23    2    1    2    0    0 -0.29442106353E+02  0.16234247063E+02 -0.22948991960E+03  0.25152213992E+03  0.97300438171E+02 0.  0.
          5    1    3    3  502    0 -0.31717695601E+02 -0.98737001214E+01  0.63445247649E+01  0.34144474851E+02  0.47000000000E+01 0. -1.
         -5    1    4    4    0  503  0.32042595887E+02 -0.86372340898E+01 -0.50786229055E+02  0.60849493223E+02  0.47000000000E+01 0.  1.
          5    1    4    4  503    0 -0.61484702240E+02  0.24871481153E+02 -0.17870369054E+03  0.19067264670E+03  0.47000000000E+01 0. -1.
         -5    1    3    3    0  502  0.61159801955E+02 -0.63605469415E+01  0.37942521305E+02  0.72406511140E+02  0.47000000000E+01 0.  1.
<mgrwt>
<rscale>  0 0.10140252E+03</rscale>
<asrwt>0</asrwt>
<pdfrwt beam="1">  1        1 0.41790462E-01 0.10294544E+03</pdfrwt>
<pdfrwt beam="2">  1       -1 0.13297712E-01 0.10294544E+03</pdfrwt>
<totfact> 0.36772780E+03</totfact>
</mgrwt>
</event>
<event>
 8    1  0.1326668E-003  0.9657609E+02  0.7546771E-02  0.1288002E+00
         -2   -1    0    0    0  501 -0.00000000000E+00  0.00000000000E+00  0.11598954857E+03  0.11598954857E+03  0.00000000000E+00 0.  1.
          2   -1    0    0  501    0  0.00000000000E+00 -0.00000000000E+00 -0.38239773663E+03  0.38239773663E+03  0.00000000000E+00 0. -1.
         23    2    1    2    0    0 -0.22076958271E+02  0.24269495535E+02 -0.35492563487E+03  0.36783032357E+03  0.90832483978E+02 0.  0.
         23    2    1    2    0    0  0.22076958271E+02 -0.24269495535E+02  0.88517446818E+02  0.13055696163E+03  0.90185261204E+02 0.  0.
          5    1    3    3  502    0 -0.13745858037E+02  0.54703815019E+02 -0.14788375876E+03  0.15834504128E+03  0.47000000000E+01 0. -1.
         -5    1    3    3    0  502 -0.83311002338E+01 -0.30434319484E+02 -0.20704187611E+03  0.20948528229E+03  0.47000000000E+01 0.  1.
          5    1    4    4  503    0 -0.30190004737E+02  0.91398847158E+01  0.18394096247E+02  0.36815847884E+02  0.47000000000E+01 0. -1.
         -5    1    4    4    0  503  0.52266963008E+02 -0.33409380251E+02  0.70123350571E+02  0.93741113745E+02  0.47000000000E+01 0.  1.
<mgrwt>
<rscale>  0 0.96423607E+02</rscale>
<asrwt>0</asrwt>
<pdfrwt beam="1">  1        2 0.58830422E-01 0.96576087E+02</pdfrwt>
<pdfrwt beam="2">  1       -2 0.17844546E-01 0.96576087E+02</pdfrwt>
<totfact> 0.20697874E+03</totfact>
</mgrwt>
</event>
<event>
 8    1  0.8174053E-004  0.1161418E+03  0.7546771E-02  0.1252114E+00
         -1   -1    0    0    0  501 -0.00000000000E+00  0.00000000000E+00  0.44925386687E+02  0.44925386687E+02  0.00000000000E+00 0.  1.
          1   -1    0    0  501    0  0.00000000000E+00 -0.00000000000E+00 -0.71990171954E+03  0.71990171954E+03  0.00000000000E+00 0. -1.
         23    2    1    2    0    0 -0.60787185966E+02  0.34464405701E+02 -0.37193333734E+02  0.11655549412E+03  0.85550931599E+02 0.  0.
         23    2    1    2    0    0  0.60787185966E+02 -0.34464405701E+02 -0.63778299912E+03  0.64827161211E+03  0.92768808663E+02 0.  0.
          5    1    3    3  502    0 -0.58176340941E+02 -0.99313528882E+01 -0.13109162474E+01  0.59219312026E+02  0.47000000000E+01 0. -1.
         -5    1    4    4    0  503  0.22205948620E+02  0.27535797545E+02 -0.11548963142E+03  0.12087708329E+03  0.47000000000E+01 0.  1.
          5    1    4    4  503    0  0.38581237346E+02 -0.62000203246E+02 -0.52229336770E+03  0.52739452881E+03  0.47000000000E+01 0. -1.
         -5    1    3    3    0  502 -0.26108450248E+01  0.44395758590E+02 -0.35882417487E+02  0.57336182094E+02  0.47000000000E+01 0.  1.
<mgrwt>
<rscale>  0 0.11469506E+03</rscale>
<asrwt>0</asrwt>
<pdfrwt beam="1">  1        1 0.11075412E+00 0.11614185E+03</pdfrwt>
<pdfrwt beam="2">  1       -1 0.69115975E-02 0.11614185E+03</pdfrwt>
<totfact> 0.28403523E+03</totfact>
</mgrwt>
</event>
<event>
 8    1  0.8174053E-004  0.2228375E+03  0.7546771E-02  0.1132057E+00
          2   -1    0    0  501    0  0.00000000000E+00  0.00000000000E+00  0.54556045518E+03  0.54556045518E+03  0.00000000000E+00 0. -1.
         -2   -1    0    0    0  501 -0.00000000000E+00 -0.00000000000E+00 -0.10273233300E+03  0.10273233300E+03  0.00000000000E+00 0.  1.
         23    2    1    2    0    0 -0.76424371982E+02 -0.18857417741E+03  0.33299490049E+03  0.39985795339E+03  0.87177256879E+02 0.  0.
         23    2    1    2    0    0  0.76424371982E+02  0.18857417741E+03  0.10983322169E+03  0.24843483479E+03  0.90860472886E+02 0.  0.
          5    1    3    3  502    0  0.13392753494E+02 -0.29873803657E+02  0.90918087009E+02  0.96747085416E+02  0.47000000000E+01 0. -1.
         -5    1    3    3    0  502 -0.89817125476E+02 -0.15870037375E+03  0.24207681348E+03  0.30311086797E+03  0.47000000000E+01 0.  1.
          5    1    4    4  503    0  0.57599844538E+02  0.39630229787E+02  0.17874494508E+02  0.72317942156E+02  0.47000000000E+01 0. -1.
         -5    1    4    4    0  503  0.18824527444E+02  0.14894394762E+03  0.91958727185E+02  0.17611689264E+03  0.47000000000E+01 0.  1.
<mgrwt>
<rscale>  0 0.22246747E+03</rscale>
<asrwt>0</asrwt>
<pdfrwt beam="1">  1        2 0.83932376E-01 0.22283745E+03</pdfrwt>
<pdfrwt beam="2">  1       -2 0.15804975E-01 0.22283745E+03</pdfrwt>
<totfact> 0.17603323E+03</totfact>
</mgrwt>
</event>
<event>
 8    1  0.8174053E-004  0.9926420E+02  0.7546771E-02  0.1282114E+00
          3   -1    0    0  501    0  0.00000000000E+00  0.00000000000E+00  0.39726003256E+02  0.39726003256E+02  0.00000000000E+00 0. -1.
         -3   -1    0    0    0  501 -0.00000000000E+00 -0.00000000000E+00 -0.24692139153E+03  0.24692139153E+03  0.00000000000E+00 0.  1.
         23    2    1    2    0    0  0.32145781147E+02  0.28240498532E+02 -0.10017451154E+03  0.14067873839E+03  0.89020771007E+02 0.  0.
         23    2    1    2    0    0 -0.32145781147E+02 -0.28240498532E+02 -0.10702087673E+03  0.14596865639E+03  0.89568429646E+02 0.  0.
          5    1    4    4  502    0  0.24108400051E+02 -0.98590535111E+01 -0.72760324679E+02  0.77424613248E+02  0.47000000000E+01 0. -1.
         -5    1    3    3    0  503  0.44596298442E+02  0.47980861229E+02 -0.96293856749E+02  0.11655723799E+03  0.47000000000E+01 0.  1.
          5    1    3    3  503    0 -0.12450517295E+02 -0.19740362698E+02 -0.38806547912E+01  0.24121500408E+02  0.47000000000E+01 0. -1.
         -5    1    4    4    0  502 -0.56254181198E+02 -0.18381445021E+02 -0.34260552050E+02  0.68544043141E+02  0.47000000000E+01 0.  1.
<mgrwt>
<rscale>  0 0.99140494E+02</rscale>
<asrwt>0</asrwt>
<pdfrwt beam="1">  1        3 0.61116928E-02 0.99264196E+02</pdfrwt>
<pdfrwt beam="2">  1       -3 0.37987907E-01 0.99264196E+02</pdfrwt>
<totfact> 0.24453899E+03</totfact>
</mgrwt>
</event>
<event>
 8    1  0.8174053E-004  0.9325290E+02  0.7546771E-02  0.1295666E+00
         -1   -1    0    0    0  501 -0.00000000000E+00  0.00000000000E+00  0.83289137229E+02  0.83289137229E+02  0.00000000000E+00 0.  1.
          1   -1    0    0  501    0  0.00000000000E+00 -0.00000000000E+00 -0.55028806218E+03  0.55028806218E+03  0.00000000000E+00 0. -1.
         23    2    1    2    0    0  0.13806908454E+02 -0.13008332219E+02  0.52173308715E+02  0.10609647738E+03  0.90413278570E+02 0.  0.
         23    2    1    2    0    0 -0.13806908454E+02  0.13008332219E+02 -0.51917223367E+03  0.52748072203E+03  0.91303102221E+02 0.  0.
          5    1    4    4  502    0  0.32667119795E+02 -0.17595580549E+02 -0.20483507263E+03  0.20822161787E+03  0.47000000000E+01 0. -1.
         -5    1    3    3    0  503 -0.28748971075E+02  0.12968745571E+02  0.45520070976E+02  0.55577500495E+02  0.47000000000E+01 0.  1.
          5    1    3    3  503    0  0.42555879530E+02 -0.25977077790E+02  0.66532377393E+01  0.50518976885E+02  0.47000000000E+01 0. -1.
         -5    1    4    4    0  502 -0.46474028249E+02  0.30603912768E+02 -0.31433716104E+03  0.31925910416E+03  0.47000000000E+01 0.  1.
<mgrwt>
<rscale>  0 0.93034376E+02</rscale>
<asrwt>0</asrwt>
<pdfrwt beam="1">  1        1 0.84659702E-01 0.93252903E+02</pdfrwt>
<pdfrwt beam="2">  1       -1 0.12813713E-01 0.93252903E+02</pdfrwt>
<totfact> 0.16028612E+03</totfact>
</mgrwt>
</event>
<event>
 8    1  0.8174053E-004  0.1356472E+03  0.7546771E-02  0.1225721E+00
          3   -1    0    0  501    0  0.00000000000E+00  0.00000000000E+00  0.16368447960E+02  0.16368447960E+02  0.00000000000E+00 0. -1.
         -3   -1    0    0    0  501 -0.00000000000E+00 -0.00000000000E+00 -0.12337717818E+04  0.12337717818E+04  0.00000000000E+00 0.  1.
         23    2    1    2    0    0  0.69199459375E+02  0.29152111305E+02 -0.92007843312E+03  0.93002392091E+03  0.11296795823E+03 0.  0.
         23    2    1    2    0    0 -0.69199459375E+02 -0.29152111305E+02 -0.29732490073E+03  0.32011630887E+03  0.91836506016E+02 0.  0.
          5    1    3    3  502    0 -0.31272648484E+02  0.82563343584E+01 -0.19952421105E+03  0.20218344738E+03  0.47000000000E+01 0. -1.
         -5    1    4    4    0  503 -0.29072102862E+02  0.32180142794E+02 -0.13683879306E+03  0.14362344530E+03  0.47000000000E+01 0.  1.
          5    1    4    4  503    0 -0.40127356513E+02 -0.61332254098E+02 -0.16048610768E+03  0.17649286357E+03  0.47000000000E+01 0. -1.
         -5    1    3    3    0  502  0.10047210786E+03  0.20895776946E+02 -0.72055422207E+03  0.72784047352E+03  0.47000000000E+01 0.  1.
<mgrwt>
<rscale>  0 0.13117590E+03</rscale>
<asrwt>0</asrwt>
<pdfrwt beam="1">  1        3 0.25182236E-02 0.13564723E+03</pdfrwt>
<pdfrwt beam="2">  1       -3 0.18981098E+00 0.13564723E+03</pdfrwt>
<totfact> 0.28949988E+02</totfact>
</mgrwt>
</event>
<event>
 8    1  0.8174053E-004  0.9604349E+02  0.7546771E-02  0.1288955E+00
         -4   -1    0    0    0  501 -0.00000000000E+00  0.00000000000E+00  0.17217948430E+03  0.17217948430E+03  0.00000000000E+00 0.  1.
          4   -1    0    0  501    0  0.00000000000E+00 -0.00000000000E+00 -0.67326071049E+02  0.67326071049E+02  0.00000000000E+00 0. -1.
         23    2    1    2    0    0  0.84211252689E+01 -0.24080776030E+02 -0.18728027899E+01  0.96061742683E+02  0.92593476509E+02 0.  0.
         23    2    1    2    0    0 -0.84211252689E+01  0.24080776030E+02  0.10672621604E+03  0.14344381266E+03  0.92384214433E+02 0.  0.
          5    1    4    4  502    0  0.77354156302E+01  0.56324045497E+02  0.48928899748E+02  0.75155585199E+02  0.47000000000E+01 0. -1.
         -5    1    4    4    0  502 -0.16156540899E+02 -0.32243269467E+02  0.57797316292E+02  0.68288227465E+02  0.47000000000E+01 0.  1.
          5    1    3    3  503    0 -0.19834000869E+02 -0.44707866845E+02  0.21598549249E+02  0.53672788990E+02  0.47000000000E+01 0. -1.
         -5    1    3    3    0  503  0.28255126138E+02  0.20627090815E+02 -0.23471352039E+02  0.42388953692E+02  0.47000000000E+01 0.  1.
<mgrwt>
<rscale>  0 0.95993013E+02</rscale>
<asrwt>0</asrwt>
<pdfrwt beam="1">  1        4 0.10357857E-01 0.96043485E+02</pdfrwt>
<pdfrwt beam="2">  1       -4 0.26489151E-01 0.96043485E+02</pdfrwt>
<totfact> 0.14591276E+03</totfact>
</mgrwt>
</event>
<event>
 8    1  0.8174053E-004  0.9095303E+02  0.7546771E-02  0.1300765E+00
         -1   -1    0    0    0  501 -0.00000000000E+00  0.00000000000E+00  0.27341211030E+03  0.27341211030E+03  0.00000000000E+00 0.  1.
          1   -1    0    0  501    0  0.00000000000E+00 -0.00000000000E+00 -0.37007248346E+02  0.37007248346E+02  0.00000000000E+00 0. -1.
         23    2    1    2    0    0 -0.10631245477E+02 -0.55240918719E+01  0.18523130516E+03  0.20635670464E+03  0.90160491165E+02 0.  0.
         23    2    1    2    0    0  0.10631245477E+02  0.55240918719E+01  0.51173556791E+02  0.10406265400E+03  0.89815166158E+02 0.  0.
          5    1    3    3  502    0 -0.42189377400E+02  0.29424880073E+01  0.43576683962E+02  0.60906643202E+02  0.47000000000E+01 0. -1.
         -5    1    3    3    0  502  0.31558131923E+02 -0.84665798792E+01  0.14165462120E+03  0.14545006144E+03  0.47000000000E+01 0.  1.
          5    1    4    4  503    0  0.33578854798E+02  0.37591173608E+02  0.24629303118E+02  0.56296788495E+02  0.47000000000E+01 0. -1.
         -5    1    4    4    0  503 -0.22947609321E+02 -0.32067081736E+02  0.26544253673E+02  0.47765865508E+02  0.47000000000E+01 0.  1.
<mgrwt>
<rscale>  0 0.90867330E+02</rscale>
<asrwt>0</asrwt>
<pdfrwt beam="1">  1        1 0.56934230E-02 0.90953027E+02</pdfrwt>
<pdfrwt beam="2">  1       -1 0.42063400E-01 0.90953027E+02</pdfrwt>
<totfact> 0.71721687E+03</totfact>
</mgrwt>
</event>
<event>
 8    1  0.8174053E-004  0.1282067E+03  0.7546771E-02  0.1230961E+00
         -2   -1    0    0    0  501 -0.00000000000E+00  0.00000000000E+00  0.27491275949E+02  0.27491275949E+02  0.00000000000E+00 0.  1.
          2   -1    0    0  501    0  0.00000000000E+00 -0.00000000000E+00 -0.60667191644E+03  0.60667191644E+03  0.00000000000E+00 0. -1.
         23    2    1    2    0    0 -0.53297022879E+02 -0.70027377962E+02 -0.34770899049E+03  0.37059208928E+03  0.93233836419E+02 0.  0.
         23    2    1    2    0    0  0.53297022879E+02  0.70027377962E+02 -0.23147165000E+03  0.26357110312E+03  0.90256275852E+02 0.  0.
          5    1    4    4  502    0  0.51743143379E+01  0.61344948639E+02 -0.18832720943E+03  0.19818981827E+03  0.47000000000E+01 0. -1.
         -5    1    4    4    0  502  0.48122708541E+02  0.86824293233E+01 -0.43144440571E+02  0.65381284849E+02  0.47000000000E+01 0.  1.
          5    1    3    3  503    0 -0.64703863699E+02 -0.21196472539E+02 -0.26592798320E+03  0.27454628512E+03  0.47000000000E+01 0. -1.
         -5    1    3    3    0  503  0.11406840820E+02 -0.48830905423E+02 -0.81781007293E+02  0.96045804155E+02  0.47000000000E+01 0.  1.
<mgrwt>
<rscale>  0 0.12766609E+03</rscale>
<asrwt>0</asrwt>
<pdfrwt beam="1">  1        2 0.93334151E-01 0.12820669E+03</pdfrwt>
<pdfrwt beam="2">  1       -2 0.42294266E-02 0.12820669E+03</pdfrwt>
<totfact> 0.11930796E+04</totfact>
</mgrwt>
</event>
<event>
 8    1  0.8174053E-004  0.9763590E+02  0.7546771E-02  0.1286859E+00
         -4   -1    0    0    0  501 -0.00000000000E+00  0.00000000000E+00  0.52424827994E+02  0.52424827994E+02  0.00000000000E+00 0.  1.
          4   -1    0    0  501    0  0.00000000000E+00 -0.00000000000E+00 -0.17912051850E+03  0.17912051850E+03  0.00000000000E+00 0. -1.
         23    2    1    2    0    0 -0.15238733099E+02 -0.21562384364E+02 -0.77508231195E+02  0.12466071754E+03  0.93997942475E+02 0.  0.
         23    2    1    2    0    0  0.15238733099E+02  0.21562384364E+02 -0.49187459309E+02  0.10688462895E+03  0.91146927246E+02 0.  0.
          5    1    3    3  502    0 -0.52251943018E+02 -0.28455377443E+02 -0.48297232836E+02  0.76776863404E+02  0.47000000000E+01 0. -1.
         -5    1    3    3    0  502  0.37013209919E+02  0.68929930785E+01 -0.29210998359E+02  0.47883854139E+02  0.47000000000E+01 0.  1.
          5    1    4    4  503    0  0.21753842294E+02 -0.31475569763E+02 -0.33294866772E+02  0.50937013063E+02  0.47000000000E+01 0. -1.
         -5    1    4    4    0  503 -0.65151091949E+01  0.53037954127E+02 -0.15892592537E+02  0.55947615886E+02  0.47000000000E+01 0.  1.
<mgrwt>
<rscale>  0 0.96943147E+02</rscale>
<asrwt>0</asrwt>
<pdfrwt beam="1">  1        4 0.27557003E-01 0.97635898E+02</pdfrwt>
<pdfrwt beam="2">  1       -4 0.80653581E-02 0.97635898E+02</pdfrwt>
<totfact> 0.20633667E+03</totfact>
</mgrwt>
</event>
<event>
 8    1  0.8174053E-004  0.9864485E+02  0.7546771E-02  0.1285958E+00
          2   -1    0    0  501    0  0.00000000000E+00  0.00000000000E+00  0.41466308839E+03  0.41466308839E+03  0.00000000000E+00 0. -1.
         -2   -1    0    0    0  501 -0.00000000000E+00 -0.00000000000E+00 -0.23823888475E+02  0.23823888475E+02  0.00000000000E+00 0.  1.
         23    2    1    2    0    0 -0.19167714476E+02 -0.19893233227E+02  0.24642496247E+03  0.26359764281E+03  0.89416515050E+02 0.  0.
         23    2    1    2    0    0  0.19167714476E+02  0.19893233227E+02  0.14441423745E+03  0.17488933405E+03  0.94697756999E+02 0.  0.
          5    1    4    4  502    0  0.51507883487E+02  0.35150788515E+02  0.94056630618E+02  0.11294857130E+03  0.47000000000E+01 0. -1.
         -5    1    3    3    0  503 -0.15745680784E+02  0.28623952432E+02  0.42016181993E+02  0.53429455036E+02  0.47000000000E+01 0.  1.
          5    1    3    3  503    0 -0.34220336917E+01 -0.48517185659E+02  0.20440878047E+03  0.21016818778E+03  0.47000000000E+01 0. -1.
         -5    1    4    4    0  502 -0.32340169011E+02 -0.15257555288E+02  0.50357606833E+02  0.61940762758E+02  0.47000000000E+01 0.  1.
<mgrwt>
<rscale>  0 0.97355225E+02</rscale>
<asrwt>0</asrwt>
<pdfrwt beam="1">  1        2 0.63794316E-01 0.98644854E+02</pdfrwt>
<pdfrwt beam="2">  1       -2 0.36652139E-02 0.98644854E+02</pdfrwt>
<totfact> 0.21845046E+04</totfact>
</mgrwt>
</event>
<event>
 8    1  0.8174053E-004  0.1188846E+03  0.7546771E-02  0.1245163E+00
         -1   -1    0    0    0  501 -0.00000000000E+00  0.00000000000E+00  0.57464950736E+02  0.57464950736E+02  0.00000000000E+00 0.  1.
          1   -1    0    0  501    0  0.00000000000E+00 -0.00000000000E+00 -0.62388884132E+03  0.62388884132E+03  0.00000000000E+00 0. -1.
         23    2    1    2    0    0  0.59105479087E+01 -0.73816523326E+02 -0.17445960098E+02  0.11965073208E+03  0.92347834149E+02 0.  0.
         23    2    1    2    0    0 -0.59105479087E+01  0.73816523326E+02 -0.54897793049E+03  0.56170305997E+03  0.93004009210E+02 0.  0.
          5    1    4    4  502    0 -0.43705270743E+01  0.95431354127E+02 -0.47208821586E+03  0.48167999586E+03  0.47000000000E+01 0. -1.
         -5    1    4    4    0  502 -0.15400208344E+01 -0.21614830801E+02 -0.76889714628E+02  0.80023064115E+02  0.47000000000E+01 0.  1.
          5    1    3    3  503    0  0.24318318767E+02  0.13304305198E+02 -0.11199718875E+02  0.30263986310E+02  0.47000000000E+01 0. -1.
         -5    1    3    3    0  503 -0.18407770858E+02 -0.87120828524E+02 -0.62462412224E+01  0.89386745774E+02  0.47000000000E+01 0.  1.
<mgrwt>
<rscale>  0 0.11875628E+03</rscale>
<asrwt>0</asrwt>
<pdfrwt beam="1">  1        1 0.95982892E-01 0.11888465E+03</pdfrwt>
<pdfrwt beam="2">  1       -1 0.88407623E-02 0.11888465E+03</pdfrwt>
<totfact> 0.24004596E+03</totfact>
</mgrwt>
</event>
<event>
 8    1  0.8174053E-004  0.1049655E+03  0.7546771E-02  0.1274315E+00
         -2   -1    0    0    0  501 -0.00000000000E+00  0.00000000000E+00  0.20453766200E+03  0.20453766200E+03  0.00000000000E+00 0.  1.
          2   -1    0    0  501    0  0.00000000000E+00 -0.00000000000E+00 -0.56246395916E+02  0.56246395916E+02  0.00000000000E+00 0. -1.
         23    2    1    2    0    0  0.77409013305E+01 -0.52153724084E+02  0.32738440087E+02  0.10995255296E+03  0.90762469964E+02 0.  0.
         23    2    1    2    0    0 -0.77409013305E+01  0.52153724084E+02  0.11555282600E+03  0.15083150496E+03  0.81349583907E+02 0.  0.
          5    1    3    3  502    0 -0.44579289413E+01 -0.76591966443E+02  0.28162487298E+02  0.81862189959E+02  0.47000000000E+01 0. -1.
         -5    1    4    4    0  503  0.11768297059E+02  0.43253571996E+02  0.12021752353E+03  0.12838889076E+03  0.47000000000E+01 0.  1.
          5    1    4    4  503    0 -0.19509198389E+02  0.89001520874E+01 -0.46646975331E+01  0.22442614198E+02  0.47000000000E+01 0. -1.
         -5    1    3    3    0  502  0.12198830272E+02  0.24438242359E+02  0.45759527886E+01  0.28090363001E+02  0.47000000000E+01 0.  1.
<mgrwt>
<rscale>  0 0.10289934E+03</rscale>
<asrwt>0</asrwt>
<pdfrwt beam="1">  1        2 0.86532918E-02 0.10496551E+03</pdfrwt>
<pdfrwt beam="2">  1       -2 0.31467332E-01 0.10496551E+03</pdfrwt>
<totfact> 0.66667191E+03</totfact>
</mgrwt>
</event>
<event>
 8    1  0.8174053E-004  0.9872923E+02  0.7546771E-02  0.1283649E+00
         -2   -1    0    0    0  501 -0.00000000000E+00  0.00000000000E+00  0.19189062925E+02  0.19189062925E+02  0.00000000000E+00 0.  1.
          2   -1    0    0  501    0  0.00000000000E+00 -0.00000000000E+00 -0.50205633092E+03  0.50205633092E+03  0.00000000000E+00 0. -1.
         23    2    1    2    0    0  0.22001894672E+02 -0.29118871976E+02 -0.23300926042E+03  0.25258857696E+03  0.90419476303E+02 0.  0.
         23    2    1    2    0    0 -0.22001894672E+02  0.29118871976E+02 -0.24985800758E+03  0.26865681689E+03  0.91735866679E+02 0.  0.
          5    1    3    3  502    0 -0.62320228750E+01 -0.41042517258E+02 -0.20963780688E+03  0.21376020773E+03  0.47000000000E+01 0. -1.
         -5    1    4    4    0  503  0.34053226691E+02  0.19501907458E+01 -0.11478244942E+03  0.11983541291E+03  0.47000000000E+01 0.  1.
          5    1    4    4  503    0 -0.56055121364E+02  0.27168681230E+02 -0.13507555815E+03  0.14882140398E+03  0.47000000000E+01 0. -1.
         -5    1    3    3    0  502  0.28233917547E+02  0.11923645282E+02 -0.23371453533E+02  0.38828369231E+02  0.47000000000E+01 0.  1.
<mgrwt>
<rscale>  0 0.98422321E+02</rscale>
<asrwt>0</asrwt>
<pdfrwt beam="1">  1        2 0.77239449E-01 0.98729232E+02</pdfrwt>
<pdfrwt beam="2">  1       -2 0.29521630E-02 0.98729232E+02</pdfrwt>
<totfact> 0.24424596E+04</totfact>
</mgrwt>
</event>
<event>
 8    1  0.8174053E-004  0.1239087E+03  0.7546771E-02  0.1238632E+00
          1   -1    0    0  501    0  0.00000000000E+00  0.00000000000E+00  0.42224527397E+03  0.42224527397E+03  0.00000000000E+00 0. -1.
         -1   -1    0    0    0  501 -0.00000000000E+00 -0.00000000000E+00 -0.59290691384E+02  0.59290691384E+02  0.00000000000E+00 0.  1.
         23    2    1    2    0    0 -0.63817090752E+02  0.40051393353E+02  0.29498273016E+02  0.12737156055E+03  0.98369869092E+02 0.  0.
         23    2    1    2    0    0  0.63817090752E+02 -0.40051393353E+02  0.33345630957E+03  0.35416440480E+03  0.92534210188E+02 0.  0.
          5    1    3    3  502    0  0.16336519593E+02  0.34549847759E+02  0.26675012000E+02  0.46842503325E+02  0.47000000000E+01 0. -1.
         -5    1    3    3    0  502 -0.80153610345E+02  0.55015455948E+01  0.28232610162E+01  0.80529057228E+02  0.47000000000E+01 0.  1.
          5    1    4    4  503    0  0.47474769546E+02 -0.64442462406E+02  0.29413117104E+03  0.30486377365E+03  0.47000000000E+01 0. -1.
         -5    1    4    4    0  503  0.16342321206E+02  0.24391069053E+02  0.39325138530E+02  0.49300631156E+02  0.47000000000E+01 0.  1.
<mgrwt>
<rscale>  0 0.12274745E+03</rscale>
<asrwt>0</asrwt>
<pdfrwt beam="1">  1        1 0.64960809E-01 0.12390870E+03</pdfrwt>
<pdfrwt beam="2">  1       -1 0.91216451E-02 0.12390870E+03</pdfrwt>
<totfact> 0.38236863E+03</totfact>
</mgrwt>
</event>
<event>
 8    1  0.8174053E-004  0.9344130E+02  0.7546771E-02  0.1295626E+00
         -2   -1    0    0    0  501 -0.00000000000E+00  0.00000000000E+00  0.12685258071E+03  0.12685258071E+03  0.00000000000E+00 0.  1.
          2   -1    0    0  501    0  0.00000000000E+00 -0.00000000000E+00 -0.15943546351E+03  0.15943546351E+03  0.00000000000E+00 0. -1.
         23    2    1    2    0    0  0.14977795488E+02  0.49805382088E+01 -0.12481582960E+03  0.15499374357E+03  0.90525847732E+02 0.  0.
         23    2    1    2    0    0 -0.14977795488E+02 -0.49805382088E+01  0.92232946812E+02  0.13129430065E+03  0.92098516749E+02 0.  0.
          5    1    4    4  502    0 -0.31332460189E+02  0.30254007295E+02  0.17963009513E+02  0.47347520840E+02  0.47000000000E+01 0. -1.
         -5    1    3    3    0  503  0.52561853851E+02 -0.38093498127E+01 -0.68361576848E+02  0.86444518712E+02  0.47000000000E+01 0.  1.
          5    1    3    3  503    0 -0.37584058362E+02  0.87898880215E+01 -0.56454252754E+02  0.68549224856E+02  0.47000000000E+01 0. -1.
         -5    1    4    4    0  502  0.16354664701E+02 -0.35234545504E+02  0.74269937299E+02  0.83946779812E+02  0.47000000000E+01 0.  1.
<mgrwt>
<rscale>  0 0.93051448E+02</rscale>
<asrwt>0</asrwt>
<pdfrwt beam="1">  1        2 0.24528533E-01 0.93441302E+02</pdfrwt>
<pdfrwt beam="2">  1       -2 0.19515782E-01 0.93441302E+02</pdfrwt>
<totfact> 0.44988108E+03</totfact>
</mgrwt>
</event>
<event>
 8    1  0.8174053E-004  0.1322401E+03  0.7546771E-02  0.1224320E+00
         -2   -1    0    0    0  501 -0.00000000000E+00  0.00000000000E+00  0.65990390790E+02  0.65990390790E+02  0.00000000000E+00 0.  1.
          2   -1    0    0  501    0  0.00000000000E+00 -0.00000000000E+00 -0.34091905456E+03  0.34091905456E+03  0.00000000000E+00 0. -1.
         23    2    1    2    0    0 -0.32651245932E+02  0.89484604113E+02 -0.23416688508E+03  0.26892669991E+03  0.91726995067E+02 0.  0.
         23    2    1    2    0    0  0.32651245932E+02 -0.89484604113E+02 -0.40761778692E+02  0.13798274544E+03  0.91126929074E+02 0.  0.
          5    1    4    4  502    0  0.12930135037E+02 -0.67557395632E+02 -0.68526354631E+02  0.97206694088E+02  0.47000000000E+01 0. -1.
         -5    1    4    4    0  502  0.19721110895E+02 -0.21927208481E+02  0.27764575938E+02  0.40776051351E+02  0.47000000000E+01 0.  1.
          5    1    3    3  503    0 -0.51890078473E+02  0.60792660891E+02 -0.89358450183E+02  0.11998062544E+03  0.47000000000E+01 0. -1.
         -5    1    3    3    0  503  0.19238832541E+02  0.28691943222E+02 -0.14480843489E+03  0.14894607447E+03  0.47000000000E+01 0.  1.
<mgrwt>
<rscale>  0 0.13213608E+03</rscale>
<asrwt>0</asrwt>
<pdfrwt beam="1">  1        2 0.52449087E-01 0.13224008E+03</pdfrwt>
<pdfrwt beam="2">  1       -2 0.10152368E-01 0.13224008E+03</pdfrwt>
<totfact> 0.58859641E+03</totfact>
</mgrwt>
</event>
<event>
 8    1  0.8174053E-004  0.1904961E+03  0.7546771E-02  0.1158571E+00
          1   -1    0    0  501    0  0.00000000000E+00  0.00000000000E+00  0.61897340079E+03  0.61897340079E+03  0.00000000000E+00 0. -1.
         -1   -1    0    0    0  501 -0.00000000000E+00 -0.00000000000E+00 -0.84962773356E+02  0.84962773356E+02  0.00000000000E+00 0.  1.
         23    2    1    2    0    0  0.10200985972E+03  0.12797292151E+03  0.69448340471E+02  0.20276057328E+03  0.97497168999E+02 0.  0.
         23    2    1    2    0    0 -0.10200985972E+03 -0.12797292151E+03  0.46456228697E+03  0.50117560087E+03  0.92605530684E+02 0.  0.
          5    1    3    3  502    0  0.35314295593E+02  0.11754035302E+03  0.44042637603E+02  0.13047864955E+03  0.47000000000E+01 0. -1.
         -5    1    3    3    0  502  0.66695564131E+02  0.10432568488E+02  0.25405702867E+02  0.72281923731E+02  0.47000000000E+01 0.  1.
          5    1    4    4  503    0 -0.95937053749E+02 -0.52616909951E+02  0.31556921429E+03  0.33403364576E+03  0.47000000000E+01 0. -1.
         -5    1    4    4    0  503 -0.60728059746E+01 -0.75356011557E+02  0.14899307268E+03  0.16714195510E+03  0.47000000000E+01 0.  1.
<mgrwt>
<rscale>  0 0.18987899E+03</rscale>
<asrwt>0</asrwt>
<pdfrwt beam="1">  1        1 0.95226674E-01 0.19049614E+03</pdfrwt>
<pdfrwt beam="2">  1       -1 0.13071196E-01 0.19049614E+03</pdfrwt>
<totfact> 0.13437839E+03</totfact>
</mgrwt>
</event>
<event>
 8    1  0.8174053E-004  0.9780918E+02  0.7546771E-02  0.1286130E+00
         -2   -1    0    0    0  501 -0.00000000000E+00  0.00000000000E+00  0.36110635157E+02  0.36110635157E+02  0.00000000000E+00 0.  1.
          2   -1    0    0  501    0  0.00000000000E+00 -0.00000000000E+00 -0.32716094751E+03  0.32716094751E+03  0.00000000000E+00 0. -1.
         23    2    1    2    0    0 -0.24406431056E+02  0.24440244695E+02 -0.61504234236E+02  0.11375597503E+03  0.89244896711E+02 0.  0.
         23    2    1    2    0    0  0.24406431056E+02 -0.24440244695E+02 -0.22954607811E+03  0.24951560763E+03  0.91507579122E+02 0.  0.
          5    1    4    4  502    0 -0.24750602745E+02  0.18977234869E+02 -0.62864903848E+02  0.70333590235E+02  0.47000000000E+01 0. -1.
         -5    1    4    4    0  502  0.49157033801E+02 -0.43417479564E+02 -0.16668117427E+03  0.17918201740E+03  0.47000000000E+01 0.  1.
          5    1    3    3  503    0 -0.37066907420E+02  0.47187700763E+02 -0.17970125912E+02  0.62814410403E+02  0.47000000000E+01 0. -1.
         -5    1    3    3    0  503  0.12660476364E+02 -0.22747456067E+02 -0.43534108324E+02  0.50941564629E+02  0.47000000000E+01 0.  1.
<mgrwt>
<rscale>  0 0.97276456E+02</rscale>
<asrwt>0</asrwt>
<pdfrwt beam="1">  1        2 0.50332451E-01 0.97809184E+02</pdfrwt>
<pdfrwt beam="2">  1       -2 0.55554826E-02 0.97809184E+02</pdfrwt>
<totfact> 0.15124340E+04</totfact>
</mgrwt>
</event>
<event>
 8    1  0.8174053E-004  0.1105810E+03  0.7546771E-02  0.1259648E+00
          1   -1    0    0  501    0  0.00000000000E+00  0.00000000000E+00  0.80780230554E+03  0.80780230554E+03  0.00000000000E+00 0. -1.
         -1   -1    0    0    0  501 -0.00000000000E+00 -0.00000000000E+00 -0.27700925607E+02  0.27700925607E+02  0.00000000000E+00 0.  1.
         23    2    1    2    0    0  0.19015586024E+02  0.60496201720E+02  0.67157140455E+03  0.68056161567E+03  0.90191897573E+02 0.  0.
         23    2    1    2    0    0 -0.19015586024E+02 -0.60496201720E+02  0.10852997538E+03  0.15494161547E+03  0.90591201084E+02 0.  0.
          5    1    4    4  502    0  0.30154158305E+02 -0.86358286607E+01  0.61690105984E+02  0.69365769483E+02  0.47000000000E+01 0. -1.
         -5    1    3    3    0  503 -0.18464839262E+02  0.68826223048E+02  0.45270384235E+03  0.45830214722E+03  0.47000000000E+01 0.  1.
          5    1    3    3  503    0  0.37480425285E+02 -0.83300213282E+01  0.21886756219E+03  0.22225946845E+03  0.47000000000E+01 0. -1.
         -5    1    4    4    0  502 -0.49169744328E+02 -0.51860373059E+02  0.46839869397E+02  0.85575845986E+02  0.47000000000E+01 0.  1.
<mgrwt>
<rscale>  0 0.11049915E+03</rscale>
<asrwt>0</asrwt>
<pdfrwt beam="1">  1        1 0.12427726E+00 0.11058096E+03</pdfrwt>
<pdfrwt beam="2">  1       -1 0.42616815E-02 0.11058096E+03</pdfrwt>
<totfact> 0.48900369E+03</totfact>
</mgrwt>
</event>
<event>
 8    1  0.8174053E-004  0.1006096E+03  0.7546771E-02  0.1279990E+00
         -4   -1    0    0    0  501 -0.00000000000E+00  0.00000000000E+00  0.57995903059E+03  0.57995903059E+03  0.00000000000E+00 0.  1.
          4   -1    0    0  501    0  0.00000000000E+00 -0.00000000000E+00 -0.19449964147E+02  0.19449964147E+02  0.00000000000E+00 0. -1.
         23    2    1    2    0    0 -0.33638372612E+02 -0.13512892858E+02  0.38136183695E+03  0.39394361979E+03  0.91872664624E+02 0.  0.
         23    2    1    2    0    0  0.33638372612E+02  0.13512892858E+02  0.17914722949E+03  0.20546537494E+03  0.93851755881E+02 0.  0.
          5    1    3    3  502    0  0.36180321723E+01  0.35613433086E+02  0.16598420586E+03  0.16986539780E+03  0.47000000000E+01 0. -1.
         -5    1    3    3    0  502 -0.37256404784E+02 -0.49126325944E+02  0.21537763109E+03  0.22407822199E+03  0.47000000000E+01 0.  1.
          5    1    4    4  503    0  0.59709482940E+02  0.32160767648E+02  0.12768437677E+03  0.14465451048E+03  0.47000000000E+01 0. -1.
         -5    1    4    4    0  503 -0.26071110328E+02 -0.18647874790E+02  0.51462852711E+02  0.60810864465E+02  0.47000000000E+01 0.  1.
<mgrwt>
<rscale>  0 0.10014550E+03</rscale>
<asrwt>0</asrwt>
<pdfrwt beam="1">  1        4 0.29923026E-02 0.10060959E+03</pdfrwt>
<pdfrwt beam="2">  1       -4 0.89224453E-01 0.10060959E+03</pdfrwt>
<totfact> 0.93299750E+02</totfact>
</mgrwt>
</event>
<event>
 8    1  0.8174053E-004  0.9960242E+02  0.7546771E-02  0.1282200E+00
         -2   -1    0    0    0  501 -0.00000000000E+00  0.00000000000E+00  0.65396962466E+02  0.65396962466E+02  0.00000000000E+00 0.  1.
          2   -1    0    0  501    0  0.00000000000E+00 -0.00000000000E+00 -0.95372794360E+03  0.95372794360E+03  0.00000000000E+00 0. -1.
         23    2    1    2    0    0  0.24646833705E+02  0.27709863364E+02  0.24693749166E+02  0.10068340029E+03  0.90288775085E+02 0.  0.
         23    2    1    2    0    0 -0.24646833705E+02 -0.27709863364E+02 -0.91302473030E+03  0.91844150578E+03  0.92440999876E+02 0.  0.
          5    1    4    4  502    0  0.18127098330E+02 -0.48311222584E+02 -0.45691416818E+03  0.45984259590E+03  0.47000000000E+01 0. -1.
         -5    1    3    3    0  503  0.28391560367E+02  0.58815993280E+02  0.21122094702E+02  0.68801414594E+02  0.47000000000E+01 0.  1.
          5    1    3    3  503    0 -0.37447266618E+01 -0.31106129917E+02  0.35716544642E+01  0.31881985694E+02  0.47000000000E+01 0. -1.
         -5    1    4    4    0  502 -0.42773932035E+02  0.20601359220E+02 -0.45611056212E+03  0.45859890988E+03  0.47000000000E+01 0.  1.
<mgrwt>
<rscale>  0 0.99100082E+02</rscale>
<asrwt>0</asrwt>
<pdfrwt beam="1">  1        2 0.14672737E+00 0.99602417E+02</pdfrwt>
<pdfrwt beam="2">  1       -2 0.10061072E-01 0.99602417E+02</pdfrwt>
<totfact> 0.18226229E+03</totfact>
</mgrwt>
</event>
<event>
 8    1  0.8174053E-004  0.9741731E+02  0.7546771E-02  0.1287468E+00
          1   -1    0    0  501    0  0.00000000000E+00  0.00000000000E+00  0.13247250450E+02  0.13247250450E+02  0.00000000000E+00 0. -1.
         -1   -1    0    0    0  501 -0.00000000000E+00 -0.00000000000E+00 -0.71704681229E+03  0.71704681229E+03  0.00000000000E+00 0.  1.
         23    2    1    2    0    0 -0.80581737612E+00  0.26040977667E+02 -0.29272400133E+03  0.30850846429E+03  0.93868789934E+02 0.  0.
         23    2    1    2    0    0  0.80581737612E+00 -0.26040977667E+02 -0.41107556050E+03  0.42178559845E+03  0.90781015378E+02 0.  0.
          5    1    4    4  502    0 -0.36745415318E+02  0.53853783953E+01 -0.98698352206E+02  0.10555890571E+03  0.47000000000E+01 0. -1.
         -5    1    3    3    0  503  0.12000681163E+02 -0.33363544484E+02 -0.12663011424E+03  0.13158426304E+03  0.47000000000E+01 0.  1.
          5    1    3    3  503    0 -0.12806498539E+02  0.59404522150E+02 -0.16609388710E+03  0.17692420125E+03  0.47000000000E+01 0. -1.
         -5    1    4    4    0  502  0.37551232694E+02 -0.31426356062E+02 -0.31237720830E+03  0.31622669273E+03  0.47000000000E+01 0.  1.
<mgrwt>
<rscale>  0 0.96665731E+02</rscale>
<asrwt>0</asrwt>
<pdfrwt beam="1">  1        1 0.20380385E-02 0.97417306E+02</pdfrwt>
<pdfrwt beam="2">  1       -1 0.11031490E+00 0.97417306E+02</pdfrwt>
<totfact> 0.44262601E+03</totfact>
</mgrwt>
</event>
<event>
 8    1  0.8174053E-004  0.1313258E+03  0.7546771E-02  0.1225630E+00
         -1   -1    0    0    0  501 -0.00000000000E+00  0.00000000000E+00  0.12437868252E+03  0.12437868252E+03  0.00000000000E+00 0.  1.
          1   -1    0    0  501    0  0.00000000000E+00 -0.00000000000E+00 -0.66304322013E+03  0.66304322013E+03  0.00000000000E+00 0. -1.
         23    2    1    2    0    0  0.90644724869E+02  0.91958843927E+00  0.80997423168E+02  0.15399676025E+03  0.94536277788E+02 0.  0.
         23    2    1    2    0    0 -0.90644724869E+02 -0.91958843927E+00 -0.61966196078E+03  0.63342514239E+03  0.95021858498E+02 0.  0.
          5    1    3    3  502    0 -0.14508411061E+02 -0.18253309946E+02  0.18086699124E+02  0.29881365442E+02  0.47000000000E+01 0. -1.
         -5    1    4    4    0  503 -0.37804091834E+02  0.28130697686E+02 -0.10455470380E+03  0.11477918626E+03  0.47000000000E+01 0.  1.
          5    1    4    4  503    0 -0.52840633036E+02 -0.29050286125E+02 -0.51510725698E+03  0.51864595614E+03  0.47000000000E+01 0. -1.
         -5    1    3    3    0  502  0.10515313593E+03  0.19172898385E+02  0.62910724044E+02  0.12411539481E+03  0.47000000000E+01 0.  1.
<mgrwt>
<rscale>  0 0.13123798E+03</rscale>
<asrwt>0</asrwt>
<pdfrwt beam="1">  1        1 0.10200665E+00 0.13132580E+03</pdfrwt>
<pdfrwt beam="2">  1       -1 0.19135182E-01 0.13132580E+03</pdfrwt>
<totfact> 0.66766427E+02</totfact>
</mgrwt>
</event>
<event>
 8    1  0.8174053E-004  0.9934691E+02  0.7546771E-02  0.1282335E+00
         -1   -1    0    0    0  501 -0.00000000000E+00  0.00000000000E+00  0.35849273041E+02  0.35849273041E+02  0.00000000000E+00 0.  1.
          1   -1    0    0  501    0  0.00000000000E+00 -0.00000000000E+00 -0.52651162709E+03  0.52651162709E+03  0.00000000000E+00 0. -1.
         23    2    1    2    0    0  0.29314814075E+02  0.21558297877E+02 -0.50592898692E+02  0.11148744724E+03  0.92442906502E+02 0.  0.
         23    2    1    2    0    0 -0.29314814075E+02 -0.21558297877E+02 -0.44006945536E+03  0.45087345289E+03  0.91113261664E+02 0.  0.
          5    1    4    4  502    0 -0.38251448262E+02 -0.48593770868E+02 -0.36886572484E+03  0.37404350124E+03  0.47000000000E+01 0. -1.
         -5    1    3    3    0  503  0.78476385069E+01  0.27005760565E+02  0.21636452642E+02  0.35792773248E+02  0.47000000000E+01 0.  1.
          5    1    3    3  503    0  0.21467175568E+02 -0.54474626880E+01 -0.72229351334E+02  0.75694673992E+02  0.47000000000E+01 0. -1.
         -5    1    4    4    0  502  0.89366341870E+01  0.27035472990E+02 -0.71203730523E+02  0.76829951652E+02  0.47000000000E+01 0.  1.
<mgrwt>
<rscale>  0 0.99036454E+02</rscale>
<asrwt>0</asrwt>
<pdfrwt beam="1">  1        1 0.81001786E-01 0.99346915E+02</pdfrwt>
<pdfrwt beam="2">  1       -1 0.55152729E-02 0.99346915E+02</pdfrwt>
<totfact> 0.60306912E+03</totfact>
</mgrwt>
</event>
<event>
 8    1  0.8174053E-004  0.1161369E+03  0.7546771E-02  0.1256171E+00
         -3   -1    0    0    0  501 -0.00000000000E+00  0.00000000000E+00  0.21156907603E+02  0.21156907603E+02  0.00000000000E+00 0.  1.
          3   -1    0    0  501    0  0.00000000000E+00 -0.00000000000E+00 -0.76862810420E+03  0.76862810420E+03  0.00000000000E+00 0. -1.
         23    2    1    2    0    0  0.72081320362E+02 -0.31831383290E+01 -0.56040531858E+03  0.56960004987E+03  0.72001712512E+02 0.  0.
         23    2    1    2    0    0 -0.72081320362E+02  0.31831383290E+01 -0.18706587802E+03  0.22018496193E+03  0.91005085727E+02 0.  0.
          5    1    4    4  502    0 -0.71039962175E+02 -0.33014799966E+02 -0.14135880319E+03  0.16168195472E+03  0.47000000000E+01 0. -1.
         -5    1    4    4    0  502 -0.10413581862E+01  0.36197938295E+02 -0.45707074827E+02  0.58503007213E+02  0.47000000000E+01 0.  1.
          5    1    3    3  503    0  0.47478774286E+02 -0.16315853728E+02 -0.50385739852E+03  0.50637417898E+03  0.47000000000E+01 0. -1.
         -5    1    3    3    0  503  0.24602546075E+02  0.13132715399E+02 -0.56547920057E+02  0.63225870891E+02  0.47000000000E+01 0.  1.
<mgrwt>
<rscale>  0 0.11241003E+03</rscale>
<asrwt>0</asrwt>
<pdfrwt beam="1">  1        3 0.11825049E+00 0.11613688E+03</pdfrwt>
<pdfrwt beam="2">  1       -3 0.32549086E-02 0.11613688E+03</pdfrwt>
<totfact> 0.62359073E+02</totfact>
</mgrwt>
</event>
<event>
 8    1  0.8174053E-004  0.1555465E+03  0.7546771E-02  0.1193985E+00
         -2   -1    0    0    0  501 -0.00000000000E+00  0.00000000000E+00  0.71473185591E+02  0.71473185591E+02  0.00000000000E+00 0.  1.
          2   -1    0    0  501    0  0.00000000000E+00 -0.00000000000E+00 -0.81392385347E+03  0.81392385347E+03  0.00000000000E+00 0. -1.
         23    2    1    2    0    0  0.12060372154E+03  0.35021660092E+02 -0.32730847389E+02  0.15895293493E+03  0.91776646411E+02 0.  0.
         23    2    1    2    0    0 -0.12060372154E+03 -0.35021660092E+02 -0.70971982049E+03  0.72644410414E+03  0.90813206702E+02 0.  0.
          5    1    4    4  502    0 -0.99732347954E+02 -0.49852449831E+02 -0.66808161388E+03  0.67733812884E+03  0.47000000000E+01 0. -1.
         -5    1    3    3    0  503  0.10220776825E+03  0.22060997154E+02  0.15227927270E+02  0.10576906568E+03  0.47000000000E+01 0.  1.
          5    1    3    3  503    0  0.18395953289E+02  0.12960662938E+02 -0.47958774660E+02  0.53183869247E+02  0.47000000000E+01 0. -1.
         -5    1    4    4    0  502 -0.20871373583E+02  0.14830789740E+02 -0.41638206617E+02  0.49105975297E+02  0.47000000000E+01 0.  1.
<mgrwt>
<rscale>  0 0.15540472E+03</rscale>
<asrwt>0</asrwt>
<pdfrwt beam="1">  1        2 0.12521905E+00 0.15554654E+03</pdfrwt>
<pdfrwt beam="2">  1       -2 0.10995875E-01 0.15554654E+03</pdfrwt>
<totfact> 0.19598228E+03</totfact>
</mgrwt>
</event>
<event>
 8    1  0.8174053E-004  0.1012542E+03  0.7546771E-02  0.1280721E+00
          1   -1    0    0  501    0  0.00000000000E+00  0.00000000000E+00  0.61835008489E+03  0.61835008489E+03  0.00000000000E+00 0. -1.
         -1   -1    0    0    0  501 -0.00000000000E+00 -0.00000000000E+00 -0.16289986313E+02  0.16289986313E+02  0.00000000000E+00 0.  1.
         23    2    1    2    0    0  0.13951643499E+02  0.34636327439E+02  0.35502692870E+03  0.36766103037E+03  0.87955611624E+02 0.  0.
         23    2    1    2    0    0 -0.13951643499E+02 -0.34636327439E+02  0.24703316988E+03  0.26697904084E+03  0.94117467507E+02 0.  0.
          5    1    4    4  502    0 -0.34107695268E+02 -0.21257528840E+02  0.23690298346E+03  0.24033379076E+03  0.47000000000E+01 0. -1.
         -5    1    4    4    0  502  0.20156051769E+02 -0.13378798598E+02  0.10130186425E+02  0.26645250081E+02  0.47000000000E+01 0.  1.
          5    1    3    3  503    0 -0.33807342240E+02 -0.32020510644E+01  0.13791839737E+03  0.14211531886E+03  0.47000000000E+01 0. -1.
         -5    1    3    3    0  503  0.47758985738E+02  0.37838378503E+02  0.21710853133E+03  0.22554571151E+03  0.47000000000E+01 0.  1.
<mgrwt>
<rscale>  0 0.99797994E+02</rscale>
<asrwt>0</asrwt>
<pdfrwt beam="1">  1        1 0.95130764E-01 0.10125424E+03</pdfrwt>
<pdfrwt beam="2">  1       -1 0.25061522E-02 0.10125424E+03</pdfrwt>
<totfact> 0.15354909E+04</totfact>
</mgrwt>
</event>
<event>
 8    1  0.8174053E-004  0.1080522E+03  0.7546771E-02  0.1264443E+00
          1   -1    0    0  501    0  0.00000000000E+00  0.00000000000E+00  0.41032735384E+03  0.41032735384E+03  0.00000000000E+00 0. -1.
         -1   -1    0    0    0  501 -0.00000000000E+00 -0.00000000000E+00 -0.28455026279E+02  0.28455026279E+02  0.00000000000E+00 0.  1.
         23    2    1    2    0    0  0.82714948859E+01 -0.57996180059E+02  0.17597684372E+03  0.20625661044E+03  0.90232839342E+02 0.  0.
         23    2    1    2    0    0 -0.82714948859E+01  0.57996180059E+02  0.20589548384E+03  0.23252576967E+03  0.90792669138E+02 0.  0.
          5    1    4    4  502    0  0.31383607767E+02  0.59198754504E+02  0.11389584339E+03  0.13222623232E+03  0.47000000000E+01 0. -1.
         -5    1    3    3    0  503  0.32079208235E+02 -0.69932312730E+02  0.10464469862E+03  0.12997002314E+03  0.47000000000E+01 0.  1.
          5    1    3    3  503    0 -0.23807713349E+02  0.11936132671E+02  0.71332145098E+02  0.76286587303E+02  0.47000000000E+01 0. -1.
         -5    1    4    4    0  502 -0.39655102653E+02 -0.12025744453E+01  0.91999640449E+02  0.10029953736E+03  0.47000000000E+01 0.  1.
<mgrwt>
<rscale>  0 0.10793454E+03</rscale>
<asrwt>0</asrwt>
<pdfrwt beam="1">  1        1 0.63127281E-01 0.10805222E+03</pdfrwt>
<pdfrwt beam="2">  1       -1 0.43776966E-02 0.10805222E+03</pdfrwt>
<totfact> 0.11707431E+04</totfact>
</mgrwt>
</event>
<event>
 8    1  0.8174053E-004  0.1055743E+03  0.7546771E-02  0.1269203E+00
         -2   -1    0    0    0  501 -0.00000000000E+00  0.00000000000E+00  0.23561785109E+02  0.23561785109E+02  0.00000000000E+00 0.  1.
          2   -1    0    0  501    0  0.00000000000E+00 -0.00000000000E+00 -0.47149203137E+03  0.47149203137E+03  0.00000000000E+00 0. -1.
         23    2    1    2    0    0  0.51215796752E+02  0.58412148274E+01 -0.23039388382E+03  0.25325225054E+03  0.91641601212E+02 0.  0.
         23    2    1    2    0    0 -0.51215796752E+02 -0.58412148274E+01 -0.21753636244E+03  0.24180156594E+03  0.92134416373E+02 0.  0.
          5    1    3    3  502    0  0.31797381351E+02  0.34686584854E+02 -0.20382627688E+03  0.20924022982E+03  0.47000000000E+01 0. -1.
         -5    1    3    3    0  502  0.19418415401E+02 -0.28845370027E+02 -0.26567606936E+02  0.44012020710E+02  0.47000000000E+01 0.  1.
          5    1    4    4  503    0 -0.26440338100E+02  0.30081574697E+02 -0.32967366900E+02  0.52085793604E+02  0.47000000000E+01 0. -1.
         -5    1    4    4    0  503 -0.24775458652E+02 -0.35922789525E+02 -0.18456899554E+03  0.18971577234E+03  0.47000000000E+01 0.  1.
<mgrwt>
<rscale>  0 0.10546666E+03</rscale>
<asrwt>0</asrwt>
<pdfrwt beam="1">  1        2 0.72537234E-01 0.10557428E+03</pdfrwt>
<pdfrwt beam="2">  1       -2 0.36248901E-02 0.10557428E+03</pdfrwt>
<totfact> 0.19486264E+04</totfact>
</mgrwt>
</event>
<event>
 8    1  0.8174053E-004  0.1027939E+03  0.7546771E-02  0.1277026E+00
         -2   -1    0    0    0  501 -0.00000000000E+00  0.00000000000E+00  0.91797044108E+02  0.91797044108E+02  0.00000000000E+00 0.  1.
          2   -1    0    0  501    0  0.00000000000E+00 -0.00000000000E+00 -0.11379668527E+03  0.11379668527E+03  0.00000000000E+00 0. -1.
         23    2    1    2    0    0  0.15482634628E+02 -0.40686587175E+02  0.85348685839E+01  0.98360597910E+02  0.87788683146E+02 0.  0.
         23    2    1    2    0    0 -0.15482634628E+02  0.40686587175E+02 -0.30534509750E+02  0.10723313147E+03  0.93120770233E+02 0.  0.
          5    1    4    4  502    0 -0.33645664661E+02  0.60867731336E+02 -0.37017658909E+02  0.78925968728E+02  0.47000000000E+01 0. -1.
         -5    1    4    4    0  502  0.18163030033E+02 -0.20181144161E+02  0.64831491592E+01  0.28307162745E+02  0.47000000000E+01 0.  1.
          5    1    3    3  503    0  0.20291678637E+02  0.23248738287E+02  0.13227661865E+02  0.33901579495E+02  0.47000000000E+01 0. -1.
         -5    1    3    3    0  503 -0.48090440084E+01 -0.63935325462E+02 -0.46927932811E+01  0.64459018415E+02  0.47000000000E+01 0.  1.
<mgrwt>
<rscale>  0 0.10157119E+03</rscale>
<asrwt>0</asrwt>
<pdfrwt beam="1">  1        2 0.17507182E-01 0.10279391E+03</pdfrwt>
<pdfrwt beam="2">  1       -2 0.14122622E-01 0.10279391E+03</pdfrwt>
<totfact> 0.11225453E+04</totfact>
</mgrwt>
</event>
<event>
 8    1  0.8174053E-004  0.1010476E+03  0.7546771E-02  0.1278924E+00
         -1   -1    0    0    0  501 -0.00000000000E+00  0.00000000000E+00  0.13173711547E+03  0.13173711547E+03  0.00000000000E+00 0.  1.
          1   -1    0    0  501    0  0.00000000000E+00 -0.00000000000E+00 -0.98600870442E+02  0.98600870442E+02  0.00000000000E+00 0. -1.
         23    2    1    2    0    0  0.41844282174E+02  0.13621297173E+02  0.71219022577E+02  0.12235226449E+03  0.89226922859E+02 0.  0.
         23    2    1    2    0    0 -0.41844282174E+02 -0.13621297173E+02 -0.38082777554E+02  0.10798572141E+03  0.90962269076E+02 0.  0.
          5    1    3    3  502    0 -0.23407364637E+02  0.22981519039E+02  0.19651971882E+02  0.38527197347E+02  0.47000000000E+01 0. -1.
         -5    1    4    4    0  503 -0.20266912856E+02 -0.46869432738E+02 -0.44083339647E+02  0.67623385868E+02  0.47000000000E+01 0.  1.
          5    1    4    4  503    0 -0.21577369317E+02  0.33248135564E+02  0.60005620926E+01  0.40362335544E+02  0.47000000000E+01 0. -1.
         -5    1    3    3    0  502  0.65251646811E+02 -0.93602218652E+01  0.51567050695E+02  0.83825067147E+02  0.47000000000E+01 0.  1.
<mgrwt>
<rscale>  0 0.10065551E+03</rscale>
<asrwt>0</asrwt>
<pdfrwt beam="1">  1        1 0.15169365E-01 0.10104760E+03</pdfrwt>
<pdfrwt beam="2">  1       -1 0.20267249E-01 0.10104760E+03</pdfrwt>
<totfact> 0.67117923E+03</totfact>
</mgrwt>
</event>
<event>
 8    1  0.8174053E-004  0.9645697E+02  0.7546771E-02  0.1288687E+00
         -1   -1    0    0    0  501 -0.00000000000E+00  0.00000000000E+00  0.45125738782E+02  0.45125738782E+02  0.00000000000E+00 0.  1.
          1   -1    0    0  501    0  0.00000000000E+00 -0.00000000000E+00 -0.27232985783E+03  0.27232985783E+03  0.00000000000E+00 0. -1.
         23    2    1    2    0    0  0.20430492047E+02  0.13203765125E+02 -0.19292728265E+03  0.21508934753E+03  0.91927942487E+02 0.  0.
         23    2    1    2    0    0 -0.20430492047E+02 -0.13203765125E+02 -0.34276836402E+02  0.10236624909E+03  0.93339182663E+02 0.  0.
          5    1    4    4  502    0  0.12794179348E+02  0.19993975809E+02 -0.47532993911E+02  0.53337844013E+02  0.47000000000E+01 0. -1.
         -5    1    4    4    0  502 -0.33224671395E+02 -0.33197740934E+02  0.13256157509E+02  0.49028405076E+02  0.47000000000E+01 0.  1.
          5    1    3    3  503    0 -0.12397686149E+02  0.29897263004E+02 -0.20252527302E+02  0.38468218299E+02  0.47000000000E+01 0. -1.
         -5    1    3    3    0  503  0.32828178196E+02 -0.16693497880E+02 -0.17267475535E+03  0.17662112923E+03  0.47000000000E+01 0.  1.
<mgrwt>
<rscale>  0 0.96113906E+02</rscale>
<asrwt>0</asrwt>
<pdfrwt beam="1">  1        1 0.41896902E-01 0.96456972E+02</pdfrwt>
<pdfrwt beam="2">  1       -1 0.69424213E-02 0.96456972E+02</pdfrwt>
<totfact> 0.97450287E+03</totfact>
</mgrwt>
</event>
<event>
 8    1  0.8174053E-004  0.1005046E+03  0.7546771E-02  0.1280659E+00
          1   -1    0    0  501    0  0.00000000000E+00  0.00000000000E+00  0.29633100520E+03  0.29633100520E+03  0.00000000000E+00 0. -1.
         -1   -1    0    0    0  501 -0.00000000000E+00 -0.00000000000E+00 -0.39850133642E+02  0.39850133642E+02  0.00000000000E+00 0.  1.
         23    2    1    2    0    0  0.40052326932E+02 -0.12522159530E+02  0.60941053609E+02  0.11753715947E+03  0.91324577571E+02 0.  0.
         23    2    1    2    0    0 -0.40052326932E+02  0.12522159530E+02  0.19553981795E+03  0.21864397938E+03  0.88365015373E+02 0.  0.
          5    1    3    3  502    0  0.15856484100E+02 -0.15900033654E+02  0.81871596060E+02  0.85025216257E+02  0.47000000000E+01 0. -1.
         -5    1    4    4    0  503 -0.13330340062E+02  0.26813520328E+02  0.12064678558E+02  0.32623753728E+02  0.47000000000E+01 0.  1.
          5    1    4    4  503    0 -0.26721986869E+02 -0.14291360798E+02  0.18347513939E+03  0.18602022565E+03  0.47000000000E+01 0. -1.
         -5    1    3    3    0  502  0.24195842832E+02  0.33778741244E+01 -0.20930542451E+02  0.32511943209E+02  0.47000000000E+01 0.  1.
<mgrwt>
<rscale>  0 0.99827415E+02</rscale>
<asrwt>0</asrwt>
<pdfrwt beam="1">  1        1 0.45589384E-01 0.10050459E+03</pdfrwt>
<pdfrwt beam="2">  1       -1 0.61307900E-02 0.10050459E+03</pdfrwt>
<totfact> 0.10603737E+04</totfact>
</mgrwt>
</event>
<event>
 8    1  0.8174053E-004  0.1035636E+03  0.7546771E-02  0.1273165E+00
         -2   -1    0    0    0  501 -0.00000000000E+00  0.00000000000E+00  0.23364153884E+02  0.23364153884E+02  0.00000000000E+00 0.  1.
          2   -1    0    0  501    0  0.00000000000E+00 -0.00000000000E+00 -0.46797217897E+03  0.46797217897E+03  0.00000000000E+00 0. -1.
         23    2    1    2    0    0 -0.36105600101E+02  0.34821051240E+02 -0.25964832153E+03  0.27954008668E+03  0.90605127974E+02 0.  0.
         23    2    1    2    0    0  0.36105600101E+02 -0.34821051240E+02 -0.18495970355E+03  0.21179624618E+03  0.90174486352E+02 0.  0.
          5    1    4    4  502    0 -0.19832348991E+02 -0.19358588403E+02 -0.12536959661E+03  0.12848230526E+03  0.47000000000E+01 0. -1.
         -5    1    4    4    0  502  0.55937949092E+02 -0.15462462836E+02 -0.59590106947E+02  0.83313940920E+02  0.47000000000E+01 0.  1.
          5    1    3    3  503    0 -0.95394461624E+01 -0.24075418470E+02 -0.14913132698E+03  0.15143602443E+03  0.47000000000E+01 0. -1.
         -5    1    3    3    0  503 -0.26566153938E+02  0.58896469709E+02 -0.11051699455E+03  0.12810406225E+03  0.47000000000E+01 0.  1.
<mgrwt>
<rscale>  0 0.10346929E+03</rscale>
<asrwt>0</asrwt>
<pdfrwt beam="1">  1        2 0.71995713E-01 0.10356355E+03</pdfrwt>
<pdfrwt beam="2">  1       -2 0.35944855E-02 0.10356355E+03</pdfrwt>
<totfact> 0.19852269E+04</totfact>
</mgrwt>
</event>
<event>
 8    1  0.8174053E-004  0.1114016E+03  0.7546771E-02  0.1259168E+00
          2   -1    0    0  501    0  0.00000000000E+00  0.00000000000E+00  0.44247594993E+03  0.44247594993E+03  0.00000000000E+00 0. -1.
         -2   -1    0    0    0  501 -0.00000000000E+00 -0.00000000000E+00 -0.33132436173E+02  0.33132436173E+02  0.00000000000E+00 0.  1.
         23    2    1    2    0    0  0.31316310028E+02  0.53260474595E+02  0.10781076724E+03  0.15502731394E+03  0.92697988680E+02 0.  0.
         23    2    1    2    0    0 -0.31316310028E+02 -0.53260474595E+02  0.30153274651E+03  0.32058107216E+03  0.89626096544E+02 0.  0.
          5    1    3    3  502    0  0.39449928270E+02 -0.12851963048E+02  0.25078125511E+02  0.48708029870E+02  0.47000000000E+01 0. -1.
         -5    1    3    3    0  502 -0.81336182418E+01  0.66112437643E+02  0.82732641731E+02  0.10631928407E+03  0.47000000000E+01 0.  1.
          5    1    4    4  503    0 -0.62251983219E+02 -0.36214251213E+02  0.22184053693E+03  0.23328543724E+03  0.47000000000E+01 0. -1.
         -5    1    4    4    0  503  0.30935673192E+02 -0.17046223382E+02  0.79692209586E+02  0.87295634920E+02  0.47000000000E+01 0.  1.
<mgrwt>
<rscale>  0 0.11076034E+03</rscale>
<asrwt>0</asrwt>
<pdfrwt beam="1">  1        2 0.68073219E-01 0.11140156E+03</pdfrwt>
<pdfrwt beam="2">  1       -2 0.50972982E-02 0.11140156E+03</pdfrwt>
<totfact> 0.12647248E+04</totfact>
</mgrwt>
</event>
<event>
 8    1  0.8174053E-004  0.9564384E+02  0.7546771E-02  0.1294685E+00
          2   -1    0    0  501    0  0.00000000000E+00  0.00000000000E+00  0.52177965250E+03  0.52177965250E+03  0.00000000000E+00 0. -1.
         -2   -1    0    0    0  501 -0.00000000000E+00 -0.00000000000E+00 -0.16359899512E+02  0.16359899512E+02  0.00000000000E+00 0.  1.
         23    2    1    2    0    0  0.76295142630E+01  0.14487484792E+02  0.28013680095E+03  0.29339447544E+03  0.85648083879E+02 0.  0.
         23    2    1    2    0    0 -0.76295142630E+01 -0.14487484792E+02  0.22528295204E+03  0.24474507657E+03  0.94231880600E+02 0.  0.
          5    1    3    3  502    0 -0.21470381387E+02  0.47781348082E+01  0.16395826239E+02  0.27833809786E+02  0.47000000000E+01 0.  1.
         -5    1    4    4    0  503  0.47635675211E+01  0.39313830109E+02  0.84030389804E+02  0.93013252948E+02  0.47000000000E+01 0. -1.
          5    1    4    4  503    0 -0.12393081784E+02 -0.53801314901E+02  0.14125256223E+03  0.15173182362E+03  0.47000000000E+01 0.  1.
         -5    1    3    3    0  502  0.29099895650E+02  0.97093499836E+01  0.26374097471E+03  0.26556066566E+03  0.47000000000E+01 0. -1.
<mgrwt>
<rscale>  0 0.93458931E+02</rscale>
<asrwt>0</asrwt>
<pdfrwt beam="1">  1        2 0.80273780E-01 0.95643839E+02</pdfrwt>
<pdfrwt beam="2">  1       -2 0.25169080E-02 0.95643839E+02</pdfrwt>
<totfact> 0.29428822E+04</totfact>
</mgrwt>
</event>
<event>
 8    1  0.8174053E-004  0.1165498E+03  0.7546771E-02  0.1250318E+00
          2   -1    0    0  501    0  0.00000000000E+00  0.00000000000E+00  0.34685669427E+03  0.34685669427E+03  0.00000000000E+00 0. -1.
         -2   -1    0    0    0  501 -0.00000000000E+00 -0.00000000000E+00 -0.87336642795E+02  0.87336642795E+02  0.00000000000E+00 0.  1.
         23    2    1    2    0    0 -0.63471880018E+02 -0.29087778208E+02 -0.32475711221E+02  0.12098981007E+03  0.93322472785E+02 0.  0.
         23    2    1    2    0    0  0.63471880018E+02  0.29087778208E+02  0.29199576270E+03  0.31320352700E+03  0.89219647488E+02 0.  0.
          5    1    4    4  502    0  0.76553998665E+02 -0.45465894981E+01  0.19313360448E+03  0.20785539532E+03  0.47000000000E+01 0. -1.
         -5    1    4    4    0  502 -0.13082118647E+02  0.33634367706E+02  0.98862158221E+02  0.10534813168E+03  0.47000000000E+01 0.  1.
          5    1    3    3  503    0  0.24866489160E+01 -0.40348692962E+02 -0.35269686704E+02  0.53853887945E+02  0.47000000000E+01 0. -1.
         -5    1    3    3    0  503 -0.65958528934E+02  0.11260914754E+02  0.27939754836E+01  0.67135922122E+02  0.47000000000E+01 0.  1.
<mgrwt>
<rscale>  0 0.11572652E+03</rscale>
<asrwt>0</asrwt>
<pdfrwt beam="1">  1        2 0.53362567E-01 0.11654983E+03</pdfrwt>
<pdfrwt beam="2">  1       -2 0.13436407E-01 0.11654983E+03</pdfrwt>
<totfact> 0.36751449E+03</totfact>
</mgrwt>
</event>
<event>
 8    1  0.8174053E-004  0.9765967E+02  0.7546771E-02  0.1285853E+00
         -3   -1    0    0    0  501 -0.00000000000E+00  0.00000000000E+00  0.17458303524E+03  0.17458303524E+03  0.00000000000E+00 0.  1.
          3   -1    0    0  501    0  0.00000000000E+00 -0.00000000000E+00 -0.60867954002E+02  0.60867954002E+02  0.00000000000E+00 0. -1.
         23    2    1    2    0    0  0.53232506006E+01 -0.31629568718E+02  0.17751815788E+02  0.99259955236E+02  0.92242317487E+02 0.  0.
         23    2    1    2    0    0 -0.53232506006E+01  0.31629568718E+02  0.95963265453E+02  0.13619103401E+03  0.91160752596E+02 0.  0.
          5    1    4    4  502    0  0.42592919692E+02  0.12104877453E+02  0.48156270987E+02  0.65588118599E+02  0.47000000000E+01 0. -1.
         -5    1    3    3    0  503  0.43328116018E+02  0.17509967404E-01  0.23044720755E+02  0.49299848874E+02  0.47000000000E+01 0.  1.
          5    1    3    3  503    0 -0.38004865417E+02 -0.31647078686E+02 -0.52929049671E+01  0.49960106362E+02  0.47000000000E+01 0. -1.
         -5    1    4    4    0  502 -0.47916170292E+02  0.19524691265E+02  0.47806994466E+02  0.70602915410E+02  0.47000000000E+01 0.  1.
<mgrwt>
<rscale>  0 0.97403437E+02</rscale>
<asrwt>0</asrwt>
<pdfrwt beam="1">  1        3 0.93643007E-02 0.97659673E+02</pdfrwt>
<pdfrwt beam="2">  1       -3 0.26858928E-01 0.97659673E+02</pdfrwt>
<totfact> 0.23313847E+03</totfact>
</mgrwt>
</event>
<event>
 8    1  0.8174053E-004  0.1118882E+03  0.7546771E-02  0.1261369E+00
         -2   -1    0    0    0  501 -0.00000000000E+00  0.00000000000E+00  0.30945877281E+03  0.30945877281E+03  0.00000000000E+00 0.  1.
          2   -1    0    0  501    0  0.00000000000E+00 -0.00000000000E+00 -0.37344549488E+02  0.37344549488E+02  0.00000000000E+00 0. -1.
         23    2    1    2    0    0 -0.40504386117E+02  0.10135539397E+02  0.13396571988E+03  0.17454448057E+03  0.10380571826E+03 0.  0.
         23    2    1    2    0    0  0.40504386117E+02 -0.10135539397E+02  0.13814850345E+03  0.17225884172E+03  0.94046611287E+02 0.  0.
          5    1    4    4  502    0  0.49966144591E+02 -0.38431318211E+02  0.12339713504E+03  0.13864532001E+03  0.47000000000E+01 0. -1.
         -5    1    4    4    0  502 -0.94617584746E+01  0.28295778814E+02  0.14751368402E+02  0.33613521711E+02  0.47000000000E+01 0.  1.
          5    1    3    3  503    0 -0.25589234742E+02 -0.31824966555E+02  0.93903025459E+01  0.42165213302E+02  0.47000000000E+01 0. -1.
         -5    1    3    3    0  503 -0.14915151374E+02  0.41960505952E+02  0.12457541733E+03  0.13237926727E+03  0.47000000000E+01 0.  1.
<mgrwt>
<rscale>  0 0.10956967E+03</rscale>
<asrwt>0</asrwt>
<pdfrwt beam="1">  1        2 0.57453155E-02 0.11188817E+03</pdfrwt>
<pdfrwt beam="2">  1       -2 0.47609040E-01 0.11188817E+03</pdfrwt>
<totfact> 0.51722547E+03</totfact>
</mgrwt>
</event>
<event>
 8    1  0.8174053E-004  0.1000016E+03  0.7546771E-02  0.1281876E+00
         -1   -1    0    0    0  501 -0.00000000000E+00  0.00000000000E+00  0.27587796508E+03  0.27587796508E+03  0.00000000000E+00 0.  1.
          1   -1    0    0  501    0  0.00000000000E+00 -0.00000000000E+00 -0.61074427963E+02  0.61074427963E+02  0.00000000000E+00 0. -1.
         23    2    1    2    0    0  0.35040917782E+02 -0.30175139560E+01  0.21801955541E+03  0.23986004918E+03  0.93612741340E+02 0.  0.
         23    2    1    2    0    0 -0.35040917782E+02  0.30175139560E+01 -0.32160182952E+01  0.97092343862E+02  0.90441191685E+02 0.  0.
          5    1    4    4  502    0 -0.53474584644E+02  0.31545614179E+02  0.25793772990E+01  0.62316933204E+02  0.47000000000E+01 0. -1.
         -5    1    3    3    0  503 -0.73992668650E+00 -0.42420403159E+02  0.13065709941E+03  0.13745328560E+03  0.47000000000E+01 0.  1.
          5    1    3    3  503    0  0.35780844469E+02  0.39402889203E+02  0.87362455997E+02  0.10240676358E+03  0.47000000000E+01 0. -1.
         -5    1    4    4    0  502  0.18433666861E+02 -0.28528100223E+02 -0.57953955942E+01  0.34775410657E+02  0.47000000000E+01 0.  1.
<mgrwt>
<rscale>  0 0.99252581E+02</rscale>
<asrwt>0</asrwt>
<pdfrwt beam="1">  1        1 0.93960660E-02 0.10000158E+03</pdfrwt>
<pdfrwt beam="2">  1       -1 0.42442763E-01 0.10000158E+03</pdfrwt>
<totfact> 0.36489231E+03</totfact>
</mgrwt>
</event>
<event>
 8    1  0.8174053E-004  0.1508914E+03  0.7546771E-02  0.1208249E+00
         -2   -1    0    0    0  501 -0.00000000000E+00  0.00000000000E+00  0.24119932897E+03  0.24119932897E+03  0.00000000000E+00 0.  1.
          2   -1    0    0  501    0  0.00000000000E+00 -0.00000000000E+00 -0.81449514970E+02  0.81449514970E+02  0.00000000000E+00 0. -1.
         23    2    1    2    0    0  0.12957637835E+02  0.89616941775E+02  0.10217154992E+03  0.16114506059E+03  0.85613131641E+02 0.  0.
         23    2    1    2    0    0 -0.12957637835E+02 -0.89616941775E+02  0.57578264081E+02  0.16150378334E+03  0.12070260523E+03 0.  0.
          5    1    3    3  502    0 -0.26176318510E+02  0.14843957840E+02  0.26488934895E+01  0.30572035782E+02  0.47000000000E+01 0. -1.
         -5    1    4    4    0  503 -0.34871980543E+02  0.17509759620E+02  0.27600742820E+02  0.48026427238E+02  0.47000000000E+01 0.  1.
          5    1    4    4  503    0  0.21914342709E+02 -0.10712670140E+03  0.29977521260E+02  0.11347735611E+03  0.47000000000E+01 0. -1.
         -5    1    3    3    0  502  0.39133956345E+02  0.74772983935E+02  0.99522656426E+02  0.13057302481E+03  0.47000000000E+01 0.  1.
<mgrwt>
<rscale>  0 0.14384351E+03</rscale>
<asrwt>0</asrwt>
<pdfrwt beam="1">  1        2 0.12530695E-01 0.15089140E+03</pdfrwt>
<pdfrwt beam="2">  1       -2 0.37107589E-01 0.15089140E+03</pdfrwt>
<totfact> 0.32184615E+03</totfact>
</mgrwt>
</event>
<event>
 8    1  0.8174053E-004  0.1128628E+03  0.7546771E-02  0.1260677E+00
          1   -1    0    0  501    0  0.00000000000E+00  0.00000000000E+00  0.28397269226E+03  0.28397269226E+03  0.00000000000E+00 0. -1.
         -1   -1    0    0    0  501 -0.00000000000E+00 -0.00000000000E+00 -0.84263169291E+02  0.84263169291E+02  0.00000000000E+00 0.  1.
         23    2    1    2    0    0 -0.64171266302E+02 -0.57725808340E+01 -0.35257833089E+02  0.10756811538E+03  0.78590778994E+02 0.  0.
         23    2    1    2    0    0  0.64171266302E+02  0.57725808340E+01  0.23496735605E+03  0.26066774617E+03  0.92664671667E+02 0.  0.
          5    1    3    3  502    0 -0.11675797570E+02  0.29897489534E+02  0.41660029713E+01  0.32705193931E+02  0.47000000000E+01 0. -1.
         -5    1    3    3    0  502 -0.52495468732E+02 -0.35670070368E+02 -0.39423836060E+02  0.74862921444E+02  0.47000000000E+01 0.  1.
          5    1    4    4  503    0  0.52579328957E+01  0.31677003387E+02  0.15271024330E+03  0.15612042407E+03  0.47000000000E+01 0. -1.
         -5    1    4    4    0  503  0.58913333406E+02 -0.25904422553E+02  0.82257112754E+02  0.10454732211E+03  0.47000000000E+01 0.  1.
<mgrwt>
<rscale>  0 0.10994211E+03</rscale>
<asrwt>0</asrwt>
<pdfrwt beam="1">  1        1 0.43688106E-01 0.11286282E+03</pdfrwt>
<pdfrwt beam="2">  1       -1 0.12963565E-01 0.11286282E+03</pdfrwt>
<totfact> 0.36404046E+03</totfact>
</mgrwt>
</event>
<event>
 8    1  0.8174053E-004  0.1116477E+03  0.7546771E-02  0.1258991E+00
         -1   -1    0    0    0  501 -0.00000000000E+00  0.00000000000E+00  0.11201117865E+03  0.11201117865E+03  0.00000000000E+00 0.  1.
          1   -1    0    0  501    0  0.00000000000E+00 -0.00000000000E+00 -0.11698572297E+03  0.11698572297E+03  0.00000000000E+00 0. -1.
         23    2    1    2    0    0 -0.41320993686E+02 -0.44099221147E+02  0.28941536150E+02  0.11231138089E+03  0.90133611586E+02 0.  0.
         23    2    1    2    0    0  0.41320993686E+02  0.44099221147E+02 -0.33916080475E+02  0.11668552074E+03  0.93877816387E+02 0.  0.
          5    1    4    4  502    0  0.26353293054E+02  0.60106283275E+02 -0.55117922836E+02  0.85833191492E+02  0.47000000000E+01 0. -1.
         -5    1    4    4    0  502  0.14967700632E+02 -0.16007062129E+02  0.21201842361E+02  0.30852329243E+02  0.47000000000E+01 0.  1.
          5    1    3    3  503    0 -0.33589549238E+02  0.21390787801E+02 -0.10721401516E+00  0.40098941577E+02  0.47000000000E+01 0. -1.
         -5    1    3    3    0  503 -0.77314444480E+01 -0.65490008948E+02  0.29048750166E+02  0.72212439312E+02  0.47000000000E+01 0.  1.
<mgrwt>
<rscale>  0 0.11085701E+03</rscale>
<asrwt>0</asrwt>
<pdfrwt beam="1">  1        1 0.17997803E-01 0.11164771E+03</pdfrwt>
<pdfrwt beam="2">  1       -1 0.17232489E-01 0.11164771E+03</pdfrwt>
<totfact> 0.70326634E+03</totfact>
</mgrwt>
</event>
<event>
 8    1  0.8174053E-004  0.1037916E+03  0.7546771E-02  0.1274275E+00
          1   -1    0    0  501    0  0.00000000000E+00  0.00000000000E+00  0.50641483440E+02  0.50641483440E+02  0.00000000000E+00 0. -1.
         -1   -1    0    0    0  501 -0.00000000000E+00 -0.00000000000E+00 -0.22249384040E+03  0.22249384040E+03  0.00000000000E+00 0.  1.
         23    2    1    2    0    0 -0.19228744939E+02  0.29668874811E+02 -0.12207803385E+03  0.15802590142E+03  0.93910342381E+02 0.  0.
         23    2    1    2    0    0  0.19228744939E+02 -0.29668874811E+02 -0.49774323112E+02  0.11510942242E+03  0.97584369265E+02 0.  0.
          5    1    3    3  502    0 -0.33331771832E+02 -0.76540449641E+01 -0.58016901580E+01  0.35004871467E+02  0.47000000000E+01 0. -1.
         -5    1    3    3    0  502  0.14103026893E+02  0.37322919775E+02 -0.11627634369E+03  0.12302102995E+03  0.47000000000E+01 0.  1.
          5    1    4    4  503    0 -0.19309473027E+02 -0.48038957350E+02 -0.36973370204E+01  0.52118686408E+02  0.47000000000E+01 0. -1.
         -5    1    4    4    0  503  0.38538217965E+02  0.18370082539E+02 -0.46076986092E+02  0.62990736015E+02  0.47000000000E+01 0.  1.
<mgrwt>
<rscale>  0 0.10291903E+03</rscale>
<asrwt>0</asrwt>
<pdfrwt beam="1">  1        1 0.77909976E-02 0.10379160E+03</pdfrwt>
<pdfrwt beam="2">  1       -1 0.34229821E-01 0.10379160E+03</pdfrwt>
<totfact> 0.67985546E+03</totfact>
</mgrwt>
</event>
<event>
 8    1  0.8174053E-004  0.1086863E+03  0.7546771E-02  0.1265020E+00
          1   -1    0    0  501    0  0.00000000000E+00  0.00000000000E+00  0.34817098643E+03  0.34817098643E+03  0.00000000000E+00 0. -1.
         -1   -1    0    0    0  501 -0.00000000000E+00 -0.00000000000E+00 -0.33823303407E+02  0.33823303407E+02  0.00000000000E+00 0.  1.
         23    2    1    2    0    0  0.24509368771E+00 -0.50728597478E+02  0.19581870717E+03  0.22395909252E+03  0.96121061025E+02 0.  0.
         23    2    1    2    0    0 -0.24509368771E+00  0.50728597478E+02  0.11852897585E+03  0.15803519731E+03  0.91392312589E+02 0.  0.
          5    1    4    4  502    0 -0.15127147936E+02 -0.20112317872E+02  0.58578314455E+02  0.63928435452E+02  0.47000000000E+01 0. -1.
         -5    1    4    4    0  502  0.14882054248E+02  0.70840915349E+02  0.59950661394E+02  0.94106761860E+02  0.47000000000E+01 0.  1.
          5    1    3    3  503    0 -0.26146910097E+02 -0.50430449550E+02  0.50389317500E+02  0.76079330094E+02  0.47000000000E+01 0. -1.
         -5    1    3    3    0  503  0.26392003785E+02 -0.29814792789E+00  0.14542938967E+03  0.14787976243E+03  0.47000000000E+01 0.  1.
<mgrwt>
<rscale>  0 0.10763134E+03</rscale>
<asrwt>0</asrwt>
<pdfrwt beam="1">  1        1 0.53564765E-01 0.10868629E+03</pdfrwt>
<pdfrwt beam="2">  1       -1 0.52035854E-02 0.10868629E+03</pdfrwt>
<totfact> 0.11150319E+04</totfact>
</mgrwt>
</event>
<event>
 8    1  0.8174053E-004  0.9699147E+02  0.7546771E-02  0.1286931E+00
          1   -1    0    0  501    0  0.00000000000E+00  0.00000000000E+00  0.52740505159E+03  0.52740505159E+03  0.00000000000E+00 0. -1.
         -1   -1    0    0    0  501 -0.00000000000E+00 -0.00000000000E+00 -0.17953802167E+02  0.17953802167E+02  0.00000000000E+00 0.  1.
         23    2    1    2    0    0  0.15621001972E+02  0.28859903963E+02  0.28133080247E+03  0.29747524566E+03  0.90926297629E+02 0.  0.
         23    2    1    2    0    0 -0.15621001972E+02 -0.28859903963E+02  0.22812044695E+03  0.24788360810E+03  0.91271217191E+02 0.  0.
          5    1    3    3  502    0  0.33932458333E+02  0.18701428703E+02  0.27074768971E+03  0.27354626053E+03  0.47000000000E+01 0. -1.
         -5    1    4    4    0  503  0.37468197864E+02 -0.33859529680E+01  0.90564801329E+02  0.98180465309E+02  0.47000000000E+01 0.  1.
          5    1    4    4  503    0 -0.53089199835E+02 -0.25473950995E+02  0.13755564562E+03  0.14970314279E+03  0.47000000000E+01 0. -1.
         -5    1    3    3    0  502 -0.18311456361E+02  0.10158475260E+02  0.10583112759E+02  0.23928985130E+02  0.47000000000E+01 0.  1.
<mgrwt>
<rscale>  0 0.96910239E+02</rscale>
<asrwt>0</asrwt>
<pdfrwt beam="1">  1        1 0.81139227E-01 0.96991468E+02</pdfrwt>
<pdfrwt beam="2">  1       -1 0.27621238E-02 0.96991468E+02</pdfrwt>
<totfact> 0.16426786E+04</totfact>
</mgrwt>
</event>
<event>
 8    1  0.8174053E-004  0.1090245E+03  0.7546771E-02  0.1262618E+00
         -1   -1    0    0    0  501 -0.00000000000E+00  0.00000000000E+00  0.36356325223E+02  0.36356325223E+02  0.00000000000E+00 0.  1.
          1   -1    0    0  501    0  0.00000000000E+00 -0.00000000000E+00 -0.50644247101E+03  0.50644247101E+03  0.00000000000E+00 0. -1.
         23    2    1    2    0    0  0.29062221334E+02 -0.52478858974E+02 -0.39762216697E+03  0.41229810576E+03  0.91036789266E+02 0.  0.
         23    2    1    2    0    0 -0.29062221334E+02  0.52478858974E+02 -0.72463978813E+02  0.13050069047E+03  0.90447546343E+02 0.  0.
          5    1    4    4  502    0 -0.27535231620E+02 -0.17747323378E+02 -0.59032184260E+01  0.33616877535E+02  0.47000000000E+01 0. -1.
         -5    1    3    3    0  503  0.34553636752E+02 -0.16245175122E+02 -0.51878318261E+02  0.64585675139E+02  0.47000000000E+01 0.  1.
          5    1    3    3  503    0 -0.54914154184E+01 -0.36233683852E+02 -0.34574384871E+03  0.34771243062E+03  0.47000000000E+01 0. -1.
         -5    1    4    4    0  502 -0.15269897141E+01  0.70226182352E+02 -0.66560760387E+02  0.96883812934E+02  0.47000000000E+01 0.  1.
<mgrwt>
<rscale>  0 0.10890140E+03</rscale>
<asrwt>0</asrwt>
<pdfrwt beam="1">  1        1 0.77914224E-01 0.10902449E+03</pdfrwt>
<pdfrwt beam="2">  1       -1 0.55932810E-02 0.10902449E+03</pdfrwt>
<totfact> 0.62502448E+03</totfact>
</mgrwt>
</event>
<event>
 8    1  0.8174053E-004  0.9553693E+02  0.7546771E-02  0.1293194E+00
          2   -1    0    0  501    0  0.00000000000E+00  0.00000000000E+00  0.13641565314E+03  0.13641565314E+03  0.00000000000E+00 0. -1.
         -2   -1    0    0    0  501 -0.00000000000E+00 -0.00000000000E+00 -0.74817827691E+02  0.74817827691E+02  0.00000000000E+00 0.  1.
         23    2    1    2    0    0 -0.21344143363E+02 -0.73393229616E+01 -0.11843696974E+02  0.90730527076E+02  0.87076502387E+02 0.  0.
         23    2    1    2    0    0  0.21344143363E+02  0.73393229616E+01  0.73441522419E+02  0.12050295375E+03  0.92832464851E+02 0.  0.
          5    1    4    4  502    0 -0.27142774412E+02 -0.86961636597E+01  0.61351126232E+02  0.67811534086E+02  0.47000000000E+01 0. -1.
         -5    1    3    3    0  503 -0.51396549013E+02  0.10904587352E+02 -0.15737817564E+02  0.55048017017E+02  0.47000000000E+01 0.  1.
          5    1    3    3  503    0  0.30052405651E+02 -0.18243910314E+02  0.38941205906E+01  0.35682510059E+02  0.47000000000E+01 0. -1.
         -5    1    4    4    0  502  0.48486917775E+02  0.16035486621E+02  0.12090396187E+02  0.52691419666E+02  0.47000000000E+01 0.  1.
<mgrwt>
<rscale>  0 0.94109572E+02</rscale>
<asrwt>0</asrwt>
<pdfrwt beam="1">  1        2 0.20987024E-01 0.95536928E+02</pdfrwt>
<pdfrwt beam="2">  1       -2 0.11510435E-01 0.95536928E+02</pdfrwt>
<totfact> 0.12593828E+04</totfact>
</mgrwt>
</event>
<event>
 8    1  0.8174053E-004  0.1247701E+03  0.7546771E-02  0.1236314E+00
         -2   -1    0    0    0  501 -0.00000000000E+00  0.00000000000E+00  0.27866319622E+03  0.27866319622E+03  0.00000000000E+00 0.  1.
          2   -1    0    0  501    0  0.00000000000E+00 -0.00000000000E+00 -0.55021917142E+02  0.55021917142E+02  0.00000000000E+00 0. -1.
         23    2    1    2    0    0 -0.27697098438E+02  0.80837922232E+02  0.12166474855E+03  0.17426960938E+03  0.90915822499E+02 0.  0.
         23    2    1    2    0    0  0.27697098438E+02 -0.80837922232E+02  0.10197653053E+03  0.15941550399E+03  0.87819082205E+02 0.  0.
          5    1    3    3  502    0 -0.55223059363E+02  0.56615246819E+02  0.50149435510E+02  0.93765283233E+02  0.47000000000E+01 0. -1.
         -5    1    4    4    0  503  0.23250038341E+02  0.70769489130E+01  0.53179172256E+02  0.58658007557E+02  0.47000000000E+01 0.  1.
          5    1    4    4  503    0  0.44470600976E+01 -0.87914871145E+02  0.48797358274E+02  0.10075749643E+03  0.47000000000E+01 0. -1.
         -5    1    3    3    0  502  0.27525960924E+02  0.24222675413E+02  0.71515313041E+02  0.80504326147E+02  0.47000000000E+01 0.  1.
<mgrwt>
<rscale>  0 0.12420679E+03</rscale>
<asrwt>0</asrwt>
<pdfrwt beam="1">  1        2 0.84649105E-02 0.12477013E+03</pdfrwt>
<pdfrwt beam="2">  1       -2 0.42871260E-01 0.12477013E+03</pdfrwt>
<totfact> 0.39100819E+03</totfact>
</mgrwt>
</event>
<event>
 8    1  0.8174053E-004  0.1061802E+03  0.7546771E-02  0.1267871E+00
          1   -1    0    0  501    0  0.00000000000E+00  0.00000000000E+00  0.17629429465E+03  0.17629429465E+03  0.00000000000E+00 0. -1.
         -1   -1    0    0    0  501 -0.00000000000E+00 -0.00000000000E+00 -0.84720131835E+02  0.84720131835E+02  0.00000000000E+00 0.  1.
         23    2    1    2    0    0  0.22600226059E+02  0.48780351596E+02 -0.18964992006E+02  0.10773973817E+03  0.91421481828E+02 0.  0.
         23    2    1    2    0    0 -0.22600226059E+02 -0.48780351596E+02  0.11053915482E+03  0.15327468832E+03  0.91563816051E+02 0.  0.
          5    1    3    3  502    0 -0.13233872569E+02  0.64451797467E+02 -0.58567792390E+01  0.66223571656E+02  0.47000000000E+01 0.  1.
         -5    1    4    4    0  503  0.15259558586E+02  0.17809837153E+02  0.80519450929E+01  0.25238229879E+02  0.47000000000E+01 0.  1.
          5    1    4    4  503    0 -0.37859784645E+02 -0.66590188749E+02  0.10248720973E+03  0.12803645844E+03  0.47000000000E+01 0. -1.
         -5    1    3    3    0  502  0.35834098628E+02 -0.15671445871E+02 -0.13108212767E+02  0.41516166515E+02  0.47000000000E+01 0. -1.
<mgrwt>
<rscale>  0 0.10614946E+03</rscale>
<asrwt>0</asrwt>
<pdfrwt beam="1">  1        1 0.27122199E-01 0.10618016E+03</pdfrwt>
<pdfrwt beam="2">  1       -1 0.13033866E-01 0.10618016E+03</pdfrwt>
<totfact> 0.64684306E+03</totfact>
</mgrwt>
</event>
<event>
 8    1  0.8174053E-004  0.2027046E+03  0.7546771E-02  0.1147914E+00
          1   -1    0    0  501    0  0.00000000000E+00  0.00000000000E+00  0.90464763147E+03  0.90464763147E+03  0.00000000000E+00 0. -1.
         -1   -1    0    0    0  501 -0.00000000000E+00 -0.00000000000E+00 -0.69156614419E+02  0.69156614419E+02  0.00000000000E+00 0.  1.
         23    2    1    2    0    0  0.32862498603E+01 -0.18197478386E+03  0.12828362675E+03  0.23811989752E+03  0.84372835102E+02 0.  0.
         23    2    1    2    0    0 -0.32862498603E+01  0.18197478386E+03  0.70720739030E+03  0.73568434837E+03  0.89238703202E+02 0.  0.
          5    1    4    4  502    0  0.17975789754E+02  0.16089542999E+03  0.66002479954E+03  0.67960672040E+03  0.47000000000E+01 0. -1.
         -5    1    4    4    0  502 -0.21262039614E+02  0.21079353869E+02  0.47182590761E+02  0.56077627972E+02  0.47000000000E+01 0.  1.
          5    1    3    3  503    0 -0.13986105473E+02 -0.14962381461E+03  0.13314355689E+03  0.20082876732E+03  0.47000000000E+01 0. -1.
         -5    1    3    3    0  503  0.17272355333E+02 -0.32350969250E+02 -0.48599301365E+01  0.37291130194E+02  0.47000000000E+01 0.  1.
<mgrwt>
<rscale>  0 0.20217895E+03</rscale>
<asrwt>0</asrwt>
<pdfrwt beam="1">  1        1 0.13917655E+00 0.20270463E+03</pdfrwt>
<pdfrwt beam="2">  1       -1 0.10639480E-01 0.20270463E+03</pdfrwt>
<totfact> 0.10507912E+03</totfact>
</mgrwt>
</event>
<event>
 8    1  0.8174053E-004  0.1015099E+03  0.7546771E-02  0.1277180E+00
         -2   -1    0    0    0  501 -0.00000000000E+00  0.00000000000E+00  0.14719078704E+02  0.14719078704E+02  0.00000000000E+00 0.  1.
          2   -1    0    0  501    0  0.00000000000E+00 -0.00000000000E+00 -0.81735633160E+03  0.81735633160E+03  0.00000000000E+00 0. -1.
         23    2    1    2    0    0  0.85535886566E+01 -0.43378042627E+02 -0.55907746573E+03  0.56820872866E+03  0.91316636901E+02 0.  0.
         23    2    1    2    0    0 -0.85535886566E+01  0.43378042627E+02 -0.24355978716E+03  0.26386668164E+03  0.91375255390E+02 0.  0.
          5    1    4    4  502    0 -0.28315846409E+02 -0.19897818706E+02 -0.77711860974E+02  0.85199376073E+02  0.47000000000E+01 0. -1.
         -5    1    3    3    0  503  0.42509722426E+02 -0.45352809550E+02 -0.27020417116E+03  0.27730188955E+03  0.47000000000E+01 0.  1.
          5    1    3    3  503    0 -0.33956133769E+02  0.19747669236E+01 -0.28887329457E+03  0.29090683911E+03  0.47000000000E+01 0. -1.
         -5    1    4    4    0  502  0.19762257752E+02  0.63275861332E+02 -0.16584792619E+03  0.17866730557E+03  0.47000000000E+01 0.  1.
<mgrwt>
<rscale>  0 0.10149669E+03</rscale>
<asrwt>0</asrwt>
<pdfrwt beam="1">  1        2 0.12574712E+00 0.10150988E+03</pdfrwt>
<pdfrwt beam="2">  1       -2 0.22644738E-02 0.10150988E+03</pdfrwt>
<totfact> 0.20557367E+04</totfact>
</mgrwt>
</event>
<event>
 8    1  0.8174053E-004  0.9588199E+02  0.7546771E-02  0.1290654E+00
         -2   -1    0    0    0  501 -0.00000000000E+00  0.00000000000E+00  0.14294555657E+03  0.14294555657E+03  0.00000000000E+00 0.  1.
          2   -1    0    0  501    0  0.00000000000E+00 -0.00000000000E+00 -0.48415231455E+03  0.48415231455E+03  0.00000000000E+00 0. -1.
         23    2    1    2    0    0  0.24328839107E+02  0.16436454158E+02  0.12227016214E+03  0.15380703896E+03  0.88569539048E+02 0.  0.
         23    2    1    2    0    0 -0.24328839107E+02 -0.16436454158E+02 -0.46347692012E+03  0.47329083215E+03  0.91275992902E+02 0.  0.
          5    1    4    4  502    0  0.17851369128E+02 -0.36708297188E+02 -0.31161067552E+03  0.31430792793E+03  0.47000000000E+01 0. -1.
         -5    1    4    4    0  502 -0.42180208235E+02  0.20271843030E+02 -0.15186624460E+03  0.15898290423E+03  0.47000000000E+01 0.  1.
          5    1    3    3  503    0 -0.13498285051E+02 -0.19482269518E+02  0.40441100528E+01  0.24499129597E+02  0.47000000000E+01 0. -1.
         -5    1    3    3    0  503  0.37827124158E+02  0.35918723676E+02  0.11822605209E+03  0.12930790937E+03  0.47000000000E+01 0.  1.
<mgrwt>
<rscale>  0 0.95232226E+02</rscale>
<asrwt>0</asrwt>
<pdfrwt beam="1">  1        2 0.74484973E-01 0.95881992E+02</pdfrwt>
<pdfrwt beam="2">  1       -2 0.21991624E-01 0.95881992E+02</pdfrwt>
<totfact> 0.11343581E+03</totfact>
</mgrwt>
</event>
<event>
 8    1  0.8174053E-004  0.1228720E+03  0.7546771E-02  0.1238726E+00
          1   -1    0    0  501    0  0.00000000000E+00  0.00000000000E+00  0.10736462143E+03  0.10736462143E+03  0.00000000000E+00 0. -1.
         -1   -1    0    0    0  501 -0.00000000000E+00 -0.00000000000E+00 -0.16115828972E+03  0.16115828972E+03  0.00000000000E+00 0.  1.
         23    2    1    2    0    0 -0.70042909213E+02 -0.44044648630E+02 -0.75861779175E+02  0.14440403891E+03  0.90838189707E+02 0.  0.
         23    2    1    2    0    0  0.70042909213E+02  0.44044648630E+02  0.22068110889E+02  0.12411887224E+03  0.89847385739E+02 0.  0.
          5    1    3    3  502    0 -0.70233712176E+02 -0.22722311786E+02 -0.95395925013E+01  0.74579967847E+02  0.47000000000E+01 0. -1.
         -5    1    3    3    0  502  0.19080296316E+00 -0.21322336844E+02 -0.66322186674E+02  0.69824071060E+02  0.47000000000E+01 0.  1.
          5    1    4    4  503    0  0.46307656962E+02  0.68158502259E+02  0.32034934296E+02  0.88534216768E+02  0.47000000000E+01 0. -1.
         -5    1    4    4    0  503  0.23735252252E+02 -0.24113853629E+02 -0.99668234068E+01  0.35584655472E+02  0.47000000000E+01 0.  1.
<mgrwt>
<rscale>  0 0.12268888E+03</rscale>
<asrwt>0</asrwt>
<pdfrwt beam="1">  1        1 0.16517634E-01 0.12287195E+03</pdfrwt>
<pdfrwt beam="2">  1       -1 0.24793583E-01 0.12287195E+03</pdfrwt>
<totfact> 0.44057255E+03</totfact>
</mgrwt>
</event>
<event>
 8    1  0.8174053E-004  0.1053043E+03  0.7546771E-02  0.1270555E+00
         -2   -1    0    0    0  501 -0.00000000000E+00  0.00000000000E+00  0.23652423931E+03  0.23652423931E+03  0.00000000000E+00 0.  1.
          2   -1    0    0  501    0  0.00000000000E+00 -0.00000000000E+00 -0.64666387013E+02  0.64666387013E+02  0.00000000000E+00 0. -1.
         23    2    1    2    0    0 -0.21441263362E+02  0.35555656561E+02  0.55457610910E+01  0.10545021786E+03  0.96773242649E+02 0.  0.
         23    2    1    2    0    0  0.21441263362E+02 -0.35555656561E+02  0.16631209121E+03  0.19574040846E+03  0.94502186936E+02 0.  0.
          5    1    4    4  502    0 -0.34540837682E+02 -0.19700840639E+02  0.40026295414E+02  0.56616136518E+02  0.47000000000E+01 0. -1.
         -5    1    3    3    0  503  0.83297189667E+01  0.53202336230E+02  0.30925939549E+02  0.62276613069E+02  0.47000000000E+01 0.  1.
          5    1    3    3  503    0 -0.29770982328E+02 -0.17646679669E+02 -0.25380178458E+02  0.43173604791E+02  0.47000000000E+01 0. -1.
         -5    1    4    4    0  502  0.55982101044E+02 -0.15854815922E+02  0.12628579579E+03  0.13912427195E+03  0.47000000000E+01 0.  1.
<mgrwt>
<rscale>  0 0.10477958E+03</rscale>
<asrwt>0</asrwt>
<pdfrwt beam="1">  1        2 0.99486751E-02 0.10530429E+03</pdfrwt>
<pdfrwt beam="2">  1       -2 0.36388344E-01 0.10530429E+03</pdfrwt>
<totfact> 0.43100822E+03</totfact>
</mgrwt>
</event>
<event>
 8    1  0.8174053E-004  0.9611116E+02  0.7546771E-02  0.1288984E+00
          4   -1    0    0  501    0  0.00000000000E+00  0.00000000000E+00  0.13824120176E+02  0.13824120176E+02  0.00000000000E+00 0. -1.
         -4   -1    0    0    0  501 -0.00000000000E+00 -0.00000000000E+00 -0.66931507785E+03  0.66931507785E+03  0.00000000000E+00 0.  1.
         23    2    1    2    0    0  0.31761593885E+02  0.98755734375E+01 -0.35740904127E+03  0.37010617104E+03  0.90172220012E+02 0.  0.
         23    2    1    2    0    0 -0.31761593885E+02 -0.98755734375E+01 -0.29808191640E+03  0.31303302698E+03  0.89613175939E+02 0.  0.
          5    1    4    4  502    0  0.11166614741E+02  0.17873774209E+02 -0.17499222016E+02  0.27793485935E+02  0.47000000000E+01 0. -1.
         -5    1    3    3    0  503  0.54025954633E+02 -0.12253257823E+02 -0.29383883792E+03  0.29905233450E+03  0.47000000000E+01 0.  1.
          5    1    3    3  503    0 -0.22264360748E+02  0.22128831261E+02 -0.63570203356E+02  0.71053836541E+02  0.47000000000E+01 0. -1.
         -5    1    4    4    0  502 -0.42928208626E+02 -0.27749347647E+02 -0.28058269438E+03  0.28523954105E+03  0.47000000000E+01 0.  1.
<mgrwt>
<rscale>  0 0.95979815E+02</rscale>
<asrwt>0</asrwt>
<pdfrwt beam="1">  1        4 0.21267883E-02 0.96111160E+02</pdfrwt>
<pdfrwt beam="2">  1       -4 0.10297152E+00 0.96111160E+02</pdfrwt>
<totfact> 0.11290650E+03</totfact>
</mgrwt>
</event>
<event>
 8    1  0.8174053E-004  0.9820669E+02  0.7546771E-02  0.1286043E+00
         -1   -1    0    0    0  501 -0.00000000000E+00  0.00000000000E+00  0.38844097687E+02  0.38844097687E+02  0.00000000000E+00 0.  1.
          1   -1    0    0  501    0  0.00000000000E+00 -0.00000000000E+00 -0.25423872765E+03  0.25423872765E+03  0.00000000000E+00 0. -1.
         23    2    1    2    0    0 -0.26225325503E+02 -0.71345359888E+01 -0.70553180309E+02  0.11808682900E+03  0.90708757189E+02 0.  0.
         23    2    1    2    0    0  0.26225325503E+02  0.71345359888E+01 -0.14484144966E+03  0.17499599634E+03  0.94370990744E+02 0.  0.
          5    1    4    4  502    0  0.29153030821E+02  0.43949169421E+02 -0.11727018578E+03  0.12866940263E+03  0.47000000000E+01 0. -1.
         -5    1    4    4    0  502 -0.29277053177E+01 -0.36814633432E+02 -0.27571263874E+02  0.46326593710E+02  0.47000000000E+01 0.  1.
          5    1    3    3  503    0  0.22176350627E+02  0.26812517527E+02 -0.21936732715E+02  0.41400626390E+02  0.47000000000E+01 0. -1.
         -5    1    3    3    0  503 -0.48401676131E+02 -0.33947053515E+02 -0.48616447594E+02  0.76686202614E+02  0.47000000000E+01 0.  1.
<mgrwt>
<rscale>  0 0.97316205E+02</rscale>
<asrwt>0</asrwt>
<pdfrwt beam="1">  1        1 0.39113651E-01 0.98206686E+02</pdfrwt>
<pdfrwt beam="2">  1       -1 0.59760149E-02 0.98206686E+02</pdfrwt>
<totfact> 0.13254079E+04</totfact>
</mgrwt>
</event>
<event>
 8    1  0.8174053E-004  0.1258231E+03  0.7546771E-02  0.1233971E+00
         -1   -1    0    0    0  501 -0.00000000000E+00  0.00000000000E+00  0.22179742481E+02  0.22179742481E+02  0.00000000000E+00 0.  1.
          1   -1    0    0  501    0  0.00000000000E+00 -0.00000000000E+00 -0.76058377644E+03  0.76058377644E+03  0.00000000000E+00 0. -1.
         23    2    1    2    0    0  0.23597197937E+02  0.82132544926E+02 -0.27002896932E+03  0.29790449082E+03  0.92351820210E+02 0.  0.
         23    2    1    2    0    0 -0.23597197937E+02 -0.82132544926E+02 -0.46837506464E+03  0.48485902810E+03  0.91708741471E+02 0.  0.
          5    1    4    4  502    0 -0.19904293098E+02 -0.10204962482E+03 -0.37337502525E+03  0.38760973451E+03  0.47000000000E+01 0. -1.
         -5    1    4    4    0  502 -0.36929048393E+01  0.19917079896E+02 -0.95000039397E+02  0.97249293587E+02  0.47000000000E+01 0.  1.
          5    1    3    3  503    0  0.25370594871E+02  0.21728897073E+02 -0.20966491905E+03  0.21236120251E+03  0.47000000000E+01 0. -1.
         -5    1    3    3    0  503 -0.17733969338E+01  0.60403647853E+02 -0.60364050269E+02  0.85543288314E+02  0.47000000000E+01 0.  1.
<mgrwt>
<rscale>  0 0.12570508E+03</rscale>
<asrwt>0</asrwt>
<pdfrwt beam="1">  1        1 0.11701286E+00 0.12582306E+03</pdfrwt>
<pdfrwt beam="2">  1       -1 0.34122688E-02 0.12582306E+03</pdfrwt>
<totfact> 0.74495213E+03</totfact>
</mgrwt>
</event>
<event>
 8    1  0.8174053E-004  0.9572297E+02  0.7546771E-02  0.1289864E+00
          1   -1    0    0  501    0  0.00000000000E+00  0.00000000000E+00  0.16858913923E+03  0.16858913923E+03  0.00000000000E+00 0. -1.
         -1   -1    0    0    0  501 -0.00000000000E+00 -0.00000000000E+00 -0.56486932761E+02  0.56486932761E+02  0.00000000000E+00 0.  1.
         23    2    1    2    0    0 -0.82642910841E+01  0.25710470918E+01  0.32774236407E+02  0.10117825018E+03  0.95330891879E+02 0.  0.
         23    2    1    2    0    0  0.82642910841E+01 -0.25710470918E+01  0.79327970058E+02  0.12389782181E+03  0.94777817160E+02 0.  0.
          5    1    4    4  502    0 -0.23769065916E+02  0.18386113279E+02  0.79723659052E+02  0.85328597015E+02  0.47000000000E+01 0. -1.
         -5    1    4    4    0  502  0.32033357000E+02 -0.20957160371E+02 -0.39568899376E+00  0.38569224795E+02  0.47000000000E+01 0.  1.
          5    1    3    3  503    0  0.29385965065E+01  0.43827286180E+02  0.37453676486E+02  0.57916614591E+02  0.47000000000E+01 0. -1.
         -5    1    3    3    0  503 -0.11202887591E+02 -0.41256239088E+02 -0.46794400797E+01  0.43261635585E+02  0.47000000000E+01 0.  1.
<mgrwt>
<rscale>  0 0.95584977E+02</rscale>
<asrwt>0</asrwt>
<pdfrwt beam="1">  1        1 0.25936791E-01 0.95722974E+02</pdfrwt>
<pdfrwt beam="2">  1       -1 0.86902974E-02 0.95722974E+02</pdfrwt>
<totfact> 0.12549288E+04</totfact>
</mgrwt>
</event>
<event>
 8    1  0.8174053E-004  0.1249542E+03  0.7546771E-02  0.1237920E+00
          3   -1    0    0  501    0  0.00000000000E+00  0.00000000000E+00  0.17675963059E+03  0.17675963059E+03  0.00000000000E+00 0. -1.
         -3   -1    0    0    0  501 -0.00000000000E+00 -0.00000000000E+00 -0.85210892509E+02  0.85210892509E+02  0.00000000000E+00 0.  1.
         23    2    1    2    0    0 -0.15253581588E+02  0.74697228448E+02  0.28631408449E+02  0.12819247946E+03  0.99001043185E+02 0.  0.
         23    2    1    2    0    0  0.15253581588E+02 -0.74697228448E+02  0.62917329634E+02  0.13377804364E+03  0.90142259247E+02 0.  0.
          5    1    4    4  502    0 -0.37296501205E+02 -0.33238997476E+02  0.34577657417E+02  0.60939021553E+02  0.47000000000E+01 0. -1.
         -5    1    3    3    0  503  0.22087543753E+02  0.36750098687E+02 -0.27128145480E+02  0.50955427775E+02  0.47000000000E+01 0.  1.
          5    1    3    3  503    0 -0.37341125342E+02  0.37947129761E+02  0.55759553930E+02  0.77237051687E+02  0.47000000000E+01 0. -1.
         -5    1    4    4    0  502  0.52550082794E+02 -0.41458230972E+02  0.28339672217E+02  0.72839022085E+02  0.47000000000E+01 0.  1.
<mgrwt>
<rscale>  0 0.12319359E+03</rscale>
<asrwt>0</asrwt>
<pdfrwt beam="1">  1        3 0.27193789E-01 0.12495421E+03</pdfrwt>
<pdfrwt beam="2">  1       -3 0.13109368E-01 0.12495421E+03</pdfrwt>
<totfact> 0.13658630E+03</totfact>
</mgrwt>
</event>
<event>
 8    1  0.8174053E-004  0.1171269E+03  0.7546771E-02  0.1248191E+00
          4   -1    0    0  501    0  0.00000000000E+00  0.00000000000E+00  0.51802984999E+03  0.51802984999E+03  0.00000000000E+00 0. -1.
         -4   -1    0    0    0  501 -0.00000000000E+00 -0.00000000000E+00 -0.31389592923E+02  0.31389592923E+02  0.00000000000E+00 0.  1.
         23    2    1    2    0    0  0.90263792969E+01  0.72402147472E+02  0.35411531331E+03  0.37298307152E+03  0.91625160479E+02 0.  0.
         23    2    1    2    0    0 -0.90263792969E+01 -0.72402147472E+02  0.13252494375E+03  0.17643637139E+03  0.90793094192E+02 0.  0.
          5    1    3    3  502    0 -0.28827721488E+02  0.56068937194E+02  0.28851907259E+03  0.29536436564E+03  0.47000000000E+01 0. -1.
         -5    1    3    3    0  502  0.37854100785E+02  0.16333210278E+02  0.65596240726E+02  0.77618705875E+02  0.47000000000E+01 0.  1.
          5    1    4    4  503    0 -0.37399619786E+02 -0.18505328060E+02  0.97165962077E+02  0.10585127733E+03  0.47000000000E+01 0. -1.
         -5    1    4    4    0  503  0.28373240489E+02 -0.53896819412E+02  0.35358981673E+02  0.70585094061E+02  0.47000000000E+01 0.  1.
<mgrwt>
<rscale>  0 0.11696415E+03</rscale>
<asrwt>0</asrwt>
<pdfrwt beam="1">  1        4 0.79696894E-01 0.11712692E+03</pdfrwt>
<pdfrwt beam="2">  1       -4 0.48291685E-02 0.11712692E+03</pdfrwt>
<totfact> 0.58292255E+02</totfact>
</mgrwt>
</event>
<event>
 8    1  0.8174053E-004  0.1201555E+03  0.7546771E-02  0.1243050E+00
         -3   -1    0    0    0  501 -0.00000000000E+00  0.00000000000E+00  0.17229186823E+02  0.17229186823E+02  0.00000000000E+00 0.  1.
          3   -1    0    0  501    0  0.00000000000E+00 -0.00000000000E+00 -0.11958769628E+04  0.11958769628E+04  0.00000000000E+00 0. -1.
         23    2    1    2    0    0 -0.24420638472E+02 -0.71723848310E+02 -0.25499095116E+03  0.28166679419E+03  0.92601942625E+02 0.  0.
         23    2    1    2    0    0  0.24420638472E+02  0.71723848310E+02 -0.92365682480E+03  0.93143935541E+03  0.93255910339E+02 0.  0.
          5    1    4    4  502    0  0.35599958810E+01  0.91099830977E+02 -0.69697194783E+03  0.70292520145E+03  0.47000000000E+01 0. -1.
         -5    1    3    3    0  503 -0.54813536027E+02 -0.47551943458E+02 -0.11291277680E+03  0.13430225695E+03  0.47000000000E+01 0.  1.
          5    1    3    3  503    0  0.30392897555E+02 -0.24171904852E+02 -0.14207817436E+03  0.14736453724E+03  0.47000000000E+01 0. -1.
         -5    1    4    4    0  502  0.20860642591E+02 -0.19375982667E+02 -0.22668487697E+03  0.22851415396E+03  0.47000000000E+01 0.  1.
<mgrwt>
<rscale>  0 0.12002858E+03</rscale>
<asrwt>0</asrwt>
<pdfrwt beam="1">  1        3 0.18398106E+00 0.12015549E+03</pdfrwt>
<pdfrwt beam="2">  1       -3 0.26506443E-02 0.12015549E+03</pdfrwt>
<totfact> 0.28802918E+02</totfact>
</mgrwt>
</event>
<event>
 8    1  0.8174053E-004  0.1433616E+03  0.7546771E-02  0.1209175E+00
         -1   -1    0    0    0  501 -0.00000000000E+00  0.00000000000E+00  0.76047601412E+02  0.76047601412E+02  0.00000000000E+00 0.  1.
          1   -1    0    0  501    0  0.00000000000E+00 -0.00000000000E+00 -0.30565692912E+03  0.30565692912E+03  0.00000000000E+00 0. -1.
         23    2    1    2    0    0 -0.10282873761E+03 -0.40961962765E+02 -0.47974419349E+02  0.15030921063E+03  0.89664275020E+02 0.  0.
         23    2    1    2    0    0  0.10282873761E+03  0.40961962765E+02 -0.18163490836E+03  0.23139531990E+03  0.91109398339E+02 0.  0.
          5    1    3    3  502    0 -0.48716960964E+02 -0.61502632456E+02 -0.48269837083E+02  0.92238729700E+02  0.47000000000E+01 0. -1.
         -5    1    4    4    0  503  0.26266515859E+02 -0.29078045420E+02 -0.51891944982E+02  0.65194528412E+02  0.47000000000E+01 0.  1.
          5    1    4    4  503    0  0.76562221755E+02  0.70040008184E+02 -0.12974296338E+03  0.16620079149E+03  0.47000000000E+01 0. -1.
         -5    1    3    3    0  502 -0.54111776650E+02  0.20540669692E+02  0.29541773397E+00  0.58070480928E+02  0.47000000000E+01 0.  1.
<mgrwt>
<rscale>  0 0.14313256E+03</rscale>
<asrwt>0</asrwt>
<pdfrwt beam="1">  1        1 0.47024142E-01 0.14336162E+03</pdfrwt>
<pdfrwt beam="2">  1       -1 0.11699631E-01 0.14336162E+03</pdfrwt>
<totfact> 0.39427714E+03</totfact>
</mgrwt>
</event>
<event>
 8    1  0.8174053E-004  0.2029651E+03  0.7546771E-02  0.1147556E+00
         -1   -1    0    0    0  501 -0.00000000000E+00  0.00000000000E+00  0.18411846904E+03  0.18411846904E+03  0.00000000000E+00 0.  1.
          1   -1    0    0  501    0  0.00000000000E+00 -0.00000000000E+00 -0.37041593034E+03  0.37041593034E+03  0.00000000000E+00 0. -1.
         23    2    1    2    0    0 -0.13616238127E+03  0.11946633358E+03  0.82447712675E+02  0.21775733419E+03  0.88364202795E+02 0.  0.
         23    2    1    2    0    0  0.13616238127E+03 -0.11946633358E+03 -0.26874517397E+03  0.33677706519E+03  0.91555579686E+02 0.  0.
          5    1    3    3  502    0 -0.50243326186E+02  0.61682592756E+01  0.51087129050E+02  0.72072352558E+02  0.47000000000E+01 0. -1.
         -5    1    3    3    0  502 -0.85919055085E+02  0.11329807430E+03  0.31360583625E+02  0.14568498163E+03  0.47000000000E+01 0.  1.
          5    1    4    4  503    0  0.13780834252E+03 -0.77553109634E+02 -0.23205750793E+03  0.28085298835E+03  0.47000000000E+01 0. -1.
         -5    1    4    4    0  503 -0.16459612525E+01 -0.41913223943E+02 -0.36687666047E+02  0.55924076834E+02  0.47000000000E+01 0.  1.
<mgrwt>
<rscale>  0 0.20260928E+03</rscale>
<asrwt>0</asrwt>
<pdfrwt beam="1">  1        1 0.56987066E-01 0.20296508E+03</pdfrwt>
<pdfrwt beam="2">  1       -1 0.28325919E-01 0.20296508E+03</pdfrwt>
<totfact> 0.75636796E+02</totfact>
</mgrwt>
</event>
<event>
 8    1  0.8174053E-004  0.1600147E+03  0.7546771E-02  0.1189117E+00
          1   -1    0    0  501    0  0.00000000000E+00  0.00000000000E+00  0.22041891104E+03  0.22041891104E+03  0.00000000000E+00 0. -1.
         -1   -1    0    0    0  501 -0.00000000000E+00 -0.00000000000E+00 -0.15587094029E+03  0.15587094029E+03  0.00000000000E+00 0.  1.
         23    2    1    2    0    0  0.58853902946E+02 -0.11629760136E+03 -0.63893943107E+02  0.17229955781E+03  0.92821267406E+02 0.  0.
         23    2    1    2    0    0 -0.58853902946E+02  0.11629760136E+03  0.12844191385E+03  0.20399029352E+03  0.90143222947E+02 0.  0.
          5    1    4    4  502    0  0.76876772578E+01  0.48314841949E+02  0.69841993693E+01  0.49641649600E+02  0.47000000000E+01 0. -1.
         -5    1    4    4    0  502 -0.66541580203E+02  0.67982759408E+02  0.12145771448E+03  0.15434864392E+03  0.47000000000E+01 0.  1.
          5    1    3    3  503    0 -0.24975496173E+02 -0.21261183344E+02 -0.15283426286E+02  0.36489538848E+02  0.47000000000E+01 0. -1.
         -5    1    3    3    0  503  0.83829399118E+02 -0.95036418013E+02 -0.48610516820E+02  0.13581001896E+03  0.47000000000E+01 0.  1.
<mgrwt>
<rscale>  0 0.15962868E+03</rscale>
<asrwt>0</asrwt>
<pdfrwt beam="1">  1        1 0.33910602E-01 0.16001469E+03</pdfrwt>
<pdfrwt beam="2">  1       -1 0.23980145E-01 0.16001469E+03</pdfrwt>
<totfact> 0.19020740E+03</totfact>
</mgrwt>
</event>
<event>
 8    1  0.8174053E-004  0.1845525E+03  0.7546771E-02  0.1164177E+00
         -4   -1    0    0    0  501 -0.00000000000E+00  0.00000000000E+00  0.13314831337E+03  0.13314831337E+03  0.00000000000E+00 0.  1.
          4   -1    0    0  501    0  0.00000000000E+00 -0.00000000000E+00 -0.27487341410E+03  0.27487341410E+03  0.00000000000E+00 0. -1.
         23    2    1    2    0    0 -0.94013958173E+02  0.12788746125E+03 -0.11052273741E+02  0.18189123676E+03  0.88138766597E+02 0.  0.
         23    2    1    2    0    0  0.94013958173E+02 -0.12788746125E+03 -0.13067282699E+03  0.22613049071E+03  0.94158292464E+02 0.  0.
          5    1    3    3  502    0  0.86805215260E+01  0.37644324358E+02 -0.21924320647E+02  0.44667800999E+02  0.47000000000E+01 0. -1.
         -5    1    3    3    0  502 -0.10269447970E+03  0.90243136897E+02  0.10872046906E+02  0.13722343576E+03  0.47000000000E+01 0.  1.
          5    1    4    4  503    0  0.25149313472E+02 -0.38189320283E+02 -0.98130032036E+02  0.10836284114E+03  0.47000000000E+01 0. -1.
         -5    1    4    4    0  503  0.68864644701E+02 -0.89698140971E+02 -0.32542794951E+02  0.11776764958E+03  0.47000000000E+01 0.  1.
<mgrwt>
<rscale>  0 0.18379852E+03</rscale>
<asrwt>0</asrwt>
<pdfrwt beam="1">  1        4 0.42288218E-01 0.18455246E+03</pdfrwt>
<pdfrwt beam="2">  1       -4 0.20484356E-01 0.18455246E+03</pdfrwt>
<totfact> 0.20659526E+02</totfact>
</mgrwt>
</event>
<event>
 8    1  0.8174053E-004  0.9378793E+02  0.7546771E-02  0.1295461E+00
         -1   -1    0    0    0  501 -0.00000000000E+00  0.00000000000E+00  0.28397989945E+02  0.28397989945E+02  0.00000000000E+00 0.  1.
          1   -1    0    0  501    0  0.00000000000E+00 -0.00000000000E+00 -0.30113688322E+03  0.30113688322E+03  0.00000000000E+00 0. -1.
         23    2    1    2    0    0  0.63345667704E+01  0.23255660724E+02 -0.13686910254E+03  0.16591964236E+03  0.90637872861E+02 0.  0.
         23    2    1    2    0    0 -0.63345667704E+01 -0.23255660724E+02 -0.13586979074E+03  0.16361523081E+03  0.87911269056E+02 0.  0.
          5    1    3    3  502    0  0.16785526965E+02 -0.13042235479E+02 -0.12376236826E+03  0.12566251477E+03  0.47000000000E+01 0. -1.
         -5    1    3    3    0  502 -0.10450960194E+02  0.36297896202E+02 -0.13106734283E+02  0.40257127584E+02  0.47000000000E+01 0.  1.
          5    1    4    4  503    0  0.38466353828E+02 -0.18315172505E+02 -0.86891456394E+02  0.96888188728E+02  0.47000000000E+01 0. -1.
         -5    1    4    4    0  503 -0.44800920599E+02 -0.49404882188E+01 -0.48978334342E+02  0.66727042084E+02  0.47000000000E+01 0.  1.
<mgrwt>
<rscale>  0 0.93122809E+02</rscale>
<asrwt>0</asrwt>
<pdfrwt beam="1">  1        1 0.46328751E-01 0.93787934E+02</pdfrwt>
<pdfrwt beam="2">  1       -1 0.43689216E-02 0.93787934E+02</pdfrwt>
<totfact> 0.16987629E+04</totfact>
</mgrwt>
</event>
<event>
 7    1  0.8174053E-004  0.2555736E+03  0.7546771E-02  0.1141828E+00
         -1   -1    0    0    0  501 -0.00000000000E+00  0.00000000000E+00  0.61020796416E+02  0.61020796416E+02  0.00000000000E+00 0.  1.
          1   -1    0    0  501    0  0.00000000000E+00 -0.00000000000E+00 -0.67485398568E+03  0.67485398568E+03  0.00000000000E+00 0. -1.
         23    2    1    2    0    0  0.17160755296E+02 -0.67501769231E+02 -0.34957985872E+03  0.36825037269E+03  0.92473125784E+02 0.  0.
          5    1    3    3  502    0  0.35944798730E+02 -0.89944677939E+01 -0.23682842643E+03  0.23975554753E+03  0.47000000000E+01 0. -1.
         -5    1    3    3    0  502 -0.18784043434E+02 -0.58507301437E+02 -0.11275143229E+03  0.12849482515E+03  0.47000000000E+01 0.  1.
          5    1    1    2  503    0  0.48825052795E+02  0.10453663463E+03 -0.26789598592E+03  0.29172271600E+03  0.47000000000E+01 0. -1.
         -5    1    1    2    0  503 -0.65985808091E+02 -0.37034865401E+02  0.36426553646E+01  0.75901693412E+02  0.47000000000E+01 0.  1.
<mgrwt>
<rscale>  0 0.20966903E+03</rscale>
<asrwt>0</asrwt>
<pdfrwt beam="1">  1        1 0.10382369E+00 0.25557364E+03</pdfrwt>
<pdfrwt beam="2">  1       -1 0.93878147E-02 0.25557364E+03</pdfrwt>
<totfact> 0.19956775E+03</totfact>
</mgrwt>
</event>
<event>
 8    1  0.8174053E-004  0.1248364E+03  0.7546771E-02  0.1242036E+00
         -1   -1    0    0    0  501 -0.00000000000E+00  0.00000000000E+00  0.40748630801E+03  0.40748630801E+03  0.00000000000E+00 0.  1.
          1   -1    0    0  501    0  0.00000000000E+00 -0.00000000000E+00 -0.33567526560E+02  0.33567526560E+02  0.00000000000E+00 0. -1.
         23    2    1    2    0    0 -0.50746616863E+02 -0.31536185212E+02  0.18270208767E+03  0.21269457638E+03  0.91044933319E+02 0.  0.
         23    2    1    2    0    0  0.50746616863E+02  0.31536185212E+02  0.19121669378E+03  0.22835925819E+03  0.10961011230E+03 0.  0.
          5    1    3    3  502    0 -0.43051696931E+02 -0.62351401471E+02  0.11548453095E+03  0.13820243399E+03  0.47000000000E+01 0. -1.
         -5    1    3    3    0  502 -0.76949199317E+01  0.30815216258E+02  0.67217556721E+02  0.74492142387E+02  0.47000000000E+01 0.  1.
          5    1    4    4  503    0  0.21728059984E+02 -0.12422225117E+02 -0.42919144819E+01  0.25825003339E+02  0.47000000000E+01 0. -1.
         -5    1    4    4    0  503  0.29018556879E+02  0.43958410329E+02  0.19550860826E+03  0.20253425485E+03  0.47000000000E+01 0.  1.
<mgrwt>
<rscale>  0 0.12064564E+03</rscale>
<asrwt>0</asrwt>
<pdfrwt beam="1">  1        1 0.51642351E-02 0.12483640E+03</pdfrwt>
<pdfrwt beam="2">  1       -1 0.62690198E-01 0.12483640E+03</pdfrwt>
<totfact> 0.40463955E+03</totfact>
</mgrwt>
</event>
<event>
 8    1  0.8174053E-004  0.1011559E+03  0.7546771E-02  0.1281401E+00
         -1   -1    0    0    0  501 -0.00000000000E+00  0.00000000000E+00  0.12077468748E+02  0.12077468748E+02  0.00000000000E+00 0.  1.
          1   -1    0    0  501    0  0.00000000000E+00 -0.00000000000E+00 -0.96264468272E+03  0.96264468272E+03  0.00000000000E+00 0. -1.
         23    2    1    2    0    0  0.17424998938E+01  0.29166080734E+02 -0.66652337333E+03  0.67320363266E+03  0.89977926574E+02 0.  0.
         23    2    1    2    0    0 -0.17424998938E+01 -0.29166080734E+02 -0.28404384064E+03  0.30151851880E+03  0.96844293595E+02 0.  0.
          5    1    3    3  502    0  0.41061083731E+02 -0.54437202641E+01 -0.32267566392E+03  0.32535722026E+03  0.47000000000E+01 0. -1.
         -5    1    3    3    0  502 -0.39318583838E+02  0.34609800998E+02 -0.34384770940E+03  0.34784641240E+03  0.47000000000E+01 0.  1.
          5    1    4    4  503    0  0.24457232809E+02 -0.21951515505E+02 -0.26709091409E+03  0.26914619013E+03  0.47000000000E+01 0. -1.
         -5    1    4    4    0  503 -0.26199732703E+02 -0.72145652287E+01 -0.16952926550E+02  0.32372328674E+02  0.47000000000E+01 0.  1.
<mgrwt>
<rscale>  0 0.99476290E+02</rscale>
<asrwt>0</asrwt>
<pdfrwt beam="1">  1        1 0.14809919E+00 0.10115589E+03</pdfrwt>
<pdfrwt beam="2">  1       -1 0.18580720E-02 0.10115589E+03</pdfrwt>
<totfact> 0.12270314E+04</totfact>
</mgrwt>
</event>
<event>
 8    1  0.8174053E-004  0.1192745E+03  0.7546771E-02  0.1245565E+00
         -1   -1    0    0    0  501 -0.00000000000E+00  0.00000000000E+00  0.56328997309E+02  0.56328997309E+02  0.00000000000E+00 0.  1.
          1   -1    0    0  501    0  0.00000000000E+00 -0.00000000000E+00 -0.33468935602E+03  0.33468935602E+03  0.00000000000E+00 0. -1.
         23    2    1    2    0    0  0.69935921186E+02 -0.30951511929E+02 -0.37373194752E+02  0.12212948318E+03  0.87577541720E+02 0.  0.
         23    2    1    2    0    0 -0.69935921186E+02  0.30951511929E+02 -0.24098716396E+03  0.26888887014E+03  0.91528040144E+02 0.  0.
          5    1    3    3  502    0  0.17332976595E+01 -0.33254428871E+02 -0.41722241001E+02  0.53588214697E+02  0.47000000000E+01 0. -1.
         -5    1    3    3    0  502  0.68202623526E+02  0.23029169425E+01  0.43490462486E+01  0.68541268485E+02  0.47000000000E+01 0.  1.
          5    1    4    4  503    0 -0.64222892307E+02 -0.19496432487E+02 -0.11955659512E+03  0.13718804690E+03  0.47000000000E+01 0. -1.
         -5    1    4    4    0  503 -0.57130288792E+01  0.50447944416E+02 -0.12143056883E+03  0.13170082324E+03  0.47000000000E+01 0.  1.
<mgrwt>
<rscale>  0 0.11851634E+03</rscale>
<asrwt>0</asrwt>
<pdfrwt beam="1">  1        1 0.51490669E-01 0.11927452E+03</pdfrwt>
<pdfrwt beam="2">  1       -1 0.86659998E-02 0.11927452E+03</pdfrwt>
<totfact> 0.55124276E+03</totfact>
</mgrwt>
</event>
<event>
 8    1  0.8174053E-004  0.9458637E+02  0.7546771E-02  0.1293176E+00
          2   -1    0    0  501    0  0.00000000000E+00  0.00000000000E+00  0.84368489841E+03  0.84368489841E+03  0.00000000000E+00 0. -1.
         -2   -1    0    0    0  501 -0.00000000000E+00 -0.00000000000E+00 -0.12698518534E+02  0.12698518534E+02  0.00000000000E+00 0.  1.
         23    2    1    2    0    0  0.15452117078E+02 -0.18443345637E+02  0.23657090694E+03  0.25477907294E+03  0.91474898614E+02 0.  0.
         23    2    1    2    0    0 -0.15452117078E+02  0.18443345637E+02  0.59441547293E+03  0.60160434400E+03  0.89549468678E+02 0.  0.
          5    1    3    3  502    0 -0.19900967673E+02  0.27072309005E+02  0.59344292211E+02  0.68357833839E+02  0.47000000000E+01 0. -1.
         -5    1    3    3    0  502  0.35353084751E+02 -0.45515654642E+02  0.17722661473E+03  0.18642123910E+03  0.47000000000E+01 0.  1.
          5    1    4    4  503    0 -0.47444971451E+02 -0.95979806019E+01  0.36555513467E+03  0.36877607437E+03  0.47000000000E+01 0.  1.
         -5    1    4    4    0  503  0.31992854373E+02  0.28041326239E+02  0.22886033827E+03  0.23282826963E+03  0.47000000000E+01 0. -1.
<mgrwt>
<rscale>  0 0.94117702E+02</rscale>
<asrwt>0</asrwt>
<pdfrwt beam="1">  1        2 0.12979763E+00 0.94586373E+02</pdfrwt>
<pdfrwt beam="2">  1       -2 0.19536189E-02 0.94586373E+02</pdfrwt>
<totfact> 0.24294430E+04</totfact>
</mgrwt>
</event>
<event>
 8    1  0.8174053E-004  0.9992573E+02  0.7546771E-02  0.1285057E+00
         -2   -1    0    0    0  501 -0.00000000000E+00  0.00000000000E+00  0.48737260795E+02  0.48737260795E+02  0.00000000000E+00 0.  1.
          2   -1    0    0  501    0  0.00000000000E+00 -0.00000000000E+00 -0.22619893610E+03  0.22619893610E+03  0.00000000000E+00 0. -1.
         23    2    1    2    0    0  0.13444189460E+02  0.22374474055E+01 -0.29153519931E+02  0.96105381659E+02  0.90556966923E+02 0.  0.
         23    2    1    2    0    0 -0.13444189460E+02 -0.22374474055E+01 -0.14830815537E+03  0.17883081523E+03  0.98991914448E+02 0.  0.
          5    1    3    3  502    0  0.39781010998E+02  0.14197680322E+02 -0.45736411813E+02  0.62434063844E+02  0.47000000000E+01 0. -1.
         -5    1    3    3    0  502 -0.26336821539E+02 -0.11960232916E+02  0.16582891882E+02  0.33671317814E+02  0.47000000000E+01 0.  1.
          5    1    4    4  503    0  0.90935272561E+01  0.25271378137E+02 -0.10709247336E+01  0.27286840614E+02  0.47000000000E+01 0. -1.
         -5    1    4    4    0  503 -0.22537716716E+02 -0.27508825543E+02 -0.14723723064E+03  0.15154397462E+03  0.47000000000E+01 0.  1.
<mgrwt>
<rscale>  0 0.97769727E+02</rscale>
<asrwt>0</asrwt>
<pdfrwt beam="1">  1        2 0.34799836E-01 0.99925730E+02</pdfrwt>
<pdfrwt beam="2">  1       -2 0.74980401E-02 0.99925730E+02</pdfrwt>
<totfact> 0.14202435E+04</totfact>
</mgrwt>
</event>
<event>
 8    1  0.8174053E-004  0.1101972E+03  0.7546771E-02  0.1263758E+00
         -2   -1    0    0    0  501 -0.00000000000E+00  0.00000000000E+00  0.96418252415E+01  0.96418252415E+01  0.00000000000E+00 0. -1.
          2   -1    0    0  501    0  0.00000000000E+00 -0.00000000000E+00 -0.11765912421E+04  0.11765912421E+04  0.00000000000E+00 0.  1.
         23    2    1    2    0    0 -0.26830726623E+01  0.44260878319E+02 -0.59286525311E+03  0.60301958639E+03  0.10088205484E+03 0.  0.
         23    2    1    2    0    0  0.26830726623E+01 -0.44260878319E+02 -0.57408416376E+03  0.58321348097E+03  0.92731402858E+02 0.  0.
          5    1    3    3  502    0 -0.49002597067E+02  0.39913948455E+02 -0.33113218967E+03  0.33714239549E+03  0.47000000000E+01 0. -1.
         -5    1    4    4    0  503  0.40671282603E+02 -0.47963416903E+02 -0.39927299230E+03  0.40422228411E+03  0.47000000000E+01 0.  1.
          5    1    4    4  503    0 -0.37988209941E+02  0.37025385844E+01 -0.17481117146E+03  0.17899119686E+03  0.47000000000E+01 0. -1.
         -5    1    3    3    0  502  0.46319524404E+02  0.43469298636E+01 -0.26173306344E+03  0.26587719089E+03  0.47000000000E+01 0.  1.
<mgrwt>
<rscale>  0 0.10829620E+03</rscale>
<asrwt>0</asrwt>
<pdfrwt beam="1">  1        2 0.18101398E+00 0.11019716E+03</pdfrwt>
<pdfrwt beam="2">  1       -2 0.14833582E-02 0.11019716E+03</pdfrwt>
<totfact> 0.23243753E+04</totfact>
</mgrwt>
</event>
<event>
 7    1  0.8174053E-004  0.2586331E+03  0.7546771E-02  0.1135169E+00
          1   -1    0    0  501    0  0.00000000000E+00  0.00000000000E+00  0.52092044500E+03  0.52092044500E+03  0.00000000000E+00 0. -1.
         -1   -1    0    0    0  501 -0.00000000000E+00 -0.00000000000E+00 -0.72955523591E+02  0.72955523591E+02  0.00000000000E+00 0.  1.
         23    2    1    2    0    0 -0.53368187152E+02 -0.78155212336E+02  0.14736666562E+03  0.19732790551E+03  0.90911866887E+02 0.  0.
          5    1    1    2  502    0 -0.35414813874E+02  0.13160784177E+03  0.24100166709E+03  0.27690923891E+03  0.47000000000E+01 0. -1.
         -5    1    1    2    0  502  0.88783001026E+02 -0.53452629429E+02  0.59596588701E+02  0.11963882417E+03  0.47000000000E+01 0.  1.
          5    1    3    3  503    0  0.32902303799E-01 -0.66482845967E+02  0.42700497882E+02  0.79154231787E+02  0.47000000000E+01 0. -1.
         -5    1    3    3    0  503 -0.53401089456E+02 -0.11672366369E+02  0.10466616774E+03  0.11817367372E+03  0.47000000000E+01 0.  1.
<mgrwt>
<rscale>  0 0.21828378E+03</rscale>
<asrwt>0</asrwt>
<pdfrwt beam="1">  1        1 0.80141604E-01 0.25863305E+03</pdfrwt>
<pdfrwt beam="2">  1       -1 0.11223927E-01 0.25863305E+03</pdfrwt>
<totfact> 0.21678089E+03</totfact>
</mgrwt>
</event>
<event>
 8    1  0.8174053E-004  0.9611694E+02  0.7546771E-02  0.1291285E+00
         -2   -1    0    0    0  501 -0.00000000000E+00  0.00000000000E+00  0.94349147856E+02  0.94349147856E+02  0.00000000000E+00 0.  1.
          2   -1    0    0  501    0  0.00000000000E+00 -0.00000000000E+00 -0.29913939600E+03  0.29913939600E+03  0.00000000000E+00 0. -1.
         23    2    1    2    0    0  0.93349676626E+01 -0.22199416202E+02  0.60010129252E+02  0.11331232216E+03  0.93051120567E+02 0.  0.
         23    2    1    2    0    0 -0.93349676626E+01  0.22199416202E+02 -0.26480037739E+03  0.28017622170E+03  0.88314889095E+02 0.  0.
          5    1    3    3  502    0 -0.36008833835E+02  0.12241317464E+02  0.17669182172E+02  0.42199241297E+02  0.47000000000E+01 0. -1.
         -5    1    4    4    0  503  0.30727363864E+02  0.31401999056E+02 -0.18598287332E+03  0.19115955535E+03  0.47000000000E+01 0.  1.
          5    1    4    4  503    0 -0.40062331526E+02 -0.92025828541E+01 -0.78817504074E+02  0.89016666344E+02  0.47000000000E+01 0. -1.
         -5    1    3    3    0  502  0.45343801497E+02 -0.34440733666E+02  0.42340947080E+02  0.71113080860E+02  0.47000000000E+01 0.  1.
<mgrwt>
<rscale>  0 0.94951552E+02</rscale>
<asrwt>0</asrwt>
<pdfrwt beam="1">  1        2 0.46021446E-01 0.96116943E+02</pdfrwt>
<pdfrwt beam="2">  1       -2 0.14515253E-01 0.96116943E+02</pdfrwt>
<totfact> 0.37510492E+03</totfact>
</mgrwt>
</event>
<event>
 8    1  0.8174053E-004  0.9559187E+02  0.7546771E-02  0.1290567E+00
         -3   -1    0    0    0  501 -0.00000000000E+00  0.00000000000E+00  0.25729198460E+03  0.25729198460E+03  0.00000000000E+00 0.  1.
          3   -1    0    0  501    0  0.00000000000E+00 -0.00000000000E+00 -0.13001874974E+03  0.13001874974E+03  0.00000000000E+00 0. -1.
         23    2    1    2    0    0  0.55684186690E+01  0.23387427853E+02 -0.10176088390E+03  0.13961762959E+03  0.92519327344E+02 0.  0.
         23    2    1    2    0    0 -0.55684186690E+01 -0.23387427853E+02  0.22903411876E+03  0.24769310475E+03  0.91199054368E+02 0.  0.
          5    1    4    4  502    0  0.25852292057E+02 -0.34954159141E+02  0.19453217407E+03  0.19938653664E+03  0.47000000000E+01 0.  1.
         -5    1    3    3    0  503  0.22794620214E+02 -0.12256670563E+02  0.39869476931E+01  0.26604631850E+02  0.47000000000E+01 0.  1.
          5    1    3    3  503    0 -0.17226201545E+02  0.35644098415E+02 -0.10574783159E+03  0.11301299774E+03  0.47000000000E+01 0. -1.
         -5    1    4    4    0  502 -0.31420710726E+02  0.11566731288E+02  0.34501944692E+02  0.48306568112E+02  0.47000000000E+01 0. -1.
<mgrwt>
<rscale>  0 0.95270941E+02</rscale>
<asrwt>0</asrwt>
<pdfrwt beam="1">  1        3 0.20002885E-01 0.95591867E+02</pdfrwt>
<pdfrwt beam="2">  1       -3 0.39583382E-01 0.95591867E+02</pdfrwt>
<totfact> 0.31475871E+02</totfact>
</mgrwt>
</event>
<event>
 8    1  0.8174053E-004  0.2614362E+03  0.7546771E-02  0.1106309E+00
         -1   -1    0    0    0  501 -0.00000000000E+00  0.00000000000E+00  0.41571518484E+03  0.41571518484E+03  0.00000000000E+00 0.  1.
          1   -1    0    0  501    0  0.00000000000E+00 -0.00000000000E+00 -0.68488059492E+03  0.68488059492E+03  0.00000000000E+00 0. -1.
         23    2    1    2    0    0 -0.11375544868E+03 -0.21666101766E+03 -0.61436289900E+03  0.66767557508E+03  0.92014146807E+02 0.  0.
         23    2    1    2    0    0  0.11375544868E+03  0.21666101766E+03  0.34519748892E+03  0.43292020468E+03  0.91522120738E+02 0.  0.
          5    1    4    4  502    0 -0.21390288287E+01  0.50425257649E+02  0.32308558107E+02  0.60110023958E+02  0.47000000000E+01 0. -1.
         -5    1    3    3    0  503 -0.48211323228E+02 -0.17444537510E+03 -0.38658514067E+03  0.42687900109E+03  0.47000000000E+01 0.  1.
          5    1    3    3  503    0 -0.65544125448E+02 -0.42215642562E+02 -0.22777775833E+03  0.24079657399E+03  0.47000000000E+01 0. -1.
         -5    1    4    4    0  502  0.11589447750E+03  0.16623576001E+03  0.31288893081E+03  0.37281018072E+03  0.47000000000E+01 0.  1.
<mgrwt>
<rscale>  0 0.26139303E+03</rscale>
<asrwt>0</asrwt>
<pdfrwt beam="1">  1        1 0.10536625E+00 0.26143623E+03</pdfrwt>
<pdfrwt beam="2">  1       -1 0.63956182E-01 0.26143623E+03</pdfrwt>
<totfact> 0.75910210E+01</totfact>
</mgrwt>
</event>
<event>
 8    1  0.8174053E-004  0.1011368E+03  0.7546771E-02  0.1280745E+00
         -2   -1    0    0    0  501 -0.00000000000E+00  0.00000000000E+00  0.75834482831E+02  0.75834482831E+02  0.00000000000E+00 0.  1.
          2   -1    0    0  501    0  0.00000000000E+00 -0.00000000000E+00 -0.14931865976E+03  0.14931865976E+03  0.00000000000E+00 0. -1.
         23    2    1    2    0    0 -0.36159649226E+02  0.88361849117E+01  0.67134661901E+01  0.96078275897E+02  0.88319681131E+02 0.  0.
         23    2    1    2    0    0  0.36159649226E+02 -0.88361849117E+01 -0.80197643115E+02  0.12907486669E+03  0.94037550232E+02 0.  0.
          5    1    3    3  502    0  0.64294316192E+01  0.24745340520E+02 -0.28356017441E+02  0.38468470121E+02  0.47000000000E+01 0. -1.
         -5    1    4    4    0  503  0.50269714916E+02 -0.33867138822E+02 -0.23201305802E+02  0.65072405217E+02  0.47000000000E+01 0.  1.
          5    1    4    4  503    0 -0.14110065690E+02  0.25030953911E+02 -0.56996337313E+02  0.64002461472E+02  0.47000000000E+01 0. -1.
         -5    1    3    3    0  502 -0.42589080845E+02 -0.15909155608E+02  0.35069483631E+02  0.57609805776E+02  0.47000000000E+01 0.  1.
<mgrwt>
<rscale>  0 0.99786689E+02</rscale>
<asrwt>0</asrwt>
<pdfrwt beam="1">  1        2 0.22972101E-01 0.10113683E+03</pdfrwt>
<pdfrwt beam="2">  1       -2 0.11666844E-01 0.10113683E+03</pdfrwt>
<totfact> 0.11213557E+04</totfact>
</mgrwt>
</event>
<event>
 8    1  0.8174053E-004  0.1466847E+03  0.7546771E-02  0.1204862E+00
         -1   -1    0    0    0  501 -0.00000000000E+00  0.00000000000E+00  0.12126701267E+03  0.12126701267E+03  0.00000000000E+00 0.  1.
          1   -1    0    0  501    0  0.00000000000E+00 -0.00000000000E+00 -0.17867856167E+03  0.17867856167E+03  0.00000000000E+00 0. -1.
         23    2    1    2    0    0  0.11336583236E+03  0.17126290256E+02 -0.11916858075E+02  0.14636766120E+03  0.90201768134E+02 0.  0.
         23    2    1    2    0    0 -0.11336583236E+03 -0.17126290256E+02 -0.45494690917E+02  0.15357791314E+03  0.91494736112E+02 0.  0.
          5    1    4    4  502    0 -0.10047075960E+03  0.14985999247E+02 -0.57288685616E+02  0.11671776732E+03  0.47000000000E+01 0. -1.
         -5    1    3    3    0  503  0.64702456458E+02 -0.22754710790E+02  0.25136246563E+02  0.73199082139E+02  0.47000000000E+01 0.  1.
          5    1    3    3  503    0  0.48663375905E+02  0.39881001046E+02 -0.37053104638E+02  0.73168579064E+02  0.47000000000E+01 0. -1.
         -5    1    4    4    0  502 -0.12895072761E+02 -0.32112289503E+02  0.11793994699E+02  0.36860145817E+02  0.47000000000E+01 0.  1.
<mgrwt>
<rscale>  0 0.14648356E+03</rscale>
<asrwt>0</asrwt>
<pdfrwt beam="1">  1        1 0.27489009E-01 0.14668472E+03</pdfrwt>
<pdfrwt beam="2">  1       -1 0.18656464E-01 0.14668472E+03</pdfrwt>
<totfact> 0.36978951E+03</totfact>
</mgrwt>
</event>
<event>
 8    1  0.8174053E-004  0.1498336E+03  0.7546771E-02  0.1201291E+00
          3   -1    0    0  501    0  0.00000000000E+00  0.00000000000E+00  0.28091220447E+03  0.28091220447E+03  0.00000000000E+00 0. -1.
         -3   -1    0    0    0  501 -0.00000000000E+00 -0.00000000000E+00 -0.89234733234E+02  0.89234733234E+02  0.00000000000E+00 0.  1.
         23    2    1    2    0    0 -0.55111018968E+02 -0.10440246316E+03  0.15948710022E+03  0.21882927381E+03  0.92266013331E+02 0.  0.
         23    2    1    2    0    0  0.55111018968E+02  0.10440246316E+03  0.32190371023E+02  0.15131766390E+03  0.89015261025E+02 0.  0.
          5    1    4    4  502    0  0.12388881992E+02  0.32079720357E+02  0.54195844096E+02  0.64357380094E+02  0.47000000000E+01 0. -1.
         -5    1    3    3    0  503 -0.32983480948E+02 -0.22089429498E+01  0.73899607285E+01  0.34197821042E+02  0.47000000000E+01 0.  1.
          5    1    3    3  503    0 -0.22127538020E+02 -0.10219352021E+03  0.15209713949E+03  0.18463145277E+03  0.47000000000E+01 0. -1.
         -5    1    4    4    0  502  0.42722136976E+02  0.72322742800E+02 -0.22005473073E+02  0.86960283803E+02  0.47000000000E+01 0.  1.
<mgrwt>
<rscale>  0 0.14933626E+03</rscale>
<asrwt>0</asrwt>
<pdfrwt beam="1">  1        3 0.43217262E-01 0.14983363E+03</pdfrwt>
<pdfrwt beam="2">  1       -3 0.13728421E-01 0.14983363E+03</pdfrwt>
<totfact> 0.54260735E+02</totfact>
</mgrwt>
</event>
<event>
 8    1  0.8174053E-004  0.1721854E+03  0.7546771E-02  0.1176686E+00
         -1   -1    0    0    0  501 -0.00000000000E+00  0.00000000000E+00  0.55930548938E+02  0.55930548938E+02  0.00000000000E+00 0.  1.
          1   -1    0    0  501    0  0.00000000000E+00 -0.00000000000E+00 -0.10042768816E+04  0.10042768816E+04  0.00000000000E+00 0. -1.
         23    2    1    2    0    0 -0.52938563382E+02  0.13286322227E+03 -0.10802726333E+03  0.20326759330E+03  0.95878556206E+02 0.  0.
         23    2    1    2    0    0  0.52938563382E+02 -0.13286322227E+03 -0.84031906934E+03  0.85693983724E+03  0.88060314735E+02 0.  0.
          5    1    3    3  502    0 -0.20398337866E+02 -0.10462355859E+02 -0.25634291141E+02  0.34709652261E+02  0.47000000000E+01 0. -1.
         -5    1    3    3    0  502 -0.32540225516E+02  0.14332557813E+03 -0.82392972184E+02  0.16855794104E+03  0.47000000000E+01 0.  1.
          5    1    4    4  503    0  0.70998107658E+02 -0.61506655835E+02 -0.45299674990E+03  0.46265748175E+03  0.47000000000E+01 0. -1.
         -5    1    4    4    0  503 -0.18059544277E+02 -0.71356566433E+02 -0.38732231944E+03  0.39428235549E+03  0.47000000000E+01 0.  1.
<mgrwt>
<rscale>  0 0.17111860E+03</rscale>
<asrwt>0</asrwt>
<pdfrwt beam="1">  1        1 0.15450413E+00 0.17218544E+03</pdfrwt>
<pdfrwt beam="2">  1       -1 0.86047004E-02 0.17218544E+03</pdfrwt>
<totfact> 0.12238003E+03</totfact>
</mgrwt>
</event>
<event>
 8    1  0.8174053E-004  0.1137185E+03  0.7546771E-02  0.1253862E+00
          2   -1    0    0  501    0  0.00000000000E+00  0.00000000000E+00  0.14602570198E+03  0.14602570198E+03  0.00000000000E+00 0. -1.
         -2   -1    0    0    0  501 -0.00000000000E+00 -0.00000000000E+00 -0.13476107955E+03  0.13476107955E+03  0.00000000000E+00 0.  1.
         23    2    1    2    0    0 -0.39235655582E+02  0.56430584181E+02 -0.76612964327E+02  0.13711837082E+03  0.90598310220E+02 0.  0.
         23    2    1    2    0    0  0.39235655582E+02 -0.56430584181E+02  0.87877586757E+02  0.14366841071E+03  0.90522342442E+02 0.  0.
          5    1    4    4  502    0 -0.47233843951E+01 -0.47287650709E+02  0.86137781349E+02  0.98489794626E+02  0.47000000000E+01 0. -1.
         -5    1    3    3    0  503 -0.43879480129E+02  0.76189841864E+02 -0.75940681586E+02  0.11627285969E+03  0.47000000000E+01 0.  1.
          5    1    3    3  503    0  0.46438245467E+01 -0.19759257683E+02 -0.67228274106E+00  0.20845511140E+02  0.47000000000E+01 0. -1.
         -5    1    4    4    0  502  0.43959039978E+02 -0.91429334725E+01  0.17398054077E+01  0.45178616082E+02  0.47000000000E+01 0.  1.
<mgrwt>
<rscale>  0 0.11370339E+03</rscale>
<asrwt>0</asrwt>
<pdfrwt beam="1">  1        2 0.22465493E-01 0.11371852E+03</pdfrwt>
<pdfrwt beam="2">  1       -2 0.20732474E-01 0.11371852E+03</pdfrwt>
<totfact> 0.45360869E+03</totfact>
</mgrwt>
</event>
<event>
 8    1  0.8174053E-004  0.1854343E+03  0.7546771E-02  0.1162877E+00
          2   -1    0    0  501    0  0.00000000000E+00  0.00000000000E+00  0.20078564604E+04  0.20078564604E+04  0.00000000000E+00 0. -1.
         -2   -1    0    0    0  501 -0.00000000000E+00 -0.00000000000E+00 -0.17122142450E+02  0.17122142450E+02  0.00000000000E+00 0.  1.
         23    2    1    2    0    0 -0.10049172493E+03  0.12580239237E+03  0.92541915782E+03  0.94381485713E+03  0.91983901634E+02 0.  0.
         23    2    1    2    0    0  0.10049172493E+03 -0.12580239237E+03  0.10653151601E+04  0.10811637457E+04  0.89965693256E+02 0.  0.
          5    1    3    3  502    0 -0.85331714393E+02  0.40973508390E+02  0.58495695178E+03  0.59258506166E+03  0.47000000000E+01 0. -1.
         -5    1    3    3    0  502 -0.15160010540E+02  0.84828883982E+02  0.34046220605E+03  0.35122979547E+03  0.47000000000E+01 0.  1.
          5    1    4    4  503    0  0.63992838931E+02 -0.69411428794E+02  0.85790570069E+03  0.86309750965E+03  0.47000000000E+01 0. -1.
         -5    1    4    4    0  503  0.36498886002E+02 -0.56390963578E+02  0.20740945944E+03  0.21806623608E+03  0.47000000000E+01 0.  1.
<mgrwt>
<rscale>  0 0.18518557E+03</rscale>
<asrwt>0</asrwt>
<pdfrwt beam="1">  1        2 0.30890081E+00 0.18543427E+03</pdfrwt>
<pdfrwt beam="2">  1       -2 0.26341774E-02 0.18543427E+03</pdfrwt>
<totfact> 0.37817927E+03</totfact>
</mgrwt>
</event>
<event>
 8    1  0.8174053E-004  0.9287953E+02  0.7546771E-02  0.1297174E+00
          2   -1    0    0  501    0  0.00000000000E+00  0.00000000000E+00  0.72969013630E+03  0.72969013630E+03  0.00000000000E+00 0. -1.
         -2   -1    0    0    0  501 -0.00000000000E+00 -0.00000000000E+00 -0.12128894534E+02  0.12128894534E+02  0.00000000000E+00 0.  1.
         23    2    1    2    0    0 -0.18564687766E+01 -0.27630435617E+02  0.43442936504E+03  0.44384207503E+03  0.86602695762E+02 0.  0.
         23    2    1    2    0    0  0.18564687766E+01  0.27630435617E+02  0.28313187673E+03  0.29797695580E+03  0.88655056936E+02 0.  0.
          5    1    3    3  502    0 -0.42080872675E+02 -0.18874130531E+02  0.28621794596E+03  0.28994798712E+03  0.47000000000E+01 0. -1.
         -5    1    4    4    0  503  0.40225613869E+02  0.21308397174E+02  0.90607347055E+02  0.10150827130E+03  0.47000000000E+01 0.  1.
          5    1    4    4  503    0 -0.38369145093E+02  0.63220384427E+01  0.19252452967E+03  0.19646868450E+03  0.47000000000E+01 0. -1.
         -5    1    3    3    0  502  0.40224403899E+02 -0.87563050857E+01  0.14821141908E+03  0.15389408791E+03  0.47000000000E+01 0.  1.
<mgrwt>
<rscale>  0 0.92386375E+02</rscale>
<asrwt>0</asrwt>
<pdfrwt beam="1">  1        2 0.11225999E+00 0.92879527E+02</pdfrwt>
<pdfrwt beam="2">  1       -2 0.18659844E-02 0.92879527E+02</pdfrwt>
<totfact> 0.30899762E+04</totfact>
</mgrwt>
</event>
<event>
 8    1  0.8174053E-004  0.2317059E+03  0.7546771E-02  0.1125547E+00
          1   -1    0    0  501    0  0.00000000000E+00  0.00000000000E+00  0.26444038362E+03  0.26444038362E+03  0.00000000000E+00 0. -1.
         -1   -1    0    0    0  501 -0.00000000000E+00 -0.00000000000E+00 -0.23481734100E+03  0.23481734100E+03  0.00000000000E+00 0.  1.
         23    2    1    2    0    0  0.10067847579E+03 -0.18892007042E+03  0.10742131287E+03  0.25539568381E+03  0.88660410296E+02 0.  0.
         23    2    1    2    0    0 -0.10067847579E+03  0.18892007042E+03 -0.77798270253E+02  0.24386204081E+03  0.87115874548E+02 0.  0.
          5    1    4    4  502    0 -0.31319910637E+02  0.41457505072E+01 -0.77640328010E+00  0.31950224594E+02  0.47000000000E+01 0. -1.
         -5    1    4    4    0  502 -0.69358565151E+02  0.18477431991E+03 -0.77021866973E+02  0.21191181621E+03  0.47000000000E+01 0.  1.
          5    1    3    3  503    0  0.77819653849E+02 -0.11413644474E+03  0.22817962282E+02  0.14009202671E+03  0.47000000000E+01 0. -1.
         -5    1    3    3    0  503  0.22858821939E+02 -0.74783625676E+02  0.84603350592E+02  0.11530365710E+03  0.47000000000E+01 0.  1.
<mgrwt>
<rscale>  0 0.23155910E+03</rscale>
<asrwt>0</asrwt>
<pdfrwt beam="1">  1        1 0.40683136E-01 0.23170588E+03</pdfrwt>
<pdfrwt beam="2">  1       -1 0.36125745E-01 0.23170588E+03</pdfrwt>
<totfact> 0.76239098E+02</totfact>
</mgrwt>
</event>
<event>
 8    1  0.8174053E-004  0.1083919E+03  0.7546771E-02  0.1264456E+00
         -2   -1    0    0    0  501 -0.00000000000E+00  0.00000000000E+00  0.46492774859E+02  0.46492774859E+02  0.00000000000E+00 0.  1.
          2   -1    0    0  501    0  0.00000000000E+00 -0.00000000000E+00 -0.27820817079E+03  0.27820817079E+03  0.00000000000E+00 0. -1.
         23    2    1    2    0    0 -0.50828984776E+02  0.21514452443E+02 -0.63624822361E+02  0.12568582444E+03  0.93286392837E+02 0.  0.
         23    2    1    2    0    0  0.50828984776E+02 -0.21514452443E+02 -0.16809057357E+03  0.19901512120E+03  0.91137918496E+02 0.  0.
          5    1    4    4  502    0  0.17343012869E+02 -0.36499304779E+02 -0.15424969802E+03  0.15952441407E+03  0.47000000000E+01 0. -1.
         -5    1    4    4    0  502  0.33485971907E+02  0.14984852336E+02 -0.13840875550E+02  0.39490707136E+02  0.47000000000E+01 0.  1.
          5    1    3    3  503    0  0.52913415386E+01  0.46236149168E+02 -0.24648759379E+02  0.52871836776E+02  0.47000000000E+01 0. -1.
         -5    1    3    3    0  503 -0.56120326315E+02 -0.24721696725E+02 -0.38976062982E+02  0.72813987669E+02  0.47000000000E+01 0.  1.
<mgrwt>
<rscale>  0 0.10792809E+03</rscale>
<asrwt>0</asrwt>
<pdfrwt beam="1">  1        2 0.42801258E-01 0.10839192E+03</pdfrwt>
<pdfrwt beam="2">  1       -2 0.71527345E-02 0.10839192E+03</pdfrwt>
<totfact> 0.12356865E+04</totfact>
</mgrwt>
</event>
<event>
 8    1  0.8174053E-004  0.9766164E+02  0.7546771E-02  0.1286935E+00
          2   -1    0    0  501    0  0.00000000000E+00  0.00000000000E+00  0.11733636550E+03  0.11733636550E+03  0.00000000000E+00 0. -1.
         -2   -1    0    0    0  501 -0.00000000000E+00 -0.00000000000E+00 -0.97217616897E+02  0.97217616897E+02  0.00000000000E+00 0.  1.
         23    2    1    2    0    0 -0.29282844196E+02  0.11164994777E+02  0.56588970202E+02  0.11030489414E+03  0.89346046635E+02 0.  0.
         23    2    1    2    0    0  0.29282844196E+02 -0.11164994777E+02 -0.36470221594E+02  0.10424908827E+03  0.92496774369E+02 0.  0.
          5    1    3    3  502    0 -0.55235083510E+02 -0.55135885970E+01  0.56149977449E+02  0.79096296228E+02  0.47000000000E+01 0. -1.
         -5    1    3    3    0  502  0.25952239313E+02  0.16678583374E+02  0.43899275267E+00  0.31208597908E+02  0.47000000000E+01 0.  1.
          5    1    4    4  503    0  0.18345583104E+02  0.38261280483E+02 -0.31724270465E+02  0.53188394788E+02  0.47000000000E+01 0. -1.
         -5    1    4    4    0  503  0.10937261092E+02 -0.49426275260E+02 -0.47459511295E+01  0.51060693478E+02  0.47000000000E+01 0.  1.
<mgrwt>
<rscale>  0 0.96908289E+02</rscale>
<asrwt>0</asrwt>
<pdfrwt beam="1">  1        2 0.18051749E-01 0.97661637E+02</pdfrwt>
<pdfrwt beam="2">  1       -2 0.14956556E-01 0.97661637E+02</pdfrwt>
<totfact> 0.98350586E+03</totfact>
</mgrwt>
</event>
<event>
 8    1  0.8174053E-004  0.1359636E+03  0.7546771E-02  0.1219118E+00
          1   -1    0    0  501    0  0.00000000000E+00  0.00000000000E+00  0.15349205122E+03  0.15349205122E+03  0.00000000000E+00 0. -1.
         -1   -1    0    0    0  501 -0.00000000000E+00 -0.00000000000E+00 -0.19469766359E+03  0.19469766359E+03  0.00000000000E+00 0.  1.
         23    2    1    2    0    0  0.34663834910E+02  0.95247165557E+02 -0.12861483885E+03  0.18715734721E+03  0.90622799801E+02 0.  0.
         23    2    1    2    0    0 -0.34663834910E+02 -0.95247165557E+02  0.87409226476E+02  0.16103236761E+03  0.89540195147E+02 0.  0.
          5    1    3    3  502    0  0.11764258882E+01  0.55840991472E+02 -0.90144812508E+01  0.56771041727E+02  0.47000000000E+01 0. -1.
         -5    1    4    4    0  503 -0.45921384221E+02 -0.64059443930E+02  0.13789603146E+02  0.80153783693E+02  0.47000000000E+01 0.  1.
          5    1    4    4  503    0  0.11257549312E+02 -0.31187721627E+02  0.73619623330E+02  0.80878583915E+02  0.47000000000E+01 0. -1.
         -5    1    3    3    0  502  0.33487409022E+02  0.39406174085E+02 -0.11960035760E+03  0.13038630548E+03  0.47000000000E+01 0.  1.
<mgrwt>
<rscale>  0 0.13578343E+03</rscale>
<asrwt>0</asrwt>
<pdfrwt beam="1">  1        1 0.23614162E-01 0.13596358E+03</pdfrwt>
<pdfrwt beam="2">  1       -1 0.29953487E-01 0.13596358E+03</pdfrwt>
<totfact> 0.20556407E+03</totfact>
</mgrwt>
</event>
<event>
 8    1  0.8174053E-004  0.1029183E+03  0.7546771E-02  0.1275217E+00
         -1   -1    0    0    0  501 -0.00000000000E+00  0.00000000000E+00  0.11607429201E+03  0.11607429201E+03  0.00000000000E+00 0.  1.
          1   -1    0    0  501    0  0.00000000000E+00 -0.00000000000E+00 -0.28704650247E+03  0.28704650247E+03  0.00000000000E+00 0. -1.
         23    2    1    2    0    0 -0.14849739641E+02  0.38027666143E+02  0.81909428894E+02  0.13009826399E+03  0.92465050652E+02 0.  0.
         23    2    1    2    0    0  0.14849739641E+02 -0.38027666143E+02 -0.25288163936E+03  0.27302253048E+03  0.94475184400E+02 0.  0.
          5    1    3    3  502    0  0.31799349229E+02 -0.72542469744E+00  0.54726542279E+02  0.63472901952E+02  0.47000000000E+01 0. -1.
         -5    1    3    3    0  502 -0.46649088870E+02  0.38753090841E+02  0.27182886614E+02  0.66625362039E+02  0.47000000000E+01 0.  1.
          5    1    4    4  503    0 -0.34413012264E+02 -0.37762815924E+02 -0.15621942328E+03  0.16442896305E+03  0.47000000000E+01 0. -1.
         -5    1    4    4    0  503  0.49262751905E+02 -0.26485021884E+00 -0.96662216080E+02  0.10859356744E+03  0.47000000000E+01 0.  1.
<mgrwt>
<rscale>  0 0.10245467E+03</rscale>
<asrwt>0</asrwt>
<pdfrwt beam="1">  1        1 0.44161000E-01 0.10291831E+03</pdfrwt>
<pdfrwt beam="2">  1       -1 0.17857584E-01 0.10291831E+03</pdfrwt>
<totfact> 0.21703831E+03</totfact>
</mgrwt>
</event>
<event>
 8    1  0.8174053E-004  0.9085184E+02  0.7546771E-02  0.1301012E+00
         -1   -1    0    0    0  501 -0.00000000000E+00  0.00000000000E+00  0.23368844785E+02  0.23368844785E+02  0.00000000000E+00 0.  1.
          1   -1    0    0  501    0  0.00000000000E+00 -0.00000000000E+00 -0.37817147139E+03  0.37817147139E+03  0.00000000000E+00 0. -1.
         23    2    1    2    0    0  0.73422085663E+00 -0.10272656263E+02 -0.12410742196E+03  0.15360013489E+03  0.89912639303E+02 0.  0.
         23    2    1    2    0    0 -0.73422085663E+00  0.10272656263E+02 -0.23069520465E+03  0.24794018128E+03  0.90266214615E+02 0.  0.
          5    1    4    4  502    0 -0.21201339234E+02 -0.30318895166E+02 -0.15580716559E+03  0.16020828642E+03  0.47000000000E+01 0. -1.
         -5    1    3    3    0  503 -0.25423912131E+02  0.31505504055E+02 -0.61500355210E+02  0.73779101273E+02  0.47000000000E+01 0.  1.
          5    1    3    3  503    0  0.26158132987E+02 -0.41778160318E+02 -0.62607066747E+02  0.79821033616E+02  0.47000000000E+01 0. -1.
         -5    1    4    4    0  502  0.20467118377E+02  0.40591551429E+02 -0.74888039059E+02  0.87731894863E+02  0.47000000000E+01 0.  1.
<mgrwt>
<rscale>  0 0.90763886E+02</rscale>
<asrwt>0</asrwt>
<pdfrwt beam="1">  1        1 0.58180223E-01 0.90851836E+02</pdfrwt>
<pdfrwt beam="2">  1       -1 0.35952071E-02 0.90851836E+02</pdfrwt>
<totfact> 0.16989607E+04</totfact>
</mgrwt>
</event>
<event>
 8    1  0.8174053E-004  0.1005142E+03  0.7546771E-02  0.1296277E+00
          1   -1    0    0  501    0  0.00000000000E+00  0.00000000000E+00  0.17220164963E+03  0.17220164963E+03  0.00000000000E+00 0. -1.
         -1   -1    0    0    0  501 -0.00000000000E+00 -0.00000000000E+00 -0.45406401211E+02  0.45406401211E+02  0.00000000000E+00 0.  1.
         23    2    1    2    0    0 -0.31031220526E+02 -0.27903495904E+02  0.52130445373E+02  0.11322846492E+03  0.91441567142E+02 0.  0.
         23    2    1    2    0    0  0.31031220526E+02  0.27903495904E+02  0.74664803046E+02  0.10437958593E+03  0.59822432357E+02 0.  0.
          5    1    4    4  502    0  0.31991095777E+02 -0.94367865991E+01  0.24461130001E+02  0.41628356096E+02  0.47000000000E+01 0. -1.
         -5    1    3    3    0  503 -0.41618385909E+02  0.28258290998E+01 -0.98204336398E+01  0.43111556138E+02  0.47000000000E+01 0.  1.
          5    1    3    3  503    0  0.10587165383E+02 -0.30729325004E+02  0.61950879013E+02  0.70116908778E+02  0.47000000000E+01 0. -1.
         -5    1    4    4    0  502 -0.95987525147E+00  0.37340282503E+02  0.50203673045E+02  0.62751229830E+02  0.47000000000E+01 0.  1.
<mgrwt>
<rscale>  0 0.92770989E+02</rscale>
<asrwt>0</asrwt>
<pdfrwt beam="1">  1        1 0.26492561E-01 0.10051419E+03</pdfrwt>
<pdfrwt beam="2">  1       -1 0.69856003E-02 0.10051419E+03</pdfrwt>
<totfact> 0.17019343E+04</totfact>
</mgrwt>
</event>
<event>
 8    1  0.8174053E-004  0.1223135E+03  0.7546771E-02  0.1241859E+00
         -1   -1    0    0    0  501 -0.00000000000E+00  0.00000000000E+00  0.12092670042E+03  0.12092670042E+03  0.00000000000E+00 0.  1.
          1   -1    0    0  501    0  0.00000000000E+00 -0.00000000000E+00 -0.12232903059E+03  0.12232903059E+03  0.00000000000E+00 0. -1.
         23    2    1    2    0    0 -0.43675557733E+02 -0.31895594324E+02  0.23218104843E+02  0.11848889687E+03  0.10283800371E+03 0.  0.
         23    2    1    2    0    0  0.43675557733E+02  0.31895594324E+02 -0.24620435017E+02  0.12476683415E+03  0.10970740085E+03 0.  0.
          5    1    3    3  502    0 -0.34687086983E+02  0.47717021013E+00 -0.36017145839E+02  0.50226949829E+02  0.47000000000E+01 0. -1.
         -5    1    3    3    0  502 -0.89884707504E+01 -0.32372764534E+02  0.59235250682E+02  0.68261947037E+02  0.47000000000E+01 0.  1.
          5    1    4    4  503    0 -0.25332135028E+01  0.46694502476E+02 -0.50988285024E+02  0.69344710987E+02  0.47000000000E+01 0. -1.
         -5    1    4    4    0  503  0.46208771236E+02 -0.14798908152E+02  0.26367850007E+02  0.55422123161E+02  0.47000000000E+01 0.  1.
<mgrwt>
<rscale>  0 0.12075350E+03</rscale>
<asrwt>0</asrwt>
<pdfrwt beam="1">  1        1 0.18819851E-01 0.12231352E+03</pdfrwt>
<pdfrwt beam="2">  1       -1 0.18604108E-01 0.12231352E+03</pdfrwt>
<totfact> 0.59246634E+03</totfact>
</mgrwt>
</event>
<event>
 8    1  0.8174053E-004  0.1036483E+03  0.7546771E-02  0.1279135E+00
         -1   -1    0    0    0  501 -0.00000000000E+00  0.00000000000E+00  0.20849204549E+03  0.20849204549E+03  0.00000000000E+00 0.  1.
          1   -1    0    0  501    0  0.00000000000E+00 -0.00000000000E+00 -0.70975804039E+02  0.70975804039E+02  0.00000000000E+00 0. -1.
         23    2    1    2    0    0 -0.37802475723E+01 -0.22630932795E+02  0.15454915199E+03  0.18608713014E+03  0.10107685309E+03 0.  0.
         23    2    1    2    0    0  0.37802475723E+01  0.22630932795E+02 -0.17032910540E+02  0.93380719389E+02  0.88901008550E+02 0.  0.
          5    1    4    4  502    0 -0.50762663884E+01  0.51866905605E+02 -0.29482173046E+02  0.60060243963E+02  0.47000000000E+01 0. -1.
         -5    1    3    3    0  503 -0.23365532113E+02  0.26611516537E+02  0.18981555967E+02  0.40453805387E+02  0.47000000000E+01 0.  1.
          5    1    3    3  503    0  0.19585284541E+02 -0.49242449332E+02  0.13556759602E+03  0.14563332475E+03  0.47000000000E+01 0. -1.
         -5    1    4    4    0  502  0.88565139606E+01 -0.29235972810E+02  0.12449262506E+02  0.33320475426E+02  0.47000000000E+01 0.  1.
<mgrwt>
<rscale>  0 0.10055396E+03</rscale>
<asrwt>0</asrwt>
<pdfrwt beam="1">  1        1 0.10919355E-01 0.10364835E+03</pdfrwt>
<pdfrwt beam="2">  1       -1 0.32075699E-01 0.10364835E+03</pdfrwt>
<totfact> 0.48581970E+03</totfact>
</mgrwt>
</event>
